 running on    8 nodes
 distr:  one band on    1 nodes,    8 groups
 vasp.4.6.28 25Jul05 complex 
 POSCAR found :  1 types and    4 ions
 WARNING: PSMAXN for non-local potential too small
 LDA part: xc-table for Pade appr. of Perdew
 POSCAR, INCAR and KPOINTS ok, starting setup
 FFT: planning ...           1
 reading WAVECAR
 entering main loop
       N       E                     dE             d eps       ncg     rms          rms(c)
DAV:   1     0.625896121287E+03    0.62590E+03   -0.32198E+04 85120   0.236E+03
DAV:   2     0.712859382099E+01   -0.61877E+03   -0.57699E+03 85144   0.528E+02
DAV:   3    -0.133460456587E+02   -0.20475E+02   -0.20101E+02100008   0.118E+02
DAV:   4    -0.135443066685E+02   -0.19826E+00   -0.19814E+00 94208   0.958E+00
DAV:   5    -0.135462278136E+02   -0.19211E-02   -0.19210E-02101280   0.883E-01    0.591E+00
DAV:   6    -0.126474398286E+02    0.89879E+00   -0.16470E+00 97584   0.124E+01    0.176E+00
DAV:   7    -0.125546934245E+02    0.92746E-01   -0.17329E-01105400   0.341E+00    0.548E-01
DAV:   8    -0.125393484314E+02    0.15345E-01   -0.92945E-03 92160   0.848E-01    0.475E-02
DAV:   9    -0.125393741550E+02   -0.25724E-04   -0.25078E-04106744   0.126E-01    0.238E-02
DAV:  10    -0.125393841415E+02   -0.99865E-05   -0.19558E-05 95928   0.275E-02    0.205E-03
DAV:  11    -0.125393860962E+02   -0.19547E-05   -0.34056E-07100952   0.448E-03    0.384E-04
DAV:  12    -0.125393858594E+02    0.23681E-06   -0.13490E-08 80072   0.939E-04    0.124E-04
DAV:  13    -0.125393857442E+02    0.11521E-06   -0.15398E-09 62688   0.337E-04    0.162E-05
DAV:  14    -0.125393857542E+02   -0.10013E-07   -0.16977E-10 56872   0.108E-04    0.906E-06
DAV:  15    -0.125393857527E+02    0.14761E-08   -0.20711E-11 56312   0.409E-05
   1 F= -.12539386E+02 E0= -.12539340E+02  d E =-.908241E-04
