   4   4   0   0
  0.1607840E+02  0.4006523E-09  0.4006523E-09  0.4006523E-09  0.5000000E-15
  1.000000000000000E-004
  CAR 
 unknown system                          
     23.51076236     -5.26157595  301      6.55653244      1.00000000
     -5.262  0.0000E+00  0.0000E+00
     -5.166  0.0000E+00  0.0000E+00
     -5.070  0.0000E+00  0.0000E+00
     -4.974  0.0000E+00  0.0000E+00
     -4.878  0.0000E+00  0.0000E+00
     -4.782  0.0000E+00  0.0000E+00
     -4.686  0.0000E+00  0.0000E+00
     -4.590  0.0000E+00  0.0000E+00
     -4.494  0.0000E+00  0.0000E+00
     -4.398  0.0000E+00  0.0000E+00
     -4.302  0.0000E+00  0.0000E+00
     -4.207  0.0000E+00  0.0000E+00
     -4.111  0.0000E+00  0.0000E+00
     -4.015  0.0000E+00  0.0000E+00
     -3.919  0.1255E-01  0.1203E-02
     -3.823  0.7142E-01  0.9294E-02
     -3.727  0.1001E+00  0.2036E-01
     -3.631  0.1432E+00  0.3582E-01
     -3.535  0.1516E+00  0.5394E-01
     -3.439  0.1733E+00  0.7479E-01
     -3.343  0.1851E+00  0.9556E-01
     -3.248  0.2197E+00  0.1218E+00
     -3.152  0.2135E+00  0.1467E+00
     -3.056  0.2121E+00  0.1746E+00
     -2.960  0.2854E+00  0.2079E+00
     -2.864  0.2994E+00  0.2407E+00
     -2.768  0.3241E+00  0.2773E+00
     -2.672  0.2894E+00  0.3105E+00
     -2.576  0.3796E+00  0.3527E+00
     -2.480  0.3433E+00  0.3934E+00
     -2.384  0.3975E+00  0.4382E+00
     -2.288  0.4380E+00  0.4890E+00
     -2.193  0.4673E+00  0.5391E+00
     -2.097  0.4663E+00  0.5923E+00
     -2.001  0.5407E+00  0.6529E+00
     -1.905  0.5486E+00  0.7139E+00
     -1.809  0.5722E+00  0.7805E+00
     -1.713  0.6931E+00  0.8585E+00
     -1.617  0.6200E+00  0.9297E+00
     -1.521  0.8766E+00  0.1033E+01
     -1.425  0.1029E+01  0.1139E+01
     -1.329  0.1633E+01  0.1312E+01
     -1.233  0.2115E+01  0.1545E+01
     -1.138  0.2101E+01  0.1787E+01
     -1.042  0.2694E+01  0.2082E+01
     -0.946  0.2928E+01  0.2421E+01
     -0.850  0.3502E+01  0.2828E+01
     -0.754  0.4344E+01  0.3306E+01
     -0.658  0.4849E+01  0.3883E+01
     -0.562  0.5606E+01  0.4523E+01
     -0.466  0.6031E+01  0.5223E+01
     -0.370  0.5817E+01  0.5909E+01
     -0.274  0.5653E+01  0.6558E+01
     -0.178  0.5515E+01  0.7172E+01
     -0.083  0.5225E+01  0.7767E+01
      0.013  0.5121E+01  0.8352E+01
      0.109  0.4986E+01  0.8930E+01
      0.205  0.4306E+01  0.9437E+01
      0.301  0.3704E+01  0.9878E+01
      0.397  0.3291E+01  0.1027E+02
      0.493  0.4508E+01  0.1076E+02
      0.589  0.5351E+01  0.1136E+02
      0.685  0.5203E+01  0.1196E+02
      0.781  0.5896E+01  0.1261E+02
      0.877  0.5899E+01  0.1329E+02
      0.972  0.6017E+01  0.1397E+02
      1.068  0.5559E+01  0.1461E+02
      1.164  0.6250E+01  0.1533E+02
      1.260  0.5961E+01  0.1601E+02
      1.356  0.6396E+01  0.1675E+02
      1.452  0.6772E+01  0.1749E+02
      1.548  0.7537E+01  0.1835E+02
      1.644  0.7753E+01  0.1923E+02
      1.740  0.9189E+01  0.2026E+02
      1.836  0.1162E+02  0.2159E+02
      1.932  0.8246E+01  0.2255E+02
      2.027  0.6375E+01  0.2331E+02
      2.123  0.5388E+01  0.2393E+02
      2.219  0.5021E+01  0.2452E+02
      2.315  0.5119E+01  0.2512E+02
      2.411  0.4831E+01  0.2568E+02
      2.507  0.4513E+01  0.2622E+02
      2.603  0.4903E+01  0.2678E+02
      2.699  0.5656E+01  0.2742E+02
      2.795  0.5947E+01  0.2810E+02
      2.891  0.5966E+01  0.2880E+02
      2.986  0.6682E+01  0.2956E+02
      3.082  0.6554E+01  0.3033E+02
      3.178  0.5467E+01  0.3098E+02
      3.274  0.5711E+01  0.3165E+02
      3.370  0.5517E+01  0.3226E+02
      3.466  0.4964E+01  0.3282E+02
      3.562  0.4808E+01  0.3339E+02
      3.658  0.4788E+01  0.3393E+02
      3.754  0.4860E+01  0.3450E+02
      3.850  0.4797E+01  0.3505E+02
      3.946  0.4639E+01  0.3561E+02
      4.041  0.5536E+01  0.3623E+02
      4.137  0.5579E+01  0.3686E+02
      4.233  0.5865E+01  0.3755E+02
      4.329  0.8064E+01  0.3845E+02
      4.425  0.9511E+01  0.3951E+02
      4.521  0.8563E+01  0.4049E+02
      4.617  0.5730E+01  0.4117E+02
      4.713  0.4251E+01  0.4165E+02
      4.809  0.3398E+01  0.4202E+02
      4.905  0.1265E+01  0.4222E+02
      5.001  0.6386E+00  0.4231E+02
      5.096  0.1199E+01  0.4243E+02
      5.192  0.5709E+00  0.4252E+02
      5.288  0.1007E+01  0.4262E+02
      5.384  0.6538E+00  0.4272E+02
      5.480  0.9106E+00  0.4282E+02
      5.576  0.7838E+00  0.4293E+02
      5.672  0.8972E+00  0.4303E+02
      5.768  0.8839E+00  0.4314E+02
      5.864  0.8651E+00  0.4324E+02
      5.960  0.9409E+00  0.4335E+02
      6.056  0.7401E+00  0.4344E+02
      6.151  0.1013E+01  0.4356E+02
      6.247  0.7864E+00  0.4365E+02
      6.343  0.1179E+01  0.4377E+02
      6.439  0.7044E+00  0.4386E+02
      6.535  0.9546E+00  0.4396E+02
      6.631  0.7973E+00  0.4406E+02
      6.727  0.1015E+01  0.4417E+02
      6.823  0.8386E+00  0.4428E+02
      6.919  0.7960E+00  0.4437E+02
      7.015  0.1075E+01  0.4448E+02
      7.111  0.9146E+00  0.4459E+02
      7.206  0.6809E+00  0.4467E+02
      7.302  0.9594E+00  0.4478E+02
      7.398  0.8342E+00  0.4488E+02
      7.494  0.9979E+00  0.4498E+02
      7.590  0.9783E+00  0.4510E+02
      7.686  0.6444E+00  0.4518E+02
      7.782  0.9153E+00  0.4529E+02
      7.878  0.9574E+00  0.4539E+02
      7.974  0.8957E+00  0.4550E+02
      8.070  0.7843E+00  0.4558E+02
      8.166  0.9375E+00  0.4569E+02
      8.261  0.7590E+00  0.4578E+02
      8.357  0.8412E+00  0.4588E+02
      8.453  0.9083E+00  0.4598E+02
      8.549  0.8717E+00  0.4607E+02
      8.645  0.6922E+00  0.4615E+02
      8.741  0.8759E+00  0.4626E+02
      8.837  0.8163E+00  0.4635E+02
      8.933  0.6420E+00  0.4643E+02
      9.029  0.7685E+00  0.4651E+02
      9.125  0.8005E+00  0.4661E+02
      9.221  0.6955E+00  0.4669E+02
      9.316  0.7493E+00  0.4677E+02
      9.412  0.6803E+00  0.4685E+02
      9.508  0.7096E+00  0.4693E+02
      9.604  0.6115E+00  0.4701E+02
      9.700  0.6267E+00  0.4709E+02
      9.796  0.7513E+00  0.4718E+02
      9.892  0.6758E+00  0.4725E+02
      9.988  0.1960E+01  0.4748E+02
     10.084  0.1682E+01  0.4766E+02
     10.180  0.9699E+00  0.4778E+02
     10.275  0.1109E+01  0.4793E+02
     10.371  0.9706E+00  0.4805E+02
     10.467  0.1061E+01  0.4820E+02
     10.563  0.9501E+00  0.4830E+02
     10.659  0.1074E+01  0.4842E+02
     10.755  0.8813E+00  0.4853E+02
     10.851  0.9284E+00  0.4863E+02
     10.947  0.9304E+00  0.4874E+02
     11.043  0.8551E+00  0.4884E+02
     11.139  0.9194E+00  0.4893E+02
     11.235  0.9552E+00  0.4904E+02
     11.330  0.9038E+00  0.4915E+02
     11.426  0.1066E+01  0.4926E+02
     11.522  0.9361E+00  0.4937E+02
     11.618  0.8116E+00  0.4947E+02
     11.714  0.1186E+01  0.4960E+02
     11.810  0.8975E+00  0.4971E+02
     11.906  0.1103E+01  0.4983E+02
     12.002  0.1009E+01  0.4995E+02
     12.098  0.1245E+01  0.5009E+02
     12.194  0.1119E+01  0.5021E+02
     12.290  0.1059E+01  0.5033E+02
     12.385  0.1169E+01  0.5047E+02
     12.481  0.1321E+01  0.5061E+02
     12.577  0.1015E+01  0.5073E+02
     12.673  0.1181E+01  0.5086E+02
     12.769  0.1168E+01  0.5100E+02
     12.865  0.1078E+01  0.5112E+02
     12.961  0.1235E+01  0.5126E+02
     13.057  0.6449E+00  0.5134E+02
     13.153  0.1357E+01  0.5149E+02
     13.249  0.8403E+00  0.5158E+02
     13.345  0.8560E+00  0.5168E+02
     13.440  0.9098E+00  0.5179E+02
     13.536  0.8355E+00  0.5190E+02
     13.632  0.8801E+00  0.5200E+02
     13.728  0.6934E+00  0.5209E+02
     13.824  0.1038E+01  0.5220E+02
     13.920  0.9590E+00  0.5232E+02
     14.016  0.8636E+00  0.5241E+02
     14.112  0.1128E+01  0.5254E+02
     14.208  0.1079E+01  0.5267E+02
     14.304  0.1147E+01  0.5279E+02
     14.400  0.1169E+01  0.5293E+02
     14.495  0.1119E+01  0.5306E+02
     14.591  0.1049E+01  0.5318E+02
     14.687  0.1037E+01  0.5330E+02
     14.783  0.1389E+01  0.5346E+02
     14.879  0.1077E+01  0.5358E+02
     14.975  0.1128E+01  0.5371E+02
     15.071  0.1072E+01  0.5383E+02
     15.167  0.1063E+01  0.5397E+02
     15.263  0.1345E+01  0.5411E+02
     15.359  0.1186E+01  0.5425E+02
     15.455  0.1063E+01  0.5437E+02
     15.550  0.9743E+00  0.5448E+02
     15.646  0.1424E+01  0.5464E+02
     15.742  0.1231E+01  0.5477E+02
     15.838  0.1179E+01  0.5491E+02
     15.934  0.1278E+01  0.5504E+02
     16.030  0.1046E+01  0.5516E+02
     16.126  0.1039E+01  0.5529E+02
     16.222  0.1248E+01  0.5543E+02
     16.318  0.1409E+01  0.5559E+02
     16.414  0.1092E+01  0.5570E+02
     16.509  0.1182E+01  0.5584E+02
     16.605  0.1255E+01  0.5599E+02
     16.701  0.1505E+01  0.5617E+02
     16.797  0.1440E+01  0.5634E+02
     16.893  0.1460E+01  0.5651E+02
     16.989  0.1431E+01  0.5669E+02
     17.085  0.1561E+01  0.5686E+02
     17.181  0.1530E+01  0.5703E+02
     17.277  0.1841E+01  0.5724E+02
     17.373  0.1443E+01  0.5740E+02
     17.469  0.1699E+01  0.5759E+02
     17.564  0.1385E+01  0.5776E+02
     17.660  0.1419E+01  0.5792E+02
     17.756  0.1737E+01  0.5810E+02
     17.852  0.1687E+01  0.5829E+02
     17.948  0.1335E+01  0.5845E+02
     18.044  0.1406E+01  0.5862E+02
     18.140  0.1690E+01  0.5880E+02
     18.236  0.1359E+01  0.5896E+02
     18.332  0.1634E+01  0.5915E+02
     18.428  0.1464E+01  0.5931E+02
     18.524  0.1415E+01  0.5948E+02
     18.619  0.1463E+01  0.5964E+02
     18.715  0.1142E+01  0.5978E+02
     18.811  0.1772E+01  0.5998E+02
     18.907  0.1432E+01  0.6014E+02
     19.003  0.1388E+01  0.6029E+02
     19.099  0.1513E+01  0.6047E+02
     19.195  0.1612E+01  0.6064E+02
     19.291  0.1312E+01  0.6079E+02
     19.387  0.1710E+01  0.6097E+02
     19.483  0.1346E+01  0.6112E+02
     19.579  0.1534E+01  0.6129E+02
     19.674  0.9651E+00  0.6142E+02
     19.770  0.1468E+01  0.6159E+02
     19.866  0.1305E+01  0.6174E+02
     19.962  0.9894E+00  0.6186E+02
     20.058  0.1073E+01  0.6198E+02
     20.154  0.1185E+01  0.6211E+02
     20.250  0.8766E+00  0.6221E+02
     20.346  0.1174E+01  0.6234E+02
     20.442  0.8816E+00  0.6244E+02
     20.538  0.8769E+00  0.6254E+02
     20.634  0.8037E+00  0.6264E+02
     20.729  0.9320E+00  0.6275E+02
     20.825  0.7804E+00  0.6284E+02
     20.921  0.8651E+00  0.6293E+02
     21.017  0.6443E+00  0.6302E+02
     21.113  0.9054E+00  0.6312E+02
     21.209  0.9483E+00  0.6322E+02
     21.305  0.1459E+01  0.6339E+02
     21.401  0.1587E+01  0.6356E+02
     21.497  0.1158E+01  0.6370E+02
     21.593  0.8095E+00  0.6380E+02
     21.689  0.7169E+00  0.6389E+02
     21.784  0.4755E+00  0.6395E+02
     21.880  0.2827E+00  0.6398E+02
     21.976  0.7669E-01  0.6399E+02
     22.072  0.3499E-01  0.6400E+02
     22.168  0.3563E-01  0.6400E+02
     22.264  0.1073E-01  0.6400E+02
     22.360  0.0000E+00  0.6400E+02
     22.456  0.0000E+00  0.6400E+02
     22.552  0.0000E+00  0.6400E+02
     22.648  0.0000E+00  0.6400E+02
     22.744  0.0000E+00  0.6400E+02
     22.839  0.0000E+00  0.6400E+02
     22.935  0.0000E+00  0.6400E+02
     23.031  0.0000E+00  0.6400E+02
     23.127  0.0000E+00  0.6400E+02
     23.223  0.0000E+00  0.6400E+02
     23.319  0.0000E+00  0.6400E+02
     23.415  0.0000E+00  0.6400E+02
     23.511  0.0000E+00  0.6400E+02
