    4    4    1    1
  0.1607840E+02  0.4006523E-09  0.4006523E-09  0.4006523E-09  0.5000000E-15
  1.000000000000000E-004
  CAR 
 unknown system                          
   44 1330   32
 
  0.0000000E+00  0.0000000E+00  0.0000000E+00  0.2143347E-04
   1       -3.9537
   2       -1.1492
   3       -1.1492
   4       -1.1492
   5       -0.8097
   6       -0.8097
   7       -0.8097
   8        1.4613
   9        1.4613
  10        1.4613
  11        3.1449
  12        3.1449
  13        4.4288
  14        4.4288
  15        4.4288
  16        4.8331
  17        4.8331
  18        4.8331
  19        4.8331
  20        4.8331
  21        4.8331
  22        7.4046
  23        7.4046
  24        7.4046
  25       12.8507
  26       12.8507
  27       12.8507
  28       16.9592
  29       16.9592
  30       16.9592
  31       16.9592
  32       16.9592
 
  0.2777778E-01  0.0000000E+00  0.0000000E+00  0.1286008E-03
   1       -3.9442
   2       -1.1455
   3       -1.1426
   4       -1.1426
   5       -0.8061
   6       -0.8042
   7       -0.8042
   8        1.4560
   9        1.4658
  10        1.4658
  11        3.1391
  12        3.1471
  13        4.4206
  14        4.4206
  15        4.4262
  16        4.7889
  17        4.7889
  18        4.8230
  19        4.8230
  20        4.8331
  21        4.8331
  22        7.3350
  23        7.4550
  24        7.4550
  25       12.8399
  26       12.8399
  27       12.9360
  28       16.9448
  29       16.9448
  30       16.9511
  31       16.9513
  32       16.9797
 
  0.5555556E-01  0.0000000E+00  0.0000000E+00  0.1286008E-03
   1       -3.9155
   2       -1.1348
   3       -1.1229
   4       -1.1229
   5       -0.7952
   6       -0.7877
   7       -0.7877
   8        1.4403
   9        1.4792
  10        1.4792
  11        3.1221
  12        3.1538
  13        4.3961
  14        4.3961
  15        4.4181
  16        4.6658
  17        4.6658
  18        4.7930
  19        4.7930
  20        4.8332
  21        4.8332
  22        7.1383
  23        7.5968
  24        7.5968
  25       12.8080
  26       12.8080
  27       13.1800
  28       16.9017
  29       16.9017
  30       16.9275
  31       16.9275
  32       17.0409
 
  0.8333333E-01  0.0000000E+00  0.0000000E+00  0.1286008E-03
   1       -3.8678
   2       -1.1172
   3       -1.0903
   4       -1.0903
   5       -0.7772
   6       -0.7602
   7       -0.7602
   8        1.4142
   9        1.5016
  10        1.5016
  11        3.0940
  12        3.1649
  13        4.3555
  14        4.3555
  15        4.4049
  16        4.4843
  17        4.4843
  18        4.7439
  19        4.7439
  20        4.8332
  21        4.8332
  22        6.8436
  23        7.8092
  24        7.8092
  25       12.7566
  26       12.7566
  27       13.5538
  28       16.8302
  29       16.8302
  30       16.8909
  31       16.8909
  32       17.1419
 
  0.1111111E+00  0.0000000E+00  0.0000000E+00  0.1286008E-03
   1       -3.8014
   2       -1.0935
   3       -1.0452
   4       -1.0452
   5       -0.7521
   6       -0.7217
   7       -0.7217
   8        1.3782
   9        1.5329
  10        1.5329
  11        3.0552
  12        3.1804
  13        4.2650
  14        4.2650
  15        4.2993
  16        4.2993
  17        4.3865
  18        4.6767
  19        4.6767
  20        4.8333
  21        4.8333
  22        6.4825
  23        8.0717
  24        8.0717
  25       12.6883
  26       12.6883
  27       14.0262
  28       16.7309
  29       16.7309
  30       16.8444
  31       16.8444
  32       17.2816
 
  0.1388889E+00  0.0000000E+00  0.0000000E+00  0.1286008E-03
   1       -3.7164
   2       -1.0644
   3       -0.9881
   4       -0.9881
   5       -0.7200
   6       -0.6723
   7       -0.6723
   8        1.3327
   9        1.5729
  10        1.5729
  11        3.0064
  12        3.2002
  13        4.0233
  14        4.0233
  15        4.2281
  16        4.2281
  17        4.3632
  18        4.5930
  19        4.5930
  20        4.8335
  21        4.8335
  22        6.0813
  23        8.3686
  24        8.3686
  25       12.6062
  26       12.6062
  27       14.5715
  28       16.6044
  29       16.6044
  30       16.7917
  31       16.7917
  32       17.4582
 
  0.1666667E+00  0.0000000E+00  0.0000000E+00  0.1286008E-03
   1       -3.6134
   2       -1.0313
   3       -0.9197
   4       -0.9197
   5       -0.6811
   6       -0.6119
   7       -0.6119
   8        1.2784
   9        1.6217
  10        1.6217
  11        2.9483
  12        3.2241
  13        3.7694
  14        3.7694
  15        4.1429
  16        4.1429
  17        4.3351
  18        4.4945
  19        4.4945
  20        4.8336
  21        4.8336
  22        5.6592
  23        8.6896
  24        8.6896
  25       12.5140
  26       12.5140
  27       15.1713
  28       16.4516
  29       16.4516
  30       16.7358
  31       16.7358
  32       17.6696
 
  0.1944444E+00  0.0000000E+00  0.0000000E+00  0.1286008E-03
   1       -3.4927
   2       -0.9956
   3       -0.8411
   4       -0.8411
   5       -0.6356
   6       -0.5407
   7       -0.5407
   8        1.2158
   9        1.6792
  10        1.6792
  11        2.8821
  12        3.2520
  13        3.5098
  14        3.5098
  15        4.0449
  16        4.0449
  17        4.3026
  18        4.3832
  19        4.3832
  20        4.8338
  21        4.8338
  22        5.2302
  23        9.0276
  24        9.0276
  25       12.4154
  26       12.4154
  27       15.8126
  28       16.2737
  29       16.2737
  30       16.6797
  31       16.6797
  32       17.9137
 
  0.2222222E+00  0.0000000E+00  0.0000000E+00  0.1286008E-03
   1       -3.3552
   2       -0.9594
   3       -0.7534
   4       -0.7534
   5       -0.5835
   6       -0.4587
   7       -0.4587
   8        1.1457
   9        1.7451
  10        1.7451
  11        2.8088
  12        3.2490
  13        3.2490
  14        3.2837
  15        3.9359
  16        3.9359
  17        4.2609
  18        4.2609
  19        4.2660
  20        4.8046
  21        4.8340
  22        4.8340
  23        9.3782
  24        9.3782
  25       12.3143
  26       12.3143
  27       16.0719
  28       16.0719
  29       16.4866
  30       16.6252
  31       16.6252
  32       18.1880
 
  0.2500000E+00  0.0000000E+00  0.0000000E+00  0.1286008E-03
   1       -3.2017
   2       -0.9255
   3       -0.6582
   4       -0.6582
   5       -0.5253
   6       -0.3658
   7       -0.3658
   8        1.0689
   9        1.8195
  10        1.8195
  11        2.7299
  12        2.9898
  13        2.9898
  14        3.3191
  15        3.8178
  16        3.8178
  17        4.1296
  18        4.1296
  19        4.2256
  20        4.3906
  21        4.8342
  22        4.8342
  23        9.7378
  24        9.7378
  25       12.2142
  26       12.2142
  27       15.8475
  28       15.8475
  29       16.5739
  30       16.5739
  31       17.1869
  32       18.4901
 
  0.2777778E+00  0.0000000E+00  0.0000000E+00  0.1286008E-03
   1       -3.0331
   2       -0.8973
   3       -0.5575
   4       -0.5575
   5       -0.4611
   6       -0.2623
   7       -0.2623
   8        0.9863
   9        1.9019
  10        1.9019
  11        2.6474
  12        2.7342
  13        2.7342
  14        3.3580
  15        3.6934
  16        3.6934
  17        3.9914
  18        3.9914
  19        3.9954
  20        4.1817
  21        4.8344
  22        4.8344
  23       10.1041
  24       10.1041
  25       12.1180
  26       12.1180
  27       15.6020
  28       15.6020
  29       16.5268
  30       16.5268
  31       17.9086
  32       18.8174
 
  0.3055556E+00  0.0000000E+00  0.0000000E+00  0.1286008E-03
   1       -2.8510
   2       -0.8789
   3       -0.4535
   4       -0.4535
   5       -0.3913
   6       -0.1482
   7       -0.1482
   8        0.8987
   9        1.9924
  10        1.9924
  11        2.4837
  12        2.4837
  13        2.5632
  14        3.4000
  15        3.5657
  16        3.5657
  17        3.6255
  18        3.8479
  19        3.8479
  20        4.1349
  21        4.8346
  22        4.8346
  23       10.4750
  24       10.4750
  25       12.0284
  26       12.0284
  27       15.3371
  28       15.3371
  29       16.4844
  30       16.4844
  31       18.6477
  32       19.1674
 
  0.3333333E+00  0.0000000E+00  0.0000000E+00  0.1286008E-03
   1       -2.6571
   2       -0.8755
   3       -0.3492
   4       -0.3492
   5       -0.3162
   6       -0.0235
   7       -0.0235
   8        0.8070
   9        2.0905
  10        2.0905
  11        2.2394
  12        2.2394
  13        2.4799
  14        3.2878
  15        3.4387
  16        3.4387
  17        3.4449
  18        3.7009
  19        3.7009
  20        4.0854
  21        4.8348
  22        4.8348
  23       10.8489
  24       10.8489
  25       11.9475
  26       11.9475
  27       15.0543
  28       15.0543
  29       16.4473
  30       16.4473
  31       19.4003
  32       19.5375
 
  0.3611111E+00  0.0000000E+00  0.0000000E+00  0.1286008E-03
   1       -2.4536
   2       -0.8927
   3       -0.2484
   4       -0.2484
   5       -0.2363
   6        0.1116
   7        0.1116
   8        0.7122
   9        2.0021
  10        2.0021
  11        2.1960
  12        2.1960
  13        2.4006
  14        2.9889
  15        3.3166
  16        3.3166
  17        3.4925
  18        3.5519
  19        3.5519
  20        4.0337
  21        4.8350
  22        4.8350
  23       11.2242
  24       11.2242
  25       11.8769
  26       11.8769
  27       14.7554
  28       14.7554
  29       16.4156
  30       16.4156
  31       19.9251
  32       19.9251
 
  0.3888889E+00  0.0000000E+00  0.0000000E+00  0.1286008E-03
   1       -2.2435
   2       -0.9363
   3       -0.1553
   4       -0.1553
   5       -0.1520
   6        0.2571
   7        0.2571
   8        0.6150
   9        1.7725
  10        1.7725
  11        2.3087
  12        2.3087
  13        2.3291
  14        2.7351
  15        3.2048
  16        3.2048
  17        3.4022
  18        3.4022
  19        3.5424
  20        3.9803
  21        4.8351
  22        4.8351
  23       11.5996
  24       11.5996
  25       11.8178
  26       11.8178
  27       14.4420
  28       14.4420
  29       16.3895
  30       16.3895
  31       20.3276
  32       20.3276
 
  0.4166667E+00  0.0000000E+00  0.0000000E+00  0.1286008E-03
   1       -2.0305
   2       -1.0108
   3       -0.0748
   4       -0.0748
   5       -0.0637
   6        0.4127
   7        0.4127
   8        0.5163
   9        1.5510
  10        1.5510
  11        2.2698
  12        2.4279
  13        2.4279
  14        2.5314
  15        3.1090
  16        3.1090
  17        3.2533
  18        3.2533
  19        3.5943
  20        3.9256
  21        4.8352
  22        4.8352
  23       11.7711
  24       11.7711
  25       11.9737
  26       11.9737
  27       14.1156
  28       14.1156
  29       16.3691
  30       16.3691
  31       20.7423
  32       20.7423
 
  0.4444444E+00  0.0000000E+00  0.0000000E+00  0.1286008E-03
   1       -1.8192
   2       -1.1186
   3       -0.0122
   4       -0.0122
   5        0.0280
   6        0.4169
   7        0.5784
   8        0.5784
   9        1.3381
  10        1.3381
  11        2.2282
  12        2.3800
  13        2.5534
  14        2.5534
  15        3.0348
  16        3.0348
  17        3.1061
  18        3.1061
  19        3.6477
  20        3.8700
  21        4.8353
  22        4.8353
  23       11.7373
  24       11.7373
  25       12.3453
  26       12.3453
  27       13.7780
  28       13.7780
  29       16.3545
  30       16.3545
  31       21.1662
  32       21.1662
 
  0.4722222E+00  0.0000000E+00  0.0000000E+00  0.1286008E-03
   1       -1.6156
   2       -1.2585
   3        0.0277
   4        0.0277
   5        0.1226
   6        0.3177
   7        0.7540
   8        0.7540
   9        1.1341
  10        1.1341
  11        2.2110
  12        2.2796
  13        2.6846
  14        2.6846
  15        2.9617
  16        2.9617
  17        2.9878
  18        2.9878
  19        3.7024
  20        3.8140
  21        4.8353
  22        4.8353
  23       11.7169
  24       11.7169
  25       12.7128
  26       12.7128
  27       13.4306
  28       13.4306
  29       16.3457
  30       16.3457
  31       21.5963
  32       21.5963
 
  0.5000000E+00  0.0000000E+00  0.0000000E+00  0.6430041E-04
   1       -1.4263
   2       -1.4263
   3        0.0415
   4        0.0415
   5        0.2194
   6        0.2194
   7        0.9393
   8        0.9393
   9        0.9393
  10        0.9393
  11        2.2256
  12        2.2256
  13        2.8210
  14        2.8210
  15        2.8210
  16        2.8210
  17        2.9717
  18        2.9717
  19        3.7580
  20        3.7580
  21        4.8353
  22        4.8353
  23       11.7101
  24       11.7101
  25       13.0751
  26       13.0751
  27       13.0751
  28       13.0751
  29       16.3428
  30       16.3428
  31       22.0292
  32       22.0292
 
  0.2777778E-01  0.2777778E-01  0.0000000E+00  0.2572016E-03
   1       -3.9346
   2       -1.1389
   3       -1.1389
   4       -1.1361
   5       -0.8006
   6       -0.8006
   7       -0.7986
   8        1.4535
   9        1.4675
  10        1.4702
  11        3.1374
  12        3.1454
  13        4.4125
  14        4.4176
  15        4.4176
  16        4.7527
  17        4.7788
  18        4.7788
  19        4.8230
  20        4.8230
  21        4.8266
  22        7.3855
  23        7.3855
  24        7.5039
  25       12.8289
  26       12.9253
  27       12.9253
  28       16.8766
  29       16.9653
  30       16.9653
  31       16.9716
  32       16.9717
 
  0.5555556E-01  0.2777778E-01  0.0000000E+00  0.5144033E-03
   1       -3.9060
   2       -1.1282
   3       -1.1192
   4       -1.1166
   5       -0.7898
   6       -0.7841
   7       -0.7819
   8        1.4392
   9        1.4795
  10        1.4835
  11        3.1220
  12        3.1506
  13        4.3881
  14        4.3916
  15        4.4085
  16        4.6366
  17        4.6561
  18        4.7486
  19        4.7930
  20        4.8231
  21        4.8231
  22        7.1897
  23        7.5276
  24        7.6422
  25       12.7964
  26       12.8935
  27       13.1692
  28       16.7864
  29       16.9221
  30       16.9482
  31       17.0257
  32       17.0264
 
  0.8333333E-01  0.2777778E-01  0.0000000E+00  0.5144033E-03
   1       -3.8584
   2       -1.1106
   3       -1.0866
   4       -1.0845
   5       -0.7718
   6       -0.7566
   7       -0.7541
   8        1.4136
   9        1.5016
  10        1.5057
  11        3.0943
  12        3.1617
  13        4.3448
  14        4.3478
  15        4.3932
  16        4.4604
  17        4.4800
  18        4.6992
  19        4.7439
  20        4.8222
  21        4.8231
  22        6.8968
  23        7.7397
  24        7.8505
  25       12.7441
  26       12.8424
  27       13.5425
  28       16.6796
  29       16.8505
  30       16.9118
  31       17.0300
  32       17.1278
 
  0.1111111E+00  0.2777778E-01  0.0000000E+00  0.5144033E-03
   1       -3.7920
   2       -1.0868
   3       -1.0414
   4       -1.0401
   5       -0.7467
   6       -0.7182
   7       -0.7152
   8        1.3778
   9        1.5327
  10        1.5366
  11        3.0558
  12        3.1773
  13        4.2271
  14        4.2455
  15        4.2920
  16        4.3217
  17        4.3711
  18        4.6319
  19        4.6767
  20        4.8219
  21        4.8232
  22        6.5391
  23        8.0009
  24        8.1089
  25       12.6744
  26       12.7747
  27       14.0136
  28       16.5580
  29       16.7510
  30       16.8658
  31       17.0129
  32       17.2669
 
  0.1388889E+00  0.2777778E-01  0.0000000E+00  0.5144033E-03
   1       -3.7072
   2       -1.0577
   3       -0.9843
   4       -0.9838
   5       -0.7147
   6       -0.6688
   7       -0.6652
   8        1.3326
   9        1.5727
  10        1.5763
  11        3.0072
  12        3.1973
  13        3.9989
  14        4.0075
  15        4.2212
  16        4.2370
  17        4.3410
  18        4.5492
  19        4.5930
  20        4.8219
  21        4.8233
  22        6.1436
  23        8.2953
  24        8.4024
  25       12.5906
  26       12.6935
  27       14.5568
  28       16.4222
  29       16.6243
  30       16.8136
  31       16.9770
  32       17.4431
 
  0.1666667E+00  0.2777778E-01  0.0000000E+00  0.5144033E-03
   1       -3.6042
   2       -1.0244
   3       -0.9164
   4       -0.9159
   5       -0.6759
   6       -0.6086
   7       -0.6042
   8        1.2784
   9        1.6215
  10        1.6245
  11        2.9495
  12        3.2216
  13        3.7475
  14        3.7565
  15        4.1366
  16        4.1494
  17        4.2983
  18        4.4563
  19        4.4944
  20        4.8220
  21        4.8235
  22        5.7307
  23        8.6125
  24        8.7205
  25       12.4964
  26       12.6030
  27       15.1533
  28       16.2717
  29       16.4713
  30       16.7586
  31       16.9265
  32       17.6545
 
  0.1944444E+00  0.2777778E-01  0.0000000E+00  0.5144033E-03
   1       -3.4838
   2       -0.9887
   3       -0.8389
   4       -0.8372
   5       -0.6304
   6       -0.5375
   7       -0.5323
   8        1.2160
   9        1.6789
  10        1.6813
  11        2.8837
  12        3.2499
  13        3.4892
  14        3.4994
  15        4.0392
  16        4.0508
  17        4.2296
  18        4.3662
  19        4.3831
  20        4.8222
  21        4.8236
  22        5.3167
  23        8.9451
  24        9.0563
  25       12.3956
  26       12.5072
  27       15.7898
  28       16.1052
  29       16.2931
  30       16.7035
  31       16.8661
  32       17.8979
 
  0.2222222E+00  0.2777778E-01  0.0000000E+00  0.5144033E-03
   1       -3.3464
   2       -0.9524
   3       -0.7524
   4       -0.7494
   5       -0.5785
   6       -0.4555
   7       -0.4496
   8        1.1462
   9        1.7449
  10        1.7463
  11        2.8110
  12        3.2293
  13        3.2405
  14        3.2821
  15        3.9308
  16        3.9417
  17        4.1159
  18        4.2607
  19        4.2950
  20        4.8224
  21        4.8238
  22        4.9176
  23        9.2882
  24        9.4049
  25       12.2919
  26       12.4105
  27       15.9208
  28       16.0910
  29       16.4568
  30       16.6504
  31       16.8008
  32       18.1761
 
  0.2500000E+00  0.2777778E-01  0.0000000E+00  0.5144033E-03
   1       -3.1931
   2       -0.9185
   3       -0.6582
   4       -0.6540
   5       -0.5204
   6       -0.3629
   7       -0.3563
   8        1.0696
   9        1.8192
  10        1.8193
  11        2.7332
  12        2.9710
  13        2.9830
  14        3.3180
  15        3.8134
  16        3.8237
  17        3.9552
  18        4.1295
  19        4.2331
  20        4.5550
  21        4.8226
  22        4.8239
  23        9.6376
  24        9.7629
  25       12.1889
  26       12.3172
  27       15.7172
  28       15.8664
  29       16.6007
  30       16.7349
  31       17.1463
  32       18.4735
 
  0.2777778E+00  0.2777778E-01  0.0000000E+00  0.5144033E-03
   1       -3.0248
   2       -0.8901
   3       -0.5583
   4       -0.5531
   5       -0.4563
   6       -0.2595
   7       -0.2526
   8        0.9873
   9        1.8998
  10        1.9017
  11        2.6521
  12        2.7164
  13        2.7288
  14        3.3575
  15        3.6896
  16        3.6993
  17        3.7425
  18        3.9912
  19        4.1433
  20        4.2805
  21        4.8229
  22        4.8240
  23        9.9895
  24       10.1279
  25       12.0896
  26       12.2318
  27       15.4934
  28       15.6208
  29       16.5554
  30       16.6718
  31       17.8497
  32       18.7996
 
  0.3055556E+00  0.2777778E-01  0.0000000E+00  0.5144033E-03
   1       -2.8429
   2       -0.8717
   3       -0.4548
   4       -0.4489
   5       -0.3867
   6       -0.1456
   7       -0.1387
   8        0.8999
   9        1.9872
  10        1.9921
  11        2.4669
  12        2.4795
  13        2.5705
  14        3.4001
  15        3.4784
  16        3.5627
  17        3.5717
  18        3.8477
  19        3.9586
  20        4.1695
  21        4.8231
  22        4.8242
  23       10.3391
  24       10.4977
  25       11.9965
  26       12.1595
  27       15.2498
  28       15.3557
  29       16.5152
  30       16.6137
  31       18.5518
  32       19.1487
 
  0.3333333E+00  0.2777778E-01  0.0000000E+00  0.5144033E-03
   1       -2.6492
   2       -0.8682
   3       -0.3505
   4       -0.3445
   5       -0.3118
   6       -0.0211
   7       -0.0149
   8        0.8085
   9        2.0795
  10        2.0902
  11        2.2237
  12        2.2362
  13        2.4924
  14        3.1940
  15        3.4362
  16        3.4446
  17        3.4458
  18        3.7007
  19        3.7713
  20        4.1075
  21        4.8234
  22        4.8243
  23       10.6795
  24       10.8707
  25       11.9116
  26       12.1079
  27       14.9872
  28       15.0728
  29       16.4805
  30       16.5619
  31       19.2089
  32       19.5177
 
  0.3611111E+00  0.2777778E-01  0.0000000E+00  0.5144033E-03
   1       -2.4460
   2       -0.8854
   3       -0.2490
   4       -0.2434
   5       -0.2321
   6        0.1138
   7        0.1187
   8        0.7139
   9        1.9876
  10        1.9998
  11        2.1707
  12        2.1958
  13        2.4268
  14        2.9230
  15        3.3149
  16        3.3225
  17        3.4941
  18        3.5516
  19        3.6003
  20        4.0504
  21        4.8236
  22        4.8244
  23       10.9973
  24       11.2453
  25       11.8364
  26       12.0905
  27       14.7072
  28       14.7738
  29       16.4515
  30       16.5170
  31       19.7468
  32       19.9040
 
  0.3888889E+00  0.2777778E-01  0.0000000E+00  0.5144033E-03
   1       -2.2361
   2       -0.9290
   3       -0.1548
   4       -0.1501
   5       -0.1479
   6        0.2590
   7        0.2620
   8        0.6170
   9        1.7593
  10        1.7709
  11        2.2329
  12        2.3084
  13        2.4049
  14        2.6854
  15        3.2038
  16        3.2103
  17        3.4020
  18        3.4384
  19        3.5448
  20        3.9938
  21        4.8238
  22        4.8245
  23       11.2654
  24       11.6200
  25       11.7715
  26       12.1341
  27       14.4120
  28       14.4603
  29       16.4286
  30       16.4794
  31       20.1980
  32       20.3049
 
  0.4166667E+00  0.2777778E-01  0.0000000E+00  0.5144033E-03
   1       -2.0232
   2       -1.0035
   3       -0.0730
   4       -0.0695
   5       -0.0599
   6        0.4144
   7        0.4150
   8        0.5186
   9        1.5393
  10        1.5500
  11        2.2256
  12        2.4276
  13        2.4713
  14        2.4917
  15        3.1087
  16        3.1139
  17        3.2530
  18        3.2823
  19        3.5975
  20        3.9367
  21        4.8240
  22        4.8245
  23       11.4465
  24       11.7175
  25       11.9936
  26       12.2754
  27       14.1037
  28       14.1340
  29       16.4119
  30       16.4489
  31       20.6257
  32       20.7175
 
  0.4444444E+00  0.2777778E-01  0.0000000E+00  0.5144033E-03
   1       -1.8122
   2       -1.1114
   3       -0.0091
   4       -0.0068
   5        0.0316
   6        0.4195
   7        0.5780
   8        0.5798
   9        1.3281
  10        1.3377
  11        2.1974
  12        2.3468
  13        2.5531
  14        2.5824
  15        3.0355
  16        3.0391
  17        3.1058
  18        3.1310
  19        3.6520
  20        3.8793
  21        4.8242
  22        4.8245
  23       11.5388
  24       11.6740
  25       12.3647
  26       12.5156
  27       13.7853
  28       13.7965
  29       16.4015
  30       16.4257
  31       21.0474
  32       21.1388
 
  0.4722222E+00  0.2777778E-01  0.0000000E+00  0.5144033E-03
   1       -1.6086
   2       -1.2515
   3        0.0319
   4        0.0330
   5        0.1259
   6        0.3206
   7        0.7509
   8        0.7550
   9        1.1261
  10        1.1342
  11        2.1839
  12        2.2505
  13        2.6844
  14        2.7087
  15        2.9614
  16        2.9845
  17        2.9893
  18        2.9912
  19        3.7077
  20        3.8218
  21        4.8243
  22        4.8245
  23       11.5829
  24       11.6396
  25       12.7319
  26       12.8128
  27       13.4493
  28       13.4602
  29       16.3975
  30       16.4095
  31       21.4641
  32       21.5654
 
  0.5000000E+00  0.2777778E-01  0.0000000E+00  0.2572016E-03
   1       -1.4193
   2       -1.4193
   3        0.0464
   4        0.0464
   5        0.2225
   6        0.2225
   7        0.9336
   8        0.9336
   9        0.9399
  10        0.9399
  11        2.1985
  12        2.1985
  13        2.8207
  14        2.8207
  15        2.8434
  16        2.8434
  17        2.9741
  18        2.9741
  19        3.7645
  20        3.7645
  21        4.8244
  22        4.8244
  23       11.6115
  24       11.6115
  25       13.0939
  26       13.0939
  27       13.1332
  28       13.1332
  29       16.4001
  30       16.4001
  31       21.8705
  32       21.8754
 
  0.5555556E-01  0.5555556E-01  0.0000000E+00  0.2572016E-03
   1       -3.8774
   2       -1.1084
   3       -1.1084
   4       -1.0981
   5       -0.7733
   6       -0.7733
   7       -0.7646
   8        1.4306
   9        1.4860
  10        1.4965
  11        3.1155
  12        3.1475
  13        4.3643
  14        4.3778
  15        4.3778
  16        4.5417
  17        4.6279
  18        4.6279
  19        4.7931
  20        4.7931
  21        4.8074
  22        7.3330
  23        7.3330
  24        7.7717
  25       12.7622
  26       13.1373
  27       13.1373
  28       16.6462
  29       16.9829
  30       16.9829
  31       17.0099
  32       17.0099
 
  0.8333333E-01  0.5555556E-01  0.0000000E+00  0.5144033E-03
   1       -3.8300
   2       -1.0907
   3       -1.0757
   4       -1.0673
   5       -0.7555
   6       -0.7460
   7       -0.7359
   8        1.4087
   9        1.5045
  10        1.5180
  11        3.0925
  12        3.1546
  13        4.3122
  14        4.3248
  15        4.3529
  16        4.3849
  17        4.4678
  18        4.5829
  19        4.7439
  20        4.7931
  21        4.7980
  22        7.0435
  23        7.5450
  24        7.9690
  25       12.7070
  26       13.0861
  27       13.5091
  28       16.4965
  29       16.9110
  30       16.9744
  31       17.0835
  32       17.1121
 
  0.1111111E+00  0.5555556E-01  0.0000000E+00  0.5144033E-03
   1       -3.7639
   2       -1.0668
   3       -1.0303
   4       -1.0248
   5       -0.7306
   6       -0.7077
   7       -0.6957
   8        1.3749
   9        1.5341
  10        1.5480
  11        3.0559
  12        3.1695
  13        4.1605
  14        4.1851
  15        4.2701
  16        4.3133
  17        4.3420
  18        4.5254
  19        4.6766
  20        4.7931
  21        4.7934
  22        6.6926
  23        7.8036
  24        8.2169
  25       12.6333
  26       13.0185
  27       13.9767
  28       16.3404
  29       16.8109
  30       16.9297
  31       17.2161
  32       17.2223
 
  0.1388889E+00  0.5555556E-01  0.0000000E+00  0.5144033E-03
   1       -3.6794
   2       -1.0375
   3       -0.9730
   4       -0.9709
   5       -0.6988
   6       -0.6586
   7       -0.6441
   8        1.3309
   9        1.5733
  10        1.5864
  11        3.0087
  12        3.1898
  13        3.9355
  14        3.9589
  15        4.2008
  16        4.2526
  17        4.2538
  18        4.4621
  19        4.5928
  20        4.7911
  21        4.7931
  22        6.3079
  23        8.0925
  24        8.5010
  25       12.5445
  26       12.9384
  27       14.5136
  28       16.1795
  29       16.6836
  30       16.8794
  31       17.2278
  32       17.3978
 
  0.1666667E+00  0.5555556E-01  0.0000000E+00  0.5144033E-03
   1       -3.5769
   2       -1.0040
   3       -0.9063
   4       -0.9044
   5       -0.6602
   6       -0.5986
   7       -0.5814
   8        1.2777
   9        1.6216
  10        1.6330
  11        2.9523
  12        3.2148
  13        3.6872
  14        3.7173
  15        4.1177
  16        4.1632
  17        4.1642
  18        4.4001
  19        4.4942
  20        4.7899
  21        4.7932
  22        5.9109
  23        8.4010
  24        8.8112
  25       12.4443
  26       12.8500
  27       15.1004
  28       16.0139
  29       16.5299
  30       16.8271
  31       17.2149
  32       17.6080
 
  0.1944444E+00  0.5555556E-01  0.0000000E+00  0.5144033E-03
   1       -3.4569
   2       -0.9680
   3       -0.8319
   4       -0.8254
   5       -0.6150
   6       -0.5278
   7       -0.5076
   8        1.2162
   9        1.6788
  10        1.6876
  11        2.8879
  12        3.2442
  13        3.4311
  14        3.4677
  15        4.0221
  16        4.0418
  17        4.0651
  18        4.3416
  19        4.3828
  20        4.7894
  21        4.7932
  22        5.5190
  23        8.7216
  24        9.1404
  25       12.3366
  26       12.7582
  27       15.7230
  28       15.8428
  29       16.3511
  30       16.7753
  31       17.1807
  32       17.8519
 
  0.2222222E+00  0.5555556E-01  0.0000000E+00  0.5144033E-03
   1       -3.3201
   2       -0.9315
   3       -0.7485
   4       -0.7373
   5       -0.5635
   6       -0.4462
   7       -0.4232
   8        1.1472
   9        1.7445
  10        1.7497
  11        2.8172
  12        3.1733
  13        3.2149
  14        3.2778
  15        3.8888
  16        3.9156
  17        3.9562
  18        4.2604
  19        4.2829
  20        4.7892
  21        4.7932
  22        5.1476
  23        9.0487
  24        9.4836
  25       12.2254
  26       12.6682
  27       15.6644
  28       16.1483
  29       16.3702
  30       16.7263
  31       17.1296
  32       18.1226
 
  0.2500000E+00  0.5555556E-01  0.0000000E+00  0.5144033E-03
   1       -3.1673
   2       -0.8972
   3       -0.6573
   4       -0.6415
   5       -0.5057
   6       -0.3540
   7       -0.3285
   8        1.0715
   9        1.8187
  10        1.8189
  11        2.7421