   4   4   0   0
  0.1914389E+02  0.4246489E-09  0.4246489E-09  0.4246489E-09  0.5000000E-15
  1.000000000000000E-004
  CAR 
 unknown system                          
     13.75282446     -5.27065029  301      2.62034679      1.00000000
     -5.271  0.0000E+00  0.0000E+00
     -5.207  0.0000E+00  0.0000E+00
     -5.144  0.0000E+00  0.0000E+00
     -5.080  0.0000E+00  0.0000E+00
     -5.017  0.0000E+00  0.0000E+00
     -4.954  0.0000E+00  0.0000E+00
     -4.890  0.0000E+00  0.0000E+00
     -4.827  0.0000E+00  0.0000E+00
     -4.763  0.0000E+00  0.0000E+00
     -4.700  0.0000E+00  0.0000E+00
     -4.637  0.0000E+00  0.0000E+00
     -4.573  0.0000E+00  0.0000E+00
     -4.510  0.0000E+00  0.0000E+00
     -4.446  0.1051E-09  0.6664E-11
     -4.383  0.1824E-01  0.1157E-02
     -4.319  0.1093E+00  0.8086E-02
     -4.256  0.2178E+00  0.2192E-01
     -4.193  0.1449E+00  0.3118E-01
     -4.129  0.1073E+00  0.3806E-01
     -4.066  0.4334E+00  0.6554E-01
     -4.002  0.4422E+00  0.9358E-01
     -3.939  0.2472E-09  0.9375E-01
     -3.876  0.2187E+00  0.1076E+00
     -3.812  0.5471E+00  0.1423E+00
     -3.749  0.4379E+00  0.1701E+00
     -3.685  0.4831E+00  0.2008E+00
     -3.622  0.1041E+00  0.2074E+00
     -3.559  0.9821E+00  0.2696E+00
     -3.495  0.3290E+00  0.2905E+00
     -3.432  0.4106E+00  0.3165E+00
     -3.368  0.5683E+00  0.3526E+00
     -3.305  0.1091E+01  0.4218E+00
     -3.241  0.5682E+00  0.4578E+00
     -3.178  0.1639E+01  0.5617E+00
     -3.115  0.3173E+01  0.7630E+00
     -3.051  0.7847E+01  0.1261E+01
     -2.988  0.8990E+01  0.1831E+01
     -2.924  0.1084E+02  0.2519E+01
     -2.861  0.1345E+02  0.3371E+01
     -2.798  0.1118E+02  0.4081E+01
     -2.734  0.2367E+02  0.5582E+01
     -2.671  0.1371E+02  0.6452E+01
     -2.607  0.1605E+02  0.7470E+01
     -2.544  0.1368E+02  0.8338E+01
     -2.481  0.1030E+02  0.8991E+01
     -2.417  0.1226E+02  0.9769E+01
     -2.354  0.8999E+01  0.1034E+02
     -2.290  0.1244E+02  0.1113E+02
     -2.227  0.9174E+01  0.1171E+02
     -2.163  0.1417E+02  0.1261E+02
     -2.100  0.1291E+02  0.1343E+02
     -2.037  0.1457E+02  0.1435E+02
     -1.973  0.1275E+02  0.1516E+02
     -1.910  0.1094E+02  0.1586E+02
     -1.846  0.1403E+02  0.1675E+02
     -1.783  0.1360E+02  0.1761E+02
     -1.720  0.2235E+02  0.1903E+02
     -1.656  0.2427E+02  0.2057E+02
     -1.593  0.1483E+02  0.2151E+02
     -1.529  0.2001E+02  0.2278E+02
     -1.466  0.1085E+02  0.2347E+02
     -1.403  0.9530E+01  0.2407E+02
     -1.339  0.1816E+02  0.2522E+02
     -1.276  0.1038E+02  0.2588E+02
     -1.212  0.1247E+02  0.2667E+02
     -1.149  0.1476E+02  0.2761E+02
     -1.085  0.1811E+02  0.2876E+02
     -1.022  0.1698E+02  0.2983E+02
     -0.959  0.1616E+02  0.3086E+02
     -0.895  0.1386E+02  0.3174E+02
     -0.832  0.1087E+02  0.3243E+02
     -0.768  0.1200E+02  0.3319E+02
     -0.705  0.1441E+02  0.3410E+02
     -0.642  0.1389E+02  0.3498E+02
     -0.578  0.1285E+02  0.3580E+02
     -0.515  0.1684E+02  0.3687E+02
     -0.451  0.1861E+02  0.3805E+02
     -0.388  0.2397E+02  0.3957E+02
     -0.325  0.1427E+02  0.4047E+02
     -0.261  0.1178E+02  0.4122E+02
     -0.198  0.1838E+01  0.4134E+02
     -0.134  0.5064E-02  0.4134E+02
     -0.071  0.8683E+00  0.4139E+02
     -0.007  0.2723E-14  0.4139E+02
      0.056  0.8925E+00  0.4145E+02
      0.119  0.2611E+01  0.4161E+02
      0.183  0.1308E+01  0.4170E+02
      0.246  0.8735E+00  0.4175E+02
      0.310  0.4378E+00  0.4178E+02
      0.373  0.4369E+00  0.4181E+02
      0.436  0.1243E+01  0.4189E+02
      0.500  0.7091E-01  0.4189E+02
      0.563  0.3637E-07  0.4189E+02
      0.627  0.1275E+01  0.4197E+02
      0.690  0.2148E+01  0.4211E+02
      0.753  0.8471E+00  0.4216E+02
      0.817  0.9672E+00  0.4222E+02
      0.880  0.1987E+01  0.4235E+02
      0.944  0.5503E+00  0.4239E+02
      1.007  0.6804E-02  0.4239E+02
      1.071  0.8693E+00  0.4244E+02
      1.134  0.4381E+00  0.4247E+02
      1.197  0.4360E+00  0.4250E+02
      1.261  0.1364E+01  0.4258E+02
      1.324  0.2276E+01  0.4273E+02
      1.388  0.7650E+00  0.4278E+02
      1.451  0.1434E+01  0.4287E+02
      1.514  0.2203E-01  0.4287E+02
      1.578  0.1455E+01  0.4296E+02
      1.641  0.7172E+00  0.4301E+02
      1.705  0.4846E+00  0.4304E+02
      1.768  0.1369E+01  0.4312E+02
      1.831  0.8793E+00  0.4318E+02
      1.895  0.1901E-05  0.4318E+02
      1.958  0.1514E+01  0.4328E+02
      2.022  0.1644E+01  0.4338E+02
      2.085  0.1449E+01  0.4347E+02
      2.149  0.1289E+01  0.4355E+02
      2.212  0.4517E+00  0.4358E+02
      2.275  0.5634E+00  0.4362E+02
      2.339  0.2781E+01  0.4379E+02
      2.402  0.1034E+01  0.4386E+02
      2.466  0.7271E-01  0.4386E+02
      2.529  0.1752E+01  0.4398E+02
      2.592  0.1106E-02  0.4398E+02
      2.656  0.4369E+00  0.4400E+02
      2.719  0.6004E+00  0.4404E+02
      2.783  0.2540E+01  0.4420E+02
      2.846  0.1822E+01  0.4432E+02
      2.909  0.5775E+00  0.4436E+02
      2.973  0.1674E+01  0.4446E+02
      3.036  0.1667E+01  0.4457E+02
      3.100  0.1319E+01  0.4465E+02
      3.163  0.1293E+01  0.4473E+02
      3.227  0.0000E+00  0.4473E+02
      3.290  0.3304E-01  0.4473E+02
      3.353  0.1719E+01  0.4484E+02
      3.417  0.1592E+01  0.4494E+02
      3.480  0.1909E+01  0.4507E+02
      3.544  0.9447E-02  0.4507E+02
      3.607  0.9295E+00  0.4513E+02
      3.670  0.1455E+01  0.4522E+02
      3.734  0.1770E+01  0.4533E+02
      3.797  0.5366E+00  0.4536E+02
      3.861  0.1312E+01  0.4545E+02
      3.924  0.1588E+01  0.4555E+02
      3.987  0.1485E+01  0.4564E+02
      4.051  0.4511E+00  0.4567E+02
      4.114  0.1295E+01  0.4575E+02
      4.178  0.3530E-12  0.4575E+02
      4.241  0.1657E+01  0.4586E+02
      4.304  0.6016E+00  0.4590E+02
      4.368  0.1300E+01  0.4598E+02
      4.431  0.7195E+00  0.4602E+02
      4.495  0.1965E+01  0.4615E+02
      4.558  0.1182E+01  0.4622E+02
      4.622  0.1822E+01  0.4634E+02
      4.685  0.4381E+00  0.4637E+02
      4.748  0.8352E+00  0.4642E+02
      4.812  0.1487E+01  0.4652E+02
      4.875  0.8867E+00  0.4657E+02
      4.939  0.1249E+01  0.4665E+02
      5.002  0.1598E+00  0.4666E+02
      5.065  0.1280E+01  0.4674E+02
      5.129  0.1127E-01  0.4674E+02
      5.192  0.1313E+01  0.4683E+02
      5.256  0.7229E+00  0.4687E+02
      5.319  0.5912E+00  0.4691E+02
      5.382  0.8015E+00  0.4696E+02
      5.446  0.8046E+00  0.4701E+02
      5.509  0.1941E+01  0.4713E+02
      5.573  0.6779E+00  0.4718E+02
      5.636  0.1766E+01  0.4729E+02
      5.700  0.8707E+00  0.4734E+02
      5.763  0.1314E+01  0.4743E+02
      5.826  0.4368E+00  0.4746E+02
      5.890  0.1752E+01  0.4757E+02
      5.953  0.1315E+01  0.4765E+02
      6.017  0.2684E+01  0.4782E+02
      6.080  0.1258E+01  0.4790E+02
      6.143  0.5003E+00  0.4793E+02
      6.207  0.1254E+01  0.4801E+02
      6.270  0.8806E+00  0.4807E+02
      6.334  0.6541E+00  0.4811E+02
      6.397  0.2613E+01  0.4827E+02
      6.460  0.1576E+01  0.4837E+02
      6.524  0.2273E+01  0.4852E+02
      6.587  0.7592E+00  0.4857E+02
      6.651  0.8761E+00  0.4862E+02
      6.714  0.2904E+01  0.4881E+02
      6.778  0.1042E+01  0.4887E+02
      6.841  0.1577E+01  0.4897E+02
      6.904  0.1047E+01  0.4904E+02
      6.968  0.0000E+00  0.4904E+02
      7.031  0.2038E-01  0.4904E+02
      7.095  0.1557E+01  0.4914E+02
      7.158  0.6389E+00  0.4918E+02
      7.221  0.3864E+01  0.4942E+02
      7.285  0.1717E+01  0.4953E+02
      7.348  0.1106E+00  0.4954E+02
      7.412  0.9678E+00  0.4960E+02
      7.475  0.1765E+01  0.4971E+02
      7.538  0.1387E+01  0.4980E+02
      7.602  0.8165E+00  0.4985E+02
      7.665  0.8760E+00  0.4991E+02
      7.729  0.1750E+01  0.5002E+02
      7.792  0.1090E+01  0.5009E+02
      7.856  0.2240E+00  0.5010E+02
      7.919  0.1785E+01  0.5022E+02
      7.982  0.1649E+01  0.5032E+02
      8.046  0.9111E+00  0.5038E+02
      8.109  0.1338E+01  0.5047E+02
      8.173  0.5871E+00  0.5050E+02
      8.236  0.1169E+01  0.5058E+02
      8.299  0.1075E+01  0.5064E+02
      8.363  0.2414E+01  0.5080E+02
      8.426  0.5451E+00  0.5083E+02
      8.490  0.1073E+01  0.5090E+02
      8.553  0.2841E+01  0.5108E+02
      8.616  0.1525E+01  0.5118E+02
      8.680  0.1422E+00  0.5119E+02
      8.743  0.1829E+01  0.5130E+02
      8.807  0.9662E+00  0.5136E+02
      8.870  0.1990E+01  0.5149E+02
      8.934  0.4386E+00  0.5152E+02
      8.997  0.7716E+00  0.5157E+02
      9.060  0.2269E+01  0.5171E+02
      9.124  0.3134E+01  0.5191E+02
      9.187  0.3523E+01  0.5213E+02
      9.251  0.2276E+01  0.5228E+02
      9.314  0.1690E+01  0.5238E+02
      9.377  0.1365E+01  0.5247E+02
      9.441  0.1273E+01  0.5255E+02
      9.504  0.1324E+01  0.5264E+02
      9.568  0.1652E+01  0.5274E+02
      9.631  0.1025E+00  0.5275E+02
      9.694  0.8732E+00  0.5280E+02
      9.758  0.8711E+00  0.5286E+02
      9.821  0.3198E+01  0.5306E+02
      9.885  0.2084E+01  0.5319E+02
      9.948  0.3584E+01  0.5342E+02
     10.012  0.7005E+00  0.5346E+02
     10.075  0.1817E+01  0.5358E+02
     10.138  0.2592E+01  0.5374E+02
     10.202  0.1724E+01  0.5385E+02
     10.265  0.8774E+00  0.5391E+02
     10.329  0.1301E+01  0.5399E+02
     10.392  0.9249E+00  0.5405E+02
     10.455  0.3415E+01  0.5427E+02
     10.519  0.2353E+01  0.5442E+02
     10.582  0.1219E+01  0.5449E+02
     10.646  0.1406E+01  0.5458E+02
     10.709  0.9409E-03  0.5458E+02
     10.772  0.1319E+01  0.5467E+02
     10.836  0.1182E+01  0.5474E+02
     10.899  0.1643E+01  0.5484E+02
     10.963  0.1462E+01  0.5494E+02
     11.026  0.1955E+01  0.5506E+02
     11.090  0.3192E+01  0.5526E+02
     11.153  0.1220E+01  0.5534E+02
     11.216  0.3918E+00  0.5537E+02
     11.280  0.1360E+01  0.5545E+02
     11.343  0.8516E+00  0.5551E+02
     11.407  0.8640E+00  0.5556E+02
     11.470  0.9122E+00  0.5562E+02
     11.533  0.3942E-08  0.5562E+02
     11.597  0.1678E+01  0.5573E+02
     11.660  0.9449E+00  0.5579E+02
     11.724  0.6554E+00  0.5583E+02
     11.787  0.1303E-03  0.5583E+02
     11.850  0.1686E+00  0.5584E+02
     11.914  0.5251E+00  0.5587E+02
     11.977  0.8758E+00  0.5593E+02
     12.041  0.8761E+00  0.5598E+02
     12.104  0.0000E+00  0.5598E+02
     12.168  0.0000E+00  0.5598E+02
     12.231  0.0000E+00  0.5598E+02
     12.294  0.0000E+00  0.5598E+02
     12.358  0.0000E+00  0.5598E+02
     12.421  0.0000E+00  0.5598E+02
     12.485  0.8861E-07  0.5598E+02
     12.548  0.1095E+00  0.5599E+02
     12.611  0.0000E+00  0.5599E+02
     12.675  0.0000E+00  0.5599E+02
     12.738  0.9715E-08  0.5599E+02
     12.802  0.1825E-01  0.5599E+02
     12.865  0.8105E-04  0.5599E+02
     12.928  0.1459E+00  0.5600E+02
     12.992  0.0000E+00  0.5600E+02
     13.055  0.0000E+00  0.5600E+02
     13.119  0.0000E+00  0.5600E+02
     13.182  0.0000E+00  0.5600E+02
     13.246  0.0000E+00  0.5600E+02
     13.309  0.0000E+00  0.5600E+02
     13.372  0.0000E+00  0.5600E+02
     13.436  0.0000E+00  0.5600E+02
     13.499  0.0000E+00  0.5600E+02
     13.563  0.0000E+00  0.5600E+02
     13.626  0.0000E+00  0.5600E+02
     13.689  0.0000E+00  0.5600E+02
     13.753  0.0000E+00  0.5600E+02
