    4    4    1    1
  0.1914389E+02  0.4246489E-09  0.4246489E-09  0.4246489E-09  0.5000000E-15
  1.000000000000000E-004
  CAR 
 unknown system                          
   44   84   28
 
  0.0000000E+00  0.0000000E+00  0.0000000E+00  0.5787037E-03
   1       -4.4059
   2       -3.2179
   3       -3.2179
   4       -3.2179
   5       -3.1191
   6       -3.1191
   7       -3.1191
   8       -1.8964
   9       -1.8964
  10       -1.8964
  11       -1.0548
  12       -1.0548
  13       -0.4333
  14       -0.4333
  15       -0.4333
  16       -0.2375
  17       -0.2375
  18       -0.2375
  19       -0.2375
  20       -0.2375
  21       -0.2375
  22        4.2699
  23        4.2699
  24        4.2699
  25        8.4509
  26        8.4509
  27        8.4509
  28       12.7727
 
  0.8333333E-01  0.0000000E+00  0.0000000E+00  0.3472222E-02
   1       -4.3396
   2       -3.1926
   3       -3.1851
   4       -3.1851
   5       -3.1001
   6       -3.0899
   7       -3.0899
   8       -1.9193
   9       -1.8744
  10       -1.8744
  11       -1.0776
  12       -1.0447
  13       -0.4636
  14       -0.4636
  15       -0.4444
  16       -0.3410
  17       -0.3410
  18       -0.2748
  19       -0.2747
  20       -0.2374
  21       -0.2374
  22        3.7824
  23        4.4305
  24        4.4305
  25        8.4643
  26        8.4643
  27        9.0477
  28       12.5185
 
  0.1666667E+00  0.0000000E+00  0.0000000E+00  0.3472222E-02
   1       -4.1438
   2       -3.1201
   3       -3.0910
   4       -3.0910
   5       -3.0441
   6       -3.0025
   7       -3.0025
   8       -1.9861
   9       -1.8088
  10       -1.8088
  11       -1.1414
  12       -1.0148
  13       -0.6121
  14       -0.6121
  15       -0.5511
  16       -0.5511
  17       -0.4767
  18       -0.3815
  19       -0.3815
  20       -0.2373
  21       -0.2373
  22        2.7643
  23        4.8720
  24        4.8720
  25        8.5057
  26        8.5057
  27       10.3942
  28       11.8563
 
  0.2500000E+00  0.0000000E+00  0.0000000E+00  0.3472222E-02
   1       -3.8311
   2       -3.0106
   3       -2.9539
   4       -2.9492
   5       -2.9492
   6       -2.8575
   7       -2.8575
   8       -2.0910
   9       -1.7018
  10       -1.7018
  11       -1.2294
  12       -0.9739
  13       -0.9739
  14       -0.9671
  15       -0.6845
  16       -0.6845
  17       -0.5437
  18       -0.5437
  19       -0.5278
  20       -0.2371
  21       -0.2371
  22        1.6532
  23        5.5153
  24        5.5153
  25        8.5776
  26        8.5776
  27       10.9912
  28       10.9912
 
  0.3333333E+00  0.0000000E+00  0.0000000E+00  0.3472222E-02
   1       -3.4344
   2       -2.8855
   3       -2.8346
   4       -2.7860
   5       -2.7860
   6       -2.6561
   7       -2.6561
   8       -2.2250
   9       -1.5566
  10       -1.5566
  11       -1.3642
  12       -1.3642
  13       -1.3020
  14       -0.9045
  15       -0.8400
  16       -0.8400
  17       -0.7428
  18       -0.7428
  19       -0.5939
  20       -0.2369
  21       -0.2369
  22        0.6066
  23        6.2940
  24        6.2940
  25        8.6786
  26        8.6786
  27       10.0387
  28       10.0387
 
  0.4166667E+00  0.0000000E+00  0.0000000E+00  0.3472222E-02
   1       -3.0390
   2       -2.7871
   3       -2.6928
   4       -2.6459
   5       -2.6459
   6       -2.4004
   7       -2.4004
   8       -2.3774
   9       -1.7449
  10       -1.7449
  11       -1.3788
  12       -1.3788
  13       -1.2652
  14       -0.9749
  15       -0.9749
  16       -0.9594
  17       -0.9594
  18       -0.8308
  19       -0.6700
  20       -0.2938
  21       -0.2367
  22       -0.2367
  23        7.1637
  24        7.1637
  25        8.7885
  26        8.7885
  27        9.0612
  28        9.0612
 
  0.5000000E+00  0.0000000E+00  0.0000000E+00  0.1736111E-02
   1       -2.8032
   2       -2.8032
   3       -2.5882
   4       -2.5882
   5       -2.5371
   6       -2.5371
   7       -2.0944
   8       -2.0944
   9       -2.0944
  10       -2.0944
  11       -1.1761
  12       -1.1761
  13       -1.1761
  14       -1.1761
  15       -1.0307
  16       -1.0307
  17       -0.9518
  18       -0.9518
  19       -0.7509
  20       -0.7509
  21       -0.2367
  22       -0.2367
  23        8.0942
  24        8.0942
  25        8.0942
  26        8.0942
  27        8.8435
  28        8.8435
 
  0.8333333E-01  0.8333333E-01  0.0000000E+00  0.6944444E-02
   1       -4.2741
   2       -3.1596
   3       -3.1596
   4       -3.1591
   5       -3.0713
   6       -3.0713
   7       -3.0552
   8       -1.9275
   9       -1.8665
  10       -1.8538
  11       -1.0836
  12       -1.0493
  13       -0.4927
  14       -0.4899
  15       -0.4899
  16       -0.4125
  17       -0.3634
  18       -0.3634
  19       -0.2748
  20       -0.2748
  21       -0.2634
  22        3.9344
  23        3.9344
  24        4.5852
  25        8.4773
  26        9.0693
  27        9.0693
  28       11.7063
 
  0.1666667E+00  0.8333333E-01  0.0000000E+00  0.1388889E-01
   1       -4.0811
   2       -3.0864
   3       -3.0816
   4       -3.0649
   5       -3.0164
   6       -2.9851
   7       -2.9549
   8       -1.9856
   9       -1.8080
  10       -1.7932
  11       -1.1386
  12       -1.0214
  13       -0.6941
  14       -0.6568
  15       -0.5768
  16       -0.5764
  17       -0.5165
  18       -0.4176
  19       -0.3818
  20       -0.2763
  21       -0.2750
  22        2.9110
  23        4.3468
  24        5.0136
  25        8.5156
  26        9.1350
  27       10.4199
  28       10.7883
 
  0.2500000E+00  0.8333333E-01  0.0000000E+00  0.1388889E-01
   1       -3.7733
   2       -2.9758
   3       -2.9562
   4       -2.9282
   5       -2.9221
   6       -2.8422
   7       -2.7996
   8       -2.0862
   9       -1.7025
  10       -1.6987
  11       -1.2168
  12       -1.0383
  13       -1.0013
  14       -0.9676
  15       -0.7260
  16       -0.7054
  17       -0.6627
  18       -0.5445
  19       -0.4869
  20       -0.2788
  21       -0.2754
  22        1.8055
  23        4.9352
  24        5.6430
  25        8.5677
  26        9.2431
  27        9.8944
  28       11.0882
 
  0.3333333E+00  0.8333333E-01  0.0000000E+00  0.1388889E-01
   1       -3.3836
   2       -2.8485
   3       -2.8114
   4       -2.7955
   5       -2.7576
   6       -2.6437
   7       -2.6041
   8       -2.2163
   9       -1.5953
  10       -1.5580
  11       -1.4150
  12       -1.3787
  13       -1.2534
  14       -0.9240
  15       -0.8948
  16       -0.8553
  17       -0.8239
  18       -0.7439
  19       -0.5685
  20       -0.2789
  21       -0.2760
  22        0.7760
  23        5.6290
  24        6.4101
  25        8.5069
  26        9.1989
  27        9.3702
  28       10.1345
 
  0.4166667E+00  0.8333333E-01  0.0000000E+00  0.1388889E-01
   1       -2.9948
   2       -2.7473
   3       -2.6728
   4       -2.6390
   5       -2.6171
   6       -2.3921
   7       -2.3766
   8       -2.3648
   9       -1.7784
  10       -1.7496
  11       -1.5206
  12       -1.3804
  13       -1.1528
  14       -1.1282
  15       -0.9838
  16       -0.9660
  17       -0.9608
  18       -0.8035
  19       -0.6654
  20       -0.2783
  21       -0.2767
  22       -0.0885
  23        6.3812
  24        7.2710
  25        7.9324
  26        9.1098
  27        9.1584
  28        9.4158
 
  0.5000000E+00  0.8333333E-01  0.0000000E+00  0.6944444E-02
   1       -2.7613
   2       -2.7613
   3       -2.5645
   4       -2.5645
   5       -2.5206
   6       -2.5206
   7       -2.1036
   8       -2.1036
   9       -2.0917
  10       -2.0917
  11       -1.3802
  12       -1.3802
  13       -1.1777
  14       -1.1777
  15       -1.0313
  16       -1.0313
  17       -0.8335
  18       -0.8335
  19       -0.6452
  20       -0.6452
  21       -0.2775
  22       -0.2775
  23        7.1603
  24        7.1603
  25        8.1953
  26        8.1953
  27        9.2809
  28        9.2809
 
  0.1666667E+00  0.1666667E+00  0.0000000E+00  0.6944444E-02
   1       -3.8967
   2       -3.0334
   3       -2.9897
   4       -2.9897
   5       -2.9338
   6       -2.9338
   7       -2.8361
   8       -2.0092
   9       -1.7791
  10       -1.7481
  11       -1.1598
  12       -1.0059
  13       -0.8421
  14       -0.8421
  15       -0.8184
  16       -0.6517
  17       -0.5069
  18       -0.5069
  19       -0.3830
  20       -0.3830
  21       -0.3399
  22        3.3007
  23        3.3007
  24        5.4112
  25        8.5266
  26        9.7403
  27       10.4878
  28       10.4878
 
  0.2500000E+00  0.1666667E+00  0.0000000E+00  0.1388889E-01
   1       -3.6046
   2       -2.9351
   3       -2.8753
   4       -2.8513
   5       -2.8436
   6       -2.7969
   7       -2.6713
   8       -2.0835
   9       -1.6922
  10       -1.6849
  11       -1.2142
  12       -1.1854
  13       -1.0951
  14       -1.0275
  15       -0.9341
  16       -0.7670
  17       -0.6405
  18       -0.5467
  19       -0.5401
  20       -0.3848
  21       -0.3741
  22        2.1951
  23        3.8439
  24        6.0067
  25        8.3125
  26        9.0315
  27       10.5366
  28       11.3720
 
  0.3333333E+00  0.1666667E+00  0.0000000E+00  0.1388889E-01
   1       -3.2375
   2       -2.7907
   3       -2.7425
   4       -2.7418
   5       -2.6747
   6       -2.6075
   7       -2.4842
   8       -2.1960
   9       -1.6477
  10       -1.5557
  11       -1.5400
  12       -1.4269
  13       -1.2389
  14       -1.2164
  15       -0.9018
  16       -0.8150
  17       -0.8017
  18       -0.7471
  19       -0.6132
  20       -0.3871
  21       -0.3870
  22        1.1790
  23        4.4783
  24        6.7443
  25        7.5463
  26        9.0162
  27       10.3573
  28       10.4144
 
  0.4166667E+00  0.1666667E+00  0.0000000E+00  0.1388889E-01
   1       -2.8703
   2       -2.6324
   3       -2.6207
   4       -2.6136
   5       -2.5328
   6       -2.3684
   7       -2.3300
   8       -2.3030
   9       -1.8641
  10       -1.7659
  11       -1.6649
  12       -1.4573
  13       -1.3818
  14       -1.0844
  15       -1.0135
  16       -0.9644
  17       -0.9543
  18       -0.7258
  19       -0.6283
  20       -0.3910
  21       -0.3892
  22        0.3292
  23        5.1725
  24        6.7085
  25        7.5821
  26        9.2256
  27        9.4423
  28        9.9464
 
  0.5000000E+00  0.1666667E+00  0.0000000E+00  0.6944444E-02
   1       -2.6420
   2       -2.6420
   3       -2.5006
   4       -2.5006
   5       -2.4729
   6       -2.4729
   7       -2.1198
   8       -2.1198
   9       -2.0849
  10       -2.0849
  11       -1.6251
  12       -1.6251
  13       -1.1808
  14       -1.1808
  15       -1.0401
  16       -1.0401
  17       -0.8866
  18       -0.8866
  19       -0.3910
  20       -0.3910
  21       -0.2816
  22       -0.2816
  23        5.9157
  24        5.9157
  25        8.4897
  26        8.4897
  27        9.5430
  28        9.5430
 
  0.2500000E+00  0.2500000E+00  0.0000000E+00  0.6944444E-02
   1       -3.3412
   2       -2.8665
   3       -2.7245
   4       -2.7245
   5       -2.7227
   6       -2.7227
   7       -2.5050
   8       -2.1107
   9       -1.6608
  10       -1.6407
  11       -1.3690
  12       -1.3690
  13       -1.2727
  14       -1.2568
  15       -0.8638
  16       -0.8156
  17       -0.6565
  18       -0.6565
  19       -0.5500
  20       -0.5500
  21       -0.4635
  22        2.7218
  23        2.7218
  24        6.5623
  25        7.4036
  26        8.9725
  27       11.6008
  28       11.6008
 
  0.3333333E+00  0.2500000E+00  0.0000000E+00  0.1388889E-01
   1       -3.0168
   2       -2.7498
   3       -2.6296
   4       -2.5784
   5       -2.5501
   6       -2.5450
   7       -2.3273
   8       -2.1808
   9       -1.6985
  10       -1.6669
  11       -1.5654
  12       -1.5313
  13       -1.5211
  14       -1.2699
  15       -0.9789
  16       -0.8105
  17       -0.7510
  18       -0.7217
  19       -0.6136
  20       -0.5533
  21       -0.5178
  22        1.6967
  23        3.3308
  24        6.4364
  25        7.2629
  26        9.1442
  27       10.8592
  28       10.9287
 
  0.4166667E+00  0.2500000E+00  0.0000000E+00  0.1388889E-01
   1       -2.6928
   2       -2.5912
   3       -2.5184
   4       -2.4560
   5       -2.4004
   6       -2.3323
   7       -2.2823
   8       -2.1824
   9       -1.9727
  10       -1.8009
  11       -1.7479
  12       -1.7432
  13       -1.3728
  14       -1.1681
  15       -1.0706
  16       -0.9682
  17       -0.9672
  18       -0.8381
  19       -0.5554
  20       -0.5437
  21       -0.3095
  22        0.8270
  23        4.0032
  24        5.5464
  25        8.0703
  26        9.4240
  27        9.8926
  28       10.3148
 
  0.5000000E+00  0.2500000E+00  0.0000000E+00  0.6944444E-02
   1       -2.4700
   2       -2.4700
   3       -2.4243
   4       -2.4243
   5       -2.3992
   6       -2.3992
   7       -2.1074
   8       -2.1074
   9       -2.0784
  10       -2.0784
  11       -1.8170
  12       -1.8170
  13       -1.1798
  14       -1.1798
  15       -1.0735
  16       -1.0735
  17       -0.9986
  18       -0.9986
  19       -0.5536
  20       -0.5536
  21        0.1550
  22        0.1550
  23        4.7386
  24        4.7386
  25        8.9549
  26        8.9549
  27        9.8118
  28        9.8118
 
  0.3333333E+00  0.3333333E+00  0.0000000E+00  0.6944444E-02
   1       -2.7593
   2       -2.6679
   3       -2.4764
   4       -2.4764
   5       -2.3838
   6       -2.3838
   7       -2.1919
   8       -2.1602
   9       -1.8629
  10       -1.8629
  11       -1.6703
  12       -1.6694
  13       -1.4617
  14       -1.3404
  15       -1.0765
  16       -0.8700
  17       -0.8700
  18       -0.7533
  19       -0.7533
  20       -0.6278
  21       -0.3122
  22        2.2869
  23        2.2869
  24        5.4116
  25        7.9271
  26        9.3787
  27       11.4423
  28       11.4425
 
  0.4166667E+00  0.3333333E+00  0.0000000E+00  0.1388889E-01
   1       -2.5431
   2       -2.5127
   3       -2.3931
   4       -2.2895
   5       -2.2447
   6       -2.2377
   7       -2.2375
   8       -2.0752
   9       -2.0328
  10       -1.9865
  11       -1.8649
  12       -1.7517
  13       -1.3366
  14       -1.2955
  15       -1.1566
  16       -1.0291
  17       -0.9855
  18       -0.9642
  19       -0.7501
  20       -0.6984
  21        0.0989
  22        1.3872
  23        2.9429
  24        4.4920
  25        8.7028
  26        9.7157
  27       10.4829
  28       10.7404
 
  0.5000000E+00  0.3333333E+00  0.0000000E+00  0.6944444E-02
   1       -2.3774
   2       -2.3774
   3       -2.3134
   4       -2.3134
   5       -2.3095
   6       -2.3095
   7       -2.0797
   8       -2.0797
   9       -2.0212
  10       -2.0212
  11       -1.9083
  12       -1.9083
  13       -1.1651
  14       -1.1651
  15       -1.1465
  16       -1.1465
  17       -1.1439
  18       -1.1439
  19       -0.7351
  20       -0.7351
  21        0.6566
  22        0.6566
  23        3.6733
  24        3.6733
  25        9.5623
  26        9.5623
  27       10.1661
  28       10.1661
 
  0.4166667E+00  0.4166667E+00  0.0000000E+00  0.6944444E-02
   1       -2.4666
   2       -2.3784
   3       -2.2480
   4       -2.2480
   5       -2.2138
   6       -2.2028
   7       -2.2028
   8       -2.0165
   9       -2.0165
  10       -1.9656
  11       -1.8993
  12       -1.7276
  13       -1.3791
  14       -1.2554
  15       -1.2474
  16       -1.1439
  17       -1.1439
  18       -0.9473
  19       -0.9473
  20       -0.8233
  21        0.6067
  22        2.0177
  23        2.0177
  24        3.5557
  25        9.4492
  26       10.1123
  27       11.1868
  28       11.2111
 
  0.5000000E+00  0.4166667E+00  0.0000000E+00  0.6944444E-02
   1       -2.3538
   2       -2.3538
   3       -2.2847
   4       -2.2847
   5       -2.2189
   6       -2.2189
   7       -2.0988
   8       -2.0988
   9       -1.8796
  10       -1.8796
  11       -1.8355
  12       -1.8355
  13       -1.2924
  14       -1.2924
  15       -1.2580
  16       -1.2580
  17       -1.1225
  18       -1.1225
  19       -0.9046
  20       -0.9046
  21        1.2399
  22        1.2399
  23        2.7349
  24        2.7349
  25       10.2841
  26       10.2841
  27       10.6253
  28       10.6253
 
  0.5000000E+00  0.5000000E+00  0.0000000E+00  0.1736111E-02
   1       -2.3229
   2       -2.3229
   3       -2.3229
   4       -2.3229
   5       -2.1449
   6       -2.1449
   7       -2.1449
   8       -2.1449
   9       -1.7754
  10       -1.7754
  11       -1.7754
  12       -1.7754
  13       -1.3509
  14       -1.3509
  15       -1.3509
  16       -1.3509
  17       -1.0374
  18       -1.0374
  19       -1.0374
  20       -1.0374
  21        1.9266
  22        1.9266
  23        1.9266
  24        1.9266
  25       11.0962
  26       11.0962
  27       11.0962
  28       11.0962
 
  0.8333333E-01  0.8333333E-01  0.8333333E-01  0.4629630E-02
   1       -4.2097
   2       -3.1344
   3       -3.1344
   4       -3.1344
   5       -3.0361
   6       -3.0361
   7       -3.0361
   8       -1.9324
   9       -1.8479
  10       -1.8479
  11       -1.0708
  12       -1.0708
  13       -0.5189
  14       -0.5189
  15       -0.5189
  16       -0.4527
  17       -0.4527
  18       -0.4527
  19       -0.2827
  20       -0.2827
  21       -0.2827
  22        4.0797
  23        4.0797
  24        4.0797
  25        9.0894
  26        9.0894
  27        9.0894
  28       11.8092
 
  0.1666667E+00  0.8333333E-01  0.8333333E-01  0.1388889E-01
   1       -4.0201
   2       -3.0642
   3       -3.0584
   4       -3.0584
   5       -2.9789
   6       -2.9350
   7       -2.9350
   8       -1.9811
   9       -1.7960
  10       -1.7925
  11       -1.1289
  12       -1.0330
  13       -0.7210
  14       -0.7210
  15       -0.5976
  16       -0.5780
  17       -0.5780
  18       -0.5688
  19       -0.3353
  20       -0.2945
  21       -0.2945
  22        3.0488
  23        4.4771
  24        4.4771
  25        9.1446
  26        9.1446
  27       10.4366
  28       10.8977
 
  0.2500000E+00  0.8333333E-01  0.8333333E-01  0.1388889E-01
   1       -3.7187
   2       -2.9610
   3       -2.9342
   4       -2.9342
   5       -2.8842
   6       -2.7800
   7       -2.7800
   8       -2.0753
   9       -1.7017
  10       -1.7013
  11       -1.1982
  12       -1.0591
  13       -1.0591
  14       -0.9728
  15       -0.7480
  16       -0.7247
  17       -0.7012
  18       -0.7012
  19       -0.4105
  20       -0.3030
  21       -0.3030
  22        1.9432
  23        5.0496
  24        5.0496
  25        9.1772
  26        9.1772
  27       10.0709
  28       10.0709
 
  0.3333333E+00  0.8333333E-01  0.8333333E-01  0.1388889E-01
   1       -3.3391
   2       -2.8443
   3       -2.7730
   4       -2.7730
   5       -2.7579
   6       -2.5881
   7       -2.5881
   8       -2.1989
   9       -1.6133
  10       -1.5782
  11       -1.4245
  12       -1.4245
  13       -1.2001
  14       -0.9746
  15       -0.8940
  16       -0.8879
  17       -0.8495
  18       -0.8495
  19       -0.5000
  20       -0.3078
  21       -0.3078
  22        0.9167
  23        5.7302
  24        5.7302
  25        8.7993
  26        8.7993
  27        9.7643
  28        9.7643
 
  0.4166667E+00  0.8333333E-01  0.8333333E-01  0.1388889E-01
   1       -2.9631
   2       -2.7428
   3       -2.6203
   4       -2.6131
   5       -2.6131
   6       -2.3719
   7       -2.3719
   8       -2.3391
   9       -1.7746
  10       -1.7746
  11       -1.5728
  12       -1.4265
  13       -1.2285
  14       -1.0697
  15       -1.0115
  16       -0.9823
  17       -0.9823
  18       -0.8015
  19       -0.5986
  20       -0.3101
  21       -0.3101
  22        0.0470
  23        6.4731
  24        6.4731
  25        8.0417
  26        8.0417
  27        9.9359
  28        9.9359
 
  0.5000000E+00  0.8333333E-01  0.8333333E-01  0.6944444E-02
   1       -2.7428
   2       -2.7428
   3       -2.5409
   4       -2.5409
   5       -2.4826
   6       -2.4826
   7       -2.1715
   8       -2.1715
   9       -2.0281
  10       -2.0281
  11       -1.4591
  12       -1.4591
  13       -1.2537
  14       -1.2537
  15       -1.0384
  16       -1.0384
  17       -0.7011
  18       -0.7011
  19       -0.6024
  20       -0.6024
  21       -0.3107
  22       -0.3107
  23        7.2331
  24        7.2331
  25        7.2665
  26        7.2665
  27       10.0858
  28       10.0858
 
  0.1666667E+00  0.1666667E+00  0.8333333E-01  0.1388889E-01
   1       -3.8416
   2       -3.0138
   3       -2.9939
   4       -2.9939
   5       -2.8746
   6       -2.8746
   7       -2.8143
   8       -1.9928
   9       -1.7726
  10       -1.7531
  11       -1.1370
  12       -1.0248
  13       -0.8601
  14       -0.8601
  15       -0.8585
  16       -0.6974
  17       -0.6344
  18       -0.6344
  19       -0.3401
  20       -0.3401
  21       -0.3322
  22        3.4195
  23        3.4195
  24        4.8395
  25        9.0966
  26        9.9389
  27       10.4229
  28       10.4229
 
  0.2500000E+00  0.1666667E+00  0.8333333E-01  0.2777778E-01
   1       -3.5608
   2       -2.9185
   3       -2.9016
   4       -2.8744
   5       -2.7723
   6       -2.7192
   7       -2.6499
   8       -2.0538
   9       -1.6990
  10       -1.6916
  11       -1.1973
  12       -1.1803
  13       -1.1361
  14       -1.0434
  15       -0.9504
  16       -0.8025
  17       -0.7600
  18       -0.7260
  19       -0.4042
  20       -0.3662
  21       -0.3649
  22        2.3059
  23        3.9446
  24        5.3728
  25        8.5178
  26        9.6498
  27        9.9483
  28       10.9741
 
  0.3333333E+00  0.1666667E+00  0.8333333E-01  0.2777778E-01
   1       -3.2136
   2       -2.7986
   3       -2.7761
   4       -2.7133
   5       -2.6358
   6       -2.5360
   7       -2.4677
   8       -2.1509
   9       -1.6563
  10       -1.5903
  11       -1.5384
  12       -1.4580
  13       -1.2571
  14       -1.1459
  15       -0.9298
  16       -0.9236
  17       -0.8569
  18       -0.8331
  19       -0.4892
  20       -0.3885
  21       -0.3853
  22        1.2779
  23        4.5649
  24        6.0177
  25        7.6386
  26        9.1255
  27        9.8320
  28       11.1032
 
  0.4166667E+00  0.1666667E+00  0.8333333E-01  0.2777778E-01
   1       -2.8791
   2       -2.7072
   3       -2.6043
   4       -2.5413
   5       -2.4905
   6       -2.3580
   7       -2.3092
   8       -2.2613
   9       -1.8345
  10       -1.7657
  11       -1.6812
  12       -1.4793
  13       -1.4552
  14       -1.1153
  15       -1.0325
  16       -0.9913
  17       -0.9557
  18       -0.6494
  19       -0.5992
  20       -0.3994
  21       -0.3972
  22        0.4018
  23        5.2491
  24        6.6846
  25        6.8357
  26        8.2970
  27       10.1673
  28       11.0533
 
  0.5000000E+00  0.1666667E+00  0.8333333E-01  0.1388889E-01
   1       -2.6950
   2       -2.6950
   3       -2.4777
   4       -2.4777
   5       -2.3687
   6       -2.3687
   7       -2.2412
   8       -2.2412
   9       -1.9631
  10       -1.9631
  11       -1.6473
  12       -1.6473
  13       -1.2949
  14       -1.2949
  15       -1.0657
  16       -1.0657
  17       -0.7442
  18       -0.7442
  19       -0.4017
  20       -0.4017
  21       -0.2623
  22       -0.2623
  23        5.9858
  24        5.9858
  25        7.5023
  26        7.5023
  27       10.6105
  28       10.6105
 
  0.2500000E+00  0.2500000E+00  0.8333333E-01  0.1388889E-01
   1       -3.3188
   2       -2.8550
   3       -2.7927
   4       -2.7927
   5       -2.6131
   6       -2.6131
   7       -2.4855
   8       -2.0531
   9       -1.6674
  10       -1.6639
  11       -1.3737
  12       -1.3737
  13       -1.2984
  14       -1.2079
  15       -0.9211
  16       -0.8364
  17       -0.8175
  18       -0.8175
  19       -0.4448
  20       -0.4448
  21       -0.4339
  22        2.8100
  23        2.8100
  24        5.8563
  25        7.4932
  26        9.7711
  27       10.4575
  28       10.4575
 
  0.3333333E+00  0.2500000E+00  0.8333333E-01  0.2777778E-01
   1       -3.0325
   2       -2.7437
   3       -2.7067
   4       -2.6395
   5       -2.4671
   6       -2.4365
   7       -2.3179
   8       -2.0899
   9       -1.6815
  10       -1.6702
  11       -1.5858
  12       -1.5634
  13       -1.5283
  14       -1.1865
  15       -1.0306
  16       -0.9680
  17       -0.9151
  18       -0.6362
  19       -0.5415
  20       -0.4908
  21       -0.4876
  22        1.7681
  23        3.4033
  24        6.3523
  25        6.6191
  26        9.5460
  27       10.0455
  28       11.0318
 
  0.4166667E+00  0.2500000E+00  0.8333333E-01  0.2777778E-01
   1       -2.7721
   2       -2.6366
   3       -2.5899
   4       -2.4549
   5       -2.3224
   6       -2.3073
   7       -2.2124
   8       -2.1405
   9       -1.8948
  10       -1.7557
  11       -1.7531
  12       -1.7370
  13       -1.4700
  14       -1.1451
  15       -1.1164
  16       -1.0367
  17       -1.0347
  18       -0.6687
  19       -0.5203
  20       -0.5196
  21       -0.3256
  22        0.8722
  23        4.0652
  24        5.5950
  25        7.1663
  26        8.6946
  27       10.4449
  28       11.6010
 
  0.5000000E+00  0.2500000E+00  0.8333333E-01  0.1388889E-01
   1       -2.6324
   2       -2.6324
   3       -2.4162
   4       -2.4162
   5       -2.2706
   6       -2.2706
   7       -2.1911
   8       -2.1911
   9       -1.8962
  10       -1.8962
  11       -1.8197
  12       -1.8197
  13       -1.3193
  14       -1.3193
  15       -1.1248
  16       -1.1248
  17       -0.8367
  18       -0.8367
  19       -0.5299
  20       -0.5299
  21        0.1655
  22        0.1655
  23        4.7938
  24        4.7938
  25        7.9022
  26        7.9022
  27       10.9686
  28       10.9686
 
  0.3333333E+00  0.3333333E+00  0.8333333E-01  0.1388889E-01
   1       -2.8371
   2       -2.6722
   3       -2.5769
   4       -2.5769
   5       -2.2859
   6       -2.2859
   7       -2.1745
   8       -2.0491
   9       -1.8242
  10       -1.8242
  11       -1.6557
  12       -1.6372
  13       -1.5605
  14       -1.2212
  15       -1.1411
  16       -1.0339
  17       -1.0339
  18       -0.6124
  19       -0.6124
  20       -0.5795
  21       -0.3334
  22        2.3421
  23        2.3421
  24        5.4507
  25        7.0537
  26       10.0851
  27       10.0851
  28       10.3755
 
  0.4166667E+00  0.3333333E+00  0.8333333E-01  0.2777778E-01
   1       -2.6719
   2       -2.5623
   3       -2.5446
   4       -2.4323
   5       -2.2201
   6       -2.1187
   7       -2.1026
   8       -2.0373
   9       -1.9400
  10       -1.9166
  11       -1.7384
  12       -1.7311
  13       -1.4829
  14       -1.2221
  15       -1.1898
  16       -1.1313
  17       -1.1224
  18       -0.7588
  19       -0.6631
  20       -0.6459
  21        0.0868
  22        1.4202
  23        2.9891
  24        4.5327
  25        7.7015
  26        9.2172
  27       10.7308
  28       10.8284
 
  0.5000000E+00  0.3333333E+00  0.8333333E-01  0.1388889E-01
   1       -2.5700
   2       -2.5700
   3       -2.4296
   4       -2.4296
   5       -2.2033
   6       -2.2033
   7       -2.0191
   8       -2.0191
   9       -1.8980
  10       -1.8980
  11       -1.8166
  12       -1.8166
  13       -1.3491
  14       -1.3491
  15       -1.2197
  16       -1.2197
  17       -0.9377
  18       -0.9377
  19       -0.6751
  20       -0.6751
  21        0.6646
  22        0.6646
  23        3.7152
  24        3.7152
  25        8.4244
  26        8.4244
  27       11.4070
  28       11.4077
 
  0.4166667E+00  0.4166667E+00  0.8333333E-01  0.1388889E-01
   1       -2.5899
   2       -2.5159
   3       -2.4661
   4       -2.4661
   5       -2.1060
   6       -2.1060
   7       -2.0907
   8       -2.0163
   9       -1.8623
  10       -1.8623
  11       -1.6976
  12       -1.6488
  13       -1.5015
  14       -1.3198
  15       -1.2622
  16       -1.2622
  17       -1.1197
  18       -0.8227
  19       -0.8227
  20       -0.7560
  21        0.6029
  22        2.0463
  23        2.0463
  24        3.5896
  25        8.3336
  26        9.8474
  27        9.8474
  28       11.3319
 
  0.5000000E+00  0.4166667E+00  0.8333333E-01  0.1388889E-01
   1       -2.5223
   2       -2.5223
   3       -2.4637
   4       -2.4637
   5       -2.1234
   6       -2.1234
   7       -2.0422
   8       -2.0422
   9       -1.7346
  10       -1.7346
  11       -1.7140
  12       -1.7140
  13       -1.4025
  14       -1.4025
  15       -1.3380
  16       -1.3380
  17       -0.9918
  18       -0.9918
  19       -0.8227
  20       -0.8227
  21        1.2506
  22        1.2506
  23        2.7643
  24        2.7643
  25        9.0496
  26        9.0496
  27       10.5734
  28       10.5734
 
  0.5000000E+00  0.5000000E+00  0.8333333E-01  0.3472222E-02
   1       -2.4915
   2       -2.4915
   3       -2.4915
   4       -2.4915
   5       -2.0765
   6       -2.0765
   7       -2.0765
   8       -2.0765
   9       -1.6311
  10       -1.6311
  11       -1.6311
  12       -1.6311
  13       -1.4378
  14       -1.4378
  15       -1.4378
  16       -1.4378
  17       -0.9457
  18       -0.9457
  19       -0.9457
  20       -0.9457
  21        1.9449
  22        1.9449
  23        1.9449
  24        1.9449
  25        9.7669
  26        9.7669
  27        9.7669
  28        9.7669
 
  0.1666667E+00  0.1666667E+00  0.1666667E+00  0.4629630E-02
   1       -3.6818
   2       -2.9599
   3       -2.9599
   4       -2.9599
   5       -2.7480
   6       -2.7480
   7       -2.7480
   8       -1.9626
   9       -1.7507
  10       -1.7507
  11       -1.0724
  12       -1.0724
  13       -0.9732
  14       -0.9732
  15       -0.9732
  16       -0.8106
  17       -0.8106
  18       -0.8106
  19       -0.3294
  20       -0.3294
  21       -0.3294
  22        3.7481
  23        3.7481
  24        3.7481
  25        9.7995
  26        9.7995
  27        9.7995
  28       10.9109
 
  0.2500000E+00  0.1666667E+00  0.1666667E+00  0.1388889E-01