       N       E                     dE             d eps       ncg     rms          rms(c)
DAV:   1     0.471921499348E+03    0.47192E+03   -0.27518E+04  4704   0.213E+03
DAV:   2     0.364362254133E+01   -0.46828E+03   -0.44681E+03  4736   0.482E+02
DAV:   3    -0.119425468083E+02   -0.15586E+02   -0.15403E+02  5148   0.106E+02
DAV:   4    -0.120626140699E+02   -0.12007E+00   -0.11997E+00  4956   0.857E+00
DAV:   5    -0.120630551386E+02   -0.44107E-03   -0.44106E-03  4984   0.476E-01    0.527E+00
DAV:   6    -0.112766498257E+02    0.78641E+00   -0.29374E+00  4912   0.181E+01    0.965E-01
DAV:   7    -0.112603411126E+02    0.16309E-01   -0.47575E-02  4884   0.154E+00    0.530E-01
DAV:   8    -0.112524679604E+02    0.78732E-02   -0.45795E-03  4876   0.730E-01    0.365E-02
DAV:   9    -0.112525895470E+02   -0.12159E-03   -0.18969E-04  5008   0.114E-01    0.253E-02
DAV:  10    -0.112525755251E+02    0.14022E-04   -0.14883E-05  4844   0.309E-02    0.375E-03
DAV:  11    -0.112525740542E+02    0.14709E-05   -0.87142E-07  5016   0.730E-03    0.584E-04
DAV:  12    -0.112525735328E+02    0.52148E-06   -0.29800E-08  4184   0.134E-03    0.976E-05
DAV:  13    -0.112525734742E+02    0.58569E-07   -0.90299E-10  2544   0.284E-04    0.540E-05
DAV:  14    -0.112525734736E+02    0.59026E-09   -0.20103E-10  2492   0.130E-04
   1 F= -.11252573E+02 E0= -.11252553E+02  d E =-.404335E-04
