 vasp.4.6.28 25Jul05 complex 
 executed on             LinuxIFC date 2017.01.06  05:41:12
 running on    4 nodes
 distr:  one band on    1 nodes,    4 groups


--------------------------------------------------------------------------------------------------------


 INCAR:
 POTCAR:   PAW_PBE Ag 06Sep2000                   
 POTCAR:   PAW_PBE Ag 06Sep2000                   
   VRHFIN =Ag : s1 d10                                                          
   LEXCH  = PE                                                                  
   EATOM  =  1037.4134 eV,   76.2477 Ry                                         
                                                                                
   TITEL  = PAW_PBE Ag 06Sep2000                                                
   LULTRA =        F    use ultrasoft PP ?                                      
   IUNSCR =        1    unscreen: 0-lin 1-nonlin 2-no                           
   RPACOR =    2.000    partial core radius                                     
   POMASS =  107.868; ZVAL   =   11.000    mass and valenz                      
   RCORE  =    2.400    outmost cutoff radius                                   
   RWIGS  =    2.840; RWIGS  =    1.503    wigner-seitz radius (au A)           
   ENMAX  =  249.846; ENMIN  =  187.385 eV                                      
   RCLOC  =    1.962    cutoff for local pot                                    
   LCOR   =        T    correct aug charges                                     
   LPAW   =        T    paw PP                                                  
   EAUG   =  412.496                                                            
   DEXC   =    -.047                                                            
   RMAX   =    2.917    core radius for proj-oper                               
   RAUG   =    1.300    factor for augmentation sphere                          
   RDEP   =    2.416    radius for radial grids                                 
   QCUT   =   -4.285; QGAM   =    8.570    optimization parameters              
                                                                                
   Description                                                                  
     l     E      TYP  RCUT    TYP  RCUT                                        
     2   .000     23  2.400                                                     
     2   .000     23  2.400                                                     
     0   .000     23  2.400                                                     
     0   .000     23  2.400                                                     
     1  -.200     23  2.400                                                     
     1  1.500     23  2.400                                                     
     3   .000      7   .000                                                     
  local pseudopotential read in
  partial core-charges read in
  atomic valenz-charges read in
  non local Contribution for L=           2  read in
    real space projection operators read in
  non local Contribution for L=           2  read in
    real space projection operators read in
  non local Contribution for L=           0  read in
    real space projection operators read in
  non local Contribution for L=           0  read in
    real space projection operators read in
  non local Contribution for L=           1  read in
    real space projection operators read in
  non local Contribution for L=           1  read in
    real space projection operators read in
    PAW grid and wavefunctions read in
 
   number of l-projection  operators is LMAX  =           6
   number of lm-projection operators is LMMAX =          18
 
 PAW_PBE Ag 06Sep2000                   :
 energy of atom  1       EATOM=-1037.4134
 kinetic energy error for atom=    0.0010 (will be added to EATOM!!)
 
 EXHCAR: internal setup
 exchange correlation table for  LEXCH =        8
   RHO(1)=    0.500       N(1)  =     2000
   RHO(2)=  100.500       N(2)  =     4000
 
 POSCAR: Ag                                      
  positions in direct lattice
  velocities in cartesian coordinates
 


--------------------------------------------------------------------------------------------------------


 ion  position               nearest neighbor table
   1  0.000  0.000  0.000-   2 3.00   3 3.00   4 3.00   3 3.00   4 3.00   2 3.00   4 3.00   4 3.00
                             2 3.00   3 3.00   3 3.00   2 3.00
   2  0.500  0.500  0.000-   1 3.00   3 3.00   4 3.00   3 3.00   4 3.00   1 3.00   3 3.00   3 3.00
                             1 3.00   4 3.00   4 3.00   1 3.00
   3  0.500  0.000  0.500-   1 3.00   2 3.00   4 3.00   1 3.00   2 3.00   2 3.00   4 3.00   2 3.00
                             1 3.00   4 3.00   1 3.00   4 3.00
   4  0.000  0.500  0.500-   1 3.00   2 3.00   3 3.00   1 3.00   2 3.00   1 3.00   3 3.00   1 3.00
                             2 3.00   3 3.00   2 3.00   3 3.00
 
  LATTYP: Found a simple cubic cell.
 ALAT       =     4.2464892772
  
  Lattice vectors:
  
 A1 = (   4.2464892772,   0.0000000000,   0.0000000000)
 A2 = (   0.0000000000,   4.2464892772,   0.0000000000)
 A3 = (   0.0000000000,   0.0000000000,   4.2464892772)
 Subroutine PRICEL returns following result:
 
  LATTYP: Found a face centered cubic cell.
 ALAT       =     4.2464892772
  
  Lattice vectors:
  
 A1 = (   2.1232446386,   2.1232446386,   0.0000000000)
 A2 = (   2.1232446386,   0.0000000000,  -2.1232446386)
 A3 = (   0.0000000000,   2.1232446386,  -2.1232446386)
 
   4 primitive cells build up your supercell.
 

Analysis of symmetry for initial positions (statically):

 Routine SETGRP: Setting up the symmetry group for a 
 simple cubic supercell.


 Subroutine GETGRP returns: Found 48 space group operations
 (whereof 48 operations were pure point group operations)
 out of a pool of 48 trial point group operations.


The static configuration has the point symmetry O_h .

Analysis of symmetry for dynamics (positions and initial velocities):

 Subroutine DYNSYM returns: Found 48 space group operations
 (whereof 48 operations were pure point group operations)
 out of a pool of 48 trial space group operations
 (whereof 48 operations were pure point group operations)
 and found also     4 'primitive' translations


The dynamic configuration has the point symmetry O_h .
 
 
 KPOINTS: Automatic mesh                          

Automatic generation of k-mesh.
 
 Subroutine IBZKPT returns following result:
 ===========================================
 
 Found     84 irreducible k-points:
 
 Following reciprocal coordinates:
            Coordinates               Weight
  0.000000  0.000000  0.000000      1.000000
  0.083333  0.000000  0.000000      6.000000
  0.166667  0.000000  0.000000      6.000000
  0.250000  0.000000  0.000000      6.000000
  0.333333  0.000000  0.000000      6.000000
  0.416667  0.000000  0.000000      6.000000
  0.500000  0.000000  0.000000      3.000000
  0.083333  0.083333  0.000000     12.000000
  0.166667  0.083333  0.000000     24.000000
  0.250000  0.083333  0.000000     24.000000
  0.333333  0.083333  0.000000     24.000000
  0.416667  0.083333  0.000000     24.000000
  0.500000  0.083333  0.000000     12.000000
  0.166667  0.166667  0.000000     12.000000
  0.250000  0.166667  0.000000     24.000000
  0.333333  0.166667  0.000000     24.000000
  0.416667  0.166667  0.000000     24.000000
  0.500000  0.166667  0.000000     12.000000
  0.250000  0.250000  0.000000     12.000000
  0.333333  0.250000  0.000000     24.000000
  0.416667  0.250000  0.000000     24.000000
  0.500000  0.250000  0.000000     12.000000
  0.333333  0.333333  0.000000     12.000000
  0.416667  0.333333  0.000000     24.000000
  0.500000  0.333333  0.000000     12.000000
  0.416667  0.416667  0.000000     12.000000
  0.500000  0.416667  0.000000     12.000000
  0.500000  0.500000  0.000000      3.000000
  0.083333  0.083333  0.083333      8.000000
  0.166667  0.083333  0.083333     24.000000
  0.250000  0.083333  0.083333     24.000000
  0.333333  0.083333  0.083333     24.000000
  0.416667  0.083333  0.083333     24.000000
  0.500000  0.083333  0.083333     12.000000
  0.166667  0.166667  0.083333     24.000000
  0.250000  0.166667  0.083333     48.000000
  0.333333  0.166667  0.083333     48.000000
  0.416667  0.166667  0.083333     48.000000
  0.500000  0.166667  0.083333     24.000000
  0.250000  0.250000  0.083333     24.000000
  0.333333  0.250000  0.083333     48.000000
  0.416667  0.250000  0.083333     48.000000
  0.500000  0.250000  0.083333     24.000000
  0.333333  0.333333  0.083333     24.000000
  0.416667  0.333333  0.083333     48.000000
  0.500000  0.333333  0.083333     24.000000
  0.416667  0.416667  0.083333     24.000000
  0.500000  0.416667  0.083333     24.000000
  0.500000  0.500000  0.083333      6.000000
  0.166667  0.166667  0.166667      8.000000
  0.250000  0.166667  0.166667     24.000000
  0.333333  0.166667  0.166667     24.000000
  0.416667  0.166667  0.166667     24.000000
  0.500000  0.166667  0.166667     12.000000
  0.250000  0.250000  0.166667     24.000000
  0.333333  0.250000  0.166667     48.000000
  0.416667  0.250000  0.166667     48.000000
  0.500000  0.250000  0.166667     24.000000
  0.333333  0.333333  0.166667     24.000000
  0.416667  0.333333  0.166667     48.000000
  0.500000  0.333333  0.166667     24.000000
  0.416667  0.416667  0.166667     24.000000
  0.500000  0.416667  0.166667     24.000000
  0.500000  0.500000  0.166667      6.000000
  0.250000  0.250000  0.250000      8.000000
  0.333333  0.250000  0.250000     24.000000
  0.416667  0.250000  0.250000     24.000000
  0.500000  0.250000  0.250000     12.000000
  0.333333  0.333333  0.250000     24.000000
  0.416667  0.333333  0.250000     48.000000
  0.500000  0.333333  0.250000     24.000000
  0.416667  0.416667  0.250000     24.000000
  0.500000  0.416667  0.250000     24.000000
  0.500000  0.500000  0.250000      6.000000
  0.333333  0.333333  0.333333      8.000000
  0.416667  0.333333  0.333333     24.000000
  0.500000  0.333333  0.333333     12.000000
  0.416667  0.416667  0.333333     24.000000
  0.500000  0.416667  0.333333     24.000000
  0.500000  0.500000  0.333333      6.000000
  0.416667  0.416667  0.416667      8.000000
  0.500000  0.416667  0.416667     12.000000
  0.500000  0.500000  0.416667      6.000000
  0.500000  0.500000  0.500000      1.000000
 
 Following cartesian coordinates:
            Coordinates               Weight
  0.000000  0.000000  0.000000      1.000000
  0.020017  0.000000  0.000000      6.000000
  0.040033  0.000000  0.000000      6.000000
  0.060050  0.000000  0.000000      6.000000
  0.080066  0.000000  0.000000      6.000000
  0.100083  0.000000  0.000000      6.000000
  0.120099  0.000000  0.000000      3.000000
  0.020017  0.020017  0.000000     12.000000
  0.040033  0.020017  0.000000     24.000000
  0.060050  0.020017  0.000000     24.000000
  0.080066  0.020017  0.000000     24.000000
  0.100083  0.020017  0.000000     24.000000
  0.120099  0.020017  0.000000     12.000000
  0.040033  0.040033  0.000000     12.000000
  0.060050  0.040033  0.000000     24.000000
  0.080066  0.040033  0.000000     24.000000
  0.100083  0.040033  0.000000     24.000000
  0.120099  0.040033  0.000000     12.000000
  0.060050  0.060050  0.000000     12.000000
  0.080066  0.060050  0.000000     24.000000
  0.100083  0.060050  0.000000     24.000000
  0.120099  0.060050  0.000000     12.000000
  0.080066  0.080066  0.000000     12.000000
  0.100083  0.080066  0.000000     24.000000
  0.120099  0.080066  0.000000     12.000000
  0.100083  0.100083  0.000000     12.000000
  0.120099  0.100083  0.000000     12.000000
  0.120099  0.120099  0.000000      3.000000
  0.020017  0.020017  0.020017      8.000000
  0.040033  0.020017  0.020017     24.000000
  0.060050  0.020017  0.020017     24.000000
  0.080066  0.020017  0.020017     24.000000
  0.100083  0.020017  0.020017     24.000000
  0.120099  0.020017  0.020017     12.000000
  0.040033  0.040033  0.020017     24.000000
  0.060050  0.040033  0.020017     48.000000
  0.080066  0.040033  0.020017     48.000000
  0.100083  0.040033  0.020017     48.000000
  0.120099  0.040033  0.020017     24.000000
  0.060050  0.060050  0.020017     24.000000
  0.080066  0.060050  0.020017     48.000000
  0.100083  0.060050  0.020017     48.000000
  0.120099  0.060050  0.020017     24.000000
  0.080066  0.080066  0.020017     24.000000
  0.100083  0.080066  0.020017     48.000000
  0.120099  0.080066  0.020017     24.000000
  0.100083  0.100083  0.020017     24.000000
  0.120099  0.100083  0.020017     24.000000
  0.120099  0.120099  0.020017      6.000000
  0.040033  0.040033  0.040033      8.000000
  0.060050  0.040033  0.040033     24.000000
  0.080066  0.040033  0.040033     24.000000
  0.100083  0.040033  0.040033     24.000000
  0.120099  0.040033  0.040033     12.000000
  0.060050  0.060050  0.040033     24.000000
  0.080066  0.060050  0.040033     48.000000
  0.100083  0.060050  0.040033     48.000000
  0.120099  0.060050  0.040033     24.000000
  0.080066  0.080066  0.040033     24.000000
  0.100083  0.080066  0.040033     48.000000
  0.120099  0.080066  0.040033     24.000000
  0.100083  0.100083  0.040033     24.000000
  0.120099  0.100083  0.040033     24.000000
  0.120099  0.120099  0.040033      6.000000
  0.060050  0.060050  0.060050      8.000000
  0.080066  0.060050  0.060050     24.000000
  0.100083  0.060050  0.060050     24.000000
  0.120099  0.060050  0.060050     12.000000
  0.080066  0.080066  0.060050     24.000000
  0.100083  0.080066  0.060050     48.000000
  0.120099  0.080066  0.060050     24.000000
  0.100083  0.100083  0.060050     24.000000
  0.120099  0.100083  0.060050     24.000000
  0.120099  0.120099  0.060050      6.000000
  0.080066  0.080066  0.080066      8.000000
  0.100083  0.080066  0.080066     24.000000
  0.120099  0.080066  0.080066     12.000000
  0.100083  0.100083  0.080066     24.000000
  0.120099  0.100083  0.080066     24.000000
  0.120099  0.120099  0.080066      6.000000
  0.100083  0.100083  0.100083      8.000000
  0.120099  0.100083  0.100083     12.000000
  0.120099  0.120099  0.100083      6.000000
  0.120099  0.120099  0.120099      1.000000
 


--------------------------------------------------------------------------------------------------------




 Dimension of arrays:
   k-Points           NKPTS =     84   number of bands    NBANDS=     28
   number of dos      NEDOS =    301   number of ions     NIONS =      4
   non local maximal  LDIM  =      6   non local SUM 2l+1 LMDIM =     18
   total plane-waves  NPLWV =  64000
   max r-space proj   IRMAX =      1   max aug-charges    IRDMAX= 328913
   dimension x,y,z NGX =    40 NGY =   40 NGZ =   40
   dimension x,y,z NGXF=    80 NGYF=   80 NGZF=   80
   support grid    NGXF=   160 NGYF=  160 NGZF=  160
   ions per type =               4
 NGX,Y,Z   is equivalent  to a cutoff of  15.66, 15.66, 15.66 a.u.
 NGXF,Y,Z  is equivalent  to a cutoff of  31.32, 31.32, 31.32 a.u.


 I would recommend the setting:
   dimension x,y,z NGX =    38 NGY =   38 NGZ =   38
 SYSTEM =  unknown system                          
 POSCAR =  Ag                                      

 Startparameter for this run:
   NWRITE =      2    write-flag & timer
   PREC   = accura    medium, high low
   ISTART =      0    job   : 0-new  1-cont  2-samecut
   ICHARG =      2    charge: 1-file 2-atom 10-const
   ISPIN  =      1    spin polarized calculation?
   LNONCOLLINEAR =      F non collinear calculations
   LSORBIT =      F    spin-orbit coupling
   INIWAV =      1    electr: 0-lowe 1-rand  2-diag
   LASPH  =      F    aspherical Exc in radial PAW
   METAGGA=      F    non-selfconsistent MetaGGA calc.

 Electronic Relaxation 1
   ENCUT  =  750.0 eV  55.12 Ry    7.42 a.u.   9.48  9.48  9.48*2*pi/ulx,y,z
   ENINI  =  750.0     initial cutoff
   ENAUG  =  412.5 eV  augmentation charge cutoff
   NELM   =     60;   NELMIN=  2; NELMDL=  0     # of ELM steps 
   EDIFF  = 0.1E-07   stopping-criterion for ELM
   LREAL  =      F    real-space projection
   LCOMPAT=      F    compatible to vasp.4.4
   LREAL_COMPAT= F    compatible to vasp.4.5.1-3
   GGA_COMPAT  = T    GGA compatible to vasp.4.4-vasp.4.6
   LMAXPAW     = -100 max onsite density
   LMAXMIX     =    2 max onsite mixed and CHGCAR
   VOSKOWN=      0    Vosko Wilk Nusair interpolation
   ROPT   =    0.00000
 Ionic relaxation
   EDIFFG = 0.1E-06   stopping-criterion for IOM
   NSW    =      0    number of steps for IOM
   NBLOCK =      1;   KBLOCK =      1    inner block; outer block 
   IBRION =     -1    ionic relax: 0-MD 1-quasi-New 2-CG
   NFREE  =      0    steps in history (QN), initial steepest desc. (CG)
   ISIF   =      2    stress and relaxation
   IWAVPR =     10    prediction:  0-non 1-charg 2-wave 3-comb
   ISYM   =      2    0-nonsym 1-usesym 2-fastsym
   LCORR  =      T    Harris-Foulkes like correction to forces

   POTIM  =   0.50    time-step for ionic-motion
   TEIN   =    0.0    initial temperature
   TEBEG  =    0.0;   TEEND  =   0.0 temperature during run
   SMASS  =  -3.00    Nose mass-parameter (am)
   estimated Nose-frequenzy (Omega)   =  0.10E-29 period in steps =****** mass=  -0.412E-27a.u.
   NPACO  =    256;   APACO  = 16.0  distance and # of slots for P.C.
   PSTRESS=    0.0 pullay stress

  Mass of Ions in am
   POMASS = 107.87
  Ionic Valenz
   ZVAL   =  11.00
  Atomic Wigner-Seitz radii
   RWIGS  =  -1.00
   NELECT =      44.0000    total number of electrons
   NUPDOWN=      -1.0000    fix difference up-down

 DOS related values:
   EMIN   =  10.00;   EMAX   =-10.00  energy-range for DOS
   ISMEAR =     0;   SIGMA  =   0.01  broadening in eV -4-tet -1-fermi 0-gaus

 Electronic relaxation 2 (details)
   IALGO  =     38    algorithm
   LDIAG  =      T    sub-space diagonalisation
   IMIX   =      4    mixing-type and parameters
     AMIX     =   0.40;   BMIX     =  1.00
     AMIX_MAG =   1.60;   BMIX_MAG =  1.00
     AMIN     =   0.10
     WC   =   100.;   INIMIX=   1;  MIXPRE=   1

 Intra band minimization:
   WEIMIN = 0.0000     energy-eigenvalue tresh-hold
   EBREAK =  0.96E-10  absolut break condition
   DEPER  =   0.30     relativ break condition  

   TIME   =   0.10     timestep for ELM

  volume/ion in A,a.u.               =      19.14       129.19
  Fermi-wavevector in a.u.,eV,Ry     =   1.361013 25.202848  1.852357

 Second variation
   LSECVAR=     F    do a second variation
 
 Write flags
   LWAVE  =      F    write WAVECAR
   LCHARG =      F    write CHGCAR
   LVTOT  =      F    write LOCPOT, local potential
   LELF   =      F    write electronic localiz. function (ELF)
   LORBIT =      0    0 simple, 1 ext, 2 COOP (PROOUT)


 Dipole corrections
   IDIPOL =      0    1-x, 2-y, 3-z
   LDIPOL =      F    correct potential



--------------------------------------------------------------------------------------------------------


 Static calculation
 charge density will be updated during run
 non-spin polarized calculation
 Variant of blocked Davidson
 Davidson routine will perform the subspace rotation
 performe sub-space diagonalisation
    after iterative eigenvector-optimisation
 modified Broyden-mixing scheme, WC =      100.0
 initial mixing is a Kerker type mixing with AMIX =  0.4000 and BMIX =      1.0000
 Hartree-type preconditioning will be used
 using additional bands            6
 reciprocal scheme for non local part
 use partial core corrections
 calculate Harris-corrections to forces 
   (improved forces if not selfconsistent)
 use gradient corrections 
 use of overlap-Matrix (Vanderbilt PP)
 Gauss-broadening in eV      SIGMA  =   0.01


--------------------------------------------------------------------------------------------------------


  energy-cutoff  :      750.00
  volume of cell :       76.58
      direct lattice vectors                 reciprocal lattice vectors
     4.246489277  0.000000000  0.000000000     0.235488644  0.000000000  0.000000000
     0.000000000  4.246489277  0.000000000     0.000000000  0.235488644  0.000000000
     0.000000000  0.000000000  4.246489277     0.000000000  0.000000000  0.235488644

  length of vectors
     4.246489277  4.246489277  4.246489277     0.235488644  0.235488644  0.235488644


 
 k-points in units of 2pi/SCALE and weight: Automatic mesh                          
   0.00000000  0.00000000  0.00000000       0.001
   0.02001653  0.00000000  0.00000000       0.003
   0.04003307  0.00000000  0.00000000       0.003
   0.06004960  0.00000000  0.00000000       0.003
   0.08006614  0.00000000  0.00000000       0.003
   0.10008267  0.00000000  0.00000000       0.003
   0.12009921  0.00000000  0.00000000       0.002
   0.02001653  0.02001653  0.00000000       0.007
   0.04003307  0.02001653  0.00000000       0.014
   0.06004960  0.02001653  0.00000000       0.014
   0.08006614  0.02001653  0.00000000       0.014
   0.10008267  0.02001653  0.00000000       0.014
   0.12009921  0.02001653  0.00000000       0.007
   0.04003307  0.04003307  0.00000000       0.007
   0.06004960  0.04003307  0.00000000       0.014
   0.08006614  0.04003307  0.00000000       0.014
   0.10008267  0.04003307  0.00000000       0.014
   0.12009921  0.04003307  0.00000000       0.007
   0.06004960  0.06004960  0.00000000       0.007
   0.08006614  0.06004960  0.00000000       0.014
   0.10008267  0.06004960  0.00000000       0.014
   0.12009921  0.06004960  0.00000000       0.007
   0.08006614  0.08006614  0.00000000       0.007
   0.10008267  0.08006614  0.00000000       0.014
   0.12009921  0.08006614  0.00000000       0.007
   0.10008267  0.10008267  0.00000000       0.007
   0.12009921  0.10008267  0.00000000       0.007
   0.12009921  0.12009921  0.00000000       0.002
   0.02001653  0.02001653  0.02001653       0.005
   0.04003307  0.02001653  0.02001653       0.014
   0.06004960  0.02001653  0.02001653       0.014
   0.08006614  0.02001653  0.02001653       0.014
   0.10008267  0.02001653  0.02001653       0.014
   0.12009921  0.02001653  0.02001653       0.007
   0.04003307  0.04003307  0.02001653       0.014
   0.06004960  0.04003307  0.02001653       0.028
   0.08006614  0.04003307  0.02001653       0.028
   0.10008267  0.04003307  0.02001653       0.028
   0.12009921  0.04003307  0.02001653       0.014
   0.06004960  0.06004960  0.02001653       0.014
   0.08006614  0.06004960  0.02001653       0.028
   0.10008267  0.06004960  0.02001653       0.028
   0.12009921  0.06004960  0.02001653       0.014
   0.08006614  0.08006614  0.02001653       0.014
   0.10008267  0.08006614  0.02001653       0.028
   0.12009921  0.08006614  0.02001653       0.014
   0.10008267  0.10008267  0.02001653       0.014
   0.12009921  0.10008267  0.02001653       0.014
   0.12009921  0.12009921  0.02001653       0.003
   0.04003307  0.04003307  0.04003307       0.005
   0.06004960  0.04003307  0.04003307       0.014
   0.08006614  0.04003307  0.04003307       0.014
   0.10008267  0.04003307  0.04003307       0.014
   0.12009921  0.04003307  0.04003307       0.007
   0.06004960  0.06004960  0.04003307       0.014
   0.08006614  0.06004960  0.04003307       0.028
   0.10008267  0.06004960  0.04003307       0.028
   0.12009921  0.06004960  0.04003307       0.014
   0.08006614  0.08006614  0.04003307       0.014
   0.10008267  0.08006614  0.04003307       0.028
   0.12009921  0.08006614  0.04003307       0.014
   0.10008267  0.10008267  0.04003307       0.014
   0.12009921  0.10008267  0.04003307       0.014
   0.12009921  0.12009921  0.04003307       0.003
   0.06004960  0.06004960  0.06004960       0.005
   0.08006614  0.06004960  0.06004960       0.014
   0.10008267  0.06004960  0.06004960       0.014
   0.12009921  0.06004960  0.06004960       0.007
   0.08006614  0.08006614  0.06004960       0.014
   0.10008267  0.08006614  0.06004960       0.028
   0.12009921  0.08006614  0.06004960       0.014
   0.10008267  0.10008267  0.06004960       0.014
   0.12009921  0.10008267  0.06004960       0.014
   0.12009921  0.12009921  0.06004960       0.003
   0.08006614  0.08006614  0.08006614       0.005
   0.10008267  0.08006614  0.08006614       0.014
   0.12009921  0.08006614  0.08006614       0.007
   0.10008267  0.10008267  0.08006614       0.014
   0.12009921  0.10008267  0.08006614       0.014
   0.12009921  0.12009921  0.08006614       0.003
   0.10008267  0.10008267  0.10008267       0.005
   0.12009921  0.10008267  0.10008267       0.007
   0.12009921  0.12009921  0.10008267       0.003
   0.12009921  0.12009921  0.12009921       0.001
 
 k-points in reciprocal lattice and weights: Automatic mesh                          
   0.00000000  0.00000000  0.00000000       0.001
   0.08333333  0.00000000  0.00000000       0.003
   0.16666667  0.00000000  0.00000000       0.003
   0.25000000  0.00000000  0.00000000       0.003
   0.33333333  0.00000000  0.00000000       0.003
   0.41666667  0.00000000  0.00000000       0.003
   0.50000000  0.00000000  0.00000000       0.002
   0.08333333  0.08333333  0.00000000       0.007
   0.16666667  0.08333333  0.00000000       0.014
   0.25000000  0.08333333  0.00000000       0.014
   0.33333333  0.08333333  0.00000000       0.014
   0.41666667  0.08333333  0.00000000       0.014
   0.50000000  0.08333333  0.00000000       0.007
   0.16666667  0.16666667  0.00000000       0.007
   0.25000000  0.16666667  0.00000000       0.014
   0.33333333  0.16666667  0.00000000       0.014
   0.41666667  0.16666667  0.00000000       0.014
   0.50000000  0.16666667  0.00000000       0.007
   0.25000000  0.25000000  0.00000000       0.007
   0.33333333  0.25000000  0.00000000       0.014
   0.41666667  0.25000000  0.00000000       0.014
   0.50000000  0.25000000  0.00000000       0.007
   0.33333333  0.33333333  0.00000000       0.007
   0.41666667  0.33333333  0.00000000       0.014
   0.50000000  0.33333333  0.00000000       0.007
   0.41666667  0.41666667  0.00000000       0.007
   0.50000000  0.41666667  0.00000000       0.007
   0.50000000  0.50000000  0.00000000       0.002
   0.08333333  0.08333333  0.08333333       0.005
   0.16666667  0.08333333  0.08333333       0.014
   0.25000000  0.08333333  0.08333333       0.014
   0.33333333  0.08333333  0.08333333       0.014
   0.41666667  0.08333333  0.08333333       0.014
   0.50000000  0.08333333  0.08333333       0.007
   0.16666667  0.16666667  0.08333333       0.014
   0.25000000  0.16666667  0.08333333       0.028
   0.33333333  0.16666667  0.08333333       0.028
   0.41666667  0.16666667  0.08333333       0.028
   0.50000000  0.16666667  0.08333333       0.014
   0.25000000  0.25000000  0.08333333       0.014
   0.33333333  0.25000000  0.08333333       0.028
   0.41666667  0.25000000  0.08333333       0.028
   0.50000000  0.25000000  0.08333333       0.014
   0.33333333  0.33333333  0.08333333       0.014
   0.41666667  0.33333333  0.08333333       0.028
   0.50000000  0.33333333  0.08333333       0.014
   0.41666667  0.41666667  0.08333333       0.014
   0.50000000  0.41666667  0.08333333       0.014
   0.50000000  0.50000000  0.08333333       0.003
   0.16666667  0.16666667  0.16666667       0.005
   0.25000000  0.16666667  0.16666667       0.014
   0.33333333  0.16666667  0.16666667       0.014
   0.41666667  0.16666667  0.16666667       0.014
   0.50000000  0.16666667  0.16666667       0.007
   0.25000000  0.25000000  0.16666667       0.014
   0.33333333  0.25000000  0.16666667       0.028
   0.41666667  0.25000000  0.16666667       0.028
   0.50000000  0.25000000  0.16666667       0.014
   0.33333333  0.33333333  0.16666667       0.014
   0.41666667  0.33333333  0.16666667       0.028
   0.50000000  0.33333333  0.16666667       0.014
   0.41666667  0.41666667  0.16666667       0.014
   0.50000000  0.41666667  0.16666667       0.014
   0.50000000  0.50000000  0.16666667       0.003
   0.25000000  0.25000000  0.25000000       0.005
   0.33333333  0.25000000  0.25000000       0.014
   0.41666667  0.25000000  0.25000000       0.014
   0.50000000  0.25000000  0.25000000       0.007
   0.33333333  0.33333333  0.25000000       0.014
   0.41666667  0.33333333  0.25000000       0.028
   0.50000000  0.33333333  0.25000000       0.014
   0.41666667  0.41666667  0.25000000       0.014
   0.50000000  0.41666667  0.25000000       0.014
   0.50000000  0.50000000  0.25000000       0.003
   0.33333333  0.33333333  0.33333333       0.005
   0.41666667  0.33333333  0.33333333       0.014
   0.50000000  0.33333333  0.33333333       0.007
   0.41666667  0.41666667  0.33333333       0.014
   0.50000000  0.41666667  0.33333333       0.014
   0.50000000  0.50000000  0.33333333       0.003
   0.41666667  0.41666667  0.41666667       0.005
   0.50000000  0.41666667  0.41666667       0.007
   0.50000000  0.50000000  0.41666667       0.003
   0.50000000  0.50000000  0.50000000       0.001
 
 position of ions in fractional coordinates (direct lattice) 
   0.00000000  0.00000000  0.00000000
   0.50000000  0.50000000  0.00000000
   0.50000000  0.00000000  0.50000000
   0.00000000  0.50000000  0.50000000
 
 position of ions in cartesian coordinates  (Angst):
   0.00000000  0.00000000  0.00000000
   2.12324464  2.12324464  0.00000000
   2.12324464  0.00000000  2.12324464
   0.00000000  2.12324464  2.12324464
 


--------------------------------------------------------------------------------------------------------


 k-point  1 :  0.00000.00000.0000  plane waves:   3575
 k-point  2 :  0.08330.00000.0000  plane waves:   3607
 k-point  3 :  0.16670.00000.0000  plane waves:   3579
 k-point  4 :  0.25000.00000.0000  plane waves:   3575
 k-point  5 :  0.33330.00000.0000  plane waves:   3567
 k-point  6 :  0.41670.00000.0000  plane waves:   3555
 k-point  7 :  0.50000.00000.0000  plane waves:   3546
 k-point  8 :  0.08330.08330.0000  plane waves:   3607
 k-point  9 :  0.16670.08330.0000  plane waves:   3596
 k-point 10 :  0.25000.08330.0000  plane waves:   3592
 k-point 11 :  0.33330.08330.0000  plane waves:   3569
 k-point 12 :  0.41670.08330.0000  plane waves:   3559
 k-point 13 :  0.50000.08330.0000  plane waves:   3558
 k-point 14 :  0.16670.16670.0000  plane waves:   3595
 k-point 15 :  0.25000.16670.0000  plane waves:   3579
 k-point 16 :  0.33330.16670.0000  plane waves:   3587
 k-point 17 :  0.41670.16670.0000  plane waves:   3575
 k-point 18 :  0.50000.16670.0000  plane waves:   3574
 k-point 19 :  0.25000.25000.0000  plane waves:   3585
 k-point 20 :  0.33330.25000.0000  plane waves:   3574
 k-point 21 :  0.41670.25000.0000  plane waves:   3575
 k-point 22 :  0.50000.25000.0000  plane waves:   3576
 k-point 23 :  0.33330.33330.0000  plane waves:   3596
 k-point 24 :  0.41670.33330.0000  plane waves:   3563
 k-point 25 :  0.50000.33330.0000  plane waves:   3558
 k-point 26 :  0.41670.41670.0000  plane waves:   3564
 k-point 27 :  0.50000.41670.0000  plane waves:   3562
 k-point 28 :  0.50000.50000.0000  plane waves:   3556
 k-point 29 :  0.08330.08330.0833  plane waves:   3605
 k-point 30 :  0.16670.08330.0833  plane waves:   3600
 k-point 31 :  0.25000.08330.0833  plane waves:   3583
 k-point 32 :  0.33330.08330.0833  plane waves:   3574
 k-point 33 :  0.41670.08330.0833  plane waves:   3572
 k-point 34 :  0.50000.08330.0833  plane waves:   3556
 k-point 35 :  0.16670.16670.0833  plane waves:   3597
 k-point 36 :  0.25000.16670.0833  plane waves:   3579
 k-point 37 :  0.33330.16670.0833  plane waves:   3579
 k-point 38 :  0.41670.16670.0833  plane waves:   3573
 k-point 39 :  0.50000.16670.0833  plane waves:   3560
 k-point 40 :  0.25000.25000.0833  plane waves:   3572
 k-point 41 :  0.33330.25000.0833  plane waves:   3573
 k-point 42 :  0.41670.25000.0833  plane waves:   3576
 k-point 43 :  0.50000.25000.0833  plane waves:   3568
 k-point 44 :  0.33330.33330.0833  plane waves:   3573
 k-point 45 :  0.41670.33330.0833  plane waves:   3558
 k-point 46 :  0.50000.33330.0833  plane waves:   3560
 k-point 47 :  0.41670.41670.0833  plane waves:   3568
 k-point 48 :  0.50000.41670.0833  plane waves:   3564
 k-point 49 :  0.50000.50000.0833  plane waves:   3568
 k-point 50 :  0.16670.16670.1667  plane waves:   3596
 k-point 51 :  0.25000.16670.1667  plane waves:   3581
 k-point 52 :  0.33330.16670.1667  plane waves:   3579
 k-point 53 :  0.41670.16670.1667  plane waves:   3569
 k-point 54 :  0.50000.16670.1667  plane waves:   3546
 k-point 55 :  0.25000.25000.1667  plane waves:   3576
 k-point 56 :  0.33330.25000.1667  plane waves:   3572
 k-point 57 :  0.41670.25000.1667  plane waves:   3563
 k-point 58 :  0.50000.25000.1667  plane waves:   3556
 k-point 59 :  0.33330.33330.1667  plane waves:   3561
 k-point 60 :  0.41670.33330.1667  plane waves:   3565
 k-point 61 :  0.50000.33330.1667  plane waves:   3562
 k-point 62 :  0.41670.41670.1667  plane waves:   3557
 k-point 63 :  0.50000.41670.1667  plane waves:   3554
 k-point 64 :  0.50000.50000.1667  plane waves:   3580
 k-point 65 :  0.25000.25000.2500  plane waves:   3572
 k-point 66 :  0.33330.25000.2500  plane waves:   3577
 k-point 67 :  0.41670.25000.2500  plane waves:   3563
 k-point 68 :  0.50000.25000.2500  plane waves:   3564
 k-point 69 :  0.33330.33330.2500  plane waves:   3563
 k-point 70 :  0.41670.33330.2500  plane waves:   3572
 k-point 71 :  0.50000.33330.2500  plane waves:   3564
 k-point 72 :  0.41670.41670.2500  plane waves:   3573
 k-point 73 :  0.50000.41670.2500  plane waves:   3568
 k-point 74 :  0.50000.50000.2500  plane waves:   3556
 k-point 75 :  0.33330.33330.3333  plane waves:   3554
 k-point 76 :  0.41670.33330.3333  plane waves:   3574
 k-point 77 :  0.50000.33330.3333  plane waves:   3574
 k-point 78 :  0.41670.41670.3333  plane waves:   3567
 k-point 79 :  0.50000.41670.3333  plane waves:   3568
 k-point 80 :  0.50000.50000.3333  plane waves:   3544
 k-point 81 :  0.41670.41670.4167  plane waves:   3560
 k-point 82 :  0.50000.41670.4167  plane waves:   3552
 k-point 83 :  0.50000.50000.4167  plane waves:   3552
 k-point 84 :  0.50000.50000.5000  plane waves:   3544

 maximum and minimum number of plane-waves per node :   3607  3544

 maximum number of plane-waves:   3607
 maximal index in each direction: 
   IXMAX=  9   IYMAX=  9   IZMAX=  9
   IXMIN= -9   IYMIN= -9   IZMIN= -9

 NGX is ok and might be reduce to  38
 NGY is ok and might be reduce to  38
 NGZ is ok and might be reduce to  38

 parallel 3dFFT wavefunction:
    minimum data exchange during FFTs selected (reduces bandwidth)
 parallel 3dFFT charge:
    minimum data exchange during FFTs selected (reduces bandwidth)

 For storing wavefunctions  134.37 MBYTES are necessary
 For predicting wavefunctions    4.58 MBYTES are necessary
Broyden mixing: mesh for mixing (old mesh)
   NGX = 19   NGY = 19   NGZ = 19
  (NGX  = 80   NGY  = 80   NGZ  = 80)
 gives a total of   6859 points
 initial charge density was supplied:
 charge density of overlapping atoms calculated
 number of electron   44.0000000 magnetization 
 keeping initial charge density in first step


--------------------------------------------------------------------------------------------------------


 Maximum index for augmentation-charges        79857 (set IRDMAX)


--------------------------------------------------------------------------------------------------------


 First call to EWALD:  gamma=   0.417
 Maximum number of real-space cells 3x 3x 3
 Maximum number of reciprocal cells 3x 3x 3

    FEWALD:  VPU time    0.00: CPU time    0.00


----------------------------------------- Iteration    1(   1)  ---------------------------------------


    POTLOK:  VPU time    0.14: CPU time    0.14
    SETDIJ:  VPU time    0.31: CPU time    0.31
    EDDAV :  VPU time   12.60: CPU time   12.62
    DOS   :  VPU time    0.00: CPU time   -0.00
    ------------------------------------------
      LOOP:  VPU time   13.06: CPU time   13.08

 eigenvalue-minimisations  :  4704
 total energy-change (2. order) : 0.4719215E+03  (-0.2751796E+04)
 number of electron   44.0000000 magnetization 
 augmentation part    44.0000000 magnetization 

 Free energy of the ion-electron system (eV)
  ---------------------------------------------------
  alpha Z        PSCENC =       371.03795147
  Ewald energy   TEWEN  =     -3762.42357771
  -1/2 Hartree   DENC   =      -882.44866578
  -V(xc)+E(xc)   XCENC  =       -43.98900351
  PAW double counting   =      3482.67677651    -3297.07979946
  entropy T*S    EENTRO =        -0.00012437
  eigenvalues    EBANDS =       454.49832949
  atomic energy  EATOM  =      4149.64961272
  ---------------------------------------------------
  free energy    TOTEN  =       471.92149935 eV

  energy without entropy =      471.92162372  energy(sigma->0) =      471.92156153


--------------------------------------------------------------------------------------------------------




----------------------------------------- Iteration    1(   2)  ---------------------------------------


    EDDAV :  VPU time   12.32: CPU time   12.34
    DOS   :  VPU time    0.00: CPU time   -0.00
    ------------------------------------------
      LOOP:  VPU time   12.33: CPU time   12.35

 eigenvalue-minimisations  :  4736
 total energy-change (2. order) :-0.4682779E+03  (-0.4468088E+03)
 number of electron   44.0000000 magnetization 
 augmentation part    44.0000000 magnetization 

 Free energy of the ion-electron system (eV)
  ---------------------------------------------------
  alpha Z        PSCENC =       371.03795147
  Ewald energy   TEWEN  =     -3762.42357771
  -1/2 Hartree   DENC   =      -882.44866578
  -V(xc)+E(xc)   XCENC  =       -43.98900351
  PAW double counting   =      3482.67677651    -3297.07979946
  entropy T*S    EENTRO =        -0.00004266
  eigenvalues    EBANDS =       -13.77962903
  atomic energy  EATOM  =      4149.64961272
  ---------------------------------------------------
  free energy    TOTEN  =         3.64362254 eV

  energy without entropy =        3.64366520  energy(sigma->0) =        3.64364387


--------------------------------------------------------------------------------------------------------




----------------------------------------- Iteration    1(   3)  ---------------------------------------


    EDDAV :  VPU time   11.26: CPU time   11.27
    DOS   :  VPU time    0.00: CPU time   -0.00
    ------------------------------------------
      LOOP:  VPU time   11.27: CPU time   11.28

 eigenvalue-minimisations  :  5148
 total energy-change (2. order) :-0.1558617E+02  (-0.1540273E+02)
 number of electron   44.0000000 magnetization 
 augmentation part    44.0000000 magnetization 

 Free energy of the ion-electron system (eV)
  ---------------------------------------------------
  alpha Z        PSCENC =       371.03795147
  Ewald energy   TEWEN  =     -3762.42357771
  -1/2 Hartree   DENC   =      -882.44866578
  -V(xc)+E(xc)   XCENC  =       -43.98900351
  PAW double counting   =      3482.67677651    -3297.07979946
  entropy T*S    EENTRO =        -0.00012507
  eigenvalues    EBANDS =       -29.36571596
  atomic energy  EATOM  =      4149.64961272
  ---------------------------------------------------
  free energy    TOTEN  =       -11.94254681 eV

  energy without entropy =      -11.94242174  energy(sigma->0) =      -11.94248427


--------------------------------------------------------------------------------------------------------




----------------------------------------- Iteration    1(   4)  ---------------------------------------


    EDDAV :  VPU time   12.48: CPU time   12.49
    DOS   :  VPU time    0.00: CPU time   -0.00
    ------------------------------------------
      LOOP:  VPU time   12.49: CPU time   12.50

 eigenvalue-minimisations  :  4956
 total energy-change (2. order) :-0.1200673E+00  (-0.1199741E+00)
 number of electron   44.0000000 magnetization 
 augmentation part    44.0000000 magnetization 

 Free energy of the ion-electron system (eV)
  ---------------------------------------------------
  alpha Z        PSCENC =       371.03795147
  Ewald energy   TEWEN  =     -3762.42357771
  -1/2 Hartree   DENC   =      -882.44866578
  -V(xc)+E(xc)   XCENC  =       -43.98900351
  PAW double counting   =      3482.67677651    -3297.07979946
  entropy T*S    EENTRO =        -0.00012678
  eigenvalues    EBANDS =       -29.48578151
  atomic energy  EATOM  =      4149.64961272
  ---------------------------------------------------
  free energy    TOTEN  =       -12.06261407 eV

  energy without entropy =      -12.06248729  energy(sigma->0) =      -12.06255068


--------------------------------------------------------------------------------------------------------




----------------------------------------- Iteration    1(   5)  ---------------------------------------


    EDDAV :  VPU time   12.83: CPU time   12.84
    DOS   :  VPU time    0.00: CPU time   -0.00
    CHARGE:  VPU time    1.30: CPU time    1.30
    MIXING:  VPU time    0.00: CPU time    0.00
    ------------------------------------------
      LOOP:  VPU time   14.14: CPU time   14.15

 eigenvalue-minimisations  :  4984
 total energy-change (2. order) :-0.4410687E-03  (-0.4410579E-03)
 number of electron   44.0000001 magnetization 
 augmentation part    20.4642082 magnetization 

 Broyden mixing:
  rms(total) = 0.52667E+00    rms(broyden)= 0.52667E+00
  rms(prec ) = 0.13005E+01
  weight for this iteration     100.00

 Free energy of the ion-electron system (eV)
  ---------------------------------------------------
  alpha Z        PSCENC =       371.03795147
  Ewald energy   TEWEN  =     -3762.42357771
  -1/2 Hartree   DENC   =      -882.44866578
  -V(xc)+E(xc)   XCENC  =       -43.98900351
  PAW double counting   =      3482.67677651    -3297.07979946
  entropy T*S    EENTRO =        -0.00012682
  eigenvalues    EBANDS =       -29.48622255
  atomic energy  EATOM  =      4149.64961272
  ---------------------------------------------------
  free energy    TOTEN  =       -12.06305514 eV

  energy without entropy =      -12.06292832  energy(sigma->0) =      -12.06299173


--------------------------------------------------------------------------------------------------------




----------------------------------------- Iteration    1(   6)  ---------------------------------------


    POTLOK:  VPU time    0.15: CPU time    0.15
    SETDIJ:  VPU time    0.35: CPU time    0.35
    EDDAV :  VPU time   12.75: CPU time   12.75
    DOS   :  VPU time    0.00: CPU time   -0.00
    CHARGE:  VPU time    1.25: CPU time    1.25
    MIXING:  VPU time    0.00: CPU time    0.00
    ------------------------------------------
      LOOP:  VPU time   14.51: CPU time   14.52

 eigenvalue-minimisations  :  4912
 total energy-change (2. order) : 0.7864053E+00  (-0.2937382E+00)
 number of electron   44.0000001 magnetization 
 augmentation part    21.1236257 magnetization 

 Broyden mixing:
  rms(total) = 0.96458E-01    rms(broyden)= 0.96458E-01
  rms(prec ) = 0.19916E+00
  weight for this iteration     100.00

 eigenvalues of (default mixing * dielectric matrix)
  average eigenvalue GAMMA=   1.0358
  1.0358

 Free energy of the ion-electron system (eV)
  ---------------------------------------------------
  alpha Z        PSCENC =       371.03795147
  Ewald energy   TEWEN  =     -3762.42357771
  -1/2 Hartree   DENC   =      -846.14846496
  -V(xc)+E(xc)   XCENC  =       -45.30812962
  PAW double counting   =      3428.98637609    -3245.95054123
  entropy T*S    EENTRO =        -0.00004043
  eigenvalues    EBANDS =       -61.11983614
  atomic energy  EATOM  =      4149.64961272
  ---------------------------------------------------
  free energy    TOTEN  =       -11.27664983 eV

  energy without entropy =      -11.27660939  energy(sigma->0) =      -11.27662961


--------------------------------------------------------------------------------------------------------




----------------------------------------- Iteration    1(   7)  ---------------------------------------


    POTLOK:  VPU time    0.15: CPU time    0.15
    SETDIJ:  VPU time    0.35: CPU time    0.35
    EDDAV :  VPU time   12.71: CPU time   12.72
    DOS   :  VPU time    0.00: CPU time   -0.00
    CHARGE:  VPU time    1.25: CPU time    1.25
    MIXING:  VPU time    0.00: CPU time    0.00
    ------------------------------------------
      LOOP:  VPU time   14.48: CPU time   14.49

 eigenvalue-minimisations  :  4884
 total energy-change (2. order) : 0.1630871E-01  (-0.4757460E-02)
 number of electron   44.0000001 magnetization 
 augmentation part    21.1488719 magnetization 

 Broyden mixing:
  rms(total) = 0.52986E-01    rms(broyden)= 0.52985E-01
  rms(prec ) = 0.10286E+00
  weight for this iteration     100.00

 eigenvalues of (default mixing * dielectric matrix)
  average eigenvalue GAMMA=   1.7265
  1.0262  2.4269

 Free energy of the ion-electron system (eV)
  ---------------------------------------------------
  alpha Z        PSCENC =       371.03795147
  Ewald energy   TEWEN  =     -3762.42357771
  -1/2 Hartree   DENC   =      -841.73971248
  -V(xc)+E(xc)   XCENC  =       -45.48370089
  PAW double counting   =      3436.64053635    -3255.77607396
  entropy T*S    EENTRO =        -0.00004043
  eigenvalues    EBANDS =       -63.16533617
  atomic energy  EATOM  =      4149.64961272
  ---------------------------------------------------
  free energy    TOTEN  =       -11.26034111 eV

  energy without entropy =      -11.26030068  energy(sigma->0) =      -11.26032090


--------------------------------------------------------------------------------------------------------




----------------------------------------- Iteration    1(   8)  ---------------------------------------


    POTLOK:  VPU time    0.15: CPU time    0.15
    SETDIJ:  VPU time    0.36: CPU time    0.36
    EDDAV :  VPU time   12.49: CPU time   12.50
    DOS   :  VPU time    0.00: CPU time   -0.00
    CHARGE:  VPU time    1.37: CPU time    1.37
    MIXING:  VPU time    0.00: CPU time    0.00
    ------------------------------------------
      LOOP:  VPU time   14.37: CPU time   14.39

 eigenvalue-minimisations  :  4876
 total energy-change (2. order) : 0.7873152E-02  (-0.4579463E-03)
 number of electron   44.0000001 magnetization 
 augmentation part    21.1516932 magnetization 

 Broyden mixing:
  rms(total) = 0.36454E-02    rms(broyden)= 0.36451E-02
  rms(prec ) = 0.69450E-02
  weight for this iteration     100.00

 eigenvalues of (default mixing * dielectric matrix)
  average eigenvalue GAMMA=   1.7157
  2.6991  1.0311  1.4167

 Free energy of the ion-electron system (eV)
  ---------------------------------------------------
  alpha Z        PSCENC =       371.03795147
  Ewald energy   TEWEN  =     -3762.42357771
  -1/2 Hartree   DENC   =      -837.34981901
  -V(xc)+E(xc)   XCENC  =       -45.66218727
  PAW double counting   =      3452.18425167    -3273.99201783
  entropy T*S    EENTRO =        -0.00004043
  eigenvalues    EBANDS =       -64.69664157
  atomic energy  EATOM  =      4149.64961272
  ---------------------------------------------------
  free energy    TOTEN  =       -11.25246796 eV

  energy without entropy =      -11.25242753  energy(sigma->0) =      -11.25244774


--------------------------------------------------------------------------------------------------------




----------------------------------------- Iteration    1(   9)  ---------------------------------------


    POTLOK:  VPU time    0.13: CPU time    0.13
    SETDIJ:  VPU time    0.25: CPU time    0.25
    EDDAV :  VPU time    8.65: CPU time    8.66
    DOS   :  VPU time   -0.00: CPU time   -0.00
    CHARGE:  VPU time    0.82: CPU time    0.82
    MIXING:  VPU time    0.00: CPU time    0.00
    ------------------------------------------
      LOOP:  VPU time    9.86: CPU time    9.87

 eigenvalue-minimisations  :  5008
 total energy-change (2. order) :-0.1215866E-03  (-0.1896936E-04)
 number of electron   44.0000001 magnetization 
 augmentation part    21.1562271 magnetization 

 Broyden mixing:
  rms(total) = 0.25289E-02    rms(broyden)= 0.25288E-02
  rms(prec ) = 0.51297E-02
  weight for this iteration     100.00

 eigenvalues of (default mixing * dielectric matrix)
  average eigenvalue GAMMA=   1.7712
  0.9919  0.9919  2.3938  2.7073

 Free energy of the ion-electron system (eV)
  ---------------------------------------------------
  alpha Z        PSCENC =       371.03795147
  Ewald energy   TEWEN  =     -3762.42357771
  -1/2 Hartree   DENC   =      -837.01604202
  -V(xc)+E(xc)   XCENC  =       -45.67587443
  PAW double counting   =      3453.79181603    -3275.61817399
  entropy T*S    EENTRO =        -0.00004043
  eigenvalues    EBANDS =       -64.99826117
  atomic energy  EATOM  =      4149.64961272
  ---------------------------------------------------
  free energy    TOTEN  =       -11.25258955 eV

  energy without entropy =      -11.25254911  energy(sigma->0) =      -11.25256933


--------------------------------------------------------------------------------------------------------




----------------------------------------- Iteration    1(  10)  ---------------------------------------


    POTLOK:  VPU time    0.12: CPU time    0.12
    SETDIJ:  VPU time    0.26: CPU time    0.26
    EDDAV :  VPU time   12.11: CPU time   12.14
    DOS   :  VPU time    0.00: CPU time   -0.00
    CHARGE:  VPU time    1.26: CPU time    1.26
    MIXING:  VPU time    0.00: CPU time    0.00
    ------------------------------------------
      LOOP:  VPU time   13.75: CPU time   13.79

 eigenvalue-minimisations  :  4844
 total energy-change (2. order) : 0.1402184E-04  (-0.1488282E-05)
 number of electron   44.0000001 magnetization 
 augmentation part    21.1552542 magnetization 

 Broyden mixing:
  rms(total) = 0.37509E-03    rms(broyden)= 0.37509E-03
  rms(prec ) = 0.82312E-03
  weight for this iteration     100.00

 eigenvalues of (default mixing * dielectric matrix)
  average eigenvalue GAMMA=   1.7496
  2.8227  2.4362  1.0124  1.0124  1.4644

 Free energy of the ion-electron system (eV)
  ---------------------------------------------------
  alpha Z        PSCENC =       371.03795147
  Ewald energy   TEWEN  =     -3762.42357771
  -1/2 Hartree   DENC   =      -837.23019139
  -V(xc)+E(xc)   XCENC  =       -45.66850093
  PAW double counting   =      3454.48853266    -3276.17411322
  entropy T*S    EENTRO =        -0.00004043
  eigenvalues    EBANDS =       -64.93224867
  atomic energy  EATOM  =      4149.64961272
  ---------------------------------------------------
  free energy    TOTEN  =       -11.25257553 eV

  energy without entropy =      -11.25253509  energy(sigma->0) =      -11.25255531


--------------------------------------------------------------------------------------------------------




----------------------------------------- Iteration    1(  11)  ---------------------------------------


    POTLOK:  VPU time    0.15: CPU time    0.15
    SETDIJ:  VPU time    0.36: CPU time    0.36
    EDDAV :  VPU time   12.99: CPU time   13.01
    DOS   :  VPU time    0.00: CPU time   -0.00
    CHARGE:  VPU time    1.29: CPU time    1.29
    MIXING:  VPU time    0.01: CPU time    0.00
    ------------------------------------------
      LOOP:  VPU time   14.79: CPU time   14.82

 eigenvalue-minimisations  :  5016
 total energy-change (2. order) : 0.1470910E-05  (-0.8714189E-07)
 number of electron   44.0000001 magnetization 
 augmentation part    21.1549804 magnetization 

 Broyden mixing:
  rms(total) = 0.58446E-04    rms(broyden)= 0.58446E-04
  rms(prec ) = 0.11422E-03
  weight for this iteration     100.00

 eigenvalues of (default mixing * dielectric matrix)
  average eigenvalue GAMMA=   1.8713
  3.1002  2.6252  2.5094  0.9834  1.0048  1.0048

 Free energy of the ion-electron system (eV)
  ---------------------------------------------------
  alpha Z        PSCENC =       371.03795147
  Ewald energy   TEWEN  =     -3762.42357771
  -1/2 Hartree   DENC   =      -837.26013695
  -V(xc)+E(xc)   XCENC  =       -45.66751051
  PAW double counting   =      3454.54662548    -3276.21747756
  entropy T*S    EENTRO =        -0.00004043
  eigenvalues    EBANDS =       -64.91802054
  atomic energy  EATOM  =      4149.64961272
  ---------------------------------------------------
  free energy    TOTEN  =       -11.25257405 eV

  energy without entropy =      -11.25253362  energy(sigma->0) =      -11.25255384


--------------------------------------------------------------------------------------------------------




----------------------------------------- Iteration    1(  12)  ---------------------------------------


    POTLOK:  VPU time    0.15: CPU time    0.15
    SETDIJ:  VPU time    0.35: CPU time    0.35
    EDDAV :  VPU time   11.55: CPU time   11.56
    DOS   :  VPU time    0.00: CPU time   -0.00
    CHARGE:  VPU time    1.26: CPU time    1.26
    MIXING:  VPU time    0.00: CPU time    0.00
    ------------------------------------------
      LOOP:  VPU time   13.32: CPU time   13.33

 eigenvalue-minimisations  :  4184
 total energy-change (2. order) : 0.5214761E-06  (-0.2980036E-08)
 number of electron   44.0000001 magnetization 
 augmentation part    21.1549642 magnetization 

 Broyden mixing:
  rms(total) = 0.97600E-05    rms(broyden)= 0.97599E-05
  rms(prec ) = 0.16498E-04
  weight for this iteration     100.00

 eigenvalues of (default mixing * dielectric matrix)
  average eigenvalue GAMMA=   1.7700
  2.8839  2.6231  2.4696  1.0185  1.0185  1.0437  1.3326

 Free energy of the ion-electron system (eV)
  ---------------------------------------------------
  alpha Z        PSCENC =       371.03795147
  Ewald energy   TEWEN  =     -3762.42357771
  -1/2 Hartree   DENC   =      -837.26348681
  -V(xc)+E(xc)   XCENC  =       -45.66740527
  PAW double counting   =      3454.46587835    -3276.13558612
  entropy T*S    EENTRO =        -0.00004043
  eigenvalues    EBANDS =       -64.91591972
  atomic energy  EATOM  =      4149.64961272
  ---------------------------------------------------
  free energy    TOTEN  =       -11.25257353 eV

  energy without entropy =      -11.25253310  energy(sigma->0) =      -11.25255332


--------------------------------------------------------------------------------------------------------




----------------------------------------- Iteration    1(  13)  ---------------------------------------


    POTLOK:  VPU time    0.15: CPU time    0.15
    SETDIJ:  VPU time    0.42: CPU time    0.42
    EDDAV :  VPU time    8.55: CPU time    8.55
    DOS   :  VPU time    0.00: CPU time   -0.00
    CHARGE:  VPU time    1.25: CPU time    1.25
    MIXING:  VPU time    0.01: CPU time    0.01
    ------------------------------------------
      LOOP:  VPU time   10.38: CPU time   10.39

 eigenvalue-minimisations  :  2544
 total energy-change (2. order) : 0.5856873E-07  (-0.9029930E-10)
 number of electron   44.0000001 magnetization 
 augmentation part    21.1549652 magnetization 

 Broyden mixing:
  rms(total) = 0.54004E-05    rms(broyden)= 0.54004E-05
  rms(prec ) = 0.10908E-04
  weight for this iteration     100.00

 eigenvalues of (default mixing * dielectric matrix)
  average eigenvalue GAMMA=   1.8078
  2.8281  2.5675  2.5675  2.4952  1.0117  1.0117  0.9628  1.0176

 Free energy of the ion-electron system (eV)
  ---------------------------------------------------
  alpha Z        PSCENC =       371.03795147
  Ewald energy   TEWEN  =     -3762.42357771
  -1/2 Hartree   DENC   =      -837.26367141
  -V(xc)+E(xc)   XCENC  =       -45.66739529
  PAW double counting   =      3454.46407587    -3276.13366575
  entropy T*S    EENTRO =        -0.00004043
  eigenvalues    EBANDS =       -64.91586292
  atomic energy  EATOM  =      4149.64961272
  ---------------------------------------------------
  free energy    TOTEN  =       -11.25257347 eV

  energy without entropy =      -11.25253304  energy(sigma->0) =      -11.25255326


--------------------------------------------------------------------------------------------------------




----------------------------------------- Iteration    1(  14)  ---------------------------------------


    POTLOK:  VPU time    0.15: CPU time    0.15
    SETDIJ:  VPU time    0.35: CPU time    0.35
    EDDAV :  VPU time    8.43: CPU time    8.44
    DOS   :  VPU time    0.00: CPU time   -0.00
    ------------------------------------------
      LOOP:  VPU time    8.94: CPU time    8.95

 eigenvalue-minimisations  :  2492
 total energy-change (2. order) : 0.5902621E-09  (-0.2010271E-10)
 number of electron   44.0000001 magnetization 
 augmentation part    21.1549652 magnetization 

 Free energy of the ion-electron system (eV)
  ---------------------------------------------------
  alpha Z        PSCENC =       371.03795147
  Ewald energy   TEWEN  =     -3762.42357771
  -1/2 Hartree   DENC   =      -837.26320144
  -V(xc)+E(xc)   XCENC  =       -45.66741039
  PAW double counting   =      3454.46774270    -3276.13746787
  entropy T*S    EENTRO =        -0.00004043
  eigenvalues    EBANDS =       -64.91618250
  atomic energy  EATOM  =      4149.64961272
  ---------------------------------------------------
  free energy    TOTEN  =       -11.25257347 eV

  energy without entropy =      -11.25253304  energy(sigma->0) =      -11.25255326


--------------------------------------------------------------------------------------------------------




 average (electrostatic) potential at core
  the test charge radii are     1.1249
  (the norm of the test charge is              1.0000)
       1 -41.9775       2 -41.9775       3 -41.9775       4 -41.9775
 
 
 
 E-fermi :   2.6203     XC(G=0): -11.5326     alpha+bet : -7.6060
   add alpha+bet to get absolut eigen values

 k-point   1 :       0.0000    0.0000    0.0000
  band No.  band energies     occupation 
      1      -4.4059      2.00000
      2      -3.2179      2.00000
      3      -3.2179      2.00000
      4      -3.2179      2.00000
      5      -3.1191      2.00000
      6      -3.1191      2.00000
      7      -3.1191      2.00000
      8      -1.8964      2.00000
      9      -1.8964      2.00000
     10      -1.8964      2.00000
     11      -1.0548      2.00000
     12      -1.0548      2.00000
     13      -0.4333      2.00000
     14      -0.4333      2.00000
     15      -0.4333      2.00000
     16      -0.2375      2.00000
     17      -0.2375      2.00000
     18      -0.2375      2.00000
     19      -0.2375      2.00000
     20      -0.2375      2.00000
     21      -0.2375      2.00000
     22       4.2699      0.00000
     23       4.2699      0.00000
     24       4.2699      0.00000
     25       8.4509      0.00000
     26       8.4509      0.00000
     27       8.4509      0.00000
     28      12.7727      0.00000

 k-point   2 :       0.0833    0.0000    0.0000
  band No.  band energies     occupation 
      1      -4.3396      2.00000
      2      -3.1926      2.00000
      3      -3.1851      2.00000
      4      -3.1851      2.00000
      5      -3.1001      2.00000
      6      -3.0899      2.00000
      7      -3.0899      2.00000
      8      -1.9193      2.00000
      9      -1.8744      2.00000
     10      -1.8744      2.00000
     11      -1.0776      2.00000
     12      -1.0447      2.00000
     13      -0.4636      2.00000
     14      -0.4636      2.00000
     15      -0.4444      2.00000
     16      -0.3410      2.00000
     17      -0.3410      2.00000
     18      -0.2748      2.00000
     19      -0.2747      2.00000
     20      -0.2374      2.00000
     21      -0.2374      2.00000
     22       3.7824      0.00000
     23       4.4305      0.00000
     24       4.4305      0.00000
     25       8.4643      0.00000
     26       8.4643      0.00000
     27       9.0477      0.00000
     28      12.5185      0.00000

 k-point   3 :       0.1667    0.0000    0.0000
  band No.  band energies     occupation 
      1      -4.1438      2.00000
      2      -3.1201      2.00000
      3      -3.0910      2.00000
      4      -3.0910      2.00000
      5      -3.0441      2.00000
      6      -3.0025      2.00000
      7      -3.0025      2.00000
      8      -1.9861      2.00000
      9      -1.8088      2.00000
     10      -1.8088      2.00000
     11      -1.1414      2.00000
     12      -1.0148      2.00000
     13      -0.6121      2.00000
     14      -0.6121      2.00000
     15      -0.5511      2.00000
     16      -0.5511      2.00000
     17      -0.4767      2.00000
     18      -0.3815      2.00000
     19      -0.3815      2.00000
     20      -0.2373      2.00000
     21      -0.2373      2.00000
     22       2.7643      0.00000
     23       4.8720      0.00000
     24       4.8720      0.00000
     25       8.5057      0.00000
     26       8.5057      0.00000
     27      10.3942      0.00000
     28      11.8563      0.00000

 k-point   4 :       0.2500    0.0000    0.0000
  band No.  band energies     occupation 
      1      -3.8311      2.00000
      2      -3.0106      2.00000
      3      -2.9539      2.00000
      4      -2.9492      2.00000
      5      -2.9492      2.00000
      6      -2.8575      2.00000
      7      -2.8575      2.00000
      8      -2.0910      2.00000
      9      -1.7018      2.00000
     10      -1.7018      2.00000
     11      -1.2294      2.00000
     12      -0.9739      2.00000
     13      -0.9739      2.00000
     14      -0.9671      2.00000
     15      -0.6845      2.00000
     16      -0.6845      2.00000
     17      -0.5437      2.00000
     18      -0.5437      2.00000
     19      -0.5278      2.00000
     20      -0.2371      2.00000
     21      -0.2371      2.00000
     22       1.6532      2.00000
     23       5.5153      0.00000
     24       5.5153      0.00000
     25       8.5776      0.00000
     26       8.5776      0.00000
     27      10.9912      0.00000
     28      10.9912      0.00000

 k-point   5 :       0.3333    0.0000    0.0000
  band No.  band energies     occupation 
      1      -3.4344      2.00000
      2      -2.8855      2.00000
      3      -2.8346      2.00000
      4      -2.7860      2.00000
      5      -2.7860      2.00000
      6      -2.6561      2.00000
      7      -2.6561      2.00000
      8      -2.2250      2.00000
      9      -1.5566      2.00000
     10      -1.5566      2.00000
     11      -1.3642      2.00000
     12      -1.3642      2.00000
     13      -1.3020      2.00000
     14      -0.9045      2.00000
     15      -0.8400      2.00000
     16      -0.8400      2.00000
     17      -0.7428      2.00000
     18      -0.7428      2.00000
     19      -0.5939      2.00000
     20      -0.2369      2.00000
     21      -0.2369      2.00000
     22       0.6066      2.00000
     23       6.2940      0.00000
     24       6.2940      0.00000
     25       8.6786      0.00000
     26       8.6786      0.00000
     27      10.0387      0.00000
     28      10.0387      0.00000

 k-point   6 :       0.4167    0.0000    0.0000
  band No.  band energies     occupation 
      1      -3.0390      2.00000
      2      -2.7871      2.00000
      3      -2.6928      2.00000
      4      -2.6459      2.00000
      5      -2.6459      2.00000
      6      -2.4004      2.00000
      7      -2.4004      2.00000
      8      -2.3774      2.00000
      9      -1.7449      2.00000
     10      -1.7449      2.00000
     11      -1.3788      2.00000
     12      -1.3788      2.00000
     13      -1.2652      2.00000
     14      -0.9749      2.00000
     15      -0.9749      2.00000
     16      -0.9594      2.00000
     17      -0.9594      2.00000
     18      -0.8308      2.00000
     19      -0.6700      2.00000
     20      -0.2938      2.00000
     21      -0.2367      2.00000
     22      -0.2367      2.00000
     23       7.1637      0.00000
     24       7.1637      0.00000
     25       8.7885      0.00000
     26       8.7885      0.00000
     27       9.0612      0.00000
     28       9.0612      0.00000

 k-point   7 :       0.5000    0.0000    0.0000
  band No.  band energies     occupation 
      1      -2.8032      2.00000
      2      -2.8032      2.00000
      3      -2.5882      2.00000
      4      -2.5882      2.00000
      5      -2.5371      2.00000
      6      -2.5371      2.00000
      7      -2.0944      2.00000
      8      -2.0944      2.00000
      9      -2.0944      2.00000
     10      -2.0944      2.00000
     11      -1.1761      2.00000
     12      -1.1761      2.00000
     13      -1.1761      2.00000
     14      -1.1761      2.00000
     15      -1.0307      2.00000
     16      -1.0307      2.00000
     17      -0.9518      2.00000
     18      -0.9518      2.00000
     19      -0.7509      2.00000
     20      -0.7509      2.00000
     21      -0.2367      2.00000
     22      -0.2367      2.00000
     23       8.0942      0.00000
     24       8.0942      0.00000
     25       8.0942      0.00000
     26       8.0942      0.00000
     27       8.8435      0.00000
     28       8.8435      0.00000

 k-point   8 :       0.0833    0.0833    0.0000
  band No.  band energies     occupation 
      1      -4.2741      2.00000
      2      -3.1596      2.00000
      3      -3.1596      2.00000
      4      -3.1591      2.00000
      5      -3.0713      2.00000
      6      -3.0713      2.00000
      7      -3.0552      2.00000
      8      -1.9275      2.00000
      9      -1.8665      2.00000
     10      -1.8538      2.00000
     11      -1.0836      2.00000
     12      -1.0493      2.00000
     13      -0.4927      2.00000
     14      -0.4899      2.00000
     15      -0.4899      2.00000
     16      -0.4125      2.00000
     17      -0.3634      2.00000
     18      -0.3634      2.00000
     19      -0.2748      2.00000
     20      -0.2748      2.00000
     21      -0.2634      2.00000
     22       3.9344      0.00000
     23       3.9344      0.00000
     24       4.5852      0.00000
     25       8.4773      0.00000
     26       9.0693      0.00000
     27       9.0693      0.00000
     28      11.7063      0.00000

 k-point   9 :       0.1667    0.0833    0.0000
  band No.  band energies     occupation 
      1      -4.0811      2.00000
      2      -3.0864      2.00000
      3      -3.0816      2.00000
      4      -3.0649      2.00000
      5      -3.0164      2.00000
      6      -2.9851      2.00000
      7      -2.9549      2.00000
      8      -1.9856      2.00000
      9      -1.8080      2.00000
     10      -1.7932      2.00000
     11      -1.1386      2.00000
     12      -1.0214      2.00000
     13      -0.6941      2.00000
     14      -0.6568      2.00000
     15      -0.5768      2.00000
     16      -0.5764      2.00000
     17      -0.5165      2.00000
     18      -0.4176      2.00000
     19      -0.3818      2.00000
     20      -0.2763      2.00000
     21      -0.2750      2.00000
     22       2.9110      0.00000
     23       4.3468      0.00000
     24       5.0136      0.00000
     25       8.5156      0.00000
     26       9.1350      0.00000
     27      10.4199      0.00000
     28      10.7883      0.00000

 k-point  10 :       0.2500    0.0833    0.0000
  band No.  band energies     occupation 
      1      -3.7733      2.00000
      2      -2.9758      2.00000
      3      -2.9562      2.00000
      4      -2.9282      2.00000
      5      -2.9221      2.00000
      6      -2.8422      2.00000
      7      -2.7996      2.00000
      8      -2.0862      2.00000
      9      -1.7025      2.00000
     10      -1.6987      2.00000
     11      -1.2168      2.00000
     12      -1.0383      2.00000
     13      -1.0013      2.00000
     14      -0.9676      2.00000
     15      -0.7260      2.00000
     16      -0.7054      2.00000
     17      -0.6627      2.00000
     18      -0.5445      2.00000
     19      -0.4869      2.00000
     20      -0.2788      2.00000
     21      -0.2754      2.00000
     22       1.8055      2.00000
     23       4.9352      0.00000
     24       5.6430      0.00000
     25       8.5677      0.00000
     26       9.2431      0.00000
     27       9.8944      0.00000
     28      11.0882      0.00000

 k-point  11 :       0.3333    0.0833    0.0000
  band No.  band energies     occupation 
      1      -3.3836      2.00000
      2      -2.8485      2.00000
      3      -2.8114      2.00000
      4      -2.7955      2.00000
      5      -2.7576      2.00000
      6      -2.6437      2.00000
      7      -2.6041      2.00000
      8      -2.2163      2.00000
      9      -1.5953      2.00000
     10      -1.5580      2.00000
     11      -1.4150      2.00000
     12      -1.3787      2.00000
     13      -1.2534      2.00000
     14      -0.9240      2.00000
     15      -0.8948      2.00000
     16      -0.8553      2.00000
     17      -0.8239      2.00000
     18      -0.7439      2.00000
     19      -0.5685      2.00000
     20      -0.2789      2.00000
     21      -0.2760      2.00000
     22       0.7760      2.00000
     23       5.6290      0.00000
     24       6.4101      0.00000
     25       8.5069      0.00000
     26       9.1989      0.00000
     27       9.3702      0.00000
     28      10.1345      0.00000

 k-point  12 :       0.4167    0.0833    0.0000
  band No.  band energies     occupation 
      1      -2.9948      2.00000
      2      -2.7473      2.00000
      3      -2.6728      2.00000
      4      -2.6390      2.00000
      5      -2.6171      2.00000
      6      -2.3921      2.00000
      7      -2.3766      2.00000
      8      -2.3648      2.00000
      9      -1.7784      2.00000
     10      -1.7496      2.00000
     11      -1.5206      2.00000
     12      -1.3804      2.00000
     13      -1.1528      2.00000
     14      -1.1282      2.00000
     15      -0.9838      2.00000
     16      -0.9660      2.00000
     17      -0.9608      2.00000
     18      -0.8035      2.00000
     19      -0.6654      2.00000
     20      -0.2783      2.00000
     21      -0.2767      2.00000
     22      -0.0885      2.00000
     23       6.3812      0.00000
     24       7.2710      0.00000
     25       7.9324      0.00000
     26       9.1098      0.00000
     27       9.1584      0.00000
     28       9.4158      0.00000

 k-point  13 :       0.5000    0.0833    0.0000
  band No.  band energies     occupation 
      1      -2.7613      2.00000
      2      -2.7613      2.00000
      3      -2.5645      2.00000
      4      -2.5645      2.00000
      5      -2.5206      2.00000
      6      -2.5206      2.00000
      7      -2.1036      2.00000
      8      -2.1036      2.00000
      9      -2.0917      2.00000
     10      -2.0917      2.00000
     11      -1.3802      2.00000
     12      -1.3802      2.00000
     13      -1.1777      2.00000
     14      -1.1777      2.00000
     15      -1.0313      2.00000
     16      -1.0313      2.00000
     17      -0.8335      2.00000
     18      -0.8335      2.00000
     19      -0.6452      2.00000
     20      -0.6452      2.00000
     21      -0.2775      2.00000
     22      -0.2775      2.00000
     23       7.1603      0.00000
     24       7.1603      0.00000
     25       8.1953      0.00000
     26       8.1953      0.00000
     27       9.2809      0.00000
     28       9.2809      0.00000

 k-point  14 :       0.1667    0.1667    0.0000
  band No.  band energies     occupation 
      1      -3.8967      2.00000
      2      -3.0334      2.00000
      3      -2.9897      2.00000
      4      -2.9897      2.00000
      5      -2.9338      2.00000
      6      -2.9338      2.00000
      7      -2.8361      2.00000
      8      -2.0092      2.00000
      9      -1.7791      2.00000
     10      -1.7481      2.00000
     11      -1.1598      2.00000
     12      -1.0059      2.00000
     13      -0.8421      2.00000
     14      -0.8421      2.00000
     15      -0.8184      2.00000
     16      -0.6517      2.00000
     17      -0.5069      2.00000
     18      -0.5069      2.00000
     19      -0.3830      2.00000
     20      -0.3830      2.00000
     21      -0.3399      2.00000
     22       3.3007      0.00000
     23       3.3007      0.00000
     24       5.4112      0.00000
     25       8.5266      0.00000
     26       9.7403      0.00000
     27      10.4878      0.00000
     28      10.4878      0.00000

 k-point  15 :       0.2500    0.1667    0.0000
  band No.  band energies     occupation 
      1      -3.6046      2.00000
      2      -2.9351      2.00000
      3      -2.8753      2.00000
      4      -2.8513      2.00000
      5      -2.8436      2.00000
      6      -2.7969      2.00000
      7      -2.6713      2.00000
      8      -2.0835      2.00000
      9      -1.6922      2.00000
     10      -1.6849      2.00000
     11      -1.2142      2.00000
     12      -1.1854      2.00000
     13      -1.0951      2.00000
     14      -1.0275      2.00000
     15      -0.9341      2.00000
     16      -0.7670      2.00000
     17      -0.6405      2.00000
     18      -0.5467      2.00000
     19      -0.5401      2.00000
     20      -0.3848      2.00000
     21      -0.3741      2.00000
     22       2.1951      2.00000
     23       3.8439      0.00000
     24       6.0067      0.00000
     25       8.3125      0.00000
     26       9.0315      0.00000
     27      10.5366      0.00000
     28      11.3720      0.00000

 k-point  16 :       0.3333    0.1667    0.0000
  band No.  band energies     occupation 
      1      -3.2375      2.00000
      2      -2.7907      2.00000
      3      -2.7425      2.00000
      4      -2.7418      2.00000
      5      -2.6747      2.00000
      6      -2.6075      2.00000
      7      -2.4842      2.00000
      8      -2.1960      2.00000
      9      -1.6477      2.00000
     10      -1.5557      2.00000
     11      -1.5400      2.00000
     12      -1.4269      2.00000
     13      -1.2389      2.00000
     14      -1.2164      2.00000
     15      -0.9018      2.00000
     16      -0.8150      2.00000
     17      -0.8017      2.00000
     18      -0.7471      2.00000
     19      -0.6132      2.00000
     20      -0.3871      2.00000
     21      -0.3870      2.00000
     22       1.1790      2.00000
     23       4.4783      0.00000
     24       6.7443      0.00000
     25       7.5463      0.00000
     26       9.0162      0.00000
     27      10.3573      0.00000
     28      10.4144      0.00000

 k-point  17 :       0.4167    0.1667    0.0000
  band No.  band energies     occupation 
      1      -2.8703      2.00000
      2      -2.6324      2.00000
      3      -2.6207      2.00000
      4      -2.6136      2.00000
      5      -2.5328      2.00000
      6      -2.3684      2.00000
      7      -2.3300      2.00000
      8      -2.3030      2.00000
      9      -1.8641      2.00000
     10      -1.7659      2.00000
     11      -1.6649      2.00000
     12      -1.4573      2.00000
     13      -1.3818      2.00000
     14      -1.0844      2.00000
     15      -1.0135      2.00000
     16      -0.9644      2.00000
     17      -0.9543      2.00000
     18      -0.7258      2.00000
     19      -0.6283      2.00000
     20      -0.3910      2.00000
     21      -0.3892      2.00000
     22       0.3292      2.00000
     23       5.1725      0.00000
     24       6.7085      0.00000
     25       7.5821      0.00000
     26       9.2256      0.00000
     27       9.4423      0.00000
     28       9.9464      0.00000

 k-point  18 :       0.5000    0.1667    0.0000
  band No.  band energies     occupation 
      1      -2.6420      2.00000
      2      -2.6420      2.00000
      3      -2.5006      2.00000
      4      -2.5006      2.00000
      5      -2.4729      2.00000
      6      -2.4729      2.00000
      7      -2.1198      2.00000
      8      -2.1198      2.00000
      9      -2.0849      2.00000
     10      -2.0849      2.00000
     11      -1.6251      2.00000
     12      -1.6251      2.00000
     13      -1.1808      2.00000
     14      -1.1808      2.00000
     15      -1.0401      2.00000
     16      -1.0401      2.00000
     17      -0.8866      2.00000
     18      -0.8866      2.00000
     19      -0.3910      2.00000
     20      -0.3910      2.00000
     21      -0.2816      2.00000
     22      -0.2816      2.00000
     23       5.9157      0.00000
     24       5.9157      0.00000
     25       8.4897      0.00000
     26       8.4897      0.00000
     27       9.5430      0.00000
     28       9.5430      0.00000

 k-point  19 :       0.2500    0.2500    0.0000
  band No.  band energies     occupation 
      1      -3.3412      2.00000
      2      -2.8665      2.00000
      3      -2.7245      2.00000
      4      -2.7245      2.00000
      5      -2.7227      2.00000
      6      -2.7227      2.00000
      7      -2.5050      2.00000
      8      -2.1107      2.00000
      9      -1.6608      2.00000
     10      -1.6407      2.00000
     11      -1.3690      2.00000
     12      -1.3690      2.00000
     13      -1.2727      2.00000
     14      -1.2568      2.00000
     15      -0.8638      2.00000
     16      -0.8156      2.00000
     17      -0.6565      2.00000
     18      -0.6565      2.00000
     19      -0.5500      2.00000
     20      -0.5500      2.00000
     21      -0.4635      2.00000
     22       2.7218      0.00000
     23       2.7218      0.00000
     24       6.5623      0.00000
     25       7.4036      0.00000
     26       8.9725      0.00000
     27      11.6008      0.00000
     28      11.6008      0.00000

 k-point  20 :       0.3333    0.2500    0.0000
  band No.  band energies     occupation 
      1      -3.0168      2.00000
      2      -2.7498      2.00000
      3      -2.6296      2.00000
      4      -2.5784      2.00000
      5      -2.5501      2.00000
      6      -2.5450      2.00000
      7      -2.3273      2.00000
      8      -2.1808      2.00000
      9      -1.6985      2.00000
     10      -1.6669      2.00000
     11      -1.5654      2.00000
     12      -1.5313      2.00000
     13      -1.5211      2.00000
     14      -1.2699      2.00000
     15      -0.9789      2.00000
     16      -0.8105      2.00000
     17      -0.7510      2.00000
     18      -0.7217      2.00000
     19      -0.6136      2.00000
     20      -0.5533      2.00000
     21      -0.5178      2.00000
     22       1.6967      2.00000
     23       3.3308      0.00000
     24       6.4364      0.00000
     25       7.2629      0.00000
     26       9.1442      0.00000
     27      10.8592      0.00000
     28      10.9287      0.00000

 k-point  21 :       0.4167    0.2500    0.0000
  band No.  band energies     occupation 
      1      -2.6928      2.00000
      2      -2.5912      2.00000
      3      -2.5184      2.00000
      4      -2.4560      2.00000
      5      -2.4004      2.00000
      6      -2.3323      2.00000
      7      -2.2823      2.00000
      8      -2.1824      2.00000
      9      -1.9727      2.00000
     10      -1.8009      2.00000
     11      -1.7479      2.00000
     12      -1.7432      2.00000
     13      -1.3728      2.00000
     14      -1.1681      2.00000
     15      -1.0706      2.00000
     16      -0.9682      2.00000
     17      -0.9672      2.00000
     18      -0.8381      2.00000
     19      -0.5554      2.00000
     20      -0.5437      2.00000
     21      -0.3095      2.00000
     22       0.8270      2.00000
     23       4.0032      0.00000
     24       5.5464      0.00000
     25       8.0703      0.00000
     26       9.4240      0.00000
     27       9.8926      0.00000
     28      10.3148      0.00000

 k-point  22 :       0.5000    0.2500    0.0000
  band No.  band energies     occupation 
      1      -2.4700      2.00000
      2      -2.4700      2.00000
      3      -2.4243      2.00000
      4      -2.4243      2.00000
      5      -2.3992      2.00000
      6      -2.3992      2.00000
      7      -2.1074      2.00000
      8      -2.1074      2.00000
[...]
     14      -0.9899      2.00000
     15      -0.9899      2.00000
     16      -0.9899      2.00000
     17      -0.6339      2.00000
     18      -0.6339      2.00000
     19      -0.6339      2.00000
     20      -0.6339      2.00000
     21       2.0999      2.00000
     22       2.0999      2.00000
     23       2.0999      2.00000
     24       2.0999      2.00000
     25       7.3816      0.00000
     26       7.3816      0.00000
     27       7.3816      0.00000
     28       7.3816      0.00000

 k-point  75 :       0.3333    0.3333    0.3333
  band No.  band energies     occupation 
      1      -3.0869      2.00000
      2      -2.8580      2.00000
      3      -2.8580      2.00000
      4      -2.8580      2.00000
      5      -2.0864      2.00000
      6      -2.0864      2.00000
      7      -2.0864      2.00000
      8      -1.8014      2.00000
      9      -1.8014      2.00000
     10      -1.5706      2.00000
     11      -1.5706      2.00000
     12      -1.5706      2.00000
     13      -1.3051      2.00000
     14      -1.3051      2.00000
     15      -1.3051      2.00000
     16      -0.7062      2.00000
     17      -0.7062      2.00000
     18      -0.4157      2.00000
     19      -0.3838      2.00000
     20      -0.3838      2.00000
     21      -0.3838      2.00000
     22       3.1116      0.00000
     23       3.1116      0.00000
     24       3.1116      0.00000
     25       6.7485      0.00000
     26       6.7485      0.00000
     27       6.7485      0.00000
     28       9.8266      0.00000

 k-point  76 :       0.4167    0.3333    0.3333
  band No.  band energies     occupation 
      1      -3.0806      2.00000
      2      -2.9548      2.00000
      3      -2.8974      2.00000
      4      -2.8974      2.00000
      5      -2.0768      2.00000
      6      -2.0768      2.00000
      7      -1.9987      2.00000
      8      -1.8480      2.00000
      9      -1.8036      2.00000
     10      -1.6845      2.00000
     11      -1.6432      2.00000
     12      -1.6432      2.00000
     13      -1.1518      2.00000
     14      -1.1358      2.00000
     15      -1.1358      2.00000
     16      -0.8213      2.00000
     17      -0.5655      2.00000
     18      -0.4158      2.00000
     19      -0.4158      2.00000
     20      -0.3977      2.00000
     21       0.2653      2.00000
     22       2.0544      2.00000
     23       3.4617      0.00000
     24       3.4617      0.00000
     25       6.0235      0.00000
     26       6.0235      0.00000
     27       7.3535      0.00000
     28       8.8987      0.00000

 k-point  77 :       0.5000    0.3333    0.3333
  band No.  band energies     occupation 
      1      -3.0335      2.00000
      2      -3.0335      2.00000
      3      -2.9103      2.00000
      4      -2.9103      2.00000
      5      -2.0763      2.00000
      6      -2.0763      2.00000
      7      -1.9153      2.00000
      8      -1.9153      2.00000
      9      -1.7639      2.00000
     10      -1.7639      2.00000
     11      -1.6664      2.00000
     12      -1.6664      2.00000
     13      -1.0626      2.00000
     14      -1.0626      2.00000
     15      -0.9861      2.00000
     16      -0.9861      2.00000
     17      -0.4599      2.00000
     18      -0.4599      2.00000
     19      -0.4405      2.00000
     20      -0.4405      2.00000
     21       1.1020      2.00000
     22       1.1020      2.00000
     23       3.6368      0.00000
     24       3.6368      0.00000
     25       5.7229      0.00000
     26       5.7229      0.00000
     27       8.0733      0.00000
     28       8.0733      0.00000

 k-point  78 :       0.4167    0.4167    0.3333
  band No.  band energies     occupation 
      1      -3.1059      2.00000
      2      -3.0073      2.00000
      3      -3.0073      2.00000
      4      -2.9780      2.00000
      5      -2.0306      2.00000
      6      -1.9957      2.00000
      7      -1.9957      2.00000
      8      -1.8645      2.00000
      9      -1.8424      2.00000
     10      -1.7486      2.00000
     11      -1.7486      2.00000
     12      -1.7311      2.00000
     13      -0.9382      2.00000
     14      -0.9382      2.00000
     15      -0.9372      2.00000
     16      -0.6146      2.00000
     17      -0.6073      2.00000
     18      -0.4331      2.00000
     19      -0.4209      2.00000
     20      -0.4209      2.00000
     21       0.8133      2.00000
     22       2.4877      2.00000
     23       2.4877      2.00000
     24       3.3796      0.00000
     25       5.6792      0.00000
     26       6.5234      0.00000
     27       6.5234      0.00000
     28       7.9850      0.00000

 k-point  79 :       0.5000    0.4167    0.3333
  band No.  band energies     occupation 
      1      -3.0796      2.00000
      2      -3.0796      2.00000
      3      -3.0150      2.00000
      4      -3.0150      2.00000
      5      -2.0037      2.00000
      6      -2.0037      2.00000
      7      -1.9211      2.00000
      8      -1.9211      2.00000
      9      -1.8173      2.00000
     10      -1.8173      2.00000
     11      -1.7669      2.00000
     12      -1.7669      2.00000
     13      -0.8456      2.00000
     14      -0.8456      2.00000
     15      -0.7559      2.00000
     16      -0.7559      2.00000
     17      -0.4834      2.00000
     18      -0.4834      2.00000
     19      -0.4547      2.00000
     20      -0.4547      2.00000
     21       1.5841      2.00000
     22       1.5841      2.00000
     23       2.9817      0.00000
     24       2.9817      0.00000
     25       5.9148      0.00000
     26       5.9148      0.00000
     27       7.1896      0.00000
     28       7.1896      0.00000

 k-point  80 :       0.5000    0.5000    0.3333
  band No.  band energies     occupation 
      1      -3.0727      2.00000
      2      -3.0727      2.00000
      3      -3.0727      2.00000
      4      -3.0727      2.00000
      5      -1.9462      2.00000
      6      -1.9462      2.00000
      7      -1.9462      2.00000
      8      -1.9462      2.00000
      9      -1.8226      2.00000
     10      -1.8226      2.00000
     11      -1.8226      2.00000
     12      -1.8226      2.00000
     13      -0.6904      2.00000
     14      -0.6904      2.00000
     15      -0.6904      2.00000
     16      -0.6904      2.00000
     17      -0.5116      2.00000
     18      -0.5116      2.00000
     19      -0.5116      2.00000
     20      -0.5116      2.00000
     21       2.2371      2.00000
     22       2.2371      2.00000
     23       2.2371      2.00000
     24       2.2371      2.00000
     25       6.4551      0.00000
     26       6.4551      0.00000
     27       6.4551      0.00000
     28       6.4551      0.00000

 k-point  81 :       0.4167    0.4167    0.4167
  band No.  band energies     occupation 
      1      -3.1583      2.00000
      2      -3.0897      2.00000
      3      -3.0897      2.00000
      4      -3.0897      2.00000
      5      -1.9668      2.00000
      6      -1.9668      2.00000
      7      -1.9668      2.00000
      8      -1.8792      2.00000
      9      -1.8792      2.00000
     10      -1.8216      2.00000
     11      -1.8216      2.00000
     12      -1.8216      2.00000
     13      -0.7200      2.00000
     14      -0.7200      2.00000
     15      -0.7200      2.00000
     16      -0.4906      2.00000
     17      -0.4906      2.00000
     18      -0.4001      2.00000
     19      -0.4001      2.00000
     20      -0.4001      2.00000
     21       1.2557      2.00000
     22       2.6981      0.00000
     23       2.6981      0.00000
     24       2.6981      0.00000
     25       5.8555      0.00000
     26       5.8555      0.00000
     27       5.8555      0.00000
     28       7.1043      0.00000

 k-point  82 :       0.5000    0.4167    0.4167
  band No.  band energies     occupation 
      1      -3.1518      2.00000
      2      -3.1518      2.00000
      3      -3.1175      2.00000
      4      -3.1175      2.00000
      5      -1.9548      2.00000
      6      -1.9548      2.00000
      7      -1.9140      2.00000
      8      -1.9140      2.00000
      9      -1.8721      2.00000
     10      -1.8721      2.00000
     11      -1.8484      2.00000
     12      -1.8484      2.00000
     13      -0.6208      2.00000
     14      -0.6208      2.00000
     15      -0.5550      2.00000
     16      -0.5550      2.00000
     17      -0.4196      2.00000
     18      -0.4196      2.00000
     19      -0.4153      2.00000
     20      -0.4153      2.00000
     21       1.9271      2.00000
     22       1.9271      2.00000
     23       2.7975      0.00000
     24       2.7975      0.00000
     25       5.6004      0.00000
     26       5.6004      0.00000
     27       6.3788      0.00000
     28       6.3788      0.00000

 k-point  83 :       0.5000    0.5000    0.4167
  band No.  band energies     occupation 
      1      -3.1641      2.00000
      2      -3.1641      2.00000
      3      -3.1641      2.00000
      4      -3.1641      2.00000
      5      -1.9198      2.00000
      6      -1.9198      2.00000
      7      -1.9198      2.00000
      8      -1.9198      2.00000
      9      -1.8880      2.00000
     10      -1.8880      2.00000
     11      -1.8880      2.00000
     12      -1.8880      2.00000
     13      -0.4812      2.00000
     14      -0.4812      2.00000
     15      -0.4812      2.00000
     16      -0.4812      2.00000
     17      -0.4330      2.00000
     18      -0.4330      2.00000
     19      -0.4330      2.00000
     20      -0.4330      2.00000
     21       2.3817      2.00000
     22       2.3817      2.00000
     23       2.3817      2.00000
     24       2.3817      2.00000
     25       5.8069      0.00000
     26       5.8069      0.00000
     27       5.8069      0.00000
     28       5.8069      0.00000

 k-point  84 :       0.5000    0.5000    0.5000
  band No.  band energies     occupation 
      1      -3.1949      2.00000
      2      -3.1949      2.00000
      3      -3.1949      2.00000
      4      -3.1949      2.00000
      5      -1.9102      2.00000
      6      -1.9102      2.00000
      7      -1.9102      2.00000
      8      -1.9102      2.00000
      9      -1.9102      2.00000
     10      -1.9102      2.00000
     11      -1.9102      2.00000
     12      -1.9102      2.00000
     13      -0.4058      2.00000
     14      -0.4058      2.00000
     15      -0.4058      2.00000
     16      -0.4058      2.00000
     17      -0.4058      2.00000
     18      -0.4058      2.00000
     19      -0.4058      2.00000
     20      -0.4058      2.00000
     21       2.4502      2.00000
     22       2.4502      2.00000
     23       2.4502      2.00000
     24       2.4502      2.00000
     25       5.5648      0.00000
     26       5.5648      0.00000
     27       5.5648      0.00000
     28       5.5648      0.00000


--------------------------------------------------------------------------------------------------------


 soft charge-density along one line, spin component           1
         0         1         2         3         4         5         6         7         8         9
 total charge-density along one line
 
 pseudopotential strength for first ion, spin component:           1
-12.371  -0.000   0.000  -0.000  -0.000   0.169   0.000  -0.000
 -0.000 -12.371   0.000  -0.000   0.000   0.000   0.169  -0.000
  0.000   0.000 -12.363   0.000  -0.000  -0.000  -0.000   0.167
 -0.000  -0.000   0.000 -12.371  -0.000   0.000   0.000  -0.000
 -0.000   0.000  -0.000  -0.000 -12.363   0.000  -0.000   0.000
  0.169   0.000  -0.000   0.000   0.000   0.450  -0.000   0.000
  0.000   0.169  -0.000   0.000  -0.000  -0.000   0.450   0.000
 -0.000  -0.000   0.167  -0.000   0.000   0.000   0.000   0.450
  0.000   0.000  -0.000   0.169   0.000  -0.000  -0.000   0.000
  0.000  -0.000   0.000   0.000   0.167  -0.000   0.000  -0.000
  0.000   0.000  -0.000   0.000  -0.000  -0.000  -0.000   0.000
 -0.000  -0.000   0.000  -0.000   0.000   0.000   0.000  -0.000
  0.000  -0.000   0.000   0.000   0.000  -0.000   0.000  -0.000
  0.000  -0.000  -0.000   0.000  -0.000  -0.000   0.000   0.000
 -0.000   0.000  -0.000  -0.000   0.000   0.000  -0.000   0.000
 -0.000   0.000  -0.000  -0.000  -0.000   0.000  -0.000   0.000
 -0.000   0.000   0.000  -0.000   0.000   0.000  -0.000  -0.000
  0.000  -0.000   0.000   0.000  -0.000  -0.000   0.000  -0.000
 total augmentation occupancy for first ion, spin component:           1
  1.914  -0.005  -0.001   0.002  -0.009  -0.021   0.004  -0.010  -0.003   0.009   0.015  -0.014  -0.000   0.000   0.000  -0.000
 -0.005   1.967  -0.001  -0.007  -0.000   0.004  -0.050   0.004   0.007  -0.006   0.043  -0.003  -0.000   0.000  -0.000  -0.000
 -0.001  -0.001   1.942   0.004  -0.018  -0.010   0.004  -0.035  -0.002   0.019  -0.048  -0.037  -0.000  -0.000  -0.000  -0.000
  0.002  -0.007   0.004   1.946  -0.002  -0.003   0.007  -0.002  -0.023   0.007   0.016  -0.005   0.000   0.000   0.000   0.000
 -0.009  -0.000  -0.018  -0.002   1.984   0.009  -0.006   0.019   0.007  -0.073   0.072   0.019   0.000   0.000   0.000   0.000
 -0.021   0.004  -0.010  -0.003   0.009   0.081  -0.001   0.018   0.005  -0.008   0.021   0.019   0.000   0.000  -0.000  -0.000
  0.004  -0.050   0.004   0.007  -0.006  -0.001   0.063  -0.004  -0.004   0.009  -0.019   0.012  -0.000   0.000  -0.000  -0.000
 -0.010   0.004  -0.035  -0.002   0.019   0.018  -0.004   0.060   0.001  -0.005   0.096  -0.009  -0.000  -0.000  -0.000   0.000
 -0.003   0.007  -0.002  -0.023   0.007   0.005  -0.004   0.001   0.047  -0.009   0.001   0.010  -0.000   0.000   0.000  -0.000
  0.009  -0.006   0.019   0.007  -0.073  -0.008   0.009  -0.005  -0.009   0.046  -0.075   0.015   0.000   0.000   0.000  -0.000
  0.015   0.043  -0.048   0.016   0.072   0.021  -0.019   0.096   0.001  -0.075   0.993  -0.317  -0.000  -0.000   0.000   0.000
 -0.014  -0.003  -0.037  -0.005   0.019   0.019   0.012  -0.009   0.010   0.015  -0.317   0.154  -0.000  -0.000   0.000  -0.000
 -0.000  -0.000  -0.000   0.000   0.000   0.000  -0.000  -0.000  -0.000   0.000  -0.000  -0.000   0.083   0.017  -0.009  -0.005
  0.000   0.000  -0.000   0.000   0.000   0.000   0.000  -0.000   0.000   0.000  -0.000  -0.000   0.017   0.058  -0.000  -0.001
  0.000  -0.000  -0.000   0.000   0.000  -0.000  -0.000  -0.000   0.000   0.000   0.000   0.000  -0.009  -0.000   0.145  -0.000
 -0.000  -0.000  -0.000   0.000   0.000  -0.000  -0.000   0.000  -0.000  -0.000   0.000  -0.000  -0.005  -0.001  -0.000   0.000
 -0.000  -0.000  -0.000   0.000   0.000  -0.000  -0.000  -0.000  -0.000   0.000   0.000  -0.000  -0.001  -0.004  -0.000   0.000
  0.000  -0.000  -0.000   0.000  -0.000  -0.000   0.000  -0.000  -0.000  -0.000   0.000  -0.000  -0.000  -0.000  -0.007   0.000


------------------------ aborting loop because EDIFF is reached ----------------------------------------




--------------------------------------------------------------------------------------------------------


    CHARGE:  VPU time    1.25: CPU time    1.25
    FORLOC:  VPU time    0.00: CPU time    0.01
    FORNL :  VPU time    3.03: CPU time    3.03
    STRESS:  VPU time    7.72: CPU time    7.73
    FORCOR:  VPU time    0.15: CPU time    0.15
    FORHAR:  VPU time    0.03: CPU time    0.03
    MIXING:  VPU time    0.00: CPU time    0.00


--------------------------------------------------------------------------------------------------------



  FREE ENERGIE OF THE ION-ELECTRON SYSTEM (eV)
  ---------------------------------------------------
  free  energy   TOTEN  =       -11.252573 eV

  energy  without entropy=      -11.252533  energy(sigma->0) =      -11.252553
 

  FORCE on cell =-STRESS in cart. coord.  units (eV/reduce length):
  Direction    X        Y        Z        XY       YZ       ZX
  --------------------------------------------------------------------------------------
  Alpha Z    371.04    371.04    371.04
  Ewald    -1254.14  -1254.14  -1254.14     -0.00     -0.00     -0.00
  Hartree    279.09    279.09    279.09     -0.00     -0.00     -0.00
  E(xc)     -232.00   -232.00   -232.00      0.00      0.00      0.00
  Local      389.83    389.83    389.83      0.00      0.00      0.00
  n-local   -261.26   -268.68   -270.82      0.18      2.20      0.62
  augment    167.38    167.38    167.38     -0.00     -0.00     -0.00
  Kinetic    550.97    542.31    537.53     -2.80      0.72     -1.00
  -------------------------------------------------------------------------------------
  Total       -2.13     -2.13     -2.13     -0.00     -0.00      0.00
  in kB      -44.46    -44.46    -44.46     -0.00     -0.00      0.00
  external pressure =      -44.46 kB  Pullay stress =        0.00 kB


 VOLUME and BASIS-vectors are now :
 -----------------------------------------------------------------------------
  energy-cutoff  :      750.00
  volume of cell :       76.58
      direct lattice vectors                 reciprocal lattice vectors
     4.246489277  0.000000000  0.000000000     0.235488644  0.000000000  0.000000000
     0.000000000  4.246489277  0.000000000     0.000000000  0.235488644  0.000000000
     0.000000000  0.000000000  4.246489277     0.000000000  0.000000000  0.235488644

  length of vectors
     4.246489277  4.246489277  4.246489277     0.235488644  0.235488644  0.235488644


 FORCES acting on ions
    electron-ion (+dipol)            ewald-force                    non-local-force                 convergence-correction
 -----------------------------------------------------------------------------------------------
   0.106E-15 0.769E-14 -.941E-15   -.968E-14 -.120E-13 -.119E-13   0.258E-25 0.258E-25 0.291E-25   -.818E-13 -.859E-13 -.675E-13
   -.786E-13 -.727E-12 -.274E-11   0.258E-14 0.773E-16 -.121E-13   -.129E-24 0.000E+00 0.157E-24   0.757E-13 0.358E-13 -.721E-13
   -.796E-13 0.897E-14 -.341E-11   0.525E-14 0.462E-15 0.109E-13   0.258E-25 -.181E-24 0.258E-25   0.780E-13 -.816E-13 0.560E-13
   0.107E-14 -.718E-13 -.837E-13   0.119E-14 0.126E-13 0.106E-13   0.517E-25 0.000E+00 0.258E-25   -.895E-13 0.327E-13 0.598E-13
 -----------------------------------------------------------------------------------------------
   -.157E-12 -.782E-12 -.623E-11   -.670E-15 0.108E-14 -.251E-14   -.258E-25 -.155E-24 0.237E-24   -.176E-13 -.990E-13 -.237E-13
 
 
 POSITION                                       TOTAL-FORCE (eV/Angst)
 -----------------------------------------------------------------------------------
      0.00000      0.00000      0.00000        -0.000000     -0.000000      0.000000
      2.12324      2.12324      0.00000         0.000000      0.000000      0.000000
      2.12324      0.00000      2.12324        -0.000000     -0.000000     -0.000000
      0.00000      2.12324      2.12324        -0.000000     -0.000000     -0.000000
 -----------------------------------------------------------------------------------
    total drift:                               -0.000000     -0.000000     -0.000000


--------------------------------------------------------------------------------------------------------



 mean value of Nose-termostat <S>:     1.000 mean value of <T> :     0.000
 mean temperature <T/S>/<1/S>  :     0.000

     LOOP+:  VPU time  189.92: CPU time  190.14
  
  
 General timing and accounting informations for this job:
 ========================================================
  
                  Total CPU time used (sec):      192.716
                            User time (sec):      176.208
                          System time (sec):       16.507
                         Elapsed time (sec):      192.954
  
                   Maximum memory used (kb):      488644.
                   Average memory used (kb):           0.
  
                          Minor page faults:       183209
                          Major page faults:            0
                 Voluntary context switches:          921
