 running on    4 nodes
 distr:  one band on    1 nodes,    4 groups
 vasp.4.6.28 25Jul05 complex 
 POSCAR found :  1 types and  108 ions

 ----------------------------------------------------------------------------- 
|                                                                             |
|  ADVICE TO THIS USER RUNNING 'VASP/VAMP'   (HEAR YOUR MASTER'S VOICE ...):  |
|                                                                             |
|      You have a (more or less) 'large supercell' and for larger cells       |
|      it might be more efficient to use real space projection operators      |
|      So try LREAL= Auto  in the INCAR   file.                               |
|      Mind: If you want to do an extremely accurate calculations keep the    |
|      reciprocal projection scheme          (i.e. LREAL=.FALSE.)             |
|                                                                             |
 ----------------------------------------------------------------------------- 

 LDA part: xc-table for Pade appr. of Perdew
 POSCAR, INCAR and KPOINTS ok, starting setup
 WARNING: wrap around errors must be expected
 FFT: planning ...          12
 reading WAVECAR
 entering main loop
       N       E                     dE             d eps       ncg     rms          rms(c)
DAV:   1     0.799682580482E+04    0.79968E+04   -0.33073E+05  1424   0.157E+03
DAV:   2     0.448224556027E+03   -0.75486E+04   -0.72428E+04  1424   0.396E+02
DAV:   3    -0.459152006000E+03   -0.90738E+03   -0.80997E+03  1424   0.151E+02
DAV:   4    -0.494905334446E+03   -0.35753E+02   -0.35269E+02  1504   0.364E+01
DAV:   5    -0.495116024636E+03   -0.21069E+00   -0.21038E+00  1488   0.287E+00    0.723E+01
DAV:   6    -0.430214569364E+03    0.64901E+02   -0.89060E+02  1512   0.843E+01    0.305E+01
DAV:   7    -0.400813152297E+03    0.29401E+02   -0.14638E+02  1576   0.341E+01    0.621E+00
DAV:   8    -0.399665561808E+03    0.11476E+01   -0.13580E+00  1472   0.175E+00    0.273E+00
DAV:   9    -0.399508087356E+03    0.15747E+00   -0.27353E-01  1728   0.140E+00    0.106E-01
DAV:  10    -0.399510186014E+03   -0.20987E-02   -0.15198E-02  1456   0.170E-01    0.598E-02
DAV:  11    -0.399510068028E+03    0.11799E-03   -0.77675E-04  1496   0.720E-02    0.151E-02
DAV:  12    -0.399510180364E+03   -0.11234E-03   -0.26929E-05   952   0.148E-02    0.877E-03
DAV:  13    -0.399510177889E+03    0.24752E-05   -0.31438E-06   760   0.539E-03
   1 F= -.39951018E+03 E0= -.39934383E+03  d E =-.399510E+03
 curvature:   0.00 expect dE= 0.000E+00 dE for cont linesearch  0.000E+00
 trial: gam= 0.00000 g(F)=  0.161E-43 g(S)=  0.000E+00 ort = 0.000E+00 (trialstep = 0.100E+01)
 search vector abs. value=  0.100E-09
 reached required accuracy - stopping structural energy minimisation
 writing wavefunctions

 ----------------------------------------------------------------------------- 
|                                                                             |
|           W    W    AA    RRRRR   N    N  II  N    N   GGGG   !!!           |
|           W    W   A  A   R    R  NN   N  II  NN   N  G    G  !!!           |
|           W    W  A    A  R    R  N N  N  II  N N  N  G       !!!           |
|           W WW W  AAAAAA  RRRRR   N  N N  II  N  N N  G  GGG   !            |
|           WW  WW  A    A  R   R   N   NN  II  N   NN  G    G                |
|           W    W  A    A  R    R  N    N  II  N    N   GGGG   !!!           |
|                                                                             |
|      The partial DOS and the PROCAR file are not evaluated for NPAR/=1      |
|      please rerun with NPAR=1                                               |
|                                                                             |
 ----------------------------------------------------------------------------- 

