 running on    4 nodes
 distr:  one band on    1 nodes,    4 groups
 vasp.4.6.28 25Jul05 complex 
 POSCAR found :  1 types and  108 ions

 ----------------------------------------------------------------------------- 
|                                                                             |
|  ADVICE TO THIS USER RUNNING 'VASP/VAMP'   (HEAR YOUR MASTER'S VOICE ...):  |
|                                                                             |
|      You have a (more or less) 'large supercell' and for larger cells       |
|      it might be more efficient to use real space projection operators      |
|      So try LREAL= Auto  in the INCAR   file.                               |
|      Mind: If you want to do an extremely accurate calculations keep the    |
|      reciprocal projection scheme          (i.e. LREAL=.FALSE.)             |
|                                                                             |
 ----------------------------------------------------------------------------- 

 LDA part: xc-table for Pade appr. of Perdew
 found WAVECAR, reading the header
  number of k-points has changed, file:  10 present:  18
  trying to continue reading WAVECAR, but it might fail
 POSCAR, INCAR and KPOINTS ok, starting setup
 FFT: planning ...           1
 reading WAVECAR
 the WAVECAR file was read sucessfully
 initial charge from wavefunction
 entering main loop
       N       E                     dE             d eps       ncg     rms          rms(c)
RMM:   1    -0.397643808406E+03   -0.39764E+03   -0.39069E+02 26369   0.213E+01BRMIX: very serious problems
 the old and the new charge density differ
 old charge density:  1190.48644 new 1188.00001
    0.331E+00
RMM:   2    -0.397669481987E+03   -0.25674E-01   -0.55563E+00 27019   0.527E+00    0.178E+00
RMM:   3    -0.397618568228E+03    0.50914E-01   -0.30974E-01 27111   0.133E+00    0.792E-01
RMM:   4    -0.397605549320E+03    0.13019E-01   -0.25438E-02 27153   0.369E-01    0.192E-01
RMM:   5    -0.397604521535E+03    0.10278E-02   -0.28914E-03 27228   0.113E-01    0.168E-01
RMM:   6    -0.397603993634E+03    0.52790E-03   -0.11227E-03 27500   0.705E-02    0.950E-02
RMM:   7    -0.397603705586E+03    0.28805E-03   -0.48052E-04 27237   0.463E-02    0.196E-02
RMM:   8    -0.397603655421E+03    0.50165E-04   -0.68065E-05 25469   0.205E-02    0.989E-03
RMM:   9    -0.397603651292E+03    0.41291E-05   -0.37171E-06 14711   0.437E-03
   1 F= -.39760365E+03 E0= -.39759842E+03  d E =-.157029E-01

 ----------------------------------------------------------------------------- 
|                                                                             |
|           W    W    AA    RRRRR   N    N  II  N    N   GGGG   !!!           |
|           W    W   A  A   R    R  NN   N  II  NN   N  G    G  !!!           |
|           W    W  A    A  R    R  N N  N  II  N N  N  G       !!!           |
|           W WW W  AAAAAA  RRRRR   N  N N  II  N  N N  G  GGG   !            |
|           WW  WW  A    A  R   R   N   NN  II  N   NN  G    G                |
|           W    W  A    A  R    R  N    N  II  N    N   GGGG   !!!           |
|                                                                             |
|      The partial DOS and the PROCAR file are not evaluated for NPAR/=1      |
|      please rerun with NPAR=1                                               |
|                                                                             |
 ----------------------------------------------------------------------------- 

