       N       E                     dE             d eps       ncg     rms          rms(c)
RMM:   1     0.603042869073E+04    0.60304E+04   -0.50303E+05  7120   0.227E+03
RMM:   2     0.543080653314E+03   -0.54873E+04   -0.64197E+04  7120   0.352E+02
RMM:   3    -0.245349081597E+03   -0.78843E+03   -0.82299E+03  7120   0.150E+02
RMM:   4    -0.447008050383E+03   -0.20166E+03   -0.88807E+02  7120   0.574E+01
RMM:   5    -0.480935377359E+03   -0.33927E+02   -0.19813E+02  7120   0.214E+01
RMM:   6    -0.485602762253E+03   -0.46674E+01   -0.40771E+01  7120   0.125E+01
RMM:   7    -0.486490554369E+03   -0.88779E+00   -0.86952E+00  7120   0.443E+00
RMM:   8    -0.486693574259E+03   -0.20302E+00   -0.19836E+00  7120   0.266E+00
RMM:   9    -0.486747152368E+03   -0.53578E-01   -0.55600E-01 14244   0.100E+00
RMM:  10    -0.486750206876E+03   -0.30545E-02   -0.31743E-02 14264   0.175E-01
RMM:  11    -0.486750354281E+03   -0.14740E-03   -0.14814E-03 13712   0.741E-02
RMM:  12    -0.486750360834E+03   -0.65527E-05   -0.86194E-05 11479   0.776E-03    0.709E+01
RMM:  13    -0.441454683814E+03    0.45296E+02   -0.10560E+03 14240   0.752E+01    0.391E+01
RMM:  14    -0.398598252936E+03    0.42856E+02   -0.19305E+02 14240   0.337E+01    0.552E+00
RMM:  15    -0.397784578235E+03    0.81367E+00   -0.84168E-01 14240   0.210E+00    0.301E+00
RMM:  16    -0.397602452559E+03    0.18213E+00   -0.42493E-01 14240   0.137E+00    0.153E-01
RMM:  17    -0.397604502086E+03   -0.20495E-02   -0.50364E-03 14240   0.115E-01    0.411E-02
RMM:  18    -0.397604481454E+03    0.20633E-04   -0.13135E-04 13513   0.293E-02    0.513E-03
RMM:  19    -0.397604515117E+03   -0.33663E-04   -0.45814E-06  7763   0.481E-03    0.666E-03
RMM:  20    -0.397604517526E+03   -0.24085E-05   -0.40954E-06  7679   0.497E-03
   1 F= -.39760452E+03 E0= -.39759929E+03  d E =-.397605E+03
