   4   4   0   0
  0.1547287E+02  0.3955581E-09  0.3955581E-09  0.3955581E-09  0.5000000E-15
  1.000000000000000E-004
  CAR 
 unknown system                          
     22.64081593     -5.33804359  301      4.51344112      1.00000000
     -5.338  0.0000E+00  0.0000E+00
     -5.245  0.0000E+00  0.0000E+00
     -5.152  0.0000E+00  0.0000E+00
     -5.058  0.0000E+00  0.0000E+00
     -4.965  0.0000E+00  0.0000E+00
     -4.872  0.0000E+00  0.0000E+00
     -4.778  0.0000E+00  0.0000E+00
     -4.685  0.0000E+00  0.0000E+00
     -4.592  0.0000E+00  0.0000E+00
     -4.499  0.0000E+00  0.0000E+00
     -4.405  0.0000E+00  0.0000E+00
     -4.312  0.0000E+00  0.0000E+00
     -4.219  0.0000E+00  0.0000E+00
     -4.126  0.0000E+00  0.0000E+00
     -4.032  0.1392E-01  0.1299E-02
     -3.939  0.8356E-01  0.1024E-01
     -3.846  0.1221E+00  0.2240E-01
     -3.753  0.1498E+00  0.3950E-01
     -3.659  0.1679E+00  0.5842E-01
     -3.566  0.2232E+00  0.8141E-01
     -3.473  0.2419E+00  0.1076E+00
     -3.380  0.2636E+00  0.1340E+00
     -3.286  0.2960E+00  0.1665E+00
     -3.193  0.3490E+00  0.2012E+00
     -3.100  0.3438E+00  0.2379E+00
     -3.006  0.3749E+00  0.2809E+00
     -2.913  0.3691E+00  0.3203E+00
     -2.820  0.4329E+00  0.3731E+00
     -2.727  0.5672E+00  0.4320E+00
     -2.633  0.1044E+01  0.5383E+00
     -2.540  0.2449E+01  0.7868E+00
     -2.447  0.4533E+01  0.1264E+01
     -2.354  0.5833E+01  0.1900E+01
     -2.260  0.6895E+01  0.2652E+01
     -2.167  0.8440E+01  0.3545E+01
     -2.074  0.1068E+02  0.4672E+01
     -1.981  0.1159E+02  0.5943E+01
     -1.887  0.9562E+01  0.6980E+01
     -1.794  0.8841E+01  0.7956E+01
     -1.701  0.7791E+01  0.8798E+01
     -1.608  0.6758E+01  0.9539E+01
     -1.514  0.5766E+01  0.1017E+02
     -1.421  0.6374E+01  0.1087E+02
     -1.328  0.7269E+01  0.1162E+02
     -1.234  0.7588E+01  0.1243E+02
     -1.141  0.7706E+01  0.1327E+02
     -1.048  0.7560E+01  0.1410E+02
     -0.955  0.7259E+01  0.1487E+02
     -0.861  0.7431E+01  0.1569E+02
     -0.768  0.7778E+01  0.1653E+02
     -0.675  0.8615E+01  0.1745E+02
     -0.582  0.1057E+02  0.1861E+02
     -0.488  0.1364E+02  0.2004E+02
     -0.395  0.1323E+02  0.2155E+02
     -0.302  0.9636E+01  0.2261E+02
     -0.209  0.7541E+01  0.2345E+02
     -0.115  0.6897E+01  0.2419E+02
     -0.022  0.7900E+01  0.2506E+02
      0.071  0.7278E+01  0.2584E+02
      0.164  0.7631E+01  0.2666E+02
      0.258  0.8966E+01  0.2762E+02
      0.351  0.8786E+01  0.2859E+02
      0.444  0.8964E+01  0.2958E+02
      0.538  0.9587E+01  0.3063E+02
      0.631  0.8299E+01  0.3154E+02
      0.724  0.7626E+01  0.3236E+02
      0.817  0.7387E+01  0.3316E+02
      0.911  0.7135E+01  0.3394E+02
      1.004  0.7271E+01  0.3476E+02
      1.097  0.7601E+01  0.3559E+02
      1.190  0.8408E+01  0.3649E+02
      1.284  0.1030E+02  0.3759E+02
      1.377  0.1370E+02  0.3905E+02
      1.470  0.1088E+02  0.4027E+02
      1.563  0.6490E+01  0.4101E+02
      1.657  0.4131E+01  0.4146E+02
      1.750  0.8909E+00  0.4155E+02
      1.843  0.6135E+00  0.4162E+02
      1.936  0.8552E+00  0.4171E+02
      2.030  0.5958E+00  0.4177E+02
      2.123  0.8149E+00  0.4186E+02
      2.216  0.5845E+00  0.4193E+02
      2.310  0.8153E+00  0.4201E+02
      2.403  0.6628E+00  0.4209E+02
      2.496  0.7190E+00  0.4216E+02
      2.589  0.6224E+00  0.4224E+02
      2.683  0.6476E+00  0.4231E+02
      2.776  0.8166E+00  0.4240E+02
      2.869  0.6702E+00  0.4247E+02
      2.962  0.9082E+00  0.4256E+02
      3.056  0.6009E+00  0.4263E+02
      3.149  0.7246E+00  0.4271E+02
      3.242  0.8551E+00  0.4280E+02
      3.335  0.6313E+00  0.4287E+02
      3.429  0.7624E+00  0.4296E+02
      3.522  0.9350E+00  0.4306E+02
      3.615  0.5977E+00  0.4312E+02
      3.708  0.8846E+00  0.4322E+02
      3.802  0.7554E+00  0.4331E+02
      3.895  0.7992E+00  0.4340E+02
      3.988  0.8187E+00  0.4349E+02
      4.082  0.8800E+00  0.4359E+02
      4.175  0.7068E+00  0.4367E+02
      4.268  0.8921E+00  0.4376E+02
      4.361  0.9556E+00  0.4387E+02
      4.455  0.7337E+00  0.4395E+02
      4.548  0.8056E+00  0.4403E+02
      4.641  0.1129E+01  0.4415E+02
      4.734  0.7783E+00  0.4423E+02
      4.828  0.6728E+00  0.4430E+02
      4.921  0.1087E+01  0.4442E+02
      5.014  0.8454E+00  0.4451E+02
      5.107  0.6396E+00  0.4459E+02
      5.201  0.9317E+00  0.4468E+02
      5.294  0.9498E+00  0.4478E+02
      5.387  0.7806E+00  0.4487E+02
      5.480  0.6396E+00  0.4495E+02
      5.574  0.1011E+01  0.4506E+02
      5.667  0.8363E+00  0.4515E+02
      5.760  0.7059E+00  0.4523E+02
      5.854  0.8243E+00  0.4532E+02
      5.947  0.9724E+00  0.4542E+02
      6.040  0.8318E+00  0.4551E+02
      6.133  0.7970E+00  0.4560E+02
      6.227  0.9451E+00  0.4570E+02
      6.320  0.8216E+00  0.4578E+02
      6.413  0.9388E+00  0.4588E+02
      6.506  0.7990E+00  0.4596E+02
      6.600  0.7723E+00  0.4606E+02
      6.693  0.7808E+00  0.4614E+02
      6.786  0.7327E+00  0.4622E+02
      6.879  0.8571E+00  0.4631E+02
      6.973  0.6981E+00  0.4639E+02
      7.066  0.7239E+00  0.4647E+02
      7.159  0.6414E+00  0.4654E+02
      7.252  0.8233E+00  0.4663E+02
      7.346  0.6891E+00  0.4671E+02
      7.439  0.5698E+00  0.4677E+02
      7.532  0.6979E+00  0.4684E+02
      7.625  0.6872E+00  0.4692E+02
      7.719  0.5995E+00  0.4698E+02
      7.812  0.6412E+00  0.4705E+02
      7.905  0.5569E+00  0.4711E+02
      7.999  0.6570E+00  0.4719E+02
      8.092  0.6937E+00  0.4725E+02
      8.185  0.3339E+00  0.4729E+02
      8.278  0.5105E+00  0.4735E+02
      8.372  0.6576E+00  0.4742E+02
      8.465  0.4059E+00  0.4747E+02
      8.558  0.5537E+00  0.4752E+02
      8.651  0.4909E+00  0.4757E+02
      8.745  0.1066E+01  0.4768E+02
      8.838  0.1133E+01  0.4780E+02
      8.931  0.1067E+01  0.4792E+02
      9.024  0.1225E+01  0.4805E+02
      9.118  0.1098E+01  0.4818E+02
      9.211  0.1110E+01  0.4830E+02
      9.304  0.1144E+01  0.4842E+02
      9.397  0.1079E+01  0.4854E+02
      9.491  0.1195E+01  0.4867E+02
      9.584  0.1096E+01  0.4878E+02
      9.677  0.9798E+00  0.4889E+02
      9.771  0.9590E+00  0.4901E+02
      9.864  0.1029E+01  0.4912E+02
      9.957  0.1020E+01  0.4924E+02
     10.050  0.1037E+01  0.4935E+02
     10.144  0.8006E+00  0.4944E+02
     10.237  0.1065E+01  0.4956E+02
     10.330  0.9544E+00  0.4966E+02
     10.423  0.7604E+00  0.4976E+02
     10.517  0.1036E+01  0.4986E+02
     10.610  0.9520E+00  0.4996E+02
     10.703  0.9893E+00  0.5007E+02
     10.796  0.8672E+00  0.5016E+02
     10.890  0.7999E+00  0.5025E+02
     10.983  0.9702E+00  0.5035E+02
     11.076  0.7765E+00  0.5045E+02
     11.169  0.9072E+00  0.5055E+02
     11.263  0.8481E+00  0.5064E+02
     11.356  0.7572E+00  0.5072E+02
     11.449  0.9752E+00  0.5083E+02
     11.543  0.8075E+00  0.5092E+02
     11.636  0.7702E+00  0.5100E+02
     11.729  0.9478E+00  0.5111E+02
     11.822  0.8215E+00  0.5119E+02
     11.916  0.8143E+00  0.5128E+02
     12.009  0.8479E+00  0.5138E+02
     12.102  0.1610E+01  0.5155E+02
     12.195  0.1154E+01  0.5168E+02
     12.289  0.1067E+01  0.5180E+02
     12.382  0.1635E+01  0.5197E+02
     12.475  0.1339E+01  0.5212E+02
     12.568  0.1311E+01  0.5226E+02
     12.662  0.1721E+01  0.5245E+02
     12.755  0.1510E+01  0.5262E+02
     12.848  0.1307E+01  0.5276E+02
     12.941  0.1137E+01  0.5288E+02
     13.035  0.1668E+01  0.5306E+02
     13.128  0.1452E+01  0.5323E+02
     13.221  0.1316E+01  0.5338E+02
     13.315  0.1275E+01  0.5351E+02
     13.408  0.1287E+01  0.5365E+02
     13.501  0.1656E+01  0.5382E+02
     13.594  0.1627E+01  0.5401E+02
     13.688  0.1173E+01  0.5414E+02
     13.781  0.1339E+01  0.5428E+02
     13.874  0.1428E+01  0.5443E+02
     13.967  0.1559E+01  0.5460E+02
     14.061  0.1772E+01  0.5479E+02
     14.154  0.1473E+01  0.5494E+02
     14.247  0.1345E+01  0.5508E+02
     14.340  0.1350E+01  0.5523E+02
     14.434  0.1567E+01  0.5540E+02
     14.527  0.1520E+01  0.5556E+02
     14.620  0.1828E+01  0.5575E+02
     14.713  0.1414E+01  0.5590E+02
     14.807  0.1193E+01  0.5604E+02
     14.900  0.1826E+01  0.5623E+02
     14.993  0.1454E+01  0.5638E+02
     15.087  0.1539E+01  0.5655E+02
     15.180  0.1680E+01  0.5674E+02
     15.273  0.1524E+01  0.5690E+02
     15.366  0.1539E+01  0.5706E+02
     15.460  0.1683E+01  0.5725E+02
     15.553  0.1436E+01  0.5742E+02
     15.646  0.1723E+01  0.5760E+02
     15.739  0.1582E+01  0.5777E+02
     15.833  0.1881E+01  0.5797E+02
     15.926  0.1693E+01  0.5815E+02
     16.019  0.1794E+01  0.5835E+02
     16.112  0.1698E+01  0.5854E+02
     16.206  0.1623E+01  0.5871E+02
     16.299  0.1776E+01  0.5890E+02
     16.392  0.1465E+01  0.5907E+02
     16.485  0.1582E+01  0.5925E+02
     16.579  0.1687E+01  0.5943E+02
     16.672  0.1622E+01  0.5960E+02
     16.765  0.1592E+01  0.5977E+02
     16.859  0.1569E+01  0.5994E+02
     16.952  0.1434E+01  0.6010E+02
     17.045  0.1561E+01  0.6026E+02
     17.138  0.1723E+01  0.6045E+02
     17.232  0.1149E+01  0.6058E+02
     17.325  0.1675E+01  0.6077E+02
     17.418  0.1409E+01  0.6092E+02
     17.511  0.1362E+01  0.6108E+02
     17.605  0.1406E+01  0.6123E+02
     17.698  0.1290E+01  0.6137E+02
     17.791  0.1498E+01  0.6154E+02
     17.884  0.1256E+01  0.6168E+02
     17.978  0.1128E+01  0.6181E+02
     18.071  0.1192E+01  0.6194E+02
     18.164  0.1036E+01  0.6205E+02
     18.257  0.9175E+00  0.6215E+02
     18.351  0.9234E+00  0.6226E+02
     18.444  0.9905E+00  0.6237E+02
     18.537  0.9018E+00  0.6246E+02
     18.631  0.7142E+00  0.6254E+02
     18.724  0.7912E+00  0.6263E+02
     18.817  0.8861E+00  0.6272E+02
     18.910  0.7968E+00  0.6280E+02
     19.004  0.7951E+00  0.6288E+02
     19.097  0.5638E+00  0.6294E+02
     19.190  0.6648E+00  0.6301E+02
     19.283  0.5510E+00  0.6307E+02
     19.377  0.5318E+00  0.6313E+02
     19.470  0.6512E+00  0.6320E+02
     19.563  0.4855E+00  0.6325E+02
     19.656  0.4991E+00  0.6331E+02
     19.750  0.4161E+00  0.6335E+02
     19.843  0.5398E+00  0.6341E+02
     19.936  0.3546E+00  0.6346E+02
     20.029  0.4398E+00  0.6351E+02
     20.123  0.4383E+00  0.6355E+02
     20.216  0.5006E+00  0.6360E+02
     20.309  0.3945E+00  0.6364E+02
     20.403  0.3450E+00  0.6368E+02
     20.496  0.4523E+00  0.6373E+02
     20.589  0.4184E+00  0.6378E+02
     20.682  0.5103E+00  0.6384E+02
     20.776  0.5992E+00  0.6390E+02
     20.869  0.3302E+00  0.6394E+02
     20.962  0.2314E+00  0.6397E+02
     21.055  0.1495E+00  0.6399E+02
     21.149  0.6980E-01  0.6399E+02
     21.242  0.5051E-01  0.6400E+02
     21.335  0.3664E-02  0.6400E+02
     21.428  0.1103E-01  0.6400E+02
     21.522  0.0000E+00  0.6400E+02
     21.615  0.0000E+00  0.6400E+02
     21.708  0.0000E+00  0.6400E+02
     21.801  0.0000E+00  0.6400E+02
     21.895  0.0000E+00  0.6400E+02
     21.988  0.0000E+00  0.6400E+02
     22.081  0.0000E+00  0.6400E+02
     22.175  0.0000E+00  0.6400E+02
     22.268  0.0000E+00  0.6400E+02
     22.361  0.0000E+00  0.6400E+02
     22.454  0.0000E+00  0.6400E+02
     22.548  0.0000E+00  0.6400E+02
     22.641  0.0000E+00  0.6400E+02
