    4    4    1    1
  0.1547287E+02  0.3955581E-09  0.3955581E-09  0.3955581E-09  0.5000000E-15
  1.000000000000000E-004
  CAR 
 unknown system                          
   44 1330   32
 
  0.0000000E+00  0.0000000E+00  0.0000000E+00  0.2143347E-04
   1       -4.0663
   2       -2.7148
   3       -2.7148
   4       -2.7148
   5       -2.5397
   6       -2.5397
   7       -2.5397
   8       -0.7698
   9       -0.7698
  10       -0.7698
  11        0.4602
  12        0.4602
  13        1.3659
  14        1.3659
  15        1.3659
  16        1.6481
  17        1.6481
  18        1.6481
  19        1.6481
  20        1.6481
  21        1.6481
  22        5.9813
  23        5.9813
  24        5.9813
  25       11.9942
  26       11.9942
  27       11.9942
  28       15.8711
  29       15.8711
  30       15.8711
  31       15.8711
  32       15.8711
 
  0.2777778E-01  0.0000000E+00  0.0000000E+00  0.1286008E-03
   1       -4.0575
   2       -2.7108
   3       -2.7097
   4       -2.7097
   5       -2.5367
   6       -2.5352
   7       -2.5352
   8       -0.7737
   9       -0.7664
  10       -0.7664
  11        0.4562
  12        0.4618
  13        1.3606
  14        1.3606
  15        1.3640
  16        1.6277
  17        1.6277
  18        1.6417
  19        1.6417
  20        1.6481
  21        1.6481
  22        5.9242
  23        6.0085
  24        6.0085
  25       11.9950
  26       11.9950
  27       12.0637
  28       15.8423
  29       15.8423
  30       15.8428
  31       15.8430
  32       15.8872
 
  0.5555556E-01  0.0000000E+00  0.0000000E+00  0.1286008E-03
   1       -4.0311
   2       -2.6990
   3       -2.6947
   4       -2.6947
   5       -2.5278
   6       -2.5216
   7       -2.5216
   8       -0.7852
   9       -0.7560
  10       -0.7560
  11        0.4445
  12        0.4667
  13        1.3449
  14        1.3449
  15        1.3586
  16        1.5681
  17        1.5681
  18        1.6226
  19        1.6226
  20        1.6481
  21        1.6481
  22        5.7608
  23        6.0885
  24        6.0885
  25       11.9973
  26       11.9973
  27       12.2647
  28       15.7585
  29       15.7585
  30       15.7594
  31       15.7594
  32       15.9353
 
  0.8333333E-01  0.0000000E+00  0.0000000E+00  0.1286008E-03
   1       -3.9873
   2       -2.6795
   3       -2.6698
   4       -2.6698
   5       -2.5131
   6       -2.4990
   7       -2.4990
   8       -0.8043
   9       -0.7387
  10       -0.7387
  11        0.4253
  12        0.4748
  13        1.3191
  14        1.3191
  15        1.3495
  16        1.4736
  17        1.4736
  18        1.5912
  19        1.5912
  20        1.6481
  21        1.6481
  22        5.5100
  23        6.2170
  24        6.2170
  25       12.0013
  26       12.0013
  27       12.5780
  28       15.6248
  29       15.6248
  30       15.6272
  31       15.6272
  32       16.0151
 
  0.1111111E+00  0.0000000E+00  0.0000000E+00  0.1286008E-03
   1       -3.9264
   2       -2.6526
   3       -2.6354
   4       -2.6354
   5       -2.4925
   6       -2.4674
   7       -2.4674
   8       -0.8307
   9       -0.7145
  10       -0.7145
  11        0.3989
  12        0.4860
  13        1.2833
  14        1.2833
  15        1.3370
  16        1.3500
  17        1.3500
  18        1.5481
  19        1.5481
  20        1.6482
  21        1.6482
  22        5.1945
  23        6.3883
  24        6.3883
  25       12.0072
  26       12.0072
  27       12.9809
  28       15.4445
  29       15.4445
  30       15.4583
  31       15.4583
  32       16.1258
 
  0.1388889E+00  0.0000000E+00  0.0000000E+00  0.1286008E-03
   1       -3.8487
   2       -2.6188
   3       -2.5921
   4       -2.5921
   5       -2.4662
   6       -2.4268
   7       -2.4268
   8       -0.8641
   9       -0.6835
  10       -0.6835
  11        0.3660
  12        0.5004
  13        1.2033
  14        1.2033
  15        1.2381
  16        1.2381
  17        1.3210
  18        1.4939
  19        1.4939
  20        1.6483
  21        1.6483
  22        4.8347
  23        6.5959
  24        6.5959
  25       12.0150
  26       12.0150
  27       13.4525
  28       15.2250
  29       15.2250
  30       15.2627
  31       15.2627
  32       16.2667
 
  0.1666667E+00  0.0000000E+00  0.0000000E+00  0.1286008E-03
   1       -3.7549
   2       -2.5784
   3       -2.5404
   4       -2.5404
   5       -2.4344
   6       -2.3772
   7       -2.3772
   8       -0.9042
   9       -0.6459
  10       -0.6459
  11        0.3273
  12        0.5177
  13        1.0396
  14        1.0396
  15        1.1842
  16        1.1842
  17        1.3018
  18        1.4296
  19        1.4296
  20        1.6484
  21        1.6484
  22        4.4470
  23        6.8339
  24        6.8339
  25       12.0252
  26       12.0252
  27       13.9763
  28       14.9726
  29       14.9726
  30       15.0503
  31       15.0503
  32       16.4367
 
  0.1944444E+00  0.0000000E+00  0.0000000E+00  0.1286008E-03
   1       -3.6456
   2       -2.5323
   3       -2.4813
   4       -2.4813
   5       -2.3971
   6       -2.3187
   7       -2.3187
   8       -0.9506
   9       -0.6017
  10       -0.6017
  11        0.2839
  12        0.5380
  13        0.8638
  14        0.8638
  15        1.1224
  16        1.1224
  17        1.2795
  18        1.3562
  19        1.3562
  20        1.6485
  21        1.6485
  22        4.0439
  23        7.0972
  24        7.0972
  25       12.0379
  26       12.0379
  27       14.5396
  28       14.6930
  29       14.6930
  30       14.8298
  31       14.8298
  32       16.6345
 
  0.2222222E+00  0.0000000E+00  0.0000000E+00  0.1286008E-03
   1       -3.5220
   2       -2.4814
   3       -2.4158
   4       -2.4158
   5       -2.3547
   6       -2.2514
   7       -2.2514
   8       -1.0028
   9       -0.5510
  10       -0.5510
  11        0.2372
  12        0.5610
  13        0.6802
  14        0.6802
  15        1.0538
  16        1.0538
  17        1.2544
  18        1.2747
  19        1.2747
  20        1.6486
  21        1.6486
  22        3.6343
  23        7.3814
  24        7.3814
  25       12.0535
  26       12.0535
  27       14.3913
  28       14.3913
  29       14.6080
  30       14.6080
  31       15.1324
  32       16.8587
 
  0.2500000E+00  0.0000000E+00  0.0000000E+00  0.1286008E-03
   1       -3.3853
   2       -2.4266
   3       -2.3451
   4       -2.3451
   5       -2.3073
   6       -2.1752
   7       -2.1752
   8       -1.0601
   9       -0.4940
  10       -0.4940
  11        0.1889
  12        0.4919
  13        0.4919
  14        0.5865
  15        0.9798
  16        0.9798
  17        1.1863
  18        1.1863
  19        1.2265
  20        1.6487
  21        1.6487
  22        3.2252
  23        7.6829
  24        7.6829
  25       12.0722
  26       12.0722
  27       14.0718
  28       14.0718
  29       14.3905
  30       14.3905
  31       15.7472
  32       17.1080
 
  0.2777778E+00  0.0000000E+00  0.0000000E+00  0.1286008E-03
   1       -3.2374
   2       -2.3695
   3       -2.2708
   4       -2.2708
   5       -2.2553
   6       -2.0903
   7       -2.0903
   8       -1.1222
   9       -0.4309
  10       -0.4309
  11        0.1412
  12        0.3017
  13        0.3017
  14        0.6146
  15        0.9020
  16        0.9020
  17        1.0921
  18        1.0921
  19        1.1963
  20        1.6488
  21        1.6488
  22        2.8220
  23        7.9989
  24        7.9989
  25       12.0942
  26       12.0942
  27       13.7380
  28       13.7380
  29       14.1817
  30       14.1817
  31       16.3772
  32       17.3808
 
  0.3055556E+00  0.0000000E+00  0.0000000E+00  0.1286008E-03
   1       -3.0808
   2       -2.3116
   3       -2.1988
   4       -2.1949
   5       -2.1949
   6       -1.9967
   7       -1.9967
   8       -1.1883
   9       -0.3619
  10       -0.3619
  11        0.0971
  12        0.1116
  13        0.1116
  14        0.6448
  15        0.8225
  16        0.8225
  17        0.9933
  18        0.9933
  19        1.1638
  20        1.6489
  21        1.6489
  22        2.4292
  23        8.3270
  24        8.3270
  25       12.1197
  26       12.1197
  27       13.3929
  28       13.3929
  29       13.9852
  30       13.9852
  31       17.0160
  32       17.6755
 
  0.3333333E+00  0.0000000E+00  0.0000000E+00  0.1286008E-03
   1       -2.9188
   2       -2.2553
   3       -2.1383
   4       -2.1195
   5       -2.1195
   6       -1.8945
   7       -1.8945
   8       -1.2579
   9       -0.2873
  10       -0.2873
  11       -0.0766
  12       -0.0766
  13        0.0604
  14        0.6771
  15        0.7436
  16        0.7436
  17        0.8910
  18        0.8910
  19        1.1295
  20        1.6491
  21        1.6491
  22        2.0511
  23        8.6654
  24        8.6654
  25       12.1484
  26       12.1484
  27       13.0389
  28       13.0389
  29       13.8039
  30       13.8039
  31       17.6569
  32       17.9906
 
  0.3611111E+00  0.0000000E+00  0.0000000E+00  0.1286008E-03
   1       -2.7559
   2       -2.2032
   3       -2.0741
   4       -2.0474
   5       -2.0474
   6       -1.7840
   7       -1.7840
   8       -1.3303
   9       -0.2617
  10       -0.2617
  11       -0.2074
  12       -0.2074
  13        0.0359
  14        0.6682
  15        0.6682
  16        0.7112
  17        0.7863
  18        0.7863
  19        1.0936
  20        1.6491
  21        1.6491
  22        1.6916
  23        9.0122
  24        9.0122
  25       12.1798
  26       12.1798
  27       12.6782
  28       12.6782
  29       13.6403
  30       13.6403
  31       18.2922
  32       18.3244
 
  0.3888889E+00  0.0000000E+00  0.0000000E+00  0.1286008E-03
   1       -2.5977
   2       -2.1588
   3       -2.0065
   4       -1.9817
   5       -1.9817
   6       -1.6651
   7       -1.6651
   8       -1.4048
   9       -0.4427
  10       -0.4427
  11       -0.1225
  12       -0.1225
  13        0.0300
  14        0.5994
  15        0.5994
  16        0.6801
  17        0.6801
  18        0.7469
  19        1.0563
  20        1.3552
  21        1.6492
  22        1.6492
  23        9.3661
  24        9.3661
  25       12.2128
  26       12.2128
  27       12.3125
  28       12.3125
  29       13.4974
  30       13.4974
  31       18.6751
  32       18.6751
 
  0.4166667E+00  0.0000000E+00  0.0000000E+00  0.1286008E-03
   1       -2.4515
   2       -2.1266
   3       -1.9361
   4       -1.9255
   5       -1.9255
   6       -1.5380
   7       -1.5380
   8       -1.4809
   9       -0.6187
  10       -0.6187
  11       -0.0330
  12       -0.0330
  13        0.0503
  14        0.5407
  15        0.5407
  16        0.5734
  17        0.5734
  18        0.7839
  19        1.0180
  20        1.0468
  21        1.6493
  22        1.6493
  23        9.7258
  24        9.7258
  25       11.9433
  26       11.9433
  27       12.2450
  28       12.2450
  29       13.3785
  30       13.3785
  31       19.0413
  32       19.0413
 
  0.4444444E+00  0.0000000E+00  0.0000000E+00  0.1286008E-03
   1       -2.3250
   2       -2.1117
   3       -1.8822
   4       -1.8822
   5       -1.8633
   6       -1.5580
   7       -1.4030
   8       -1.4030
   9       -0.7889
  10       -0.7889
  11        0.0608
  12        0.0608
  13        0.1051
  14        0.4672
  15        0.4672
  16        0.4956
  17        0.4956
  18        0.7719
  19        0.8219
  20        0.9790
  21        1.6493
  22        1.6493
  23       10.0901
  24       10.0901
  25       11.5721
  26       11.5721
  27       12.2733
  28       12.2733
  29       13.2877
  30       13.2877
  31       19.4210
  32       19.4210
 
  0.4722222E+00  0.0000000E+00  0.0000000E+00  0.1286008E-03
   1       -2.2253
   2       -2.1200
   3       -1.8549
   4       -1.8549
   5       -1.7885
   6       -1.6353
   7       -1.2604
   8       -1.2604
   9       -0.9529
  10       -0.9529
  11        0.1582
  12        0.1582
  13        0.2018
  14        0.3620
  15        0.3620
  16        0.4671
  17        0.4671
  18        0.5363
  19        0.8608
  20        0.9396
  21        1.6494
  22        1.6494
  23       10.4580
  24       10.4580
  25       11.2001
  26       11.2001
  27       12.2931
  28       12.2931
  29       13.2302
  30       13.2302
  31       19.8125
  32       19.8125
 
  0.5000000E+00  0.0000000E+00  0.0000000E+00  0.6430041E-04
   1       -2.1568
   2       -2.1568
   3       -1.8455
   4       -1.8455
   5       -1.7123
   6       -1.7123
   7       -1.1102
   8       -1.1102
   9       -1.1102
  10       -1.1102
  11        0.2589
  12        0.2589
  13        0.2589
  14        0.2589
  15        0.3453
  16        0.3453
  17        0.4573
  18        0.4573
  19        0.9001
  20        0.9001
  21        1.6494
  22        1.6494
  23       10.8283
  24       10.8283
  25       10.8283
  26       10.8283
  27       12.3004
  28       12.3004
  29       13.2104
  30       13.2104
  31       20.2139
  32       20.2139
 
  0.2777778E-01  0.2777778E-01  0.0000000E+00  0.2572016E-03
   1       -4.0487
   2       -2.7058
   3       -2.7058
   4       -2.7048
   5       -2.5322
   6       -2.5322
   7       -2.5306
   8       -0.7753
   9       -0.7651
  10       -0.7629
  11        0.4551
  12        0.4607
  13        1.3554
  14        1.3586
  15        1.3586
  16        1.6119
  17        1.6215
  18        1.6215
  19        1.6417
  20        1.6417
  21        1.6437
  22        5.9513
  23        5.9513
  24        6.0354
  25       11.9958
  26       12.0647
  27       12.0647
  28       15.7283
  29       15.8582
  30       15.8582
  31       15.8588
  32       15.8588
 
  0.5555556E-01  0.2777778E-01  0.0000000E+00  0.5144033E-03
   1       -4.0224
   2       -2.6940
   3       -2.6907
   4       -2.6900
   5       -2.5233
   6       -2.5187
   7       -2.5168
   8       -0.7858
   9       -0.7558
  10       -0.7526
  11        0.4445
  12        0.4645
  13        1.3398
  14        1.3422
  15        1.3525
  16        1.5552
  17        1.5626
  18        1.6030
  19        1.6226
  20        1.6415
  21        1.6417
  22        5.7876
  23        6.0310
  24        6.1148
  25       11.9981
  26       12.0674
  27       12.2660
  28       15.5660
  29       15.7741
  30       15.7753
  31       15.9047
  32       15.9060
 
  0.8333333E-01  0.2777778E-01  0.0000000E+00  0.5144033E-03
   1       -3.9786
   2       -2.6745
   3       -2.6658
   4       -2.6655
   5       -2.5086
   6       -2.4961
   7       -2.4939
   8       -0.8045
   9       -0.7387
  10       -0.7354
  11        0.4255
  12        0.4726
  13        1.3140
  14        1.3143
  15        1.3423
  16        1.4622
  17        1.4700
  18        1.5726
  19        1.5912
  20        1.6410
  21        1.6417
  22        5.5366
  23        6.1589
  24        6.2425
  25       12.0021
  26       12.0722
  27       12.5797
  28       15.3641
  29       15.6404
  30       15.6423
  31       15.8504
  32       15.9859
 
  0.1111111E+00  0.2777778E-01  0.0000000E+00  0.5144033E-03
   1       -3.9178
   2       -2.6475
   3       -2.6318
   4       -2.6314
   5       -2.4881
   6       -2.4645
   7       -2.4618
   8       -0.8307
   9       -0.7147
  10       -0.7115
  11        0.3993
  12        0.4839
  13        1.2710
  14        1.2784
  15        1.3278
  16        1.3399
  17        1.3539
  18        1.5312
  19        1.5481
  20        1.6408
  21        1.6418
  22        5.2208
  23        6.3292
  24        6.4126
  25       12.0080
  26       12.0790
  27       12.9831
  28       15.1313
  29       15.4598
  30       15.4728
  31       15.7448
  32       16.0952
 
  0.1388889E+00  0.2777778E-01  0.0000000E+00  0.5144033E-03
   1       -3.8403
   2       -2.6136
   3       -2.5892
   4       -2.5881
   5       -2.4618
   6       -2.4240
   7       -2.4206
   8       -0.8640
   9       -0.6837
  10       -0.6808
  11        0.3666
  12        0.4985
  13        1.1777
  14        1.1945
  15        1.2335
  16        1.2555
  17        1.3085
  18        1.4801
  19        1.4939
  20        1.6408
  21        1.6418
  22        4.8610
  23        6.5354
  24        6.6191
  25       12.0158
  26       12.0883
  27       13.4551
  28       14.8753
  29       15.2400
  30       15.2765
  31       15.5955
  32       16.2368
 
  0.1666667E+00  0.2777778E-01  0.0000000E+00  0.5144033E-03
   1       -3.7466
   2       -2.5733
   3       -2.5384
   4       -2.5364
   5       -2.4301
   6       -2.3745
   7       -2.3704
   8       -0.9040
   9       -0.6461
  10       -0.6435
  11        0.3281
  12        0.5161
  13        1.0237
  14        1.0320
  15        1.1798
  16        1.1920
  17        1.2833
  18        1.4213
  19        1.4296
  20        1.6409
  21        1.6419
  22        4.4737
  23        6.7716
  24        6.8560
  25       12.0259
  26       12.1001
  27       13.9792
  28       14.6027
  29       14.9873
  30       15.0636
  31       15.4117
  32       16.4045
 
  0.1944444E+00  0.2777778E-01  0.0000000E+00  0.5144033E-03
   1       -3.6375
   2       -2.5271
   3       -2.4802
   4       -2.4772
   5       -2.3929
   6       -2.3161
   7       -2.3113
   8       -0.9502
   9       -0.6019
  10       -0.5998
  11        0.2851
  12        0.5366
  13        0.8505
  14        0.8573
  15        1.1183
  16        1.1279
  17        1.2490
  18        1.3561
  19        1.3594
  20        1.6410
  21        1.6420
  22        4.0711
  23        7.0325
  24        7.1182
  25       12.0384
  26       12.1148
  27       14.3182
  28       14.5426
  29       14.7074
  30       14.8425
  31       15.2028
  32       16.5993
 
  0.2222222E+00  0.2777778E-01  0.0000000E+00  0.5144033E-03
   1       -3.5141
   2       -2.4761
   3       -2.4156
   4       -2.4116
   5       -2.3506
   6       -2.2489
   7       -2.2433
   8       -1.0022
   9       -0.5512
  10       -0.5498
  11        0.2388
  12        0.5599
  13        0.6682
  14        0.6746
  15        1.0500
  16        1.0583
  17        1.1987
  18        1.2746
  19        1.3022
  20        1.6411
  21        1.6421
  22        3.6623
  23        7.3138
  24        7.4014
  25       12.0536
  26       12.1328
  27       14.0250
  28       14.4055
  29       14.6204
  30       14.9779
  31       15.1356
  32       16.8231
 
  0.2500000E+00  0.2777778E-01  0.0000000E+00  0.5144033E-03
   1       -3.3776
   2       -2.4213
   3       -2.3456
   4       -2.3408
   5       -2.3033
   6       -2.1728
   7       -2.1668
   8       -1.0594
   9       -0.4942
  10       -0.4938
  11        0.1913
  12        0.4809
  13        0.4873
  14        0.5859
  15        0.9763
  16        0.9837
  17        1.1279
  18        1.1861
  19        1.2556
  20        1.6412
  21        1.6422
  22        3.2544
  23        7.6118
  24        7.7020
  25       12.0715
  26       12.1543
  27       13.7250
  28       14.0858
  29       14.4028
  30       14.7454
  31       15.7506
  32       17.0679
 
  0.2777778E+00  0.2777778E-01  0.0000000E+00  0.5144033E-03
   1       -3.2300
   2       -2.3640
   3       -2.2717
   4       -2.2665
   5       -2.2514
   6       -2.0880
   7       -2.0818
   8       -1.1213
   9       -0.4322
  10       -0.4312
  11        0.1449
  12        0.2916
  13        0.2979
  14        0.6143
  15        0.8989
  16        0.9055
  17        1.0416
  18        1.0920
  19        1.2159
  20        1.6414
  21        1.6422
  22        2.8529
  23        7.9236
  24        8.0172
  25       12.0918
  26       12.1795
  27       13.4193
  28       13.7518
  29       14.1943
  30       14.5129
  31       16.3809
  32       17.3415
 
  0.3055556E+00  0.2777778E-01  0.0000000E+00  0.5144033E-03
   1       -3.0737
   2       -2.3061
   3       -2.1959
   4       -2.1951
   5       -2.1905
   6       -1.9946
   7       -1.9886
   8       -1.1872
   9       -0.3657
  10       -0.3622
  11        0.1023
  12        0.1029
  13        0.1086
  14        0.6451
  15        0.8197
  16        0.8256
  17        0.9459
  18        0.9932
  19        1.1783
  20        1.6416
  21        1.6423
  22        2.4624
  23        8.2468
  24        8.3447
  25       12.1134
  26       12.2084
  27       13.1093
  28       13.4066
  29       13.9984
  30       14.2871
  31       17.0202
  32       17.6308
 
  0.3333333E+00  0.2777778E-01  0.0000000E+00  0.5144033E-03
   1       -2.9120
   2       -2.2497
   3       -2.1347
   4       -2.1202
   5       -2.1151
   6       -1.8926
   7       -1.8873
   8       -1.2566
   9       -0.2955
  10       -0.2876
  11       -0.0851
  12       -0.0789
  13        0.0702
  14        0.6779
  15        0.7412
  16        0.7464
  17        0.8439
  18        0.8908
  19        1.1407
  20        1.6417
  21        1.6424
  22        2.0874
  23        8.5792
  24        8.6823
  25       12.1318
  26       12.2407
  27       12.7990
  28       13.0527
  29       13.8185
  30       14.0736
  31       17.6613
  32       17.9420
 
  0.3611111E+00  0.2777778E-01  0.0000000E+00  0.5144033E-03
   1       -2.7493
   2       -2.1974
   3       -2.0706
   4       -2.0474
   5       -2.0429
   6       -1.7822
   7       -1.7780
   8       -1.3288
   9       -0.2693
  10       -0.2635
  11       -0.2238
  12       -0.2077
  13        0.0536
  14        0.6661
  15        0.6707
  16        0.7125
  17        0.7374
  18        0.7861
  19        1.1022
  20        1.6419
  21        1.6424
  22        1.7324
  23        8.9192
  24        9.0286
  25       12.1264
  26       12.2757
  27       12.5090
  28       12.6920
  29       13.6576
  30       13.8773
  31       18.2533
  32       18.2816
 
  0.3888889E+00  0.2777778E-01  0.0000000E+00  0.5144033E-03
   1       -2.5914
   2       -2.1530
   3       -2.0032
   4       -1.9807
   5       -1.9771
   6       -1.6635
   7       -1.6606
   8       -1.4031
   9       -0.4493
  10       -0.4439
  11       -0.1544
  12       -0.1228
  13        0.0627
  14        0.5977
  15        0.6015
  16        0.6273
  17        0.6799
  18        0.7488
  19        1.0625
  20        1.4027
  21        1.6420
  22        1.6424
  23        9.2649
  24        9.3820
  25       11.9952
  26       12.3116
  27       12.3263
  28       12.3406
  29       13.5191
  30       13.7019
  31       18.6084
  32       18.6287
 
  0.4166667E+00  0.2777778E-01  0.0000000E+00  0.5144033E-03
   1       -2.4453
   2       -2.1206
   3       -1.9330
   4       -1.9236
   5       -1.9209
   6       -1.5367
   7       -1.5352
   8       -1.4790
   9       -0.6243
  10       -0.6194
  11       -0.0895
  12       -0.0332
  13        0.1069
  14        0.5139
  15        0.5394
  16        0.5423
  17        0.5732
  18        0.7864
  19        1.0172
  20        1.1082
  21        1.6421
  22        1.6424
  23        9.6150
  24        9.7413
  25       11.7060
  26       11.9572
  27       12.3252
  28       12.3453
  29       13.4077
  30       13.5512
  31       18.9669
  32       18.9904
 
  0.4444444E+00  0.2777778E-01  0.0000000E+00  0.5144033E-03
   1       -2.3189
   2       -2.1057
   3       -1.8795
   4       -1.8777
   5       -1.8603
   6       -1.5558
   7       -1.4020
   8       -1.4018
   9       -0.7934
  10       -0.7892
  11       -0.0215
  12        0.0605
  13        0.1864
  14        0.3976
  15        0.4669
  16        0.4947
  17        0.4967
  18        0.8252
  19        0.8330
  20        0.9888
  21        1.6422
  22        1.6424
  23        9.9679
  24       10.1052
  25       11.3731
  26       11.5862
  27       12.3468
  28       12.3724
  29       13.3290
  30       13.4295
  31       19.3363
  32       19.3643
 
  0.4722222E+00  0.2777778E-01  0.0000000E+00  0.5144033E-03
   1       -2.2192
   2       -2.1140
   3       -1.8514
   4       -1.8505
   5       -1.7858
   6       -1.6329
   7       -1.2607
   8       -1.2596
   9       -0.9562
  10       -0.9528
  11        0.0620
  12        0.1580
  13        0.2794
  14        0.2960
  15        0.3618
  16        0.4666
  17        0.4677
  18        0.6139
  19        0.8649
  20        0.9462
  21        1.6423
  22        1.6424
  23       10.3221
  24       10.4727
  25       11.0273
  26       11.2143
  27       12.3710
  28       12.3874
  29       13.2894
  30       13.3417
  31       19.7145
  32       19.7481
 
  0.5000000E+00  0.2777778E-01  0.0000000E+00  0.2572016E-03
   1       -2.1507
   2       -2.1507
   3       -1.8415
   4       -1.8415
   5       -1.7098
   6       -1.7098
   7       -1.1121
   8       -1.1121
   9       -1.1098
  10       -1.1098
  11        0.1645
  12        0.1645
  13        0.2586
  14        0.2586
  15        0.4363
  16        0.4363
  17        0.4574
  18        0.4574
  19        0.9052
  20        0.9052
  21        1.6424
  22        1.6424
  23       10.6759
  24       10.6759
  25       10.8428
  26       10.8428
  27       12.3866
  28       12.3866
  29       13.2936
  30       13.2936
  31       20.1001
  32       20.1353
 
  0.5555556E-01  0.5555556E-01  0.0000000E+00  0.2572016E-03
   1       -3.9961
   2       -2.6789
   3       -2.6789
   4       -2.6760
   5       -2.5099
   6       -2.5099
   7       -2.5024
   8       -0.7916
   9       -0.7509
  10       -0.7425
  11        0.4401
  12        0.4626
  13        1.3245
  14        1.3338
  15        1.3338
  16        1.5087
  17        1.5462
  18        1.5462
  19        1.6226
  20        1.6226
  21        1.6309
  22        5.8664
  23        5.8664
  24        6.1925
  25       12.0005
  26       12.2699
  27       12.2699
  28       15.3349
  29       15.8208
  30       15.8208
  31       15.8227
  32       15.8227
 
  0.8333333E-01  0.5555556E-01  0.0000000E+00  0.5144033E-03
   1       -3.9526
   2       -2.6593
   3       -2.6539
   4       -2.6528
   5       -2.4952
   6       -2.4874
   7       -2.4785
   8       -0.8074
   9       -0.7366
  10       -0.7258
  11        0.4244
  12        0.4679
  13        1.2991
  14        1.2999
  15        1.3194
  16        1.4239
  17        1.4595
  18        1.5198
  19        1.5912
  20        1.6226
  21        1.6247
  22        5.6144
  23        5.9928
  24        6.3176
  25       12.0045
  26       12.2765
  27       12.5850
  28       15.0745
  29       15.6870
  30       15.6874
  31       15.8982
  32       15.9013
 
  0.1111111E+00  0.5555556E-01  0.0000000E+00  0.5144033E-03
   1       -3.8921
   2       -2.6323
   3       -2.6209
   4       -2.6195
   5       -2.4748
   6       -2.4560
   7       -2.4451
   8       -0.8322
   9       -0.7138
  10       -0.7024
  11        0.3995
  12        0.4788
  13        1.2403
  14        1.2640
  15        1.2979
  16        1.3074
  17        1.3597
  18        1.4849
  19        1.5480
  20        1.6219
  21        1.6226
  22        5.2980
  23        6.1605
  24        6.4846
  25       12.0103
  26       12.2859
  27       12.9896
  28       14.7932
  29       15.5056
  30       15.5161
  31       16.0013
  32       16.0055
 
  0.1388889E+00  0.5555556E-01  0.0000000E+00  0.5144033E-03
   1       -3.8150
   2       -2.5983
   3       -2.5804
   4       -2.5760
   5       -2.4488
   6       -2.4156
   7       -2.4023
   8       -0.8645
   9       -0.6835
  10       -0.6726
  11        0.3676
  12        0.4936
  13        1.1324
  14        1.1667
  15        1.2197
  16        1.2678
  17        1.2760
  18        1.4439
  19        1.4938
  20        1.6206
  21        1.6226
  22        4.9381
  23        6.3632
  24        6.6878
  25       12.0181
  26       12.2986
  27       13.4627
  28       14.4979
  29       15.2848
  30       15.3179
  31       15.9206
  32       16.1447
 
  0.1666667E+00  0.5555556E-01  0.0000000E+00  0.5144033E-03
   1       -3.7217
   2       -2.5578
   3       -2.5321
   4       -2.5242
   5       -2.4172
   6       -2.3663
   7       -2.3504
   8       -0.9038
   9       -0.6462
  10       -0.6364
  11        0.3300
  12        0.5117
  13        0.9832
  14        1.0083
  15        1.1667
  16        1.2082
  17        1.2268
  18        1.3999
  19        1.4294
  20        1.6199
  21        1.6226
  22        4.5513
  23        6.5947
  24        6.9215
  25       12.0278
  26       12.3146
  27       13.9876
  28       14.1940
  29       15.0312
  30       15.1032
  31       15.7933
  32       16.3062
 
  0.1944444E+00  0.5555556E-01  0.0000000E+00  0.5144033E-03
   1       -3.6132
   2       -2.5115
   3       -2.4763
   4       -2.4649
   5       -2.3803
   6       -2.3082
   7       -2.2896
   8       -0.9494
   9       -0.6022
  10       -0.5941
  11        0.2880
  12        0.5331
  13        0.8140
  14        0.8372
  15        1.1061
  16        1.1409
  17        1.1728
  18        1.3559
  19        1.3562
  20        1.6196
  21        1.6226
  22        4.1499
  23        6.8497
  24        7.1806
  25       12.0396
  26       12.3342
  27       13.8859
  28       14.5516
  29       14.7505
  30       14.8807
  31       15.6287
  32       16.4989
 
  0.2222222E+00  0.5555556E-01  0.0000000E+00  0.5144033E-03
   1       -3.4905
   2       -2.4603
   3       -2.4140
   4       -2.3991
   5       -2.3383
   6       -2.2413
   7       -2.2202
   8       -1.0008
   9       -0.5517
  10       -0.5462
  11        0.2433
  12        0.5574
  13        0.6344
  14        0.6578
  15        1.0387
  16        1.0696
  17        1.1052
  18        1.2743
  19        1.3143
  20        1.6195
  21        1.6226
  22        3.7432
  23        7.1238
  24        7.4609
  25       12.0532
  26       12.3579
  27       13.5769
  28       14.4479
  29       14.6577
  30       15.1451
  31       15.4365
  32       16.7133
 
  0.2500000E+00  0.5555556E-01  0.0000000E+00  0.5144033E-03
   1       -3.3548
   2       -2.4053
   3       -2.3459
   4       -2.3281
   5       -2.2914
   6       -2.1655
   7       -2.1428
   8       -1.0574
   9       -0.4948
  10       -0.4931
  11        0.1979