 running on    8 nodes
 distr:  one band on    1 nodes,    8 groups
 vasp.4.6.28 25Jul05 complex 
 POSCAR found :  1 types and    4 ions
 WARNING: PSMAXN for non-local potential too small
 LDA part: xc-table for Pade appr. of Perdew
 POSCAR, INCAR and KPOINTS ok, starting setup
 FFT: planning ...           1
 reading WAVECAR
 WARNING: random wavefunctions but no delay for mixing, default for NELMDL
 entering main loop
       N       E                     dE             d eps       ncg     rms          rms(c)
DAV:   1     0.555844127131E+03    0.55584E+03   -0.33008E+04 85144   0.243E+03
DAV:   2     0.426302199286E+01   -0.55158E+03   -0.51810E+03 85240   0.513E+02
DAV:   3    -0.116824659464E+02   -0.15945E+02   -0.15803E+02 99648   0.114E+02
DAV:   4    -0.117782132047E+02   -0.95747E-01   -0.95729E-01 91512   0.753E+00
DAV:   5    -0.117785862915E+02   -0.37309E-03   -0.37308E-03100056   0.394E-01    0.621E+00
DAV:   6    -0.107960375502E+02    0.98255E+00   -0.24376E+00 96600   0.168E+01    0.125E+00
DAV:   7    -0.107485374424E+02    0.47500E-01   -0.75144E-02 92920   0.188E+00    0.522E-01
DAV:   8    -0.107316072980E+02    0.16930E-01   -0.50782E-03 91616   0.673E-01    0.508E-02
DAV:   9    -0.107317071450E+02   -0.99847E-04   -0.18027E-04 99120   0.116E-01    0.304E-02
DAV:  10    -0.107316680998E+02    0.39045E-04   -0.14376E-05 94040   0.318E-02    0.269E-03
DAV:  11    -0.107316656821E+02    0.24177E-05   -0.34524E-07 98456   0.353E-03    0.508E-04
DAV:  12    -0.107316655931E+02    0.88995E-07   -0.13456E-08 76264   0.817E-04    0.136E-04
DAV:  13    -0.107316653314E+02    0.26166E-06   -0.13784E-09 56480   0.295E-04    0.195E-05
DAV:  14    -0.107316652918E+02    0.39603E-07   -0.98061E-11 51528   0.107E-04    0.147E-05
DAV:  15    -0.107316652887E+02    0.31305E-08   -0.23958E-11 51512   0.471E-05
   1 F= -.10731665E+02 E0= -.10731634E+02  d E =-.623698E-04
