   32   32   60    1
  0.1202018E+02  0.7272463E-09  0.7272597E-09  0.7272602E-09  0.5000000E-15
  1.000000000000000E-004
  CAR 
 unknown system                          
  352  100  216
 
  0.0000000E+00  0.0000000E+00  0.0000000E+00  0.2915452E-02
   1       -5.5733
   2       -2.8415
   3       -2.8415
   4       -2.8415
   5       -2.8415
   6       -2.8413
   7       -2.8413
   8       -1.3527
   9       -1.3527
  10       -1.3527
  11       -1.3527
  12       -1.1510
  13       -1.1510
  14       -1.1509
  15       -0.9756
  16       -0.9756
  17       -0.9756
  18       -0.9756
  19       -0.9755
  20       -0.9755
  21       -0.9755
  22       -0.9755
  23       -0.9755
  24       -0.9755
  25       -0.9755
  26       -0.9755
  27       -0.7100
  28       -0.7100
  29       -0.7100
  30       -0.4281
  31       -0.4281
  32       -0.4281
  33       -0.4280
  34       -0.4280
  35       -0.4280
  36       -0.0508
  37       -0.0508
  38       -0.0508
  39       -0.0508
  40       -0.0507
  41       -0.0507
  42        0.1566
  43        0.1566
  44        0.1566
  45        0.1566
  46        0.1566
  47        0.1566
  48        0.1566
  49        0.1566
  50        0.1567
  51        0.1567
  52        0.1567
  53        0.1567
  54        0.1596
  55        0.1596
  56        0.1596
  57        0.1596
  58        0.1596
  59        0.1596
  60        0.1596
  61        0.1596
  62        0.1596
  63        0.1596
  64        0.1596
  65        0.1596
  66        0.3637
  67        0.3637
  68        0.3637
  69        0.3637
  70        0.3637
  71        0.3637
  72        0.3637
  73        0.3637
  74        0.3637
  75        0.3637
  76        0.3637
  77        0.3637
  78        0.6152
  79        0.6152
  80        0.6152
  81        0.6152
  82        0.6153
  83        0.6153
  84        0.6153
  85        0.6153
  86        0.6435
  87        0.6435
  88        0.6436
  89        1.0099
  90        1.0099
  91        1.0099
  92        1.0099
  93        1.0100
  94        1.0100
  95        1.1350
  96        1.1350
  97        1.1350
  98        1.1350
  99        1.1350
 100        1.1350
 101        1.1350
 102        1.1350
 103        1.1350
 104        1.1350
 105        1.1350
 106        1.1350
 107        1.2873
 108        1.2873
 109        1.2873
 110        1.2873
 111        1.2874
 112        1.2874
 113        1.2874
 114        1.2874
 115        1.2874
 116        1.2874
 117        1.2874
 118        1.2874
 119        1.4116
 120        1.4116
 121        1.4116
 122        1.4116
 123        1.4116
 124        1.4116
 125        1.4433
 126        1.4433
 127        1.4433
 128        1.4433
 129        1.4433
 130        1.4433
 131        1.4433
 132        1.4433
 133        1.4433
 134        1.4433
 135        1.4433
 136        1.4433
 137        1.4491
 138        1.4492
 139        1.7138
 140        1.7138
 141        1.7139
 142        1.7139
 143        1.7139
 144        1.7139
 145        1.9842
 146        1.9842
 147        1.9842
 148        1.9981
 149        1.9981
 150        1.9981
 151        1.9981
 152        1.9981
 153        1.9981
 154        1.9981
 155        1.9981
 156        2.1342
 157        2.1342
 158        2.1343
 159        2.1343
 160        2.1343
 161        2.1343
 162        2.1350
 163        2.1350
 164        2.1350
 165        2.1350
 166        2.1350
 167        2.1350
 168        2.6968
 169        2.6968
 170        2.6968
 171        2.6968
 172        3.3076
 173        3.3076
 174        3.3076
 175        3.3076
 176        3.3077
 177        3.3077
 178        3.3077
 179        3.3077
 180        3.3077
 181        3.3077
 182        3.3077
 183        3.3077
 184        5.1661
 185        5.1662
 186        5.1667
 187        7.3049
 188        7.3049
 189        7.3049
 190        7.3049
 191        9.7897
 192        9.7897
 193        9.7897
 194        9.7897
 195        9.7899
 196        9.7899
 197        9.7900
 198        9.7900
 199        9.7902
 200        9.7902
 201        9.7902
 202        9.7902
 203       10.6382
 204       10.6382
 205       10.6389
 206       11.8757
 207       11.8757
 208       11.8759
 209       11.8759
 210       11.8759
 211       11.8759
 212       12.3224
 213       12.3225
 214       12.3226
 215       12.3226
 216       12.3226
 
  0.1428571E+00  0.0000000E+00  0.0000000E+00  0.5830904E-02
   1       -5.5120
   2       -3.4934
   3       -2.7916
   4       -2.7916
   5       -2.7916
   6       -2.7916
   7       -2.2033
   8       -1.3409
   9       -1.3409
  10       -1.3409
  11       -1.3409
  12       -1.3389
  13       -1.3389
  14       -1.3389
  15       -1.3389
  16       -1.1514
  17       -1.1225
  18       -1.1225
  19       -1.0036
  20       -1.0036
  21       -1.0036
  22       -1.0036
  23       -0.6939
  24       -0.6930
  25       -0.6930
  26       -0.6653
  27       -0.6653
  28       -0.6653
  29       -0.6653
  30       -0.4757
  31       -0.4757
  32       -0.4061
  33       -0.4061
  34       -0.4061
  35       -0.4061
  36       -0.2004
  37       -0.0782
  38       -0.0782
  39       -0.0438
  40       -0.0438
  41       -0.0438
  42       -0.0438
  43        0.1007
  44        0.1292
  45        0.1292
  46        0.1292
  47        0.1292
  48        0.1331
  49        0.1331
  50        0.1331
  51        0.1331
  52        0.1590
  53        0.1590
  54        0.1590
  55        0.1590
  56        0.1779
  57        0.1779
  58        0.1779
  59        0.1779
  60        0.2257
  61        0.2257
  62        0.2257
  63        0.2257
  64        0.2369
  65        0.2369
  66        0.2369
  67        0.2369
  68        0.3780
  69        0.3780
  70        0.3780
  71        0.3780
  72        0.4290
  73        0.4290
  74        0.4552
  75        0.4552
  76        0.4552
  77        0.4552
  78        0.6039
  79        0.6039
  80        0.6039
  81        0.6039
  82        0.6257
  83        0.6308
  84        0.6308
  85        0.6308
  86        0.6308
  87        0.6578
  88        0.6578
  89        0.9356
  90        0.9356
  91        0.9356
  92        0.9356
  93        1.0381
  94        1.0750
  95        1.0750
  96        1.0750
  97        1.0750
  98        1.1029
  99        1.1300
 100        1.1300
 101        1.1464
 102        1.1464
 103        1.1464
 104        1.1464
 105        1.1868
 106        1.1868
 107        1.1868
 108        1.1868
 109        1.2873
 110        1.2873
 111        1.2873
 112        1.2873
 113        1.3472
 114        1.3472
 115        1.3472
 116        1.3472
 117        1.3728
 118        1.3728
 119        1.3728
 120        1.3728
 121        1.4116
 122        1.4116
 123        1.4116
 124        1.4116
 125        1.4330
 126        1.4519
 127        1.4519
 128        1.4544
 129        1.4544
 130        1.4556
 131        1.5050
 132        1.5050
 133        1.5050
 134        1.5050
 135        1.5405
 136        1.5405
 137        1.5405
 138        1.5405
 139        1.6544
 140        1.7341
 141        1.7341
 142        1.7341
 143        1.7341
 144        1.7735
 145        1.8032
 146        1.8032
 147        1.8032
 148        1.8032
 149        1.9633
 150        1.9633
 151        1.9774
 152        1.9807
 153        1.9807
 154        1.9807
 155        1.9807
 156        2.0279
 157        2.0279
 158        2.1083
 159        2.1083
 160        2.1083
 161        2.1083
 162        2.1095
 163        2.1095
 164        2.1343
 165        2.1343
 166        2.1349
 167        2.1349
 168        2.8230
 169        2.8230
 170        2.8230
 171        2.8230
 172        2.8718
 173        2.8718
 174        2.8718
 175        2.8718
 176        3.3006
 177        3.3006
 178        3.3006
 179        3.3006
 180        3.8776
 181        3.8776
 182        3.8776
 183        3.8776
 184        4.7721
 185        5.3275
 186        5.3275
 187        7.4810
 188        7.4810
 189        7.4810
 190        7.4810
 191        8.8251
 192        8.8251
 193        9.0327
 194        9.0327
 195        9.0327
 196        9.0327
 197        9.8722
 198        9.8722
 199        9.8723
 200        9.8723
 201       10.6613
 202       10.6613
 203       10.8143
 204       10.8143
 205       11.1559
 206       11.6104
 207       11.6104
 208       12.1219
 209       12.1219
 210       12.1219
 211       12.1219
 212       12.2658
 213       12.2658
 214       12.2658
 215       12.2658
 216       12.4205
 
  0.2857143E+00 -0.6617445E-23  0.0000000E+00  0.5830904E-02
   1       -5.3290
   2       -4.0952
   3       -2.6443
   4       -2.6443
   5       -2.6443
   6       -2.6443
   7       -1.7272
   8       -1.7272
   9       -1.7272
  10       -1.7272
  11       -1.6810
  12       -1.2988
  13       -1.2988
  14       -1.2988
  15       -1.2988
  16       -1.1613
  17       -1.0727
  18       -1.0727
  19       -1.0727
  20       -1.0727
  21       -1.0400
  22       -1.0400
  23       -0.6462
  24       -0.6417
  25       -0.6417
  26       -0.5989
  27       -0.5989
  28       -0.4239
  29       -0.4239
  30       -0.4239
  31       -0.4239
  32       -0.3435
  33       -0.3435
  34       -0.3435
  35       -0.3435
  36       -0.3409
  37       -0.2748
  38       -0.2748
  39       -0.0235
  40       -0.0235
  41       -0.0235
  42       -0.0235
  43        0.0671
  44        0.0671
  45        0.0671
  46        0.0671
  47        0.0900
  48        0.0900
  49        0.0900
  50        0.0900
  51        0.0912
  52        0.0912
  53        0.0912
  54        0.0912
  55        0.1654
  56        0.1654
  57        0.1654
  58        0.1654
  59        0.1843
  60        0.1843
  61        0.1843
  62        0.1843
  63        0.2461
  64        0.3987
  65        0.3987
  66        0.3987
  67        0.3987
  68        0.4285
  69        0.4285
  70        0.4285
  71        0.4285
  72        0.5242
  73        0.5242
  74        0.5242
  75        0.5242
  76        0.5715
  77        0.5715
  78        0.5715
  79        0.5715
  80        0.5732
  81        0.6769
  82        0.6769
  83        0.6769
  84        0.6769
  85        0.7006
  86        0.7006
  87        0.7364
  88        0.7364
  89        0.8092
  90        0.8092
  91        0.8092
  92        0.8092
  93        0.9620
  94        0.9620
  95        0.9620
  96        0.9620
  97        0.9886
  98        0.9886
  99        1.1204
 100        1.2141
 101        1.2141
 102        1.2141
 103        1.2141
 104        1.2683
 105        1.2683
 106        1.2683
 107        1.2683
 108        1.2877
 109        1.2877
 110        1.2877
 111        1.2877
 112        1.3277
 113        1.3277
 114        1.3277
 115        1.3277
 116        1.3857
 117        1.4008
 118        1.4008
 119        1.4008
 120        1.4008
 121        1.4071
 122        1.4071
 123        1.4071
 124        1.4071
 125        1.4184
 126        1.4302
 127        1.4302
 128        1.4302
 129        1.4302
 130        1.4750
 131        1.5545
 132        1.5545
 133        1.5983
 134        1.6229
 135        1.6229
 136        1.6229
 137        1.6229
 138        1.6232
 139        1.6232
 140        1.6600
 141        1.6600
 142        1.6600
 143        1.6600
 144        1.7616
 145        1.7616
 146        1.8262
 147        1.8262
 148        1.8262
 149        1.8262
 150        1.8305
 151        1.9019
 152        1.9019
 153        1.9298
 154        1.9298
 155        1.9298
 156        1.9298
 157        1.9572
 158        2.0330
 159        2.0330
 160        2.0330
 161        2.0330
 162        2.0377
 163        2.0377
 164        2.1344
 165        2.1344
 166        2.1348
 167        2.1348
 168        2.5282
 169        2.5282
 170        2.5282
 171        2.5282
 172        3.0102
 173        3.0102
 174        3.0102
 175        3.0102
 176        3.2772
 177        3.2772
 178        3.2772
 179        3.2772
 180        3.8870
 181        4.6146
 182        4.6146
 183        4.6146
 184        4.6146
 185        5.7584
 186        5.7584
 187        7.7988
 188        7.7988
 189        7.7988
 190        7.7988
 191        7.9263
 192        7.9263
 193        7.9884
 194        7.9884
 195        7.9884
 196        7.9884
 197       10.1153
 198       10.1153
 199       10.1153
 200       10.1153
 201       10.7322
 202       10.7322
 203       10.9683
 204       10.9683
 205       10.9683
 206       10.9683
 207       11.2900
 208       11.2900
 209       11.6735
 210       11.6735
 211       11.6736
 212       11.6736
 213       11.8917
 214       11.8917
 215       12.2915
 216       12.2915
 
  0.4285714E+00  0.0000000E+00  0.0000000E+00  0.5830904E-02
   1       -5.0272
   2       -4.6125
   3       -2.4070
   4       -2.4070
   5       -2.4070
   6       -2.4070
   7       -2.0937
   8       -2.0937
   9       -2.0937
  10       -2.0937
  11       -1.3572
  12       -1.2358
  13       -1.2358
  14       -1.2358
  15       -1.2358
  16       -1.2102
  17       -1.1566
  18       -1.1566
  19       -1.1566
  20       -1.1566
  21       -0.9127
  22       -0.9127
  23       -0.7570
  24       -0.7570
  25       -0.5690
  26       -0.5555
  27       -0.5555
  28       -0.4657
  29       -0.4336
  30       -0.4336
  31       -0.2592
  32       -0.2592
  33       -0.2592
  34       -0.2592
  35       -0.2574
  36       -0.2574
  37       -0.2574
  38       -0.2574
  39       -0.0347
  40       -0.0347
  41       -0.0347
  42       -0.0347
  43       -0.0238
  44       -0.0238
  45       -0.0238
  46       -0.0238
  47        0.0081
  48        0.0081
  49        0.0081
  50        0.0081
  51        0.0476
  52        0.0476
  53        0.0476
  54        0.0476
  55        0.1741
  56        0.1741
  57        0.1741
  58        0.1741
  59        0.1817
  60        0.1817
  61        0.1817
  62        0.1817
  63        0.3780
  64        0.4664
  65        0.4664
  66        0.4664
  67        0.4664
  68        0.4890
  69        0.5230
  70        0.5230
  71        0.5230
  72        0.5230
  73        0.5979
  74        0.5979
  75        0.5979
  76        0.5979
  77        0.6923
  78        0.6923
  79        0.6923
  80        0.6923
  81        0.6928
  82        0.6928
  83        0.6928
  84        0.6928
  85        0.7509
  86        0.7509
  87        0.7509
  88        0.7509
  89        0.7711
  90        0.7711
  91        0.8485
  92        0.8485
  93        0.8485
  94        0.8485
  95        0.8679
  96        0.8679
  97        1.0412
  98        1.0412
  99        1.0412
 100        1.0412
 101        1.0726
 102        1.0726
 103        1.2188
 104        1.2914
 105        1.2914
 106        1.2914
 107        1.2914
 108        1.3021
 109        1.3021
 110        1.3021
 111        1.3021
 112        1.3028
 113        1.3028
 114        1.3028
 115        1.3028
 116        1.3117
 117        1.3410
 118        1.3410
 119        1.3410
 120        1.3410
 121        1.3756
 122        1.3756
 123        1.3756
 124        1.3756
 125        1.3870
 126        1.3870
 127        1.3870
 128        1.3870
 129        1.4240
 130        1.4240
 131        1.5064
 132        1.5481
 133        1.6826
 134        1.6826
 135        1.7434
 136        1.7434
 137        1.7434
 138        1.7434
 139        1.7840
 140        1.7840
 141        1.7920
 142        1.7920
 143        1.7920
 144        1.7920
 145        1.8048
 146        1.8048
 147        1.8488
 148        1.8488
 149        1.8488
 150        1.8488
 151        1.8817
 152        1.9220
 153        1.9220
 154        1.9220
 155        1.9220
 156        1.9247
 157        1.9259
 158        1.9259
 159        2.0069
 160        2.0069
 161        2.0069
 162        2.0069
 163        2.0323
 164        2.1345
 165        2.1345
 166        2.1347
 167        2.1347
 168        2.2446
 169        2.2446
 170        2.2446
 171        2.2446
 172        2.9010
 173        3.1464
 174        3.1464
 175        3.1464
 176        3.1464
 177        3.2301
 178        3.2301
 179        3.2301
 180        3.2301
 181        5.5274
 182        5.5274
 183        5.5274
 184        5.5274
 185        6.3697
 186        6.3698
 187        6.6005
 188        6.6005
 189        6.6005
 190        6.6005
 191        7.1025
 192        7.1026
 193        8.7759
 194        8.7759
 195        8.7759
 196        8.7759
 197        9.7860
 198        9.7860
 199        9.7860
 200        9.7860
 201       10.5068
 202       10.5068
 203       10.5068
 204       10.5068
 205       10.8556
 206       10.8557
 207       11.0313
 208       11.0313
 209       11.0313
 210       11.0313
 211       11.0388
 212       11.0388
 213       12.5277
 214       12.5277
 215       12.5277
 216       12.5277
 
 -0.6617445E-23  0.1428571E+00  0.0000000E+00  0.5830904E-02
   1       -5.5120
   2       -3.4935
   3       -2.7916
   4       -2.7916
   5       -2.7915
   6       -2.7915
   7       -2.2034
   8       -1.3410
   9       -1.3410
  10       -1.3409
  11       -1.3409
  12       -1.3389
  13       -1.3389
  14       -1.3389
  15       -1.3389
  16       -1.1514
  17       -1.1225
  18       -1.1225
  19       -1.0035
  20       -1.0035
  21       -1.0035
  22       -1.0035
  23       -0.6939
  24       -0.6930
  25       -0.6930
  26       -0.6653
  27       -0.6653
  28       -0.6653
  29       -0.6653
  30       -0.4757
  31       -0.4757
  32       -0.4061
  33       -0.4061
  34       -0.4060
  35       -0.4060
  36       -0.2004
  37       -0.0782
  38       -0.0781
  39       -0.0438
  40       -0.0438
  41       -0.0437
  42       -0.0437
  43        0.1006
  44        0.1292
  45        0.1292
  46        0.1292
  47        0.1292
  48        0.1331
  49        0.1331
  50        0.1331
  51        0.1331
  52        0.1590
  53        0.1590
  54        0.1590
  55        0.1590
  56        0.1779
  57        0.1779
  58        0.1780
  59        0.1780
  60        0.2256
  61        0.2256
  62        0.2256
  63        0.2256
  64        0.2369
  65        0.2369
  66        0.2369
  67        0.2369
  68        0.3780
  69        0.3780
  70        0.3780
  71        0.3780
  72        0.4290
  73        0.4290
  74        0.4553
  75        0.4553
  76        0.4553
  77        0.4553
  78        0.6039
  79        0.6039
  80        0.6039
  81        0.6039
  82        0.6256
  83        0.6309
  84        0.6309
  85        0.6309
  86        0.6309
  87        0.6578
  88        0.6579
  89        0.9356
  90        0.9356
  91        0.9357
  92        0.9357
  93        1.0380
  94        1.0750
  95        1.0750
  96        1.0750
  97        1.0750
  98        1.1027
  99        1.1300
 100        1.1301
 101        1.1464
 102        1.1464
 103        1.1464
 104        1.1464
 105        1.1868
 106        1.1868
 107        1.1868
 108        1.1868
 109        1.2872
 110        1.2872
 111        1.2872
 112        1.2872
 113        1.3472
 114        1.3472
 115        1.3472
 116        1.3472
 117        1.3728
 118        1.3728
 119        1.3728
 120        1.3728
 121        1.4116
 122        1.4116
 123        1.4116
 124        1.4116
 125        1.4329
 126        1.4519
 127        1.4519
 128        1.4544
 129        1.4545
 130        1.4557
 131        1.5050
 132        1.5050
 133        1.5050
 134        1.5050
 135        1.5404
 136        1.5404
 137        1.5405
 138        1.5405
 139        1.6545
 140        1.7341
 141        1.7341
 142        1.7341
 143        1.7341
 144        1.7735
 145        1.8032
 146        1.8032
 147        1.8032
 148        1.8032
 149        1.9633
 150        1.9633
 151        1.9774
 152        1.9807
 153        1.9807
 154        1.9807
 155        1.9807
 156        2.0279
 157        2.0279
 158        2.1083
 159        2.1083
 160        2.1083
 161        2.1083
 162        2.1095
 163        2.1095
 164        2.1343
 165        2.1343
 166        2.1350
 167        2.1350
 168        2.8230
 169        2.8230
 170        2.8230
 171        2.8230
 172        2.8717
 173        2.8717
 174        2.8718
 175        2.8718
 176        3.3007
 177        3.3007
 178        3.3007
 179        3.3007
 180        3.8775
 181        3.8775
 182        3.8776
 183        3.8776
 184        4.7717
 185        5.3274
 186        5.3280
 187        7.4810
 188        7.4810
 189        7.4810
 190        7.4810
 191        8.8249
 192        8.8254
 193        9.0322
 194        9.0322
 195        9.0324
 196        9.0324
 197        9.8725
 198        9.8725
 199        9.8727
 200        9.8727
 201       10.6613
 202       10.6620
 203       10.8140
 204       10.8145
 205       11.1552
 206       11.6103
 207       11.6110
 208       12.1219
 209       12.1219
 210       12.1225
 211       12.1225
 212       12.2655
 213       12.2655
 214       12.2655
 215       12.2655
 216       12.4205
 
  0.1428571E+00  0.1428571E+00  0.0000000E+00  0.5830904E-02
   1       -5.4509
   2       -3.4402
   3       -3.4401
   4       -2.7427
   5       -2.7427
   6       -2.1577
   7       -2.1576
   8       -1.8028
   9       -1.3746
  10       -1.3746
  11       -1.3454
  12       -1.3454
  13       -1.3453
  14       -1.3453
  15       -1.2788
  16       -1.2788
  17       -1.1225
  18       -1.1224
  19       -1.0946
  20       -0.9228
  21       -0.9227
  22       -0.7145
  23       -0.7145
  24       -0.7145
  25       -0.7145
  26       -0.6771
  27       -0.6771
  28       -0.6764
  29       -0.4756
  30       -0.4583
  31       -0.4583
  32       -0.4525
  33       -0.4524
  34       -0.3838
  35       -0.3838
  36       -0.1910
  37       -0.1910
  38       -0.0901
  39       -0.0900
  40       -0.0716
  41       -0.0716
  42       -0.0362
  43       -0.0362
  44        0.0784
  45        0.0784
  46        0.0964
  47        0.0964
  48        0.1051
  49        0.1052
  50        0.1314
  51        0.1498
  52        0.1813
  53        0.1813
  54        0.1814
  55        0.1814
  56        0.1938
  57        0.1938
  58        0.2290
  59        0.2290
  60        0.2290
  61        0.2290
  62        0.2532
  63        0.2763
  64        0.2763
  65        0.2763
  66        0.2763
  67        0.3202
  68        0.3203
  69        0.3964
  70        0.3965
  71        0.4258
  72        0.4258
  73        0.4657
  74        0.4657
  75        0.4657
  76        0.4657
  77        0.5645
  78        0.5693
  79        0.5693
  80        0.6087
  81        0.6087
  82        0.6156
  83        0.6420
  84        0.6420
  85        0.6575
  86        0.6575
  87        0.6647
  88        0.6711
  89        0.8896
  90        0.8896
  91        0.9537
  92        0.9538
  93        0.9988
  94        0.9989
  95        1.0737
  96        1.0737
  97        1.0737
  98        1.0737
  99        1.1154
 100        1.1301
 101        1.1302
 102        1.1311
 103        1.1311
 104        1.1311
 105        1.1311
 106        1.2078
 107        1.2079
 108        1.2084
 109        1.2299
 110        1.2299
 111        1.2375
 112        1.2375
 113        1.2740
 114        1.4083
 115        1.4083
 116        1.4284
 117        1.4396
 118        1.4396
 119        1.4476
 120        1.4476
 121        1.4505
 122        1.4505
 123        1.4505
 124        1.4505
 125        1.4516
 126        1.4541
 127        1.4541
 128        1.4557
 129        1.4557
 130        1.4969
 131        1.4969
 132        1.5300
 133        1.5300
 134        1.5915
 135        1.5915
 136        1.5949
 137        1.5949
 138        1.5949
 139        1.5949
 140        1.6072
 141        1.6661
 142        1.6662
 143        1.7163
 144        1.7163
 145        1.7435
 146        1.7435
 147        1.8088
 148        1.8089
 149        1.9429
 150        1.9429
 151        1.9430
 152        1.9465
 153        1.9895
 154        1.9895
 155        1.9919
 156        1.9919
 157        2.0125
 158        2.0125
 159        2.0854
 160        2.0854
 161        2.1078
 162        2.1079
 163        2.1086
 164        2.1087
 165        2.1095
 166        2.1095
 167        2.1184
 168        2.5204
 169        2.5681
 170        2.5681
 171        2.8606
 172        2.8606
 173        2.8607
 174        2.8607
 175        3.2326
 176        3.2326
 177        3.3494
 178        3.3494
 179        3.8785
 180        3.8785
 181        3.8787
 182        3.8787
 183        4.5354
 184        4.9308
 185        4.9312
 186        5.4798
 187        7.3382
 188        7.3382
 189        7.9314
 190        7.9314
 191        8.1704
 192        8.1707
 193        8.9125
 194        8.9127
 195        8.9277
 196        8.9277
 197        9.3009
 198        9.3009
 199        9.9426
 200        9.9428
 201       10.6845
 202       10.8930
 203       10.8932
 204       11.1848
 205       11.1855
 206       11.4879
 207       11.4879
 208       11.4882
 209       11.4882
 210       11.5600
 211       11.7042
 212       11.7043
 213       12.3436
 214       12.3440
 215       12.7880
 216       12.7880
 
  0.2857143E+00  0.1428571E+00  0.0000000E+00  0.5830904E-02
   1       -5.2684
   2       -4.0391
   3       -3.2819
   4       -2.5986
   5       -2.5986
   6       -2.2618
   7       -2.0235
   8       -1.7116
   9       -1.7116
  10       -1.6397
  11       -1.3886
  12       -1.3886
  13       -1.3573
  14       -1.3573
  15       -1.2263
  16       -1.1937
  17       -1.1937
  18       -1.1308
  19       -1.0385
  20       -1.0136
  21       -0.8283
  22       -0.8283
  23       -0.6301
  24       -0.6265
  25       -0.6264
  26       -0.5917
  27       -0.5868
  28       -0.5769
  29       -0.4847
  30       -0.4847
  31       -0.4121
  32       -0.3850
  33       -0.3448
  34       -0.3294
  35       -0.3201
  36       -0.3201
  37       -0.2747
  38       -0.2650
  39       -0.1632
  40       -0.1241
  41       -0.0524
  42       -0.0137
  43       -0.0137
  44       -0.0097
  45       -0.0097
  46       -0.0012
  47        0.0159
  48        0.0566
  49        0.0959
  50        0.0959
  51        0.1173
  52        0.1259
  53        0.1259
  54        0.1559
  55        0.1938
  56        0.2254
  57        0.2254
  58        0.2481
  59        0.2700
  60        0.2700
  61        0.2917
  62        0.2917
  63        0.3084
  64        0.3160
  65        0.3370
  66        0.3370
  67        0.4068
  68        0.4154
  69        0.4480
  70        0.4480
  71        0.4945
  72        0.4945
  73        0.5136
  74        0.5136
  75        0.5312
  76        0.5312
  77        0.5680
  78        0.5952
  79        0.5952
  80        0.6370
  81        0.6807
  82        0.6807
  83        0.6969
  84        0.7034
  85        0.7106
  86        0.7136
  87        0.7136
  88        0.7258
  89        0.7901
  90        0.7901
  91        0.8234
  92        0.8484
  93        0.9410
  94        0.9543
  95        0.9543
  96        0.9891
  97        1.0195
  98        1.0195
  99        1.1112
 100        1.1112
 101        1.1322
 102        1.1488
 103        1.1676
 104        1.2035
 105        1.2035
 106        1.2042
 107        1.2117
 108        1.2169
 109        1.2169
 110        1.2739
 111        1.2749
 112        1.2988
 113        1.2988
 114        1.3190
 115        1.3272
 116        1.3548
 117        1.3548
 118        1.3869
 119        1.3941
 120        1.3941
 121        1.4321
 122        1.4401
 123        1.4401
 124        1.4536
 125        1.4594
 126        1.4686
 127        1.4716
 128        1.5205
 129        1.5205
 130        1.5461
 131        1.5602
 132        1.5634
 133        1.5843
 134        1.5843
 135        1.6035
 136        1.6228
 137        1.6377
 138        1.6984
 139        1.7024
 140        1.7024
 141        1.7047
 142        1.7047
 143        1.7073
 144        1.7123
 145        1.7213
 146        1.7427
 147        1.8160
 148        1.8160
 149        1.8698
 150        1.8835
 151        1.9101
 152        1.9261
 153        1.9380
 154        1.9380
 155        1.9653
 156        1.9653
 157        1.9740
 158        1.9785
 159        2.0215
 160        2.0215
 161        2.0330
 162        2.0337
 163        2.0376
 164        2.1075
 165        2.1090
 166        2.1094
 167        2.1098
 168        2.2480
 169        2.5161
 170        2.5161
 171        2.5874
 172        2.5874
 173        2.8266
 174        2.8266
 175        2.9186
 176        3.5737
 177        3.5737
 178        3.8765
 179        3.8765
 180        4.0003
 181        4.0526
 182        4.6260
 183        4.6260
 184        5.3447
 185        5.3477
 186        5.8925
 187        7.0123
 188        7.3598
 189        7.5654
 190        7.5654
 191        7.8196
 192        7.8196
 193        8.0209
 194        8.6286
 195        8.6286
 196        8.6528
 197        9.1695
 198        9.3969
 199        9.3969
 200       10.2227
 201       10.2227
 202       10.7556
 203       10.7920
 204       10.8038
 205       10.8038
 206       10.8675
 207       11.1260
 208       11.2753
 209       11.4119
 210       11.8135
 211       11.8135
 212       11.8378
 213       11.9684
 214       11.9794
 215       12.4537
 216       12.6358
 
  0.4285714E+00  0.1428571E+00  0.0000000E+00  0.5830904E-02
   1       -4.9676
   2       -4.5544
   3       -3.0243
   4       -2.6783
   5       -2.3672
   6       -2.3672
   7       -2.0635
   8       -2.0635
   9       -1.8101
  10       -1.5350
  11       -1.3859
  12       -1.3859
  13       -1.3730
  14       -1.3730
  15       -1.3202
  16       -1.1770
  17       -1.0858
  18       -1.0858
  19       -0.9602
  20       -0.9602
  21       -0.9086
  22       -0.8884
  23       -0.7494
  24       -0.7347
  25       -0.5541
  26       -0.5426
  27       -0.5415
  28       -0.4523
  29       -0.4252
  30       -0.4214