       N       E                     dE             d eps       ncg     rms          rms(c)
DAV:   1     0.326389542257E+04    0.32639E+04   -0.14511E+05 43208   0.245E+03
DAV:   2     0.314335965220E+03   -0.29496E+04   -0.28285E+04 43200   0.545E+02
DAV:   3    -0.122795970025E+03   -0.43713E+03   -0.39509E+03 43200   0.214E+02
DAV:   4    -0.146510308178E+03   -0.23714E+02   -0.23207E+02 45928   0.603E+01
DAV:   5    -0.146699993313E+03   -0.18969E+00   -0.18938E+00 46120   0.563E+00    0.394E+01
DAV:   6    -0.129226003365E+03    0.17474E+02   -0.26425E+02 46480   0.927E+01    0.178E+01
DAV:   7    -0.119372125818E+03    0.98539E+01   -0.45781E+01 48232   0.390E+01    0.292E+00
DAV:   8    -0.119123869675E+03    0.24826E+00   -0.60438E-01 44888   0.269E+00    0.209E+00
DAV:   9    -0.119037798658E+03    0.86071E-01   -0.22738E-01 46984   0.271E+00    0.108E-01
DAV:  10    -0.119038706969E+03   -0.90831E-03   -0.87077E-03 48048   0.585E-01    0.120E-01
DAV:  11    -0.119038608573E+03    0.98396E-04   -0.10435E-03 45704   0.257E-01    0.234E-02
DAV:  12    -0.119038608787E+03   -0.21414E-06   -0.22737E-04 47360   0.109E-01    0.178E-02
DAV:  13    -0.119038608497E+03    0.29009E-06   -0.58410E-05 45776   0.798E-02    0.939E-03
DAV:  14    -0.119038612181E+03   -0.36840E-05   -0.27401E-06 45328   0.108E-02    0.486E-03
DAV:  15    -0.119038613136E+03   -0.95498E-06   -0.71183E-07 47576   0.795E-03    0.343E-03
DAV:  16    -0.119038614874E+03   -0.17380E-05   -0.57974E-07 48504   0.675E-03    0.150E-03
DAV:  17    -0.119038618695E+03   -0.38207E-05   -0.18568E-07 45808   0.272E-03    0.614E-04
DAV:  18    -0.119038619489E+03   -0.79363E-06   -0.46509E-08 41200   0.251E-03    0.343E-04
DAV:  19    -0.119038620668E+03   -0.11799E-05   -0.12619E-08 24024   0.778E-04    0.116E-04
DAV:  20    -0.119038620735E+03   -0.66248E-07   -0.27598E-09 24024   0.574E-04    0.154E-04
DAV:  21    -0.119038620747E+03   -0.12667E-07   -0.47002E-10 24024   0.402E-04    0.131E-04
DAV:  22    -0.119038620761E+03   -0.13206E-07    0.66660E-10 23976   0.191E-04    0.740E-05
DAV:  23    -0.119038620773E+03   -0.12966E-07    0.75164E-10 23904   0.111E-04    0.448E-05
DAV:  24    -0.119038620777E+03   -0.33178E-08    0.89491E-10 23880   0.794E-05
   1 F= -.11903862E+03 E0= -.11903810E+03  d E =-.119039E+03
       N       E                     dE             d eps       ncg     rms          rms(c)
DAV:   1    -0.119038621801E+03   -0.11904E+03   -0.24704E-05 47016   0.236E-02    0.102E-02
DAV:   2    -0.119038621950E+03   -0.14986E-06   -0.13290E-05 46312   0.206E-02    0.357E-03
DAV:   3    -0.119038620989E+03    0.96102E-06   -0.23231E-06 45488   0.895E-03    0.173E-03
DAV:   4    -0.119038621055E+03   -0.65396E-07   -0.15247E-08 26016   0.182E-03    0.281E-04
DAV:   5    -0.119038621046E+03    0.90440E-08   -0.11047E-08 24016   0.151E-03
   2 F= -.11903862E+03 E0= -.11903810E+03  d E =-.269007E-06
       N       E                     dE             d eps       ncg     rms          rms(c)
DAV:   1    -0.119038634217E+03   -0.11904E+03   -0.22166E-04 46888   0.707E-02    0.306E-02
DAV:   2    -0.119038627425E+03    0.67914E-05   -0.11947E-04 46240   0.619E-02    0.107E-02
DAV:   3    -0.119038621474E+03    0.59508E-05   -0.20953E-05 45336   0.269E-02    0.523E-03
DAV:   4    -0.119038621255E+03    0.21919E-06   -0.20564E-07 62656   0.532E-03    0.786E-04
DAV:   5    -0.119038621208E+03    0.47599E-07   -0.61653E-08 48472   0.416E-03    0.186E-04
DAV:   6    -0.119038621101E+03    0.10696E-06   -0.28024E-08 31696   0.860E-04    0.214E-04
DAV:   7    -0.119038621053E+03    0.47767E-07   -0.24345E-09 23096   0.627E-04    0.169E-04
DAV:   8    -0.119038620941E+03    0.11226E-06   -0.70285E-10 22992   0.362E-04    0.360E-05
DAV:   9    -0.119038620956E+03   -0.15389E-07    0.80710E-10 22968   0.106E-04    0.571E-05
DAV:  10    -0.119038620955E+03    0.49477E-09    0.10859E-09 22968   0.662E-05
   3 F= -.11903862E+03 E0= -.11903810E+03  d E =-.178676E-06
       N       E                     dE             d eps       ncg     rms          rms(c)
DAV:   1    -0.119038631398E+03   -0.11904E+03   -0.11568E-04 46864   0.510E-02    0.222E-02
DAV:   2    -0.119038622808E+03    0.85907E-05   -0.62604E-05 46224   0.448E-02    0.768E-03
DAV:   3    -0.119038621397E+03    0.14108E-05   -0.11017E-05 45320   0.195E-02    0.383E-03
DAV:   4    -0.119038620831E+03    0.56551E-06   -0.10430E-07 57120   0.382E-03    0.583E-04
DAV:   5    -0.119038620853E+03   -0.21340E-07   -0.28842E-08 31824   0.297E-03    0.181E-04
DAV:   6    -0.119038620930E+03   -0.77147E-07   -0.15828E-08 23440   0.633E-04    0.999E-05
DAV:   7    -0.119038620969E+03   -0.39356E-07   -0.18709E-09 22968   0.440E-04    0.730E-05
DAV:   8    -0.119038621058E+03   -0.89080E-07   -0.53097E-10 22968   0.329E-04    0.850E-05
DAV:   9    -0.119038621049E+03    0.93714E-08    0.77016E-10 22968   0.174E-04
   4 F= -.11903862E+03 E0= -.11903810E+03  d E =-.272099E-06
