   4   4   0   0
  0.1972021E+02  0.4288682E-09  0.4288682E-09  0.4288682E-09  0.5000000E-15
  1.000000000000000E-004
  CAR 
 unknown system                          
     18.96929845     -5.55279457  301      2.35864855      1.00000000
     -5.553  0.0000E+00  0.0000E+00
     -5.471  0.0000E+00  0.0000E+00
     -5.389  0.0000E+00  0.0000E+00
     -5.308  0.0000E+00  0.0000E+00
     -5.226  0.0000E+00  0.0000E+00
     -5.144  0.0000E+00  0.0000E+00
     -5.062  0.0000E+00  0.0000E+00
     -4.981  0.0000E+00  0.0000E+00
     -4.899  0.0000E+00  0.0000E+00
     -4.817  0.0000E+00  0.0000E+00
     -4.735  0.0000E+00  0.0000E+00
     -4.654  0.0000E+00  0.0000E+00
     -4.572  0.0000E+00  0.0000E+00
     -4.490  0.4961E-16  0.4055E-17
     -4.408  0.1795E-01  0.1467E-02
     -4.327  0.1130E+00  0.1087E-01
     -4.245  0.1784E+00  0.2559E-01
     -4.163  0.2041E+00  0.4333E-01
     -4.081  0.2531E+00  0.6467E-01
     -4.000  0.2887E+00  0.8960E-01
     -3.918  0.3499E+00  0.1189E+00
     -3.836  0.3453E+00  0.1490E+00
     -3.755  0.4123E+00  0.1831E+00
     -3.673  0.4361E+00  0.2218E+00
     -3.591  0.4617E+00  0.2623E+00
     -3.509  0.5592E+00  0.3100E+00
     -3.428  0.6283E+00  0.3627E+00
     -3.346  0.7024E+00  0.4209E+00
     -3.264  0.9775E+00  0.5045E+00
     -3.182  0.3705E+01  0.8149E+00
     -3.101  0.7722E+01  0.1470E+01
     -3.019  0.1006E+02  0.2329E+01
     -2.937  0.1229E+02  0.3377E+01
     -2.855  0.1701E+02  0.4818E+01
     -2.774  0.1779E+02  0.6355E+01
     -2.692  0.1453E+02  0.7602E+01
     -2.610  0.1319E+02  0.8743E+01
     -2.528  0.1109E+02  0.9691E+01
     -2.447  0.9413E+01  0.1051E+02
     -2.365  0.1167E+02  0.1149E+02
     -2.283  0.1305E+02  0.1261E+02
     -2.201  0.1416E+02  0.1382E+02
     -2.120  0.1251E+02  0.1490E+02
     -2.038  0.1233E+02  0.1596E+02
     -1.956  0.1407E+02  0.1716E+02
     -1.874  0.1775E+02  0.1867E+02
     -1.793  0.2431E+02  0.2074E+02
     -1.711  0.1659E+02  0.2218E+02
     -1.629  0.1360E+02  0.2335E+02
     -1.548  0.1134E+02  0.2433E+02
     -1.466  0.1369E+02  0.2551E+02
     -1.384  0.1399E+02  0.2671E+02
     -1.302  0.1604E+02  0.2808E+02
     -1.221  0.1574E+02  0.2943E+02
     -1.139  0.1635E+02  0.3084E+02
     -1.057  0.1376E+02  0.3202E+02
     -0.975  0.1298E+02  0.3313E+02
     -0.894  0.1316E+02  0.3425E+02
     -0.812  0.1346E+02  0.3541E+02
     -0.730  0.1516E+02  0.3671E+02
     -0.648  0.2106E+02  0.3850E+02
     -0.567  0.1943E+02  0.4020E+02
     -0.485  0.9437E+01  0.4104E+02
     -0.403  0.2572E+01  0.4127E+02
     -0.321  0.9531E+00  0.4135E+02
     -0.240  0.1001E+01  0.4144E+02
     -0.158  0.6433E+00  0.4149E+02
     -0.076  0.1139E+01  0.4159E+02
      0.006  0.5575E+00  0.4164E+02
      0.087  0.1156E+01  0.4174E+02
      0.169  0.6889E+00  0.4180E+02
      0.251  0.1008E+01  0.4189E+02
      0.333  0.7303E+00  0.4195E+02
      0.414  0.9275E+00  0.4203E+02
      0.496  0.8739E+00  0.4211E+02
      0.578  0.7472E+00  0.4217E+02
      0.659  0.1033E+01  0.4226E+02
      0.741  0.8400E+00  0.4233E+02
      0.823  0.9471E+00  0.4241E+02
      0.905  0.9582E+00  0.4249E+02
      0.986  0.8065E+00  0.4256E+02
      1.068  0.1053E+01  0.4265E+02
      1.150  0.8757E+00  0.4272E+02
      1.232  0.8565E+00  0.4280E+02
      1.313  0.1050E+01  0.4289E+02
      1.395  0.9189E+00  0.4297E+02
      1.477  0.8959E+00  0.4304E+02
      1.559  0.1088E+01  0.4314E+02
      1.640  0.8765E+00  0.4321E+02
      1.722  0.9745E+00  0.4330E+02
      1.804  0.1061E+01  0.4338E+02
      1.886  0.9860E+00  0.4347E+02
      1.967  0.1003E+01  0.4355E+02
      2.049  0.1066E+01  0.4365E+02
      2.131  0.9813E+00  0.4373E+02
      2.213  0.1104E+01  0.4383E+02
      2.294  0.1131E+01  0.4392E+02
      2.376  0.1103E+01  0.4402E+02
      2.458  0.1077E+01  0.4411E+02
      2.539  0.1194E+01  0.4421E+02
      2.621  0.1053E+01  0.4431E+02
      2.703  0.9850E+00  0.4439E+02
      2.785  0.1295E+01  0.4450E+02
      2.866  0.1034E+01  0.4459E+02
      2.948  0.1158E+01  0.4469E+02
      3.030  0.1044E+01  0.4478E+02
      3.112  0.1184E+01  0.4488E+02
      3.193  0.1099E+01  0.4497E+02
      3.275  0.1094E+01  0.4507E+02
      3.357  0.1074E+01  0.4516E+02
      3.439  0.1041E+01  0.4525E+02
      3.520  0.1184E+01  0.4535E+02
      3.602  0.8635E+00  0.4543E+02
      3.684  0.1252E+01  0.4553E+02
      3.766  0.1067E+01  0.4562E+02
      3.847  0.9847E+00  0.4571E+02
      3.929  0.9544E+00  0.4580E+02
      4.011  0.1210E+01  0.4590E+02
      4.093  0.1078E+01  0.4599E+02
      4.174  0.1023E+01  0.4608E+02
      4.256  0.1037E+01  0.4617E+02
      4.338  0.1136E+01  0.4626E+02
      4.420  0.8763E+00  0.4634E+02
      4.501  0.1005E+01  0.4643E+02
      4.583  0.1060E+01  0.4652E+02
      4.665  0.1014E+01  0.4660E+02
      4.746  0.9228E+00  0.4668E+02
      4.828  0.8437E+00  0.4675E+02
      4.910  0.1042E+01  0.4684E+02
      4.992  0.8339E+00  0.4691E+02
      5.073  0.7599E+00  0.4698E+02
      5.155  0.8130E+00  0.4704E+02
      5.237  0.1050E+01  0.4713E+02
      5.319  0.1159E+01  0.4723E+02
      5.400  0.1315E+01  0.4734E+02
      5.482  0.1379E+01  0.4746E+02
      5.564  0.1362E+01  0.4758E+02
      5.646  0.1399E+01  0.4770E+02
      5.727  0.1314E+01  0.4781E+02
      5.809  0.1446E+01  0.4794E+02
      5.891  0.1369E+01  0.4805E+02
      5.973  0.1381E+01  0.4817E+02
      6.054  0.1334E+01  0.4828E+02
      6.136  0.1387E+01  0.4840E+02
      6.218  0.1323E+01  0.4851E+02
      6.300  0.1258E+01  0.4862E+02
      6.381  0.1397E+01  0.4874E+02
      6.463  0.1176E+01  0.4884E+02
      6.545  0.1279E+01  0.4895E+02
      6.627  0.1343E+01  0.4907E+02
      6.708  0.1101E+01  0.4916E+02
      6.790  0.1286E+01  0.4927E+02
      6.872  0.1280E+01  0.4938E+02
      6.953  0.1122E+01  0.4947E+02
      7.035  0.1227E+01  0.4958E+02
      7.117  0.1076E+01  0.4967E+02
      7.199  0.1288E+01  0.4978E+02
      7.280  0.1105E+01  0.4988E+02
      7.362  0.1241E+01  0.4998E+02
      7.444  0.1149E+01  0.5008E+02
      7.526  0.1114E+01  0.5017E+02
      7.607  0.1196E+01  0.5027E+02
      7.689  0.1225E+01  0.5038E+02
      7.771  0.1058E+01  0.5047E+02
      7.853  0.1125E+01  0.5056E+02
      7.934  0.1101E+01  0.5066E+02
      8.016  0.1249E+01  0.5076E+02
      8.098  0.1445E+01  0.5088E+02
      8.180  0.1834E+01  0.5104E+02
      8.261  0.1722E+01  0.5119E+02
      8.343  0.1410E+01  0.5130E+02
      8.425  0.1691E+01  0.5145E+02
      8.507  0.1179E+01  0.5155E+02
      8.588  0.1210E+01  0.5166E+02
      8.670  0.1547E+01  0.5179E+02
      8.752  0.1918E+01  0.5195E+02
      8.833  0.1743E+01  0.5210E+02
      8.915  0.1669E+01  0.5224E+02
      8.997  0.1536E+01  0.5237E+02
      9.079  0.1863E+01  0.5253E+02
      9.160  0.1821E+01  0.5268E+02
      9.242  0.1686E+01  0.5283E+02
      9.324  0.1569E+01  0.5296E+02
      9.406  0.1685E+01  0.5310E+02
      9.487  0.1687E+01  0.5325E+02
      9.569  0.1694E+01  0.5339E+02
      9.651  0.1755E+01  0.5354E+02
      9.733  0.1479E+01  0.5367E+02
      9.814  0.1740E+01  0.5382E+02
      9.896  0.1596E+01  0.5395E+02
      9.978  0.1542E+01  0.5409E+02
     10.060  0.1859E+01  0.5425E+02
     10.141  0.1794E+01  0.5440E+02
     10.223  0.1891E+01  0.5456E+02
     10.305  0.1527E+01  0.5470E+02
     10.387  0.1628E+01  0.5483E+02
     10.468  0.1626E+01  0.5497E+02
     10.550  0.2168E+01  0.5516E+02
     10.632  0.1982E+01  0.5533E+02
     10.714  0.1582E+01  0.5547E+02
     10.795  0.1741E+01  0.5562E+02
     10.877  0.1703E+01  0.5576E+02
     10.959  0.1642E+01  0.5590E+02
     11.040  0.2099E+01  0.5608E+02
     11.122  0.1878E+01  0.5625E+02
     11.204  0.1881E+01  0.5641E+02
     11.286  0.1876E+01  0.5657E+02
     11.367  0.1640E+01  0.5671E+02
     11.449  0.1757E+01  0.5686E+02
     11.531  0.2184E+01  0.5705E+02
     11.613  0.2068E+01  0.5722E+02
     11.694  0.1916E+01  0.5739E+02
     11.776  0.1828E+01  0.5755E+02
     11.858  0.1824E+01  0.5771E+02
     11.940  0.1938E+01  0.5787E+02
     12.021  0.2116E+01  0.5805E+02
     12.103  0.2000E+01  0.5823E+02
     12.185  0.2299E+01  0.5842E+02
     12.267  0.1990E+01  0.5859E+02
     12.348  0.2176E+01  0.5878E+02
     12.430  0.2034E+01  0.5895E+02
     12.512  0.2447E+01  0.5916E+02
     12.594  0.2136E+01  0.5934E+02
     12.675  0.1998E+01  0.5951E+02
     12.757  0.2193E+01  0.5970E+02
     12.839  0.1905E+01  0.5987E+02
     12.921  0.2024E+01  0.6004E+02
     13.002  0.1998E+01  0.6021E+02
     13.084  0.2154E+01  0.6040E+02
     13.166  0.1394E+01  0.6051E+02
     13.247  0.2401E+01  0.6072E+02
     13.329  0.1625E+01  0.6086E+02
     13.411  0.1883E+01  0.6102E+02
     13.493  0.1799E+01  0.6118E+02
     13.574  0.1778E+01  0.6133E+02
     13.656  0.1748E+01  0.6148E+02
     13.738  0.1699E+01  0.6162E+02
     13.820  0.1414E+01  0.6175E+02
     13.901  0.1380E+01  0.6187E+02
     13.983  0.1486E+01  0.6200E+02
     14.065  0.1121E+01  0.6209E+02
     14.147  0.1174E+01  0.6220E+02
     14.228  0.1210E+01  0.6230E+02
     14.310  0.1019E+01  0.6239E+02
     14.392  0.8852E+00  0.6247E+02
     14.474  0.9257E+00  0.6255E+02
     14.555  0.9783E+00  0.6263E+02
     14.637  0.8095E+00  0.6270E+02
     14.719  0.8786E+00  0.6278E+02
     14.801  0.9341E+00  0.6285E+02
     14.882  0.5990E+00  0.6290E+02
     14.964  0.8497E+00  0.6297E+02
     15.046  0.8080E+00  0.6304E+02
     15.128  0.4663E+00  0.6308E+02
     15.209  0.7348E+00  0.6314E+02
     15.291  0.5952E+00  0.6320E+02
     15.373  0.4515E+00  0.6323E+02
     15.454  0.6523E+00  0.6329E+02
     15.536  0.5384E+00  0.6333E+02
     15.618  0.3646E+00  0.6336E+02
     15.700  0.6117E+00  0.6341E+02
     15.781  0.3943E+00  0.6345E+02
     15.863  0.3416E+00  0.6348E+02
     15.945  0.4361E+00  0.6352E+02
     16.027  0.4086E+00  0.6355E+02
     16.108  0.3255E+00  0.6358E+02
     16.190  0.4089E+00  0.6361E+02
     16.272  0.2869E+00  0.6364E+02
     16.354  0.3594E+00  0.6367E+02
     16.435  0.2735E+00  0.6369E+02
     16.517  0.2850E+00  0.6371E+02
     16.599  0.2578E+00  0.6374E+02
     16.681  0.4053E+00  0.6377E+02
     16.762  0.7611E-01  0.6378E+02
     16.844  0.3191E+00  0.6380E+02
     16.926  0.2150E+00  0.6382E+02
     17.008  0.1922E+00  0.6384E+02
     17.089  0.2635E+00  0.6386E+02
     17.171  0.1894E+00  0.6388E+02
     17.253  0.1873E+00  0.6390E+02
     17.334  0.1661E+00  0.6391E+02
     17.416  0.1691E+00  0.6393E+02
     17.498  0.1716E+00  0.6394E+02
     17.580  0.2016E+00  0.6396E+02
     17.661  0.2203E+00  0.6398E+02
     17.743  0.1682E+00  0.6399E+02
     17.825  0.5134E-01  0.6400E+02
     17.907  0.4195E-02  0.6400E+02
     17.988  0.0000E+00  0.6400E+02
     18.070  0.0000E+00  0.6400E+02
     18.152  0.0000E+00  0.6400E+02
     18.234  0.0000E+00  0.6400E+02
     18.315  0.0000E+00  0.6400E+02
     18.397  0.0000E+00  0.6400E+02
     18.479  0.0000E+00  0.6400E+02
     18.561  0.0000E+00  0.6400E+02
     18.642  0.0000E+00  0.6400E+02
     18.724  0.0000E+00  0.6400E+02
     18.806  0.0000E+00  0.6400E+02
     18.888  0.0000E+00  0.6400E+02
     18.969  0.0000E+00  0.6400E+02
