    4    4    1    1
  0.1972021E+02  0.4288682E-09  0.4288682E-09  0.4288682E-09  0.5000000E-15
  1.000000000000000E-004
  CAR 
 unknown system                          
   44 1330   32
 
  0.0000000E+00  0.0000000E+00  0.0000000E+00  0.2143347E-04
   1       -4.4382
   2       -3.2849
   3       -3.2849
   4       -3.2849
   5       -3.1951
   6       -3.1951
   7       -3.1951
   8       -2.0355
   9       -2.0355
  10       -2.0355
  11       -1.2380
  12       -1.2380
  13       -0.6486
  14       -0.6486
  15       -0.6486
  16       -0.4625
  17       -0.4625
  18       -0.4625
  19       -0.4625
  20       -0.4625
  21       -0.4625
  22        4.0680
  23        4.0680
  24        4.0680
  25        8.0219
  26        8.0219
  27        8.0219
  28       12.3873
  29       12.3873
  30       12.3873
  31       12.3873
  32       12.3873
 
  0.2777778E-01  0.0000000E+00  0.0000000E+00  0.1286008E-03
   1       -4.4309
   2       -3.2822
   3       -3.2814
   4       -3.2814
   5       -3.1931
   6       -3.1920
   7       -3.1920
   8       -2.0379
   9       -2.0331
  10       -2.0331
  11       -1.2404
  12       -1.2369
  13       -0.6518
  14       -0.6518
  15       -0.6497
  16       -0.4735
  17       -0.4735
  18       -0.4664
  19       -0.4664
  20       -0.4625
  21       -0.4625
  22        4.0061
  23        4.0853
  24        4.0853
  25        8.0235
  26        8.0235
  27        8.0958
  28       12.3570
  29       12.3570
  30       12.3571
  31       12.3571
  32       12.3993
 
  0.5555556E-01  0.0000000E+00  0.0000000E+00  0.1286008E-03
   1       -4.4093
   2       -3.2741
   3       -3.2709
   4       -3.2709
   5       -3.1870
   6       -3.1827
   7       -3.1827
   8       -2.0452
   9       -2.0261
  10       -2.0261
  11       -1.2476
  12       -1.2337
  13       -0.6613
  14       -0.6613
  15       -0.6532
  16       -0.5061
  17       -0.5061
  18       -0.4782
  19       -0.4782
  20       -0.4624
  21       -0.4624
  22        3.8329
  23        4.1367
  24        4.1367
  25        8.0281
  26        8.0281
  27        8.3051
  28       12.2686
  29       12.2686
  30       12.2697
  31       12.2697
  32       12.4355
 
  0.8333333E-01  0.0000000E+00  0.0000000E+00  0.1286008E-03
   1       -4.3733
   2       -3.2608
   3       -3.2536
   4       -3.2536
   5       -3.1770
   6       -3.1672
   7       -3.1672
   8       -2.0572
   9       -2.0145
  10       -2.0145
  11       -1.2595
  12       -1.2283
  13       -0.6771
  14       -0.6771
  15       -0.6590
  16       -0.5587
  17       -0.5587
  18       -0.4976
  19       -0.4976
  20       -0.4624
  21       -0.4624
  22        3.5767
  23        4.2206
  24        4.2206
  25        8.0359
  26        8.0359
  27        8.6214
  28       12.1278
  29       12.1278
  30       12.1340
  31       12.1340
  32       12.4955
 
  0.1111111E+00  0.0000000E+00  0.0000000E+00  0.1286008E-03
   1       -4.3232
   2       -3.2424
   3       -3.2297
   4       -3.2297
   5       -3.1630
   6       -3.1456
   7       -3.1456
   8       -2.0738
   9       -1.9982
  10       -1.9982
  11       -1.2757
  12       -1.2209
  13       -0.6989
  14       -0.6989
  15       -0.6671
  16       -0.6290
  17       -0.6290
  18       -0.5244
  19       -0.5244
  20       -0.4624
  21       -0.4624
  22        3.2663
  23        4.3347
  24        4.3347
  25        8.0469
  26        8.0469
  27        9.0160
  28       11.9427
  29       11.9427
  30       11.9616
  31       11.9616
  32       12.5791
 
  0.1388889E+00  0.0000000E+00  0.0000000E+00  0.1286008E-03
   1       -4.2594
   2       -3.2191
   3       -3.1996
   4       -3.1996
   5       -3.1452
   6       -3.1178
   7       -3.1178
   8       -2.0949
   9       -1.9774
  10       -1.9774
  11       -1.2959
  12       -1.2114
  13       -0.7265
  14       -0.7265
  15       -0.7145
  16       -0.7145
  17       -0.6773
  18       -0.5581
  19       -0.5581
  20       -0.4623
  21       -0.4623
  22        2.9238
  23        4.4763
  24        4.4763
  25        8.0611
  26        8.0611
  27        9.4669
  28       11.7215
  29       11.7215
  30       11.7640
  31       11.7640
  32       12.6856
 
  0.1666667E+00  0.0000000E+00  0.0000000E+00  0.1286008E-03
   1       -4.1821
   2       -3.1914
   3       -3.1637
   4       -3.1637
   5       -3.1237
   6       -3.0838
   7       -3.0838
   8       -2.1203
   9       -1.9521
  10       -1.9521
  11       -1.3195
  12       -1.2000
  13       -0.8122
  14       -0.8122
  15       -0.7594
  16       -0.7594
  17       -0.6896
  18       -0.5982
  19       -0.5982
  20       -0.4623
  21       -0.4623
  22        2.5642
  23        4.6424
  24        4.6424
  25        8.0788
  26        8.0788
  27        9.9590
  28       11.4722
  29       11.4722
  30       11.5513
  31       11.5513
  32       12.8146
 
  0.1944444E+00  0.0000000E+00  0.0000000E+00  0.1286008E-03
   1       -4.0919
   2       -3.1597
   3       -3.1227
   4       -3.1227
   5       -3.0985
   6       -3.0437
   7       -3.0437
   8       -2.1496
   9       -1.9224
  10       -1.9224
  11       -1.3457
  12       -1.1867
  13       -0.9194
  14       -0.9194
  15       -0.7973
  16       -0.7973
  17       -0.7040
  18       -0.6443
  19       -0.6443
  20       -0.4622
  21       -0.4622
  22        2.1975
  23        4.8303
  24        4.8303
  25        8.0999
  26        8.0999
  27       10.4824
  28       11.2013
  29       11.2013
  30       11.3320
  31       11.3320
  32       12.9652
 
  0.2222222E+00  0.0000000E+00  0.0000000E+00  0.1286008E-03
   1       -3.9897
   2       -3.1245
   3       -3.0773
   4       -3.0773
   5       -3.0699
   6       -2.9976
   7       -2.9976
   8       -2.1828
   9       -1.8884
  10       -1.8884
  11       -1.3736
  12       -1.1715
  13       -1.0337
  14       -1.0337
  15       -0.8395
  16       -0.8395
  17       -0.7202
  18       -0.6956
  19       -0.6956
  20       -0.4622
  21       -0.4622
  22        1.8304
  23        5.0373
  24        5.0373
  25        8.1245
  26        8.1245
  27       10.9141
  28       10.9141
  29       11.0305
  30       11.1124
  31       11.1124
  32       13.1368
 
  0.2500000E+00  0.0000000E+00  0.0000000E+00  0.1286008E-03
   1       -3.8765
   2       -3.0866
   3       -3.0379
   4       -3.0284
   5       -3.0284
   6       -2.9454
   7       -2.9454
   8       -2.2193
   9       -1.8502
  10       -1.8502
  11       -1.4018
  12       -1.1547
  13       -1.1529
  14       -1.1529
  15       -0.8851
  16       -0.8851
  17       -0.7515
  18       -0.7515
  19       -0.7381
  20       -0.4621
  21       -0.4621
  22        1.4677
  23        5.2612
  24        5.2612
  25        8.1526
  26        8.1526
  27       10.6148
  28       10.6148
  29       10.8978
  30       10.8978
  31       11.5987
  32       13.3284
 
  0.2777778E+00  0.0000000E+00  0.0000000E+00  0.1286008E-03
   1       -3.7538
   2       -3.0467
   3       -3.0029
   4       -2.9770
   5       -2.9770
   6       -2.8872
   7       -2.8872
   8       -2.2590
   9       -1.8080
  10       -1.8080
  11       -1.4287
  12       -1.2751
  13       -1.2751
  14       -1.1363
  15       -0.9332
  16       -0.9332
  17       -0.8113
  18       -0.8113
  19       -0.7576
  20       -0.4620
  21       -0.4620
  22        1.1127
  23        5.4998
  24        5.4998
  25        8.1840
  26        8.1840
  27       10.3069
  28       10.3069
  29       10.6920
  30       10.6920
  31       12.1836
  32       13.5392
 
  0.3055556E+00  0.0000000E+00  0.0000000E+00  0.1286008E-03
   1       -3.6236
   2       -3.0061
   3       -2.9650
   4       -2.9246
   5       -2.9246
   6       -2.8230
   7       -2.8230
   8       -2.3013
   9       -1.7619
  10       -1.7619
  11       -1.4517
  12       -1.3988
  13       -1.3988
  14       -1.1164
  15       -0.9825
  16       -0.9825
  17       -0.8742
  18       -0.8742
  19       -0.7785
  20       -0.4620
  21       -0.4620
  22        0.7685
  23        5.7514
  24        5.7514
  25        8.2184
  26        8.2184
  27        9.9930
  28        9.9930
  29       10.4986
  30       10.4986
  31       12.7824
  32       13.7682
 
  0.3333333E+00  0.0000000E+00  0.0000000E+00  0.1286008E-03
   1       -3.4890
   2       -2.9660
   3       -2.9244
   4       -2.8726
   5       -2.8726
   6       -2.7530
   7       -2.7530
   8       -2.3461
   9       -1.7121
  10       -1.7121
  11       -1.5225
  12       -1.5225
  13       -1.4679
  14       -1.0952
  15       -1.0316
  16       -1.0316
  17       -0.9398
  18       -0.9398
  19       -0.8007
  20       -0.4619
  21       -0.4619
  22        0.4374
  23        6.0145
  24        6.0145
  25        8.2551
  26        8.2551
  27        9.6753
  28        9.6753
  29       10.3204
  30       10.3204
  31       13.3928
  32       14.0144
 
  0.3611111E+00  0.0000000E+00  0.0000000E+00  0.1286008E-03
   1       -3.3538
   2       -2.9283
   3       -2.8815
   4       -2.8229
   5       -2.8229
   6       -2.6773
   7       -2.6773
   8       -2.3928
   9       -1.6589
  10       -1.6589
  11       -1.6453
  12       -1.6453
  13       -1.4727
  14       -1.0788
  15       -1.0788
  16       -1.0729
  17       -1.0072
  18       -1.0072
  19       -0.8239
  20       -0.4618
  21       -0.4618
  22        0.1219
  23        6.2878
  24        6.2878
  25        8.2929
  26        8.2929
  27        9.3554
  28        9.3554
  29       10.1603
  30       10.1603
  31       14.0123
  32       14.2768
 
  0.3888889E+00  0.0000000E+00  0.0000000E+00  0.1286008E-03
   1       -3.2235
   2       -2.8952
   3       -2.8365
   4       -2.7776
   5       -2.7776
   6       -2.5959
   7       -2.5959
   8       -2.4411
   9       -1.7661
  10       -1.7661
  11       -1.6025
  12       -1.6025
  13       -1.4605
  14       -1.1220
  15       -1.1220
  16       -1.0758
  17       -1.0758
  18       -1.0495
  19       -0.8480
  20       -0.4618
  21       -0.4618
  22       -0.1751
  23        6.5699
  24        6.5699
  25        8.3303
  26        8.3303
  27        9.0348
  28        9.0348
  29       10.0214
  30       10.0214
  31       14.5545
  32       14.5545
 
  0.4166667E+00  0.0000000E+00  0.0000000E+00  0.1286008E-03
   1       -3.1047
   2       -2.8696
   3       -2.7897
   4       -2.7390
   5       -2.7390
   6       -2.5090
   7       -2.5090
   8       -2.4905
   9       -1.8843
  10       -1.8843
  11       -1.5431
  12       -1.5431
  13       -1.4243
  14       -1.1589
  15       -1.1589
  16       -1.1450
  17       -1.1450
  18       -1.0253
  19       -0.8729
  20       -0.4618
  21       -0.4618
  22       -0.4506
  23        6.8599
  24        6.8599
  25        8.3647
  26        8.3647
  27        8.7147
  28        8.7147
  29        9.9069
  30        9.9069
  31       14.8463
  32       14.8463
 
  0.4444444E+00  0.0000000E+00  0.0000000E+00  0.1286008E-03
   1       -3.0047
   2       -2.8555
   3       -2.7414
   4       -2.7092
   5       -2.7092
   6       -2.5407
   7       -2.4168
   8       -2.4168
   9       -1.9992
  10       -1.9992
  11       -1.4811
  12       -1.4811
  13       -1.3565
  14       -1.2142
  15       -1.2142
  16       -1.1875
  17       -1.1875
  18       -1.0005
  19       -0.8982
  20       -0.7006
  21       -0.4617
  22       -0.4617
  23        7.1569
  24        7.1569
  25        8.3931
  26        8.3931
  27        8.3963
  28        8.3963
  29        9.8209
  30        9.8209
  31       15.1512
  32       15.1512
 
  0.4722222E+00  0.0000000E+00  0.0000000E+00  0.1286008E-03
   1       -2.9292
   2       -2.8574
   3       -2.6921
   4       -2.6904
   5       -2.6904
   6       -2.5913
   7       -2.3194
   8       -2.3194
   9       -2.1103
  10       -2.1103
  11       -1.4168
  12       -1.4168
  13       -1.2829
  14       -1.2829
  15       -1.2511
  16       -1.2056
  17       -1.2056
  18       -0.9751
  19       -0.9238
  20       -0.9205
  21       -0.4617
  22       -0.4617
  23        7.4598
  24        7.4598
  25        8.0804
  26        8.0804
  27        8.4121
  28        8.4121
  29        9.7671
  30        9.7671
  31       15.4681
  32       15.4681
 
  0.5000000E+00  0.0000000E+00  0.0000000E+00  0.6430041E-04
   1       -2.8806
   2       -2.8806
   3       -2.6839
   4       -2.6839
   5       -2.6419
   6       -2.6419
   7       -2.2172
   8       -2.2172
   9       -2.2172
  10       -2.2172
  11       -1.3506
  12       -1.3506
  13       -1.3506
  14       -1.3506
  15       -1.2118
  16       -1.2118
  17       -1.1054
  18       -1.1054
  19       -0.9495
  20       -0.9495
  21       -0.4617
  22       -0.4617
  23        7.7679
  24        7.7679
  25        7.7679
  26        7.7679
  27        8.4188
  28        8.4188
  29        9.7488
  30        9.7488
  31       15.7960
  32       15.7960
 
  0.2777778E-01  0.2777778E-01  0.0000000E+00  0.2572016E-03
   1       -4.4237
   2       -3.2787
   3       -3.2787
   4       -3.2780
   5       -3.1900
   6       -3.1900
   7       -3.1888
   8       -2.0388
   9       -2.0323
  10       -2.0308
  11       -1.2411
  12       -1.2376
  13       -0.6549
  14       -0.6530
  15       -0.6530
  16       -0.4817
  17       -0.4773
  18       -0.4773
  19       -0.4664
  20       -0.4664
  21       -0.4652
  22        4.0233
  23        4.0233
  24        4.1025
  25        8.0250
  26        8.0975
  27        8.0975
  28       12.2463
  29       12.3690
  30       12.3690
  31       12.3691
  32       12.3691
 
  0.5555556E-01  0.2777778E-01  0.0000000E+00  0.5144033E-03
   1       -4.4021
   2       -3.2706
   3       -3.2682
   4       -3.2678
   5       -3.1839
   6       -3.1807
   7       -3.1793
   8       -2.0453
   9       -2.0260
  10       -2.0239
  11       -1.2476
  12       -1.2350
  13       -0.6644
  14       -0.6630
  15       -0.6569
  16       -0.5127
  17       -0.5095
  18       -0.4888
  19       -0.4782
  20       -0.4666
  21       -0.4664
  22        3.8497
  23        4.0742
  24        4.1537
  25        8.0296
  26        8.1026
  27        8.3071
  28       12.0863
  29       12.2805
  30       12.2814
  31       12.4035
  32       12.4049
 
  0.8333333E-01  0.2777778E-01  0.0000000E+00  0.5144033E-03
   1       -4.3662
   2       -3.2573
   3       -3.2509
   4       -3.2509
   5       -3.1739
   6       -3.1652
   7       -3.1635
   8       -2.0571
   9       -2.0146
  10       -2.0123
  11       -1.2593
  12       -1.2297
  13       -0.6801
  14       -0.6797
  15       -0.6633
  16       -0.5646
  17       -0.5612
  18       -0.5076
  19       -0.4976
  20       -0.4669
  21       -0.4664
  22        3.5931
  23        4.1572
  24        4.2373
  25        8.0374
  26        8.1112
  27        8.6239
  28       11.8871
  29       12.1395
  30       12.1454
  31       12.3375
  32       12.4646
 
  0.1111111E+00  0.2777778E-01  0.0000000E+00  0.5144033E-03
   1       -4.3162
   2       -3.2388
   3       -3.2276
   4       -3.2270
   5       -3.1600
   6       -3.1436
   7       -3.1413
   8       -2.0736
   9       -1.9984
  10       -1.9962
  11       -1.2754
  12       -1.2222
  13       -0.7042
  14       -0.7018
  15       -0.6725
  16       -0.6344
  17       -0.6288
  18       -0.5333
  19       -0.5244
  20       -0.4670
  21       -0.4663
  22        3.2824
  23        4.2701
  24        4.3510
  25        8.0483
  26        8.1233
  27        9.0188
  28       11.6587
  29       11.9541
  30       11.9727
  31       12.2198
  32       12.5475
 
  0.1388889E+00  0.2777778E-01  0.0000000E+00  0.5144033E-03
   1       -4.2524
   2       -3.2155
   3       -3.1983
   4       -3.1968
   5       -3.1422
   6       -3.1159
   7       -3.1128
   8       -2.0947
   9       -1.9776
  10       -1.9755
  11       -1.2955
  12       -1.2126
  13       -0.7447
  14       -0.7293
  15       -0.7193
  16       -0.7014
  17       -0.6845
  18       -0.5653
  19       -0.5581
  20       -0.4670
  21       -0.4663
  22        2.9397
  23        4.4101
  24        4.4921
  25        8.0625
  26        8.1390
  27        9.4698
  28       11.4097
  29       11.7327
  30       11.7747
  31       12.0601
  32       12.6532
 
  0.1666667E+00  0.2777778E-01  0.0000000E+00  0.5144033E-03
   1       -4.1752
   2       -3.1878
   3       -3.1633
   4       -3.1609
   5       -3.1207
   6       -3.0820
   7       -3.0781
   8       -2.1199
   9       -1.9523
  10       -1.9504
  11       -1.3189
  12       -1.2010
  13       -0.8255
  14       -0.8164
  15       -0.7621
  16       -0.7511
  17       -0.6999
  18       -0.6025
  19       -0.5983
  20       -0.4669
  21       -0.4663
  22        2.5800
  23        4.5741
  24        4.6577
  25        8.0800
  26        8.1585
  27        9.9619
  28       11.1468
  29       11.4832
  30       11.5618
  31       11.8692
  32       12.7816
 
  0.1944444E+00  0.2777778E-01  0.0000000E+00  0.5144033E-03
   1       -4.0852
   2       -3.1560
   3       -3.1232
   4       -3.1199
   5       -3.0956
   6       -3.0419
   7       -3.0373
   8       -2.1492
   9       -1.9226
  10       -1.9210
  11       -1.3449
  12       -1.1875
  13       -0.9292
  14       -0.9232
  15       -0.7999
  16       -0.7924
  17       -0.7202
  18       -0.6443
  19       -0.6427
  20       -0.4669
  21       -0.4662
  22        2.2134
  23        4.7594
  24        4.8451
  25        8.1009
  26        8.1818
  27       10.4851
  28       10.8749
  29       11.2120
  30       11.3424
  31       11.6570
  32       12.9311
 
  0.2222222E+00  0.2777778E-01  0.0000000E+00  0.5144033E-03
   1       -3.9832
   2       -3.1208
   3       -3.0787
   4       -3.0744
   5       -3.0670
   6       -2.9958
   7       -2.9905
   8       -2.1823
   9       -1.8886
  10       -1.8875
  11       -1.3725
  12       -1.1721
  13       -1.0421
  14       -1.0370
  15       -0.8418
  16       -0.8358
  17       -0.7487
  18       -0.6957
  19       -0.6820
  20       -0.4668
  21       -0.4662
  22        1.8466
  23        4.9632
  24        5.0516
  25        8.1250
  26        8.2091
  27       10.5973
  28       10.9246
  29       11.0330
  30       11.1229
  31       11.4327
  32       13.1008
 
  0.2500000E+00  0.2777778E-01  0.0000000E+00  0.5144033E-03
   1       -3.8702
   2       -3.0828
   3       -3.0352
   4       -3.0304
   5       -3.0255
   6       -2.9437
   7       -2.9378
   8       -2.2187
   9       -1.8504
  10       -1.8499
  11       -1.4002
  12       -1.1605
  13       -1.1557
  14       -1.1550
  15       -0.8873
  16       -0.8820
  17       -0.7896
  18       -0.7516
  19       -0.7152
  20       -0.4667
  21       -0.4661
  22        1.4842
  23        5.1831
  24        5.2750
  25        8.1523
  26        8.2402
  27       10.3163
  28       10.6253
  29       10.9086
  30       11.2038
  31       11.6007
  32       13.2909
 
  0.2777778E+00  0.2777778E-01  0.0000000E+00  0.5144033E-03
   1       -3.7477
   2       -3.0429
   3       -3.0002
   4       -2.9795
   5       -2.9741
   6       -2.8856
   7       -2.8796
   8       -2.2582
   9       -1.8087
  10       -1.8082
  11       -1.4262
  12       -1.2820
  13       -1.2774
  14       -1.1363
  15       -0.9352
  16       -0.9305
  17       -0.8419
  18       -0.8114
  19       -0.7426
  20       -0.4666
  21       -0.4661
  22        1.1298
  23        5.4171
  24        5.5132
  25        8.1823
  26        8.2750
  27       10.0332
  28       10.3173
  29       10.7035
  30       10.9770
  31       12.1850
  32       13.4998
 
  0.3055556E+00  0.2777778E-01  0.0000000E+00  0.5144033E-03
   1       -3.6178
   2       -3.0022
   3       -2.9624
   4       -2.9270
   5       -2.9216
   6       -2.8216
   7       -2.8158
   8       -2.3005
   9       -1.7642
  10       -1.7621
  11       -1.4477
  12       -1.4051
  13       -1.4006
  14       -1.1162
  15       -0.9843
  16       -0.9802
  17       -0.9013
  18       -0.8744
  19       -0.7677
  20       -0.4665
  21       -0.4661
  22        0.7863
  23        5.6632
  24        5.7644
  25        8.2140
  26        8.3133
  27        9.7491
  28       10.0034
  29       10.5113
  30       10.7581
  31       12.7829
  32       13.7268
 
  0.3333333E+00  0.2777778E-01  0.0000000E+00  0.5144033E-03
   1       -3.4834
   2       -2.9621
   3       -2.9220
   4       -2.8745
   5       -2.8696
   6       -2.7517
   7       -2.7466
   8       -2.3451
   9       -1.7173
  10       -1.7123
  11       -1.5282
  12       -1.5240
  13       -1.4612
  14       -1.0946
  15       -1.0332
  16       -1.0296
  17       -0.9653
  18       -0.9399
  19       -0.7924
  20       -0.4665
  21       -0.4661
  22        0.4561
  23        5.9197
  24        6.0271
  25        8.2455
  26        8.3541
  27        9.4656
  28        9.6856
  29       10.3350
  30       10.5521
  31       13.3916
  32       13.9719
 
  0.3611111E+00  0.2777778E-01  0.0000000E+00  0.5144033E-03
   1       -3.3485
   2       -2.9242
   3       -2.8792
   4       -2.8241
   5       -2.8199
   6       -2.6761
   7       -2.6720
   8       -2.3917
   9       -1.6691
  10       -1.6591
  11       -1.6504
  12       -1.6464
  13       -1.4612
  14       -1.0802
  15       -1.0771
  16       -1.0719
  17       -1.0321
  18       -1.0073
  19       -0.8173
  20       -0.4664
  21       -0.4660
  22        0.1420
  23        6.1850
  24        6.3000
  25        8.2725
  26        8.3963
  27        9.1862
  28        9.3658
  29       10.1779
  30       10.3633
  31       14.0054
  32       14.2353
 
  0.3888889E+00  0.2777778E-01  0.0000000E+00  0.5144033E-03
   1       -3.2185
   2       -2.8910
   3       -2.8343
   4       -2.7779
   5       -2.7746
   6       -2.5949
   7       -2.5919
   8       -2.4398
   9       -1.7705
  10       -1.7669
  11       -1.6207
  12       -1.6027
  13       -1.4413
  14       -1.1231
  15       -1.1205
  16       -1.1011
  17       -1.0759
  18       -1.0482
  19       -0.8426
  20       -0.4663
  21       -0.4660
  22       -0.1534
  23        6.4576
  24        6.5818
  25        8.2837
  26        8.4380
  27        8.9210
  28        9.0452
  29       10.0436
  30       10.1957
  31       14.4884
  32       14.5093
 
  0.4166667E+00  0.2777778E-01  0.0000000E+00  0.5144033E-03
   1       -3.0999
   2       -2.8654
   3       -2.7876
   4       -2.7383
   5       -2.7359
   6       -2.5081
   7       -2.5064
   8       -2.4891
   9       -1.8880
  10       -1.8848
  11       -1.5710
  12       -1.5433
  13       -1.3957
  14       -1.1714
  15       -1.1599
  16       -1.1579
  17       -1.1451
  18       -1.0235
  19       -0.8685
  20       -0.4662
  21       -0.4660
  22       -0.4266
  23        6.7360
  24        6.8715
  25        8.2454
  26        8.4766
  27        8.7021
  28        8.7252
  29        9.9362
  30       10.0534
  31       14.7844
  32       14.7979
 
  0.4444444E+00  0.2777778E-01  0.0000000E+00  0.5144033E-03
   1       -3.0000
   2       -2.8511
   3       -2.7394
   4       -2.7077
   5       -2.7062
   6       -2.5392
   7       -2.4161
   8       -2.4155
   9       -2.0021
  10       -1.9994
  11       -1.5162
  12       -1.4813
  13       -1.3214
  14       -1.2426
  15       -1.2144
  16       -1.1881
  17       -1.1867
  18       -0.9981
  19       -0.8951
  20       -0.6733
  21       -0.4662
  22       -0.4660
  23        7.0185
  24        7.1682
  25        8.0975
  26        8.4069
  27        8.5087
  28        8.5872
  29        9.8605
  30        9.9407
  31       15.0857
  32       15.0988
 
  0.4722222E+00  0.2777778E-01  0.0000000E+00  0.5144033E-03
   1       -2.9246
   2       -2.8530
   3       -2.6902
   4       -2.6883
   5       -2.6875
   6       -2.5897
   7       -2.3193
   8       -2.3189
   9       -2.1123
  10       -2.1102
  11       -1.4536
  12       -1.4170
  13       -1.3142
  14       -1.2831
  15       -1.2150
  16       -1.2059
  17       -1.2052
  18       -0.9721
  19       -0.9259
  20       -0.8850
  21       -0.4661
  22       -0.4660
  23        7.3029
  24        7.4709
  25        7.8581
  26        8.0911
  27        8.5314
  28        8.5550
  29        9.8211
  30        9.8620
  31       15.3972
  32       15.4108
 
  0.5000000E+00  0.2777778E-01  0.0000000E+00  0.2572016E-03
   1       -2.8761
   2       -2.8761
   3       -2.6814
   4       -2.6814
   5       -2.6401
   6       -2.6401
   7       -2.2182
   8       -2.2182
   9       -2.2169
  10       -2.2169
  11       -1.3852
  12       -1.3852
  13       -1.3507
  14       -1.3507
  15       -1.2118
  16       -1.2118
  17       -1.0728
  18       -1.0728
  19       -0.9452
  20       -0.9452
  21       -0.4661
  22       -0.4661
  23        7.5854
  24        7.5854
  25        7.7789
  26        7.7789
  27        8.5447
  28        8.5447
  29        9.8214
  30        9.8214
  31       15.7183
  32       15.7303
 
  0.5555556E-01  0.5555556E-01  0.0000000E+00  0.2572016E-03
   1       -4.3806
   2       -3.2601
   3       -3.2601
   4       -3.2583
   5       -3.1747
   6       -3.1747
   7       -3.1692
   8       -2.0487
   9       -2.0228
  10       -2.0171
  11       -1.2502
  12       -1.2361
  13       -0.6738
  14       -0.6681
  15       -0.6681
  16       -0.5376
  17       -0.5197
  18       -0.5197
  19       -0.4782
  20       -0.4782
  21       -0.4734
  22        3.8995
  23        3.8995
  24        4.2042
  25        8.0342
  26        8.3133
  27        8.3133
  28       11.8654
  29       12.3160
  30       12.3160
  31       12.3166
  32       12.3166
 
  0.8333333E-01  0.5555556E-01  0.0000000E+00  0.5144033E-03
   1       -4.3448
   2       -3.2467
   3       -3.2427
   4       -3.2427
   5       -3.1648
   6       -3.1593
   7       -3.1522
   8       -2.0585
   9       -2.0132
  10       -2.0057
  11       -1.2599
  12       -1.2324
  13       -0.6893
  14       -0.6878
  15       -0.6768
  16       -0.5850
  17       -0.5685
  18       -0.5363
  19       -0.4976
  20       -0.4782
  21       -0.4772
  22        3.6416
  23        3.9806
  24        4.2869
  25        8.0419
  26        8.3237
  27        8.6312
  28       11.6166
  29       12.1744
  30       12.1796
  31       12.3750
  32       12.3750
 
  0.1111111E+00  0.5555556E-01  0.0000000E+00  0.5144033E-03
   1       -4.2951
   2       -3.2282
   3       -3.2212
   4       -3.2188
   5       -3.1509
   6       -3.1378
   7       -3.1287
   8       -2.0741
   9       -1.9978
  10       -1.9900
  11       -1.2752
  12       -1.2252
  13       -0.7193
  14       -0.7107
  15       -0.6897
  16       -0.6520
  17       -0.6290
  18       -0.5585
  19       -0.5244
  20       -0.4789
  21       -0.4782
  22        3.3299
  23        4.0906
  24        4.3993
  25        8.0527
  26        8.3384
  27        9.0270
  28       11.3488
  29       11.9882
  30       12.0058
  31       12.4506
  32       12.4563
 
  0.1388889E+00  0.5555556E-01  0.0000000E+00  0.5144033E-03
   1       -4.2316
   2       -3.2049
   3       -3.1939
   4       -3.1886
   5       -3.1333
   6       -3.1102
   7       -3.0985
   8       -2.0945
   9       -1.9775
  10       -1.9698
  11       -1.2947
  12       -1.2155
  13       -0.7727
  14       -0.7378
  15       -0.7346
  16       -0.7073
  17       -0.6885
  18       -0.5850
  19       -0.5582
  20       -0.4796
  21       -0.4782
  22        2.9866
  23        4.2267
  24        4.5390
  25        8.0666
  26        8.3575
  27        9.4784
  28       11.0691
  29       11.7661
  30       11.8069
  31       12.3515
  32       12.5597
 
  0.1666667E+00  0.5555556E-01  0.0000000E+00  0.5144033E-03
   1       -4.1548
   2       -3.1770
   3       -3.1612
   4       -3.1526
   5       -3.1119
   6       -3.0764
   7       -3.0621
   8       -2.1194
   9       -1.9524
  10       -1.9454
  11       -1.3176
  12       -1.2035
  13       -0.8544
  14       -0.8298
  15       -0.7702
  16       -0.7371
  17       -0.7310
  18       -0.6142
  19       -0.5984
  20       -0.4800
  21       -0.4782
  22        2.6269
  23        4.3858
  24        4.7032
  25        8.0836
  26        8.3810
  27        9.9705
  28       10.7828
  29       11.5159
  30       11.5933
  31       12.2085
  32       12.6852
 
  0.1944444E+00  0.5555556E-01  0.0000000E+00  0.5144033E-03
   1       -4.0652
   2       -3.1452
   3       -3.1234
   4       -3.1115
   5       -3.0870
   6       -3.0366
   7       -3.0195
   8       -2.1483
   9       -1.9228
  10       -1.9169
  11       -1.3429
  12       -1.1894
  13       -0.9548
  14       -0.9348
  15       -0.8075
  16       -0.7814
  17       -0.7621
  18       -0.6445
  19       -0.6441
  20       -0.4802
  21       -0.4782
  22        2.2605
  23        4.5650
  24        4.8891
  25        8.1035
  26        8.4091
  27       10.4932
  28       10.4942
  29       11.2442
  30       11.3736
  31       12.0325
  32       12.8314
 
  0.2222222E+00  0.5555556E-01  0.0000000E+00  0.5144033E-03
   1       -3.9637
   2       -3.1098
   3       -3.0809
   4       -3.0659
   5       -3.0586
   6       -2.9907
   7       -2.9712
   8       -2.1809
   9       -1.8889
  10       -1.8846
  11       -1.3695
  12       -1.1734
  13       -1.0653
  14       -1.0469
  15       -0.8490
  16       -0.8266
  17       -0.8015
  18       -0.6959
  19       -0.6730
  20       -0.4802
  21       -0.4782
  22        1.8943
  23        4.7615
  24        5.0942
  25        8.1260
  26        8.4417
  27       10.2065
  28       10.9563
  29       11.0401
  30       11.1545
  31       11.8337
  32       12.9982
 
  0.2500000E+00  0.5555556E-01  0.0000000E+00  0.5144033E-03
   1       -3.8513
   2       -3.0717
   3       -3.0343
   4       -3.0270
   5       -3.0168
   6       -2.9388
   7       -2.9177
   8       -2.2170
   9       -1.8508
  10       -1.8489
  11       -1.3958