   4   4   0   0
  0.1596323E+02  0.3996933E-09  0.3996933E-09  0.3996933E-09  0.5000000E-15
  1.000000000000000E-004
  CAR 
 unknown system                          
     21.11282621     -4.16495981  301      8.31613588      1.00000000
     -4.165  0.0000E+00  0.0000E+00
     -4.081  0.0000E+00  0.0000E+00
     -3.996  0.0000E+00  0.0000E+00
     -3.912  0.0000E+00  0.0000E+00
     -3.828  0.0000E+00  0.0000E+00
     -3.744  0.0000E+00  0.0000E+00
     -3.659  0.0000E+00  0.0000E+00
     -3.575  0.0000E+00  0.0000E+00
     -3.491  0.0000E+00  0.0000E+00
     -3.407  0.0000E+00  0.0000E+00
     -3.322  0.0000E+00  0.0000E+00
     -3.238  0.0000E+00  0.0000E+00
     -3.154  0.0000E+00  0.0000E+00
     -3.070  0.2318E-15  0.1953E-16
     -2.985  0.1374E-01  0.1157E-02
     -2.901  0.8671E-01  0.8464E-02
     -2.817  0.2498E+00  0.2951E-01
     -2.733  0.8241E-01  0.3819E-01
     -2.648  0.3316E+00  0.6613E-01
     -2.564  0.3278E+00  0.9375E-01
     -2.480  0.1647E+00  0.1076E+00
     -2.396  0.4125E+00  0.1424E+00
     -2.311  0.4703E+00  0.1820E+00
     -2.227  0.1095E+00  0.2071E+00
     -2.143  0.3298E+00  0.2350E+00
     -2.058  0.6592E+00  0.2905E+00
     -1.974  0.8145E-01  0.2974E+00
     -1.890  0.6594E+00  0.3530E+00
     -1.806  0.5487E+00  0.3992E+00
     -1.721  0.5961E+00  0.4495E+00
     -1.637  0.6593E+00  0.5058E+00
     -1.553  0.3297E+00  0.5336E+00
     -1.469  0.3132E+00  0.5600E+00
     -1.384  0.4121E+00  0.5961E+00
     -1.300  0.1018E+01  0.6819E+00
     -1.216  0.4101E+00  0.7164E+00
     -1.132  0.9890E+00  0.7998E+00
     -1.047  0.6593E+00  0.8553E+00
     -0.963  0.1485E+00  0.8678E+00
     -0.879  0.6593E+00  0.9248E+00
     -0.795  0.6854E+00  0.9825E+00
     -0.710  0.9986E+00  0.1067E+01
     -0.626  0.3297E+00  0.1098E+01
     -0.542  0.9890E+00  0.1182E+01
     -0.458  0.2928E+00  0.1206E+01
     -0.373  0.1319E+01  0.1321E+01
     -0.289  0.6724E+00  0.1377E+01
     -0.205  0.6127E+00  0.1429E+01
     -0.121  0.9890E+00  0.1515E+01
     -0.036  0.6593E+00  0.1571E+01
      0.048  0.1001E+00  0.1579E+01
      0.132  0.7418E+00  0.1642E+01
      0.217  0.1204E+01  0.1744E+01
      0.301  0.9194E+00  0.1821E+01
      0.385  0.9890E+00  0.1906E+01
      0.469  0.1319E+01  0.2017E+01
      0.554  0.6363E+00  0.2071E+01
      0.638  0.6594E+00  0.2128E+01
      0.722  0.5155E+00  0.2172E+01
      0.806  0.8032E+00  0.2240E+01
      0.891  0.9892E+00  0.2323E+01
      0.975  0.1318E+01  0.2434E+01
      1.059  0.8223E-01  0.2441E+01
      1.143  0.1320E+01  0.2552E+01
      1.228  0.1475E+01  0.2676E+01
      1.312  0.6586E+00  0.2746E+01
      1.396  0.1321E+01  0.2858E+01
      1.480  0.6575E+00  0.2913E+01
      1.565  0.4944E+00  0.2955E+01
      1.649  0.6965E+00  0.3014E+01
      1.733  0.2256E+01  0.3204E+01
      1.817  0.3297E+00  0.3242E+01
      1.902  0.1362E+01  0.3357E+01
      1.986  0.6158E+00  0.3409E+01
      2.070  0.3298E+00  0.3436E+01
      2.154  0.1673E+01  0.3577E+01
      2.239  0.9827E+00  0.3693E+01
      2.323  0.6630E+00  0.3749E+01
      2.407  0.1660E+01  0.3889E+01
      2.492  0.3930E-08  0.3943E+01
      2.576  0.3731E+00  0.3975E+01
      2.660  0.3341E+01  0.4256E+01
      2.744  0.6593E+00  0.4332E+01
      2.829  0.6751E-01  0.4338E+01
      2.913  0.1885E+01  0.4497E+01
      2.997  0.1121E-03  0.4499E+01
      3.081  0.7190E+00  0.4559E+01
      3.166  0.1482E+01  0.4707E+01
      3.250  0.1035E+01  0.4794E+01
      3.334  0.2365E+01  0.4997E+01
      3.418  0.6593E+00  0.5075E+01
      3.503  0.3592E+00  0.5105E+01
      3.587  0.1911E+01  0.5270E+01
      3.671  0.1046E+01  0.5358E+01
      3.755  0.1634E+01  0.5495E+01
      3.840  0.9903E+00  0.5580E+01
      3.924  0.1345E+01  0.5693E+01
      4.008  0.3297E+00  0.5723E+01
      4.092  0.1717E+01  0.5868E+01
      4.177  0.1441E+01  0.5989E+01
      4.261  0.3298E+00  0.6029E+01
      4.345  0.2163E+01  0.6211E+01
      4.429  0.9245E+00  0.6302E+01
      4.514  0.1403E+01  0.6425E+01
      4.598  0.1549E+01  0.6555E+01
      4.682  0.3816E-01  0.6567E+01
      4.767  0.1646E+01  0.6706E+01
      4.851  0.2536E+01  0.6952E+01
      4.935  0.1354E-02  0.6953E+01
      5.019  0.1501E+01  0.7079E+01
      5.104  0.2301E+01  0.7300E+01
      5.188  0.1478E+01  0.7424E+01
      5.272  0.6575E+00  0.7494E+01
      5.356  0.7050E+00  0.7554E+01
      5.441  0.1389E+01  0.7671E+01
      5.525  0.2739E+01  0.7909E+01
      5.609  0.1067E+01  0.8004E+01
      5.693  0.1647E+01  0.8178E+01
      5.778  0.4135E+00  0.8213E+01
      5.862  0.1412E+01  0.8353E+01
      5.946  0.4783E+00  0.8428E+01
      6.030  0.2153E+01  0.8610E+01
      6.115  0.1591E+01  0.8757E+01
      6.199  0.8724E+00  0.8835E+01
      6.283  0.1250E+01  0.8960E+01
      6.367  0.6592E+00  0.9035E+01
      6.452  0.1812E+01  0.9187E+01
      6.536  0.1777E+01  0.9337E+01
      6.620  0.1763E+01  0.9486E+01
      6.704  0.6171E+00  0.9549E+01
      6.789  0.3797E+00  0.9581E+01
      6.873  0.1315E+01  0.9719E+01
      6.957  0.1314E+01  0.9843E+01
      7.042  0.1841E+01  0.1001E+02
      7.126  0.9373E+00  0.1012E+02
      7.210  0.2062E+01  0.1030E+02
      7.294  0.1101E+01  0.1041E+02
      7.379  0.1376E+01  0.1056E+02
      7.463  0.5334E+00  0.1062E+02
      7.547  0.1869E+01  0.1079E+02
      7.631  0.1158E+01  0.1089E+02
      7.716  0.2152E+01  0.1108E+02
      7.800  0.1387E+01  0.1120E+02
      7.884  0.3297E+00  0.1123E+02
      7.968  0.1108E+01  0.1132E+02
      8.053  0.1553E+01  0.1147E+02
      8.137  0.1980E+01  0.1163E+02
      8.221  0.1770E+01  0.1178E+02
      8.305  0.2388E+01  0.1199E+02
      8.390  0.1558E+01  0.1213E+02
      8.474  0.2023E+01  0.1231E+02
      8.558  0.9857E+00  0.1240E+02
      8.642  0.8803E+00  0.1247E+02
      8.727  0.1318E+01  0.1262E+02
      8.811  0.7931E+00  0.1269E+02
      8.895  0.1688E+01  0.1283E+02
      8.979  0.2206E+01  0.1303E+02
      9.064  0.9886E+00  0.1312E+02
      9.148  0.8245E+00  0.1319E+02
      9.232  0.1609E+01  0.1332E+02
      9.317  0.2742E+01  0.1356E+02
      9.401  0.2215E+01  0.1374E+02
      9.485  0.1319E+01  0.1387E+02
      9.569  0.2109E+01  0.1405E+02
      9.654  0.1392E+01  0.1421E+02
      9.738  0.6588E+00  0.1428E+02
      9.822  0.1442E+01  0.1441E+02
      9.906  0.2007E+01  0.1458E+02
      9.991  0.8789E+00  0.1465E+02
     10.075  0.1445E+01  0.1481E+02
     10.159  0.1488E+01  0.1496E+02
     10.243  0.1356E+01  0.1508E+02
     10.328  0.2927E+01  0.1533E+02
     10.412  0.1242E+01  0.1543E+02
     10.496  0.1950E+01  0.1560E+02
     10.580  0.2304E+01  0.1580E+02
     10.665  0.6223E+00  0.1585E+02
     10.749  0.8062E+00  0.1592E+02
     10.833  0.1975E+01  0.1610E+02
     10.917  0.2199E+01  0.1629E+02
     11.002  0.1842E+01  0.1645E+02
     11.086  0.2156E+01  0.1664E+02
     11.170  0.1744E+00  0.1667E+02
     11.254  0.2949E+01  0.1691E+02
     11.339  0.1040E+01  0.1700E+02
     11.423  0.2966E+01  0.1728E+02
     11.507  0.1709E+01  0.1742E+02
     11.592  0.1282E+01  0.1753E+02
     11.676  0.1597E+01  0.1769E+02
     11.760  0.1968E+01  0.1787E+02
     11.844  0.1872E+01  0.1805E+02
     11.929  0.1095E+01  0.1815E+02
     12.013  0.2552E+01  0.1836E+02
     12.097  0.8268E+00  0.1844E+02
     12.181  0.2130E+01  0.1863E+02
     12.266  0.2217E+01  0.1884E+02
     12.350  0.6597E+00  0.1890E+02
     12.434  0.1735E+01  0.1904E+02
     12.518  0.3081E+01  0.1933E+02
     12.603  0.1656E+01  0.1947E+02
     12.687  0.9942E+00  0.1955E+02
     12.771  0.1579E+01  0.1972E+02
     12.855  0.1450E+01  0.1984E+02
     12.940  0.1900E+01  0.2002E+02
     13.024  0.2245E+01  0.2024E+02
     13.108  0.2305E+01  0.2043E+02
     13.192  0.2688E+01  0.2072E+02
     13.277  0.1057E+01  0.2083E+02
     13.361  0.1886E+01  0.2099E+02
     13.445  0.1901E+01  0.2115E+02
     13.529  0.6594E+00  0.2121E+02
     13.614  0.2315E+01  0.2140E+02
     13.698  0.2105E+01  0.2158E+02
     13.782  0.1319E+01  0.2176E+02
     13.867  0.6979E+00  0.2182E+02
     13.951  0.6410E+00  0.2188E+02
     14.035  0.2240E+01  0.2207E+02
     14.119  0.9440E+00  0.2220E+02
     14.204  0.7414E+00  0.2226E+02
     14.288  0.1143E+01  0.2236E+02
     14.372  0.9890E+00  0.2245E+02
     14.456  0.6591E+00  0.2250E+02
     14.541  0.1863E+01  0.2266E+02
     14.625  0.1996E+01  0.2284E+02
     14.709  0.6066E+00  0.2292E+02
     14.793  0.3022E+00  0.2295E+02
     14.878  0.0000E+00  0.2295E+02
     14.962  0.0000E+00  0.2295E+02
     15.046  0.1571E-01  0.2296E+02
     15.130  0.9844E+00  0.2304E+02
     15.215  0.1805E+01  0.2319E+02
     15.299  0.6184E+00  0.2326E+02
     15.383  0.0000E+00  0.2327E+02
     15.467  0.1069E-05  0.2327E+02
     15.552  0.6594E+00  0.2332E+02
     15.636  0.7675E+00  0.2339E+02
     15.720  0.1330E+00  0.2340E+02
     15.804  0.0000E+00  0.2341E+02
     15.889  0.2610E-01  0.2342E+02
     15.973  0.1360E+01  0.2353E+02
     16.057  0.1342E-01  0.2353E+02
     16.142  0.3162E+00  0.2356E+02
     16.226  0.0000E+00  0.2356E+02
     16.310  0.2237E+00  0.2358E+02
     16.394  0.0000E+00  0.2362E+02
     16.479  0.1037E-05  0.2362E+02
     16.563  0.6565E+00  0.2367E+02
     16.647  0.2455E+00  0.2369E+02
     16.731  0.6522E-01  0.2370E+02
     16.816  0.9029E-08  0.2371E+02
     16.900  0.6596E+00  0.2376E+02
     16.984  0.3294E+00  0.2379E+02
     17.068  0.0000E+00  0.2379E+02
     17.153  0.1714E-08  0.2379E+02
     17.237  0.3297E+00  0.2382E+02
     17.321  0.0000E+00  0.2382E+02
     17.405  0.0000E+00  0.2382E+02
     17.490  0.8685E-13  0.2382E+02
     17.574  0.6511E+00  0.2387E+02
     17.658  0.3296E+00  0.2390E+02
     17.742  0.0000E+00  0.2390E+02
     17.827  0.0000E+00  0.2390E+02
     17.911  0.1737E-13  0.2390E+02
     17.995  0.3297E+00  0.2393E+02
     18.079  0.0000E+00  0.2393E+02
     18.164  0.1290E-03  0.2393E+02
     18.248  0.4394E+00  0.2397E+02
     18.332  0.0000E+00  0.2397E+02
     18.417  0.0000E+00  0.2397E+02
     18.501  0.0000E+00  0.2397E+02
     18.585  0.3593E-05  0.2397E+02
     18.669  0.3297E+00  0.2400E+02
     18.754  0.0000E+00  0.2400E+02
     18.838  0.0000E+00  0.2400E+02
     18.922  0.0000E+00  0.2400E+02
     19.006  0.0000E+00  0.2400E+02
     19.091  0.0000E+00  0.2400E+02
     19.175  0.0000E+00  0.2400E+02
     19.259  0.0000E+00  0.2400E+02
     19.343  0.0000E+00  0.2400E+02
     19.428  0.0000E+00  0.2400E+02
     19.512  0.0000E+00  0.2400E+02
     19.596  0.0000E+00  0.2400E+02
     19.680  0.0000E+00  0.2400E+02
     19.765  0.0000E+00  0.2400E+02
     19.849  0.0000E+00  0.2400E+02
     19.933  0.4055E-06  0.2400E+02
     20.017  0.5494E-01  0.2400E+02
     20.102  0.0000E+00  0.2400E+02
     20.186  0.0000E+00  0.2400E+02
     20.270  0.0000E+00  0.2400E+02
     20.354  0.0000E+00  0.2400E+02
     20.439  0.0000E+00  0.2400E+02
     20.523  0.0000E+00  0.2400E+02
     20.607  0.0000E+00  0.2400E+02
     20.692  0.0000E+00  0.2400E+02
     20.776  0.0000E+00  0.2400E+02
     20.860  0.0000E+00  0.2400E+02
     20.944  0.0000E+00  0.2400E+02
     21.029  0.0000E+00  0.2400E+02
     21.113  0.0000E+00  0.2400E+02
