    4    4    1    1
  0.1596323E+02  0.3996933E-09  0.3996933E-09  0.3996933E-09  0.5000000E-15
  1.000000000000000E-004
  CAR 
 unknown system                          
   12   84   12
 
  0.0000000E+00  0.0000000E+00  0.0000000E+00  0.5787037E-03
   1       -3.0160
   2        5.3450
   3        5.3450
   4        5.3450
   5        6.7408
   6        6.7408
   7        6.7408
   8       13.6142
   9       13.6142
  10       13.6142
  11       14.1004
  12       14.1004
 
  0.8333333E-01  0.0000000E+00  0.0000000E+00  0.3472222E-02
   1       -2.9516
   2        4.4729
   3        5.4036
   4        5.4036
   5        6.8024
   6        6.8024
   7        7.7235
   8       12.4721
   9       12.4721
  10       13.6657
  11       13.6657
  12       13.6777
 
  0.1666667E+00  0.0000000E+00  0.0000000E+00  0.3472222E-02
   1       -2.7588
   2        3.2491
   3        5.5796
   4        5.5796
   5        6.9859
   6        6.9859
   7        9.2792
   8       11.2373
   9       11.2373
  10       12.7616
  11       12.7616
  12       13.8681
 
  0.2500000E+00  0.0000000E+00  0.0000000E+00  0.3472222E-02
   1       -2.4380
   2        2.0919
   3        5.8731
   4        5.8731
   5        7.2869
   6        7.2869
   7       10.1155
   8       10.1155
   9       10.9888
  10       11.7753
  11       11.7753
  12       14.1850
 
  0.3333333E+00  0.0000000E+00  0.0000000E+00  0.3472222E-02
   1       -1.9902
   2        1.0391
   3        6.2842
   4        6.2842
   5        7.6937
   6        7.6937
   7        9.1118
   8        9.1118
   9       10.8432
  10       10.8432
  11       12.8135
  12       14.6277
 
  0.4166667E+00  0.0000000E+00  0.0000000E+00  0.3472222E-02
   1       -1.4167
   2        0.1006
   3        6.8134
   4        6.8134
   5        8.1636
   6        8.1636
   7        8.2269
   8        8.2269
   9       10.0484
  10       10.0484
  11       14.7413
  12       15.1950
 
  0.5000000E+00  0.0000000E+00  0.0000000E+00  0.1736111E-02
   1       -0.7190
   2       -0.7190
   3        7.4608
   4        7.4608
   5        7.4608
   6        7.4608
   7        8.4602
   8        8.4602
   9        9.6423
  10        9.6423
  11       15.8863
  12       15.9227
 
  0.8333333E-01  0.8333333E-01  0.0000000E+00  0.6944444E-02
   1       -2.8873
   2        4.5332
   3        4.5332
   4        5.4623
   5        6.8634
   6        7.7831
   7        7.7831
   8       11.6297
   9       12.5318
  10       12.5318
  11       13.7216
  12       13.7216
 
  0.1666667E+00  0.8333333E-01  0.0000000E+00  0.1388889E-01
   1       -2.6946
   2        3.3103
   3        4.7137
   4        5.6383
   5        7.0446
   6        7.9606
   7        9.3364
   8       10.4613
   9       11.2966
  10       12.7108
  11       12.8208
  12       13.5957
 
  0.2500000E+00  0.8333333E-01  0.0000000E+00  0.1388889E-01
   1       -2.3740
   2        2.1538
   3        5.0142
   4        5.9318
   5        7.3372
   6        8.2507
   7        9.3691
   8       10.1747
   9       11.0419
  10       11.8398
  11       12.6274
  12       13.0087
 
  0.3333333E+00  0.8333333E-01  0.0000000E+00  0.1388889E-01
   1       -1.9264
   2        1.1015
   3        5.4335
   4        6.3430
   5        7.6783
   6        8.4462
   7        8.6356
   8        9.1709
   9       10.9222
  10       11.6898
  11       12.8555
  12       13.4251
 
  0.4166667E+00  0.8333333E-01  0.0000000E+00  0.1388889E-01
   1       -1.3531
   2        0.1634
   3        5.9699
   4        6.8722
   5        7.3493
   6        8.2859
   7        8.4039
   8        9.0173
   9       10.2087
  10       10.8546
  11       13.9589
  12       14.6899
 
  0.5000000E+00  0.8333333E-01  0.0000000E+00  0.6944444E-02
   1       -0.6558
   2       -0.6558
   3        6.6180
   4        6.6180
   5        7.5197
   6        7.5197
   7        8.9022
   8        8.9022
   9       10.2133
  10       10.2133
  11       14.6088
  12       14.6088
 
  0.1666667E+00  0.1666667E+00  0.0000000E+00  0.6944444E-02
   1       -2.5022
   2        3.4939
   3        3.4939
   4        5.8144
   5        7.2145
   6        9.3222
   7        9.5054
   8        9.5054
   9       11.4746
  10       11.4746
  11       12.9995
  12       12.9995
 
  0.2500000E+00  0.1666667E+00  0.0000000E+00  0.1388889E-01
   1       -2.1820
   2        2.3393
   3        3.7992
   4        6.1080
   5        7.4321
   6        8.3080
   7        9.7725
   8       10.3523
   9       11.1922
  10       11.7711
  11       12.0403
  12       13.3050
 
  0.3333333E+00  0.1666667E+00  0.0000000E+00  0.1388889E-01
   1       -1.7350
   2        1.2886
   3        4.2253
   4        6.5193
   5        7.0386
   6        8.1218
   7        9.3481
   8       10.0582
   9       11.2173
  10       12.1859
  11       12.9181
  12       13.1411
 
  0.4166667E+00  0.1666667E+00  0.0000000E+00  0.1388889E-01
   1       -1.1625
   2        0.3519
   3        4.7705
   4        6.2016
   5        7.0487
   6        8.4629
   7        8.6014
   8        9.8709
   9       11.0646
  10       12.3081
  11       12.7185
  12       14.0405
 
  0.5000000E+00  0.1666667E+00  0.0000000E+00  0.6944444E-02
   1       -0.4662
   2       -0.4662
   3        5.4319
   4        5.4319
   5        7.6965
   6        7.6965
   7        9.2238
   8        9.2238
   9       11.5864
  10       11.5864
  11       13.3685
  12       13.3685
 
  0.2500000E+00  0.2500000E+00  0.0000000E+00  0.6944444E-02
   1       -1.8626
   2        2.6480
   3        2.6480
   4        6.4018
   5        6.9276
   6        8.0126
   7       10.6482
   8       10.6482
   9       11.3666
  10       11.3666
  11       12.4407
  12       12.4407
 
  0.3333333E+00  0.2500000E+00  0.0000000E+00  0.1388889E-01
   1       -1.4167
   2        1.5999
   3        3.0789
   4        5.9766
   5        6.8134
   6        8.3799
   7        9.6436
   8       11.0624
   9       11.0675
  10       12.2005
  11       12.4738
  12       13.5568
 
  0.4166667E+00  0.2500000E+00  0.0000000E+00  0.1388889E-01
   1       -0.8455
   2        0.6654
   3        3.6306
   4        5.0861
   5        7.3431
   6        8.7580
   7        8.9123
   8       10.3073
   9       11.5947
  10       12.6139
  11       13.0127
  12       13.1003
 
  0.5000000E+00  0.2500000E+00  0.0000000E+00  0.6944444E-02
   1       -0.1507
   2       -0.1507
   3        4.3009
   4        4.3009
   5        7.9912
   6        7.9912
   7        9.5628
   8        9.5628
   9       12.2450
  10       12.2450
  11       13.2186
  12       13.2186
 
  0.3333333E+00  0.3333333E+00  0.0000000E+00  0.6944444E-02
   1       -0.9722
   2        2.0346
   3        2.0346
   4        4.9689
   5        7.2254
   6        8.7984
   7       10.0574
   8       10.0574
   9       11.6093
  10       11.6093
  11       12.8940
  12       13.8800
 
  0.4166667E+00  0.3333333E+00  0.0000000E+00  0.1388889E-01
   1       -0.4029
   2        1.1032
   3        2.5912
   4        4.0623
   5        7.7555
   6        9.1713
   7        9.3419
   8       10.5894
   9       10.7623
  10       12.0079
  11       12.1706
  12       13.5733
 
  0.5000000E+00  0.3333333E+00  0.0000000E+00  0.6944444E-02
   1        0.2897
   2        0.2897
   3        3.2681
   4        3.2681
   5        8.4040
   6        8.4040
   7       10.0000
   8       10.0000
   9       11.2396
  10       11.2396
  11       12.8229
  12       12.8229
 
  0.4166667E+00  0.4166667E+00  0.0000000E+00  0.6944444E-02
   1        0.1641
   2        1.6639
   3        1.6639
   4        3.1466
   5        8.2861
   6        9.7028
   7        9.7028
   8        9.8884
   9       11.1212
  10       11.3120
  11       11.3120
  12       12.7227
 
  0.5000000E+00  0.4166667E+00  0.0000000E+00  0.6944444E-02
   1        0.8538
   2        0.8538
   3        2.3459
   4        2.3459
   5        8.9351
   6        8.9351
   7       10.3528
   8       10.3528
   9       10.5474
  10       10.5474
  11       11.9661
  12       11.9661
 
  0.5000000E+00  0.5000000E+00  0.0000000E+00  0.1736111E-02
   1        1.5400
   2        1.5400
   3        1.5400
   4        1.5400
   5        9.5847
   6        9.5847
   7        9.5847
   8        9.5847
   9       11.2044
  10       11.2044
  11       11.2044
  12       11.2044
 
  0.8333333E-01  0.8333333E-01  0.8333333E-01  0.4629630E-02
   1       -2.8231
   2        4.5934
   3        4.5934
   4        4.5934
   5        7.8420
   6        7.8420
   7        7.8420
   8       11.6899
   9       11.6899
  10       11.6899
  11       14.2640
  12       14.2640
 
  0.1666667E+00  0.8333333E-01  0.8333333E-01  0.1388889E-01
   1       -2.6304
   2        3.3715
   3        4.7738
   4        4.7738
   5        8.0158
   6        8.0158
   7        9.3915
   8       10.5239
   9       10.5239
  10       11.8712
  11       13.6530
  12       13.6530
 
  0.2500000E+00  0.8333333E-01  0.8333333E-01  0.1388889E-01
   1       -2.3100
   2        2.2157
   3        5.0739
   4        5.0739
   5        8.2858
   6        8.2858
   7        9.4461
   8        9.4461
   9       11.0835
  10       12.1820
  11       12.6877
  12       12.6877
 
  0.3333333E+00  0.8333333E-01  0.8333333E-01  0.1388889E-01
   1       -1.8626
   2        1.1639
   3        5.4924
   4        5.4924
   5        8.2677
   6        8.2677
   7        8.8703
   8        8.8703
   9       11.7559
  10       11.7559
  11       12.4999
  12       12.9996
 
  0.4166667E+00  0.8333333E-01  0.8333333E-01  0.1388889E-01
   1       -1.2895
   2        0.2263
   3        6.0248
   4        6.0248
   5        7.4700
   6        7.4700
   7        9.2717
   8        9.2717
   9       10.9430
  10       10.9430
  11       13.0812
  12       14.4957
 
  0.5000000E+00  0.8333333E-01  0.8333333E-01  0.6944444E-02
   1       -0.5925
   2       -0.5925
   3        6.5552
   4        6.5552
   5        6.8307
   6        6.8307
   7        9.6061
   8        9.6061
   9       10.4902
  10       10.4902
  11       13.7338
  12       13.7338
 
  0.1666667E+00  0.1666667E+00  0.8333333E-01  0.1388889E-01
   1       -2.4381
   2        3.5550
   3        3.5550
   4        4.9537
   5        8.1650
   6        9.4022
   7        9.5445
   8        9.5445
   9       10.7214
  10       10.7214
  11       13.8249
  12       13.8249
 
  0.2500000E+00  0.1666667E+00  0.8333333E-01  0.2777778E-01
   1       -2.1181
   2        2.4011
   3        3.8600
   4        5.2525
   5        8.0615
   6        8.7039
   7        9.4522
   8        9.9945
   9       10.8721
  10       11.3903
  11       12.8707
  12       14.0818
 
  0.3333333E+00  0.1666667E+00  0.8333333E-01  0.2777778E-01
   1       -1.6713
   2        1.3509
   3        4.2857
   4        5.6658
   5        7.1802
   6        8.5379
   7        9.0021
   8       10.2814
   9       11.3669
  10       11.9675
  11       13.1118
  12       13.2011
 
  0.4166667E+00  0.1666667E+00  0.8333333E-01  0.2777778E-01
   1       -1.0991
   2        0.4147
   3        4.8298
   4        6.0933
   5        6.4108
   6        7.6606
   7        9.5113
   8       10.5447
   9       11.3610
  10       11.9094
  11       12.3732
  12       13.3260
 
  0.5000000E+00  0.1666667E+00  0.8333333E-01  0.1388889E-01
   1       -0.4030
   2       -0.4030
   3        5.4858
   4        5.4858
   5        6.8969
   6        6.8969
   7       10.1115
   8       10.1115
   9       11.6730
  10       11.6730
  11       12.5614
  12       12.5614
 
  0.2500000E+00  0.2500000E+00  0.8333333E-01  0.1388889E-01
   1       -1.7988
   2        2.7096
   3        2.7096
   4        5.5459
   5        7.0732
   6        8.8932
   7        9.8410
   8        9.8410
   9       11.5750
  10       11.5750
  11       13.1894
  12       13.1894
 
  0.3333333E+00  0.2500000E+00  0.8333333E-01  0.2777778E-01
   1       -1.3531
   2        1.6621
   3        3.1402
   4        5.8580
   5        6.1843
   6        8.8487
   7        9.2977
   8       10.2690
   9       11.7355
  10       12.4885
  11       13.1072
  12       13.1631
 
  0.4166667E+00  0.2500000E+00  0.8333333E-01  0.2777778E-01
   1       -0.7822
   2        0.7281
   3        3.6914
   4        5.1400
   5        6.5419
   6        7.9622
   7        9.8280
   8       10.8071
   9       11.1858
  10       12.2271
  11       12.6967
  12       13.9671
 
  0.5000000E+00  0.2500000E+00  0.8333333E-01  0.1388889E-01
   1       -0.0877
   2       -0.0877
   3        4.3605
   4        4.3605
   5        7.1907
   6        7.1907
   7       10.4676
   8       10.4676
   9       11.4598
  10       11.4598
  11       13.2823
  12       13.2823
 
  0.3333333E+00  0.3333333E+00  0.8333333E-01  0.1388889E-01
   1       -0.9088
   2        2.0965
   3        2.0965
   4        5.0229
   5        6.4229
   6        9.2699
   7        9.2699
   8        9.7172
   9       12.1138
  10       12.4797
  11       12.4797
  12       13.9560
 
  0.4166667E+00  0.3333333E+00  0.8333333E-01  0.2777778E-01
   1       -0.3397
   2        1.1656
   3        2.6529
   4        4.1221
   5        6.9533
   6        8.3814
   7        9.8071
   8       10.2542
   9       11.2304
  10       11.6539
  11       13.0508
  12       14.4329
 
  0.5000000E+00  0.3333333E+00  0.8333333E-01  0.1388889E-01
   1        0.3525
   2        0.3525
   3        3.3292
   4        3.3292
   5        7.6081
   6        7.6081
   7       10.4609
   8       10.4609
   9       10.9030
  10       10.9030
  11       13.7003
  12       13.7003
 
  0.4166667E+00  0.4166667E+00  0.8333333E-01  0.1388889E-01
   1        0.2270
   2        1.7261
   3        1.7261
   4        3.2077
   5        7.4895
   6        8.9185
   7        8.9185
   8       10.3446
   9       10.7936
  10       12.2004
  11       12.2004
  12       13.6005
 
  0.5000000E+00  0.4166667E+00  0.8333333E-01  0.1388889E-01
   1        0.9164
   2        0.9164
   3        2.4076
   4        2.4076
   5        8.1453
   6        8.1453
   7        9.5733
   8        9.5733
   9       11.4443
  10       11.4443
  11       12.8492
  12       12.8492
 
  0.5000000E+00  0.5000000E+00  0.8333333E-01  0.3472222E-02
   1        1.6022
   2        1.6022
   3        1.6022
   4        1.6022
   5        8.8008
   6        8.8008
   7        8.8008
   8        8.8008
   9       12.0942
  10       12.0942
  11       12.0942
  12       12.0942
 
  0.1666667E+00  0.1666667E+00  0.1666667E+00  0.4629630E-02
   1       -2.2460
   2        3.7380
   3        3.7380
   4        3.7380
   5        9.3595
   6        9.3595
   7        9.3595
   8        9.9329
   9        9.9329
  10        9.9329
  11       14.7556
  12       14.7556
 
  0.2500000E+00  0.1666667E+00  0.1666667E+00  0.1388889E-01
   1       -1.9264
   2        2.5863
   3        4.0423
   4        4.0423
   5        8.3669
   6        8.3669
   7        9.7778
   8       10.1170
   9       10.1170
  10       11.5136
  11       14.0361
  12       14.2505
 
  0.3333333E+00  0.1666667E+00  0.1666667E+00  0.1388889E-01
   1       -1.4803
   2        1.5377
   3        4.4661
   4        4.4661
   5        7.3770
   6        7.3770
   7       10.2105
   8       10.5073
   9       10.5073
  10       13.0503
  11       13.3109
  12       13.3829
 
  0.4166667E+00  0.1666667E+00  0.1666667E+00  0.1388889E-01
   1       -0.9088
   2        0.6028
   3        5.0034
   4        5.0034
   5        6.4931
   6        6.4931
   7       10.7504
   8       10.9958
   9       10.9958
  10       12.1714
  11       12.5815
  12       12.5815
 
  0.5000000E+00  0.1666667E+00  0.1666667E+00  0.6944444E-02
   1       -0.2138
   2       -0.2138
   3        5.5162
   4        5.5162
   5        5.8641
   6        5.8641
   7       11.3642
   8       11.3642
   9       11.4040
  10       11.4040
  11       12.1064
  12       12.1064
 
  0.2500000E+00  0.2500000E+00  0.1666667E+00  0.1388889E-01
   1       -1.6076
   2        2.8943
   3        2.8943
   4        4.3447
   5        7.2713
   6        8.6840
   7        8.6840
   8       10.4066
   9       11.7916
  10       11.7916
  11       12.9480
  12       14.5381
 
  0.3333333E+00  0.2500000E+00  0.1666667E+00  0.2777778E-01
   1       -1.1625
   2        1.8485
   3        3.3239
   4        4.7615
   5        6.2706
   6        7.6817
   7        9.1084
   8       10.8167
   9       11.9571
  10       12.1657
  11       13.5795
  12       13.6990
 
  0.4166667E+00  0.2500000E+00  0.1666667E+00  0.2777778E-01
   1       -0.5924
   2        0.9158
   3        3.8732
   4        5.1628
   5        5.5126
   6        6.7886
   7        9.6479
   8       11.0741
   9       11.3374
  10       12.4334
  11       13.1158
  12       14.1731
 
  0.5000000E+00  0.2500000E+00  0.1666667E+00  0.1388889E-01
   1        0.1011
   2        0.1011
   3        4.5353
   4        4.5353
   5        6.0161
   6        6.0161
   7       10.3035
   8       10.3035
   9       11.9459
  10       11.9459
  11       13.4849
  12       13.4849
 
  0.3333333E+00  0.3333333E+00  0.1666667E+00  0.1388889E-01
   1       -0.7188
   2        2.2822
   3        2.2822
   4        5.0445
   5        5.3933
   6        8.1038
   7        8.1038
   8       10.9617
   9       11.2353
  10       13.7381
  11       13.7381
  12       14.3298
 
  0.4166667E+00  0.3333333E+00  0.1666667E+00  0.2777778E-01
   1       -0.1505
   2        1.3527
   3        2.8375
   4        4.2976
   5        5.7753
   6        7.2090
   7        8.6439
   8       10.0749
   9       11.7647
  10       13.1191
  11       14.4936
  12       14.6249
 
  0.5000000E+00  0.3333333E+00  0.1666667E+00  0.1388889E-01
   1        0.5407
   2        0.5407
   3        3.5118
   4        3.5118
   5        6.4302
   6        6.4302
   7        9.3015
   8        9.3015
   9       12.3994
  10       12.3994
  11       15.1454
  12       15.1455
 
  0.4166667E+00  0.4166667E+00  0.1666667E+00  0.1388889E-01
   1        0.4154
   2        1.9124
   3        1.9124
   4        3.3906
   5        6.3102
   6        7.7497
   7        7.7497
   8        9.1850
   9       12.2981
  10       13.6774
  11       13.6774
  12       15.0580
 
  0.5000000E+00  0.4166667E+00  0.1666667E+00  0.1388889E-01
   1        1.1038
   2        1.1038
   3        2.5927
   4        2.5927
   5        6.9706
   6        6.9706
   7        8.4091
   8        8.4091
   9       12.9381
  10       12.9381
  11       14.3198
  12       14.3198
 
  0.5000000E+00  0.5000000E+00  0.1666667E+00  0.3472222E-02
   1        1.7887
   2        1.7887
   3        1.7887
   4        1.7887
   5        7.6311
   6        7.6311
   7        7.6311
   8        7.6311
   9       13.5791
  10       13.5791
  11       13.5791
  12       13.5791
 
  0.2500000E+00  0.2500000E+00  0.2500000E+00  0.4629630E-02
   1       -1.2895
   2        3.2012
   3        3.2012
   4        3.2012
   5        7.5768
   6        7.5768
   7        7.5768
   8       11.8557
   9       12.0924
  10       12.0924
  11       12.0924
  12       15.5767
 
  0.3333333E+00  0.2500000E+00  0.2500000E+00  0.1388889E-01
   1       -0.8455
   2        2.1585
   3        3.6288
   4        3.6288
   5        6.5670
   6        6.5670
   7        7.9995
   8       10.8602
   9       12.4969
  10       12.4969
  11       13.8931
  12       15.2107
 
  0.4166667E+00  0.2500000E+00  0.2500000E+00  0.1388889E-01
   1       -0.2766
   2        1.2280
   3        4.1710
   4        4.1710
   5        5.6726
   6        5.6726
   7        8.5404
   8        9.9729
   9       12.9909
  10       12.9909
  11       14.4833
  12       14.4833
 
  0.5000000E+00  0.2500000E+00  0.2500000E+00  0.6944444E-02
   1        0.4153
   2        0.4153
   3        4.6907
   4        4.6907
   5        5.0352
   6        5.0352
   7        9.1988
   8        9.1988
   9       13.3792
  10       13.3792
  11       14.0036
  12       14.0036
 
  0.3333333E+00  0.3333333E+00  0.2500000E+00  0.1388889E-01
   1       -0.4028
   2        2.5910
   3        2.5910
   4        4.0494
   5        5.5558
   6        6.9885
   7        6.9885
   8        9.8602
   9       12.9145
  10       14.2787
  11       14.2787
  12       15.6178
 
  0.4166667E+00  0.3333333E+00  0.2500000E+00  0.2777778E-01
   1        0.1642
   2        1.6640
   3        3.1440
   4        4.4538
   5        4.7916
   6        6.0885
   7        7.5306
   8        8.9690
   9       13.4330
  10       14.5585
  11       15.0980
  12       15.9409
 
  0.5000000E+00  0.3333333E+00  0.2500000E+00  0.1388889E-01
   1        0.8539
   2        0.8539
   3        3.8112
   4        3.8112
   5        5.3096
   6        5.3096
   7        8.1915
   8        8.1915
   9       14.0388
  10       14.0388
  11       15.5004
  12       15.5004
 
  0.4166667E+00  0.4166667E+00  0.2500000E+00  0.1388889E-01
   1        0.7289
   2        2.2221
   3        2.2221
   4        3.6906
   5        5.1881
   6        6.6310
   7        6.6310
   8        8.0742
   9       13.9607
  10       15.2881
  11       15.2881
  12       16.6424
 
  0.5000000E+00  0.4166667E+00  0.2500000E+00  0.1388889E-01
   1        1.4157
   2        1.4157
   3        2.8999
   4        2.8999
   5        5.8476
   6        5.8476
   7        7.2938
   8        7.2938
   9       14.5848
  10       14.5848
  11       15.9263
  12       15.9263
 
  0.5000000E+00  0.5000000E+00  0.2500000E+00  0.3472222E-02
   1        2.0988
   2        2.0988
   3        2.0988
   4        2.0988
   5        6.5113
   6        6.5113
   7        6.5113
   8        6.5113
   9       15.2136
  10       15.2136
  11       15.2136
  12       15.2136
 
  0.3333333E+00  0.3333333E+00  0.3333333E+00  0.4629630E-02
   1        0.0385
   2        3.0211
   3        3.0211
   4        3.0211
   5        5.9723
   6        5.9723
   7        5.9723
   8        8.8556
   9       14.7020
  10       14.7020
  11       14.7020
  12       16.7297
 
  0.4166667E+00  0.3333333E+00  0.3333333E+00  0.1388889E-01
   1        0.6037
   2        2.0983
   3        3.5673
   4        3.5673
   5        5.0719
   6        5.0719
   7        6.5154
   8        7.9601
   9       15.1975
  10       15.1975
  11       16.5105
  12       16.5460
 
  0.5000000E+00  0.3333333E+00  0.3333333E+00  0.6944444E-02
   1        1.2911
   2        1.2911
   3        4.0982
   4        4.0982
   5        4.4226
   6        4.4226
   7        7.1789
   8        7.1789
   9       15.6083
  10       15.6083
  11       16.0696
  12       16.0696
 
  0.4166667E+00  0.4166667E+00  0.3333333E+00  0.1388889E-01
   1        1.1666
   2        2.6538
   3        2.6538
   4        3.9795
   5        4.2986
   6        5.6115
   7        5.6115
   8        7.0608
   9       15.7220
  10       16.8549
  11       16.8549
  12       17.1931
 
  0.5000000E+00  0.4166667E+00  0.3333333E+00  0.1388889E-01
   1        1.8510
   2        1.8510
   3        3.3248
   4        3.3248
   5        4.8283
   6        4.8283
   7        6.2766
   8        6.2766
   9       16.3130
  10       16.3130
  11       17.5601
  12       17.6002
 
  0.5000000E+00  0.5000000E+00  0.3333333E+00  0.3472222E-02
   1        2.5310
   2        2.5310
   3        2.5310
   4        2.5310
   5        5.4907
   6        5.4907
   7        5.4907
   8        5.4907
   9       16.9222
  10       16.9222
  11       16.9222
  12       16.9222
 
  0.4166667E+00  0.4166667E+00  0.4166667E+00  0.4629630E-02
   1        1.7270
   2        3.2025
   3        3.2025
   4        3.2025
   5        4.7075
   6        4.7075
   7        4.7075
   8        6.1576
   9       17.5407
  10       17.5407
  11       17.5407
  12       18.2163
 
  0.5000000E+00  0.4166667E+00  0.4166667E+00  0.6944444E-02
   1        2.4077
   2        2.4077
   3        3.7421
   4        3.7421
   5        4.0492
   6        4.0492
   7        5.3708
   8        5.3708
   9       17.9635
  10       17.9635
  11       18.1875
  12       18.1875
 
  0.5000000E+00  0.5000000E+00  0.4166667E+00  0.3472222E-02
   1        3.0805
   2        3.0805
   3        3.0805
   4        3.0805
   5        4.5856
   6        4.5856
   7        4.5856
   8        4.5856
   9       18.6151
  10       18.6151
  11       18.6151
  12       18.6151
 
  0.5000000E+00  0.5000000E+00  0.5000000E+00  0.5787037E-03
   1        3.6234
   2        3.6234
   3        3.6234
   4        3.6234
   5        3.9239
   6        3.9239
   7        3.9239
   8        3.9239
   9       19.9638
  10       19.9638
  11       19.9638
  12       19.9638
