<?xml version="1.0" encoding="ISO-8859-1"?>
<modeling>
 <generator>
  <i name="program" type="string">vasp</i>
  <i name="version" type="string">4.6.28 </i>
  <i name="subversion" type="string">25Jul05 complex  parallel</i>
  <i name="platform" type="string">LinuxIFC</i>
  <i name="date" type="string">2017 01 08</i>
  <i name="time" type="string">09:57:30</i>
 </generator>
 <incar>
  <i type="string" name="PREC">accurate</i>
  <i type="int" name="IALGO">    38</i>
  <i type="logical" name="ADDGRID"> T  </i>
  <i name="EDIFF">      0.00000001</i>
  <i type="int" name="IBRION">    -1</i>
  <i name="ENCUT">    750.00000000</i>
  <i type="logical" name="LREAL"> F  </i>
  <i type="int" name="ISMEAR">     0</i>
  <i name="SIGMA">      0.01000000</i>
  <i type="logical" name="LWAVE"> F  </i>
  <i type="logical" name="LCHARG"> F  </i>
 </incar>
 <kpoints>
  <generation param="Gamma">
   <v type="int" name="divisions">      12      12      12</v>
   <v name="usershift">      0.00000000      0.00000000      0.00000000</v>
   <v name="genvec1">      0.08333333      0.00000000      0.00000000</v>
   <v name="genvec2">      0.00000000      0.08333333      0.00000000</v>
   <v name="genvec3">      0.00000000      0.00000000      0.08333333</v>
   <v name="shift">      0.00000000      0.00000000      0.00000000</v>
  </generation>
  <varray name="kpointlist" >
   <v>       0.00000000      0.00000000      0.00000000</v>
   <v>       0.08333333      0.00000000      0.00000000</v>
   <v>       0.16666667      0.00000000      0.00000000</v>
   <v>       0.25000000      0.00000000      0.00000000</v>
   <v>       0.33333333      0.00000000      0.00000000</v>
   <v>       0.41666667      0.00000000      0.00000000</v>
   <v>       0.50000000      0.00000000      0.00000000</v>
   <v>       0.08333333      0.08333333      0.00000000</v>
   <v>       0.16666667      0.08333333      0.00000000</v>
   <v>       0.25000000      0.08333333      0.00000000</v>
   <v>       0.33333333      0.08333333      0.00000000</v>
   <v>       0.41666667      0.08333333      0.00000000</v>
   <v>       0.50000000      0.08333333      0.00000000</v>
   <v>       0.16666667      0.16666667      0.00000000</v>
   <v>       0.25000000      0.16666667      0.00000000</v>
   <v>       0.33333333      0.16666667      0.00000000</v>
   <v>       0.41666667      0.16666667      0.00000000</v>
   <v>       0.50000000      0.16666667      0.00000000</v>
   <v>       0.25000000      0.25000000      0.00000000</v>
   <v>       0.33333333      0.25000000      0.00000000</v>
   <v>       0.41666667      0.25000000      0.00000000</v>
   <v>       0.50000000      0.25000000      0.00000000</v>
   <v>       0.33333333      0.33333333      0.00000000</v>
   <v>       0.41666667      0.33333333      0.00000000</v>
   <v>       0.50000000      0.33333333      0.00000000</v>
   <v>       0.41666667      0.41666667      0.00000000</v>
   <v>       0.50000000      0.41666667      0.00000000</v>
   <v>       0.50000000      0.50000000      0.00000000</v>
   <v>       0.08333333      0.08333333      0.08333333</v>
   <v>       0.16666667      0.08333333      0.08333333</v>
   <v>       0.25000000      0.08333333      0.08333333</v>
   <v>       0.33333333      0.08333333      0.08333333</v>
   <v>       0.41666667      0.08333333      0.08333333</v>
   <v>       0.50000000      0.08333333      0.08333333</v>
   <v>       0.16666667      0.16666667      0.08333333</v>
   <v>       0.25000000      0.16666667      0.08333333</v>
   <v>       0.33333333      0.16666667      0.08333333</v>
   <v>       0.41666667      0.16666667      0.08333333</v>
   <v>       0.50000000      0.16666667      0.08333333</v>
   <v>       0.25000000      0.25000000      0.08333333</v>
   <v>       0.33333333      0.25000000      0.08333333</v>
   <v>       0.41666667      0.25000000      0.08333333</v>
   <v>       0.50000000      0.25000000      0.08333333</v>
   <v>       0.33333333      0.33333333      0.08333333</v>
   <v>       0.41666667      0.33333333      0.08333333</v>
   <v>       0.50000000      0.33333333      0.08333333</v>
   <v>       0.41666667      0.41666667      0.08333333</v>
   <v>       0.50000000      0.41666667      0.08333333</v>
   <v>       0.50000000      0.50000000      0.08333333</v>
   <v>       0.16666667      0.16666667      0.16666667</v>
   <v>       0.25000000      0.16666667      0.16666667</v>
   <v>       0.33333333      0.16666667      0.16666667</v>
   <v>       0.41666667      0.16666667      0.16666667</v>
   <v>       0.50000000      0.16666667      0.16666667</v>
   <v>       0.25000000      0.25000000      0.16666667</v>
   <v>       0.33333333      0.25000000      0.16666667</v>
   <v>       0.41666667      0.25000000      0.16666667</v>
   <v>       0.50000000      0.25000000      0.16666667</v>
   <v>       0.33333333      0.33333333      0.16666667</v>
   <v>       0.41666667      0.33333333      0.16666667</v>
   <v>       0.50000000      0.33333333      0.16666667</v>
   <v>       0.41666667      0.41666667      0.16666667</v>
   <v>       0.50000000      0.41666667      0.16666667</v>
   <v>       0.50000000      0.50000000      0.16666667</v>
   <v>       0.25000000      0.25000000      0.25000000</v>
   <v>       0.33333333      0.25000000      0.25000000</v>
   <v>       0.41666667      0.25000000      0.25000000</v>
   <v>       0.50000000      0.25000000      0.25000000</v>
   <v>       0.33333333      0.33333333      0.25000000</v>
   <v>       0.41666667      0.33333333      0.25000000</v>
   <v>       0.50000000      0.33333333      0.25000000</v>
   <v>       0.41666667      0.41666667      0.25000000</v>
   <v>       0.50000000      0.41666667      0.25000000</v>
   <v>       0.50000000      0.50000000      0.25000000</v>
   <v>       0.33333333      0.33333333      0.33333333</v>
   <v>       0.41666667      0.33333333      0.33333333</v>
   <v>       0.50000000      0.33333333      0.33333333</v>
   <v>       0.41666667      0.41666667      0.33333333</v>
   <v>       0.50000000      0.41666667      0.33333333</v>
   <v>       0.50000000      0.50000000      0.33333333</v>
   <v>       0.41666667      0.41666667      0.41666667</v>
   <v>       0.50000000      0.41666667      0.41666667</v>
   <v>       0.50000000      0.50000000      0.41666667</v>
   <v>       0.50000000      0.50000000      0.50000000</v>
  </varray>
  <varray name="weights" >
   <v>       0.00057870</v>
   <v>       0.00347222</v>
   <v>       0.00347222</v>
   <v>       0.00347222</v>
   <v>       0.00347222</v>
   <v>       0.00347222</v>
   <v>       0.00173611</v>
   <v>       0.00694444</v>
   <v>       0.01388889</v>
   <v>       0.01388889</v>
   <v>       0.01388889</v>
   <v>       0.01388889</v>
   <v>       0.00694444</v>
   <v>       0.00694444</v>
   <v>       0.01388889</v>
   <v>       0.01388889</v>
   <v>       0.01388889</v>
   <v>       0.00694444</v>
   <v>       0.00694444</v>
   <v>       0.01388889</v>
   <v>       0.01388889</v>
   <v>       0.00694444</v>
   <v>       0.00694444</v>
   <v>       0.01388889</v>
   <v>       0.00694444</v>
   <v>       0.00694444</v>
   <v>       0.00694444</v>
   <v>       0.00173611</v>
   <v>       0.00462963</v>
   <v>       0.01388889</v>
   <v>       0.01388889</v>
   <v>       0.01388889</v>
   <v>       0.01388889</v>
   <v>       0.00694444</v>
   <v>       0.01388889</v>
   <v>       0.02777778</v>
   <v>       0.02777778</v>
   <v>       0.02777778</v>
   <v>       0.01388889</v>
   <v>       0.01388889</v>
   <v>       0.02777778</v>
   <v>       0.02777778</v>
   <v>       0.01388889</v>
   <v>       0.01388889</v>
   <v>       0.02777778</v>
   <v>       0.01388889</v>
   <v>       0.01388889</v>
   <v>       0.01388889</v>
   <v>       0.00347222</v>
   <v>       0.00462963</v>
   <v>       0.01388889</v>
   <v>       0.01388889</v>
   <v>       0.01388889</v>
   <v>       0.00694444</v>
   <v>       0.01388889</v>
   <v>       0.02777778</v>
   <v>       0.02777778</v>
   <v>       0.01388889</v>
   <v>       0.01388889</v>
   <v>       0.02777778</v>
   <v>       0.01388889</v>
   <v>       0.01388889</v>
   <v>       0.01388889</v>
   <v>       0.00347222</v>
   <v>       0.00462963</v>
   <v>       0.01388889</v>
   <v>       0.01388889</v>
   <v>       0.00694444</v>
   <v>       0.01388889</v>
   <v>       0.02777778</v>
   <v>       0.01388889</v>
   <v>       0.01388889</v>
   <v>       0.01388889</v>
   <v>       0.00347222</v>
   <v>       0.00462963</v>
   <v>       0.01388889</v>
   <v>       0.00694444</v>
   <v>       0.01388889</v>
   <v>       0.01388889</v>
   <v>       0.00347222</v>
   <v>       0.00462963</v>
   <v>       0.00694444</v>
   <v>       0.00347222</v>
   <v>       0.00057870</v>
  </varray>
 </kpoints>
 <parameters>
  <separator name="general" >
   <i type="string" name="SYSTEM">unknown system</i>
   <i type="logical" name="LCOMPAT"> F  </i>
  </separator>
  <separator name="electronic" >
   <i type="string" name="PREC">accura</i>
   <i name="ENMAX">    750.00000000</i>
   <i name="ENAUG">    291.05200000</i>
   <i name="EDIFF">      0.00000001</i>
   <i type="int" name="IALGO">    38</i>
   <i type="int" name="IWAVPR">    10</i>
   <i type="int" name="NBANDS">    10</i>
   <i name="NELECT">     12.00000000</i>
   <separator name="electronic smearing" >
    <i type="int" name="ISMEAR">     0</i>
    <i name="SIGMA">      0.01000000</i>
   </separator>
   <separator name="electronic projectors" >
    <i type="logical" name="LREAL"> F  </i>
    <v name="ROPT">      0.00000000</v>
    <i type="int" name="LMAXPAW">  -100</i>
    <i type="int" name="LMAXMIX">     2</i>
   </separator>
   <separator name="electronic startup" >
    <i type="int" name="ISTART">     0</i>
    <i type="int" name="ICHARG">     2</i>
    <i type="int" name="INIWAV">     1</i>
   </separator>
   <separator name="electronic spin" >
    <i type="int" name="ISPIN">     1</i>
    <i type="logical" name="LNONCOLLINEAR"> F  </i>
    <v name="MAGMOM">      1.00000000      1.00000000      1.00000000      1.00000000</v>
    <i name="NUPDOWN">     -1.00000000</i>
    <i type="logical" name="LSORBIT"> F  </i>
    <v name="SAXIS">      0.00000000      0.00000000      1.00000000</v>
    <i type="logical" name="LSPIRAL"> F  </i>
    <v name="QSPIRAL">      0.00000000      0.00000000      0.00000000</v>
    <i type="logical" name="LZEROZ"> F  </i>
   </separator>
   <separator name="electronic exchange-correlation" >
    <i type="string" name="GGA">--</i>
    <i type="int" name="VOSKOWN">     0</i>
    <i type="logical" name="LASPH"> F  </i>
    <i type="logical" name="LMETAGGA"> F  </i>
    <i type="string" name="GGA2">--</i>
   </separator>
   <separator name="electronic convergence" >
    <i type="int" name="NELM">    60</i>
    <i type="int" name="NELMDL">     0</i>
    <i type="int" name="NELMIN">     2</i>
    <i name="ENINI">    750.00000000</i>
    <separator name="electronic convergence detail" >
     <i type="logical" name="LDIAG"> T  </i>
     <i name="WEIMIN">      0.00000000</i>
     <i name="EBREAK">      0.00000000</i>
     <i name="DEPER">      0.30000000</i>
     <i type="int" name="NRMM">     4</i>
     <i name="TIME">      0.10000000</i>
    </separator>
   </separator>
   <separator name="electronic mixer" >
    <i name="AMIX">      0.40000000</i>
    <i name="BMIX">      1.00000000</i>
    <i name="AMIN">      0.10000000</i>
    <i name="AMIX_MAG">      1.60000000</i>
    <i name="BMIX_MAG">      1.00000000</i>
    <separator name="electronic mixer details" >
     <i type="int" name="IMIX">     4</i>
     <i type="int" name="MAXMIX">   -45</i>
     <i name="WC">    100.00000000</i>
     <i type="int" name="INIMIX">     1</i>
     <i type="int" name="MIXPRE">     1</i>
     <i type="int" name="MREMOVE">     5</i>
    </separator>
   </separator>
   <separator name="electronic dipolcorrection" >
    <i type="int" name="IDIPOL">     0</i>
    <i type="logical" name="LDIPOL"> F  </i>
    <v name="DIPOL">   -100.00000000</v>
    <i name="EFIELD">      0.00000000</i>
   </separator>
  </separator>
  <separator name="grids" >
   <i type="int" name="NGX">    36</i>
   <i type="int" name="NGY">    36</i>
   <i type="int" name="NGZ">    36</i>
   <i type="int" name="NGXF">    72</i>
   <i type="int" name="NGYF">    72</i>
   <i type="int" name="NGZF">    72</i>
   <i type="logical" name="ADDGRID"> T  </i>
  </separator>
  <separator name="ionic" >
   <i type="int" name="NSW">     0</i>
   <i type="int" name="IBRION">    -1</i>
   <i type="int" name="ISIF">     2</i>
   <i name="PSTRESS">      0.00000000</i>
   <i name="EDIFFG">      0.00000010</i>
   <i type="int" name="NFREE">     0</i>
   <i name="POTIM">      0.50000000</i>
   <i name="SMASS">     -3.00000000</i>
  </separator>
  <separator name="ionic md" >
   <i name="TEBEG">      0.00010000</i>
   <i name="TEEND">      0.00010000</i>
   <i type="int" name="NBLOCK">     1</i>
   <i type="int" name="KBLOCK">     1</i>
   <i type="int" name="NPACO">   256</i>
   <i name="APACO">     16.00000000</i>
  </separator>
  <separator name="symmetry" >
   <i type="int" name="ISYM">     2</i>
   <i name="SYMPREC">      0.00001000</i>
  </separator>
  <separator name="dos" >
   <i type="logical" name="LORBIT"> F  </i>
   <v name="RWIGS">     -1.00000000</v>
   <i type="int" name="NEDOS">   301</i>
   <i name="EMIN">     10.00000000</i>
   <i name="EMAX">    -10.00000000</i>
  </separator>
  <separator name="writing" >
   <i type="int" name="NWRITE">     2</i>
   <i type="logical" name="LWAVE"> F  </i>
   <i type="logical" name="LCHARG"> F  </i>
   <i type="logical" name="LPARD"> F  </i>
   <i type="logical" name="LVTOT"> F  </i>
   <i type="logical" name="LELF"> F  </i>
   <i type="logical" name="LOPTICS"> F  </i>
   <i name="STM">      0.00000000</i>
  </separator>
  <separator name="performance" >
   <i type="int" name="NPAR">     4</i>
   <i type="int" name="NSIM">     4</i>
   <i type="int" name="NBLK">   256</i>
   <i type="logical" name="LPLANE"> T  </i>
   <i type="logical" name="LCRITICAL_MEM"> F  </i>
   <i type="logical" name="LSCALAPACK"> F  </i>
   <i type="logical" name="LSCALU"> F  </i>
   <i type="logical" name="LASYNC"> F  </i>
  </separator>
  <separator name="miscellaneous" >
   <i type="int" name="IDIOT">     3</i>
   <i type="logical" name="LMUSIC"> F  </i>
   <v name="POMASS">     26.98200000</v>
   <i type="logical" name="LCORR"> T  </i>
  </separator>
  <i type="logical" name="LREAL_COMPAT"> F  </i>
  <i type="logical" name="GGA_COMPAT"> T  </i>
  <i type="logical" name="LBERRY"> F  </i>
  <i type="int" name="ICORELEVEL">     0</i>
  <i type="logical" name="LDAU"> F  </i>
  <i type="int" name="I_CONSTRAINED_M">     0</i>
 </parameters>
 <atominfo>
  <atoms>       4</atoms>
  <types>       1</types>
  <array name="atoms" >
   <dimension dim="1">ion</dimension>
   <field type="string">element</field>
   <field type="int">atomtype</field>
   <set>
    <rc><c>Al</c><c>   1</c></rc>
    <rc><c>Al</c><c>   1</c></rc>
    <rc><c>Al</c><c>   1</c></rc>
    <rc><c>Al</c><c>   1</c></rc>
   </set>
  </array>
  <array name="atomtypes" >
   <dimension dim="1">type</dimension>
   <field type="int">atomspertype</field>
   <field type="string">element</field>
   <field>mass</field>
   <field>valence</field>
   <field type="string">pseudopotential</field>
   <set>
    <rc><c>   4</c><c>Al</c><c>     26.98200000</c><c>      3.00000000</c><c> PAW_PBE Al 04Jan2001                   </c></rc>
   </set>
  </array>
 </atominfo>
 <structure name="initialpos" >
  <crystal>
   <varray name="basis" >
    <v>       3.99693331      0.00000000      0.00000000</v>
    <v>       0.00000000      3.99693331      0.00000000</v>
    <v>       0.00000000      0.00000000      3.99693331</v>
   </varray>
   <i name="volume">     63.85291151</i>
   <varray name="rec_basis" >
    <v>       0.25019182      0.00000000      0.00000000</v>
    <v>       0.00000000      0.25019182      0.00000000</v>
    <v>       0.00000000      0.00000000      0.25019182</v>
   </varray>
  </crystal>
  <varray name="positions" >
   <v>       0.50000000      0.50000000      0.00000000</v>
   <v>       0.50000000      0.00000000      0.50000000</v>
   <v>       0.00000000      0.50000000      0.50000000</v>
   <v>       0.00000000      0.00000000      0.00000000</v>
  </varray>
 </structure>
 <calculation>
  <scstep>
   <time name="dav">    4.92    4.99</time>
   <time name="total">    5.29    5.36</time>
   <energy>
    <i name="alphaZ">     -0.84163730</i>
    <i name="ewald">   -297.32262379</i>
    <i name="hartreedc">     -0.36065863</i>
    <i name="XCdc">   -104.71930277</i>
    <i name="pawpsdc">    142.21701965</i>
    <i name="pawaedc">    -14.39593217</i>
    <i name="eentropy">     -0.00004474</i>
    <i name="bandstr">     74.39920527</i>
    <i name="atom">    214.15438658</i>
    <i name="e_fr_energy">     13.13041211</i>
    <i name="e_wo_entrp">     13.13045685</i>
    <i name="e_0_energy">     13.13043448</i>
   </energy>
  </scstep>
  <scstep>
   <time name="dav">    5.51    5.57</time>
   <time name="total">    5.52    5.57</time>
   <energy>
    <i name="e_fr_energy">    -14.09035864</i>
    <i name="e_wo_entrp">    -14.09013913</i>
    <i name="e_0_energy">    -14.09024889</i>
   </energy>
  </scstep>
  <scstep>
   <time name="dav">    5.90    5.96</time>
   <time name="total">    5.91    5.96</time>
   <energy>
    <i name="e_fr_energy">    -15.04105504</i>
    <i name="e_wo_entrp">    -15.04101436</i>
    <i name="e_0_energy">    -15.04103470</i>
   </energy>
  </scstep>
  <scstep>
   <time name="dav">    5.43    5.48</time>
   <time name="total">    5.43    5.49</time>
   <energy>
    <i name="e_fr_energy">    -15.04887108</i>
    <i name="e_wo_entrp">    -15.04883054</i>
    <i name="e_0_energy">    -15.04885081</i>
   </energy>
  </scstep>
  <scstep>
   <time name="dav">    5.56    5.61</time>
   <time name="total">    6.00    6.06</time>
   <energy>
    <i name="e_fr_energy">    -15.04894193</i>
    <i name="e_wo_entrp">    -15.04890139</i>
    <i name="e_0_energy">    -15.04892166</i>
   </energy>
  </scstep>
  <scstep>
   <time name="dav">    5.33    5.38</time>
   <time name="total">    6.15    6.21</time>
   <energy>
    <i name="e_fr_energy">    -14.99481579</i>
    <i name="e_wo_entrp">    -14.99477536</i>
    <i name="e_0_energy">    -14.99479557</i>
   </energy>
  </scstep>
  <scstep>
   <time name="dav">    5.29    5.34</time>
   <time name="total">    6.03    6.09</time>
   <energy>
    <i name="e_fr_energy">    -14.95538505</i>
    <i name="e_wo_entrp">    -14.95534459</i>
    <i name="e_0_energy">    -14.95536482</i>
   </energy>
  </scstep>
  <scstep>
   <time name="dav">    4.32    4.36</time>
   <time name="total">    4.99    5.04</time>
   <energy>
    <i name="e_fr_energy">    -14.95541269</i>
    <i name="e_wo_entrp">    -14.95537224</i>
    <i name="e_0_energy">    -14.95539246</i>
   </energy>
  </scstep>
  <scstep>
   <time name="dav">    2.65    2.68</time>
   <time name="total">    3.17    3.21</time>
   <energy>
    <i name="e_fr_energy">    -14.95541623</i>
    <i name="e_wo_entrp">    -14.95537578</i>
    <i name="e_0_energy">    -14.95539600</i>
   </energy>
  </scstep>
  <scstep>
   <time name="dav">    2.78    2.80</time>
   <time name="total">    3.30    3.33</time>
   <energy>
    <i name="e_fr_energy">    -14.95541525</i>
    <i name="e_wo_entrp">    -14.95537480</i>
    <i name="e_0_energy">    -14.95539502</i>
   </energy>
  </scstep>
  <scstep>
   <time name="dav">    1.95    1.97</time>
   <time name="total">    2.48    2.50</time>
   <energy>
    <i name="e_fr_energy">    -14.95541509</i>
    <i name="e_wo_entrp">    -14.95537463</i>
    <i name="e_0_energy">    -14.95539486</i>
   </energy>
  </scstep>
  <scstep>
   <time name="dav">    1.88    1.90</time>
   <time name="total">    2.40    2.43</time>
   <energy>
    <i name="e_fr_energy">    -14.95541511</i>
    <i name="e_wo_entrp">    -14.95537466</i>
    <i name="e_0_energy">    -14.95539488</i>
   </energy>
  </scstep>
  <scstep>
   <time name="dav">    1.81    1.83</time>
   <time name="total">    2.05    2.07</time>
   <energy>
    <i name="alphaZ">     -0.84163730</i>
    <i name="ewald">   -297.32262379</i>
    <i name="hartreedc">     -0.43590450</i>
    <i name="XCdc">   -104.25088725</i>
    <i name="pawpsdc">    143.06484532</i>
    <i name="pawaedc">    -15.31526056</i>
    <i name="eentropy">     -0.00004046</i>
    <i name="bandstr">     45.99170684</i>
    <i name="atom">    214.15438658</i>
    <i name="e_fr_energy">    -14.95541511</i>
    <i name="e_wo_entrp">    -14.95537466</i>
    <i name="e_0_energy">    -14.95539488</i>
   </energy>
  </scstep>
  <structure>
   <crystal>
    <varray name="basis" >
     <v>       3.99693331      0.00000000      0.00000000</v>
     <v>       0.00000000      3.99693331      0.00000000</v>
     <v>       0.00000000      0.00000000      3.99693331</v>
    </varray>
    <i name="volume">     63.85291151</i>
    <varray name="rec_basis" >
     <v>       0.25019182      0.00000000      0.00000000</v>
     <v>       0.00000000      0.25019182      0.00000000</v>
     <v>       0.00000000      0.00000000      0.25019182</v>
    </varray>
   </crystal>
   <varray name="positions" >
    <v>       0.50000000      0.50000000      0.00000000</v>
    <v>       0.50000000      0.00000000      0.50000000</v>
    <v>       0.00000000      0.50000000      0.50000000</v>
    <v>       0.00000000      0.00000000      0.00000000</v>
   </varray>
  </structure>
  <varray name="forces" >
   <v>       0.00000000      0.00000000     -0.00000000</v>
   <v>       0.00000000     -0.00000000      0.00000000</v>
   <v>       0.00000000     -0.00000000      0.00000000</v>
   <v>       0.00000000     -0.00000000      0.00000000</v>
  </varray>
  <varray name="stress" >
   <v>      25.81968656     -0.00000000      0.00000000</v>
   <v>       0.00000000     25.81968656     -0.00000000</v>
   <v>      -0.00000000     -0.00000000     25.81968656</v>
  </varray>
  <energy>
   <i name="e_fr_energy">    -14.95541511</i>
   <i name="e_wo_entrp">    -14.95539488</i>
   <i name="e_0_energy">     -0.00004046</i>
  </energy>
  <eigenvalues>
   <array>
    <dimension dim="1">band</dimension>
    <dimension dim="2">kpoint</dimension>
    <dimension dim="3">spin</dimension>
    <field>eigene</field>
    <field>occ</field>
    <set>
     <set comment="spin 1">
      <set comment="kpoint 1">
       <r>  -3.0160  1.0000</r>
       <r>   5.3450  1.0000</r>
       <r>   5.3450  1.0000</r>
       <r>   5.3450  1.0000</r>
       <r>   6.7408  1.0000</r>
       <r>   6.7408  1.0000</r>
       <r>   6.7408  1.0000</r>
       <r>  13.6142  0.0000</r>
       <r>  13.6142  0.0000</r>
       <r>  13.6142  0.0000</r>
       <r>  14.1004  0.0000</r>
       <r>  14.1004  0.0000</r>
      </set>
      <set comment="kpoint 2">
       <r>  -2.9516  1.0000</r>
       <r>   4.4729  1.0000</r>
       <r>   5.4036  1.0000</r>
       <r>   5.4036  1.0000</r>
       <r>   6.8024  1.0000</r>
       <r>   6.8024  1.0000</r>
       <r>   7.7235  1.0000</r>
       <r>  12.4721  0.0000</r>
       <r>  12.4721  0.0000</r>
       <r>  13.6657  0.0000</r>
       <r>  13.6657  0.0000</r>
       <r>  13.6777  0.0000</r>
      </set>
      <set comment="kpoint 3">
       <r>  -2.7588  1.0000</r>
       <r>   3.2491  1.0000</r>
       <r>   5.5796  1.0000</r>
       <r>   5.5796  1.0000</r>
       <r>   6.9859  1.0000</r>
       <r>   6.9859  1.0000</r>
       <r>   9.2792  0.0000</r>
       <r>  11.2373  0.0000</r>
       <r>  11.2373  0.0000</r>
       <r>  12.7616  0.0000</r>
       <r>  12.7616  0.0000</r>
       <r>  13.8681  0.0000</r>
      </set>
      <set comment="kpoint 4">
       <r>  -2.4380  1.0000</r>
       <r>   2.0919  1.0000</r>
       <r>   5.8731  1.0000</r>
       <r>   5.8731  1.0000</r>
       <r>   7.2869  1.0000</r>
       <r>   7.2869  1.0000</r>
       <r>  10.1155  0.0000</r>
       <r>  10.1155  0.0000</r>
       <r>  10.9888  0.0000</r>
       <r>  11.7753  0.0000</r>
       <r>  11.7753  0.0000</r>
       <r>  14.1850  0.0000</r>
      </set>
      <set comment="kpoint 5">
       <r>  -1.9902  1.0000</r>
       <r>   1.0391  1.0000</r>
       <r>   6.2842  1.0000</r>
       <r>   6.2842  1.0000</r>
       <r>   7.6937  1.0000</r>
       <r>   7.6937  1.0000</r>
       <r>   9.1118  0.0000</r>
       <r>   9.1118  0.0000</r>
       <r>  10.8432  0.0000</r>
       <r>  10.8432  0.0000</r>
       <r>  12.8135  0.0000</r>
       <r>  14.6277  0.0000</r>
      </set>
      <set comment="kpoint 6">
       <r>  -1.4167  1.0000</r>
       <r>   0.1006  1.0000</r>
       <r>   6.8134  1.0000</r>
       <r>   6.8134  1.0000</r>
       <r>   8.1636  1.0000</r>
       <r>   8.1636  1.0000</r>
       <r>   8.2269  1.0000</r>
       <r>   8.2269  1.0000</r>
       <r>  10.0484  0.0000</r>
       <r>  10.0484  0.0000</r>
       <r>  14.7413  0.0000</r>
       <r>  15.1950  0.0000</r>
      </set>
      <set comment="kpoint 7">
       <r>  -0.7190  1.0000</r>
       <r>  -0.7190  1.0000</r>
       <r>   7.4608  1.0000</r>
       <r>   7.4608  1.0000</r>
       <r>   7.4608  1.0000</r>
       <r>   7.4608  1.0000</r>
       <r>   8.4602  0.0000</r>
       <r>   8.4602  0.0000</r>
       <r>   9.6423  0.0000</r>
       <r>   9.6423  0.0000</r>
       <r>  15.8863  0.0000</r>
       <r>  15.9227  0.0000</r>
      </set>
      <set comment="kpoint 8">
       <r>  -2.8873  1.0000</r>
       <r>   4.5332  1.0000</r>
       <r>   4.5332  1.0000</r>
       <r>   5.4623  1.0000</r>
       <r>   6.8634  1.0000</r>
       <r>   7.7831  1.0000</r>
       <r>   7.7831  1.0000</r>
       <r>  11.6297  0.0000</r>
       <r>  12.5318  0.0000</r>
       <r>  12.5318  0.0000</r>
       <r>  13.7216  0.0000</r>
       <r>  13.7216  0.0000</r>
      </set>
      <set comment="kpoint 9">
       <r>  -2.6946  1.0000</r>
       <r>   3.3103  1.0000</r>
       <r>   4.7137  1.0000</r>
       <r>   5.6383  1.0000</r>
       <r>   7.0446  1.0000</r>
       <r>   7.9606  1.0000</r>
       <r>   9.3364  0.0000</r>
       <r>  10.4613  0.0000</r>
       <r>  11.2966  0.0000</r>
       <r>  12.7108  0.0000</r>
       <r>  12.8208  0.0000</r>
       <r>  13.5957  0.0000</r>
      </set>
      <set comment="kpoint 10">
       <r>  -2.3740  1.0000</r>
       <r>   2.1538  1.0000</r>
       <r>   5.0142  1.0000</r>
       <r>   5.9318  1.0000</r>
       <r>   7.3372  1.0000</r>
       <r>   8.2507  1.0000</r>
       <r>   9.3691  0.0000</r>
       <r>  10.1747  0.0000</r>
       <r>  11.0419  0.0000</r>
       <r>  11.8398  0.0000</r>
       <r>  12.6274  0.0000</r>
       <r>  13.0087  0.0000</r>
      </set>
      <set comment="kpoint 11">
       <r>  -1.9264  1.0000</r>
       <r>   1.1015  1.0000</r>
       <r>   5.4335  1.0000</r>
       <r>   6.3430  1.0000</r>
       <r>   7.6783  1.0000</r>
       <r>   8.4462  0.0000</r>
       <r>   8.6356  0.0000</r>
       <r>   9.1709  0.0000</r>
       <r>  10.9222  0.0000</r>
       <r>  11.6898  0.0000</r>
       <r>  12.8555  0.0000</r>
       <r>  13.4251  0.0000</r>
      </set>
      <set comment="kpoint 12">
       <r>  -1.3531  1.0000</r>
       <r>   0.1634  1.0000</r>
       <r>   5.9699  1.0000</r>
       <r>   6.8722  1.0000</r>
       <r>   7.3493  1.0000</r>
       <r>   8.2859  1.0000</r>
       <r>   8.4039  0.0000</r>
       <r>   9.0173  0.0000</r>
       <r>  10.2087  0.0000</r>
       <r>  10.8546  0.0000</r>
       <r>  13.9589  0.0000</r>
       <r>  14.6899  0.0000</r>
      </set>
      <set comment="kpoint 13">
       <r>  -0.6558  1.0000</r>
       <r>  -0.6558  1.0000</r>
       <r>   6.6180  1.0000</r>
       <r>   6.6180  1.0000</r>
       <r>   7.5197  1.0000</r>
       <r>   7.5197  1.0000</r>
       <r>   8.9022  0.0000</r>
       <r>   8.9022  0.0000</r>
       <r>  10.2133  0.0000</r>
       <r>  10.2133  0.0000</r>
       <r>  14.6088  0.0000</r>
       <r>  14.6088  0.0000</r>
      </set>
      <set comment="kpoint 14">
       <r>  -2.5022  1.0000</r>
       <r>   3.4939  1.0000</r>
       <r>   3.4939  1.0000</r>
       <r>   5.8144  1.0000</r>
       <r>   7.2145  1.0000</r>
       <r>   9.3222  0.0000</r>
       <r>   9.5054  0.0000</r>
       <r>   9.5054  0.0000</r>
       <r>  11.4746  0.0000</r>
       <r>  11.4746  0.0000</r>
       <r>  12.9995  0.0000</r>
       <r>  12.9995  0.0000</r>
      </set>
      <set comment="kpoint 15">
       <r>  -2.1820  1.0000</r>
       <r>   2.3393  1.0000</r>
       <r>   3.7992  1.0000</r>
       <r>   6.1080  1.0000</r>
       <r>   7.4321  1.0000</r>
       <r>   8.3080  0.8750</r>
       <r>   9.7725  0.0000</r>
       <r>  10.3523  0.0000</r>
       <r>  11.1922  0.0000</r>
       <r>  11.7711  0.0000</r>
       <r>  12.0403  0.0000</r>
       <r>  13.3050  0.0000</r>
      </set>
      <set comment="kpoint 16">
       <r>  -1.7350  1.0000</r>
       <r>   1.2886  1.0000</r>
       <r>   4.2253  1.0000</r>
       <r>   6.5193  1.0000</r>
       <r>   7.0386  1.0000</r>
       <r>   8.1218  1.0000</r>
       <r>   9.3481  0.0000</r>
       <r>  10.0582  0.0000</r>
       <r>  11.2173  0.0000</r>
       <r>  12.1859  0.0000</r>
       <r>  12.9181  0.0000</r>
       <r>  13.1411  0.0000</r>
      </set>
      <set comment="kpoint 17">
       <r>  -1.1625  1.0000</r>
       <r>   0.3519  1.0000</r>
       <r>   4.7705  1.0000</r>
       <r>   6.2016  1.0000</r>
       <r>   7.0487  1.0000</r>
       <r>   8.4629  0.0000</r>
       <r>   8.6014  0.0000</r>
       <r>   9.8709  0.0000</r>
       <r>  11.0646  0.0000</r>
       <r>  12.3081  0.0000</r>
       <r>  12.7185  0.0000</r>
       <r>  14.0405  0.0000</r>
      </set>
      <set comment="kpoint 18">
       <r>  -0.4662  1.0000</r>
       <r>  -0.4662  1.0000</r>
       <r>   5.4319  1.0000</r>
       <r>   5.4319  1.0000</r>
       <r>   7.6965  1.0000</r>
       <r>   7.6965  1.0000</r>
       <r>   9.2238  0.0000</r>
       <r>   9.2238  0.0000</r>
       <r>  11.5864  0.0000</r>
       <r>  11.5864  0.0000</r>
       <r>  13.3685  0.0000</r>
       <r>  13.3685  0.0000</r>
      </set>
      <set comment="kpoint 19">
       <r>  -1.8626  1.0000</r>
       <r>   2.6480  1.0000</r>
       <r>   2.6480  1.0000</r>
       <r>   6.4018  1.0000</r>
       <r>   6.9276  1.0000</r>
       <r>   8.0126  1.0000</r>
       <r>  10.6482  0.0000</r>
       <r>  10.6482  0.0000</r>
       <r>  11.3666  0.0000</r>
       <r>  11.3666  0.0000</r>
       <r>  12.4407  0.0000</r>
       <r>  12.4407  0.0000</r>
      </set>
      <set comment="kpoint 20">
       <r>  -1.4167  1.0000</r>
       <r>   1.5999  1.0000</r>
       <r>   3.0789  1.0000</r>
       <r>   5.9766  1.0000</r>
       <r>   6.8134  1.0000</r>
       <r>   8.3799  0.0000</r>
       <r>   9.6436  0.0000</r>
       <r>  11.0624  0.0000</r>
       <r>  11.0675  0.0000</r>
       <r>  12.2005  0.0000</r>
       <r>  12.4738  0.0000</r>
       <r>  13.5568  0.0000</r>
      </set>
      <set comment="kpoint 21">
       <r>  -0.8455  1.0000</r>
       <r>   0.6654  1.0000</r>
       <r>   3.6306  1.0000</r>
       <r>   5.0861  1.0000</r>
       <r>   7.3431  1.0000</r>
       <r>   8.7580  0.0000</r>
       <r>   8.9123  0.0000</r>
       <r>  10.3073  0.0000</r>
       <r>  11.5947  0.0000</r>
       <r>  12.6139  0.0000</r>
       <r>  13.0127  0.0000</r>
       <r>  13.1003  0.0000</r>
      </set>
      <set comment="kpoint 22">
       <r>  -0.1507  1.0000</r>
       <r>  -0.1507  1.0000</r>
       <r>   4.3009  1.0000</r>
       <r>   4.3009  1.0000</r>
       <r>   7.9912  1.0000</r>
       <r>   7.9912  1.0000</r>
       <r>   9.5628  0.0000</r>
       <r>   9.5628  0.0000</r>
       <r>  12.2450  0.0000</r>
       <r>  12.2450  0.0000</r>
       <r>  13.2186  0.0000</r>
       <r>  13.2186  0.0000</r>
      </set>
      <set comment="kpoint 23">
       <r>  -0.9722  1.0000</r>
       <r>   2.0346  1.0000</r>
       <r>   2.0346  1.0000</r>
       <r>   4.9689  1.0000</r>
       <r>   7.2254  1.0000</r>
       <r>   8.7984  0.0000</r>
       <r>  10.0574  0.0000</r>
       <r>  10.0574  0.0000</r>
       <r>  11.6093  0.0000</r>
       <r>  11.6093  0.0000</r>
       <r>  12.8940  0.0000</r>
       <r>  13.8800  0.0000</r>
      </set>
      <set comment="kpoint 24">
       <r>  -0.4029  1.0000</r>
       <r>   1.1032  1.0000</r>
       <r>   2.5912  1.0000</r>
       <r>   4.0623  1.0000</r>
       <r>   7.7555  1.0000</r>
       <r>   9.1713  0.0000</r>
       <r>   9.3419  0.0000</r>
       <r>  10.5894  0.0000</r>
       <r>  10.7623  0.0000</r>
       <r>  12.0079  0.0000</r>
       <r>  12.1706  0.0000</r>
       <r>  13.5733  0.0000</r>
      </set>
      <set comment="kpoint 25">
       <r>   0.2897  1.0000</r>
       <r>   0.2897  1.0000</r>
       <r>   3.2681  1.0000</r>
       <r>   3.2681  1.0000</r>
       <r>   8.4040  0.0000</r>
       <r>   8.4040  0.0000</r>
       <r>  10.0000  0.0000</r>
       <r>  10.0000  0.0000</r>
       <r>  11.2396  0.0000</r>
       <r>  11.2396  0.0000</r>
       <r>  12.8229  0.0000</r>
       <r>  12.8229  0.0000</r>
      </set>
      <set comment="kpoint 26">
       <r>   0.1641  1.0000</r>
       <r>   1.6639  1.0000</r>
       <r>   1.6639  1.0000</r>
       <r>   3.1466  1.0000</r>
       <r>   8.2861  1.0000</r>
       <r>   9.7028  0.0000</r>
       <r>   9.7028  0.0000</r>
       <r>   9.8884  0.0000</r>
       <r>  11.1212  0.0000</r>
       <r>  11.3120  0.0000</r>
       <r>  11.3120  0.0000</r>
       <r>  12.7227  0.0000</r>
      </set>
      <set comment="kpoint 27">
       <r>   0.8538  1.0000</r>
       <r>   0.8538  1.0000</r>
       <r>   2.3459  1.0000</r>
       <r>   2.3459  1.0000</r>
       <r>   8.9351  0.0000</r>
       <r>   8.9351  0.0000</r>
       <r>  10.3528  0.0000</r>
       <r>  10.3528  0.0000</r>
       <r>  10.5474  0.0000</r>
       <r>  10.5474  0.0000</r>
       <r>  11.9661  0.0000</r>
       <r>  11.9661  0.0000</r>
      </set>
      <set comment="kpoint 28">
       <r>   1.5400  1.0000</r>
       <r>   1.5400  1.0000</r>
       <r>   1.5400  1.0000</r>
       <r>   1.5400  1.0000</r>
       <r>   9.5847  0.0000</r>
       <r>   9.5847  0.0000</r>
       <r>   9.5847  0.0000</r>
       <r>   9.5847  0.0000</r>
       <r>  11.2044  0.0000</r>
       <r>  11.2044  0.0000</r>
       <r>  11.2044  0.0000</r>
       <r>  11.2044  0.0000</r>
      </set>
      <set comment="kpoint 29">
       <r>  -2.8231  1.0000</r>
       <r>   4.5934  1.0000</r>
       <r>   4.5934  1.0000</r>
       <r>   4.5934  1.0000</r>
       <r>   7.8420  1.0000</r>
       <r>   7.8420  1.0000</r>
       <r>   7.8420  1.0000</r>
       <r>  11.6899  0.0000</r>
       <r>  11.6899  0.0000</r>
       <r>  11.6899  0.0000</r>
       <r>  14.2640  0.0000</r>
       <r>  14.2640  0.0000</r>
      </set>
      <set comment="kpoint 30">
       <r>  -2.6304  1.0000</r>
       <r>   3.3715  1.0000</r>
       <r>   4.7738  1.0000</r>
       <r>   4.7738  1.0000</r>
       <r>   8.0158  1.0000</r>
       <r>   8.0158  1.0000</r>
       <r>   9.3915  0.0000</r>
       <r>  10.5239  0.0000</r>
       <r>  10.5239  0.0000</r>
       <r>  11.8712  0.0000</r>
       <r>  13.6530  0.0000</r>
       <r>  13.6530  0.0000</r>
      </set>
      <set comment="kpoint 31">
       <r>  -2.3100  1.0000</r>
       <r>   2.2157  1.0000</r>
       <r>   5.0739  1.0000</r>
       <r>   5.0739  1.0000</r>
       <r>   8.2858  1.0000</r>
       <r>   8.2858  1.0000</r>
       <r>   9.4461  0.0000</r>
       <r>   9.4461  0.0000</r>
       <r>  11.0835  0.0000</r>
       <r>  12.1820  0.0000</r>
       <r>  12.6877  0.0000</r>
       <r>  12.6877  0.0000</r>
      </set>
      <set comment="kpoint 32">
       <r>  -1.8626  1.0000</r>
       <r>   1.1639  1.0000</r>
       <r>   5.4924  1.0000</r>
       <r>   5.4924  1.0000</r>
       <r>   8.2677  1.0000</r>
       <r>   8.2677  1.0000</r>
       <r>   8.8703  0.0000</r>
       <r>   8.8703  0.0000</r>
       <r>  11.7559  0.0000</r>
       <r>  11.7559  0.0000</r>
       <r>  12.4999  0.0000</r>
       <r>  12.9996  0.0000</r>
      </set>
      <set comment="kpoint 33">
       <r>  -1.2895  1.0000</r>
       <r>   0.2263  1.0000</r>
       <r>   6.0248  1.0000</r>
       <r>   6.0248  1.0000</r>
       <r>   7.4700  1.0000</r>
       <r>   7.4700  1.0000</r>
       <r>   9.2717  0.0000</r>
       <r>   9.2717  0.0000</r>
       <r>  10.9430  0.0000</r>
       <r>  10.9430  0.0000</r>
       <r>  13.0812  0.0000</r>
       <r>  14.4957  0.0000</r>
      </set>
      <set comment="kpoint 34">
       <r>  -0.5925  1.0000</r>
       <r>  -0.5925  1.0000</r>
       <r>   6.5552  1.0000</r>
       <r>   6.5552  1.0000</r>
       <r>   6.8307  1.0000</r>
       <r>   6.8307  1.0000</r>
       <r>   9.6061  0.0000</r>
       <r>   9.6061  0.0000</r>
       <r>  10.4902  0.0000</r>
       <r>  10.4902  0.0000</r>
       <r>  13.7338  0.0000</r>
       <r>  13.7338  0.0000</r>
      </set>
      <set comment="kpoint 35">
       <r>  -2.4381  1.0000</r>
       <r>   3.5550  1.0000</r>
       <r>   3.5550  1.0000</r>
       <r>   4.9537  1.0000</r>
       <r>   8.1650  1.0000</r>
       <r>   9.4022  0.0000</r>
       <r>   9.5445  0.0000</r>
       <r>   9.5445  0.0000</r>
       <r>  10.7214  0.0000</r>
       <r>  10.7214  0.0000</r>
       <r>  13.8249  0.0000</r>
       <r>  13.8249  0.0000</r>
      </set>
      <set comment="kpoint 36">
       <r>  -2.1181  1.0000</r>
       <r>   2.4011  1.0000</r>
       <r>   3.8600  1.0000</r>
       <r>   5.2525  1.0000</r>
       <r>   8.0615  1.0000</r>
       <r>   8.7039  0.0000</r>
       <r>   9.4522  0.0000</r>
       <r>   9.9945  0.0000</r>
       <r>  10.8721  0.0000</r>
       <r>  11.3903  0.0000</r>
       <r>  12.8707  0.0000</r>
       <r>  14.0818  0.0000</r>
      </set>
      <set comment="kpoint 37">
       <r>  -1.6713  1.0000</r>
       <r>   1.3509  1.0000</r>
       <r>   4.2857  1.0000</r>
       <r>   5.6658  1.0000</r>
       <r>   7.1802  1.0000</r>
       <r>   8.5379  0.0000</r>
       <r>   9.0021  0.0000</r>
       <r>  10.2814  0.0000</r>
       <r>  11.3669  0.0000</r>
       <r>  11.9675  0.0000</r>
       <r>  13.1118  0.0000</r>
       <r>  13.2011  0.0000</r>
      </set>
      <set comment="kpoint 38">
       <r>  -1.0991  1.0000</r>
       <r>   0.4147  1.0000</r>
       <r>   4.8298  1.0000</r>
       <r>   6.0933  1.0000</r>
       <r>   6.4108  1.0000</r>
       <r>   7.6606  1.0000</r>
       <r>   9.5113  0.0000</r>
       <r>  10.5447  0.0000</r>
       <r>  11.3610  0.0000</r>
       <r>  11.9094  0.0000</r>
       <r>  12.3732  0.0000</r>
       <r>  13.3260  0.0000</r>
      </set>
      <set comment="kpoint 39">
       <r>  -0.4030  1.0000</r>
       <r>  -0.4030  1.0000</r>
       <r>   5.4858  1.0000</r>
       <r>   5.4858  1.0000</r>
       <r>   6.8969  1.0000</r>
       <r>   6.8969  1.0000</r>
       <r>  10.1115  0.0000</r>
       <r>  10.1115  0.0000</r>
       <r>  11.6730  0.0000</r>
       <r>  11.6730  0.0000</r>
       <r>  12.5614  0.0000</r>
       <r>  12.5614  0.0000</r>
      </set>
      <set comment="kpoint 40">
       <r>  -1.7988  1.0000</r>
       <r>   2.7096  1.0000</r>
       <r>   2.7096  1.0000</r>
       <r>   5.5459  1.0000</r>
       <r>   7.0732  1.0000</r>
       <r>   8.8932  0.0000</r>
       <r>   9.8410  0.0000</r>
       <r>   9.8410  0.0000</r>
       <r>  11.5750  0.0000</r>
       <r>  11.5750  0.0000</r>
       <r>  13.1894  0.0000</r>
       <r>  13.1894  0.0000</r>
      </set>
      <set comment="kpoint 41">
       <r>  -1.3531  1.0000</r>
       <r>   1.6621  1.0000</r>
       <r>   3.1402  1.0000</r>
       <r>   5.8580  1.0000</r>
       <r>   6.1843  1.0000</r>
       <r>   8.8487  0.0000</r>
       <r>   9.2977  0.0000</r>
       <r>  10.2690  0.0000</r>
       <r>  11.7355  0.0000</r>
       <r>  12.4885  0.0000</r>
       <r>  13.1072  0.0000</r>
       <r>  13.1631  0.0000</r>
      </set>
      <set comment="kpoint 42">
       <r>  -0.7822  1.0000</r>
       <r>   0.7281  1.0000</r>
       <r>   3.6914  1.0000</r>
       <r>   5.1400  1.0000</r>
       <r>   6.5419  1.0000</r>
       <r>   7.9622  1.0000</r>
       <r>   9.8280  0.0000</r>
       <r>  10.8071  0.0000</r>
       <r>  11.1858  0.0000</r>
       <r>  12.2271  0.0000</r>
       <r>  12.6967  0.0000</r>
       <r>  13.9671  0.0000</r>
      </set>
      <set comment="kpoint 43">
       <r>  -0.0877  1.0000</r>
       <r>  -0.0877  1.0000</r>
       <r>   4.3605  1.0000</r>
       <r>   4.3605  1.0000</r>
       <r>   7.1907  1.0000</r>
       <r>   7.1907  1.0000</r>
       <r>  10.4676  0.0000</r>
       <r>  10.4676  0.0000</r>
       <r>  11.4598  0.0000</r>
       <r>  11.4598  0.0000</r>
       <r>  13.2823  0.0000</r>
       <r>  13.2823  0.0000</r>
      </set>
      <set comment="kpoint 44">
       <r>  -0.9088  1.0000</r>
       <r>   2.0965  1.0000</r>
       <r>   2.0965  1.0000</r>
       <r>   5.0229  1.0000</r>
       <r>   6.4229  1.0000</r>
       <r>   9.2699  0.0000</r>
       <r>   9.2699  0.0000</r>
       <r>   9.7172  0.0000</r>
       <r>  12.1138  0.0000</r>
       <r>  12.4797  0.0000</r>
       <r>  12.4797  0.0000</r>
       <r>  13.9560  0.0000</r>
      </set>
      <set comment="kpoint 45">
       <r>  -0.3397  1.0000</r>
       <r>   1.1656  1.0000</r>
       <r>   2.6529  1.0000</r>
       <r>   4.1221  1.0000</r>
       <r>   6.9533  1.0000</r>
       <r>   8.3814  0.0000</r>
       <r>   9.8071  0.0000</r>
       <r>  10.2542  0.0000</r>
       <r>  11.2304  0.0000</r>
       <r>  11.6539  0.0000</r>
       <r>  13.0508  0.0000</r>
       <r>  14.4329  0.0000</r>
      </set>
      <set comment="kpoint 46">
       <r>   0.3525  1.0000</r>
       <r>   0.3525  1.0000</r>
       <r>   3.3292  1.0000</r>
       <r>   3.3292  1.0000</r>
       <r>   7.6081  1.0000</r>
       <r>   7.6081  1.0000</r>
       <r>  10.4609  0.0000</r>
       <r>  10.4609  0.0000</r>
       <r>  10.9030  0.0000</r>
       <r>  10.9030  0.0000</r>
       <r>  13.7003  0.0000</r>
       <r>  13.7003  0.0000</r>
      </set>
      <set comment="kpoint 47">
       <r>   0.2270  1.0000</r>
       <r>   1.7261  1.0000</r>
       <r>   1.7261  1.0000</r>
       <r>   3.2077  1.0000</r>
       <r>   7.4895  1.0000</r>
       <r>   8.9185  0.0000</r>
       <r>   8.9185  0.0000</r>
       <r>  10.3446  0.0000</r>
       <r>  10.7936  0.0000</r>
       <r>  12.2004  0.0000</r>
       <r>  12.2004  0.0000</r>
       <r>  13.6005  0.0000</r>
      </set>
      <set comment="kpoint 48">
       <r>   0.9164  1.0000</r>
       <r>   0.9164  1.0000</r>
       <r>   2.4076  1.0000</r>
       <r>   2.4076  1.0000</r>
       <r>   8.1453  1.0000</r>
       <r>   8.1453  1.0000</r>
       <r>   9.5733  0.0000</r>
       <r>   9.5733  0.0000</r>
       <r>  11.4443  0.0000</r>
       <r>  11.4443  0.0000</r>
       <r>  12.8492  0.0000</r>
       <r>  12.8492  0.0000</r>
      </set>
      <set comment="kpoint 49">
       <r>   1.6022  1.0000</r>
       <r>   1.6022  1.0000</r>
       <r>   1.6022  1.0000</r>
       <r>   1.6022  1.0000</r>
       <r>   8.8008  0.0000</r>
       <r>   8.8008  0.0000</r>
       <r>   8.8008  0.0000</r>
       <r>   8.8008  0.0000</r>
       <r>  12.0942  0.0000</r>
       <r>  12.0942  0.0000</r>
       <r>  12.0942  0.0000</r>
       <r>  12.0942  0.0000</r>
      </set>
      <set comment="kpoint 50">
       <r>  -2.2460  1.0000</r>
       <r>   3.7380  1.0000</r>
       <r>   3.7380  1.0000</r>
       <r>   3.7380  1.0000</r>
       <r>   9.3595  0.0000</r>
       <r>   9.3595  0.0000</r>
       <r>   9.3595  0.0000</r>
       <r>   9.9329  0.0000</r>
       <r>   9.9329  0.0000</r>
       <r>   9.9329  0.0000</r>
       <r>  14.7556  0.0000</r>
       <r>  14.7556  0.0000</r>
      </set>
      <set comment="kpoint 51">
       <r>  -1.9264  1.0000</r>
       <r>   2.5863  1.0000</r>
       <r>   4.0423  1.0000</r>
       <r>   4.0423  1.0000</r>
       <r>   8.3669  0.0000</r>
       <r>   8.3669  0.0000</r>
       <r>   9.7778  0.0000</r>
       <r>  10.1170  0.0000</r>
       <r>  10.1170  0.0000</r>
       <r>  11.5136  0.0000</r>
       <r>  14.0361  0.0000</r>
       <r>  14.2505  0.0000</r>
      </set>
      <set comment="kpoint 52">
       <r>  -1.4803  1.0000</r>
       <r>   1.5377  1.0000</r>
       <r>   4.4661  1.0000</r>
       <r>   4.4661  1.0000</r>
       <r>   7.3770  1.0000</r>
       <r>   7.3770  1.0000</r>
       <r>  10.2105  0.0000</r>
       <r>  10.5073  0.0000</r>
       <r>  10.5073  0.0000</r>
       <r>  13.0503  0.0000</r>
       <r>  13.3109  0.0000</r>
       <r>  13.3829  0.0000</r>
      </set>
      <set comment="kpoint 53">
       <r>  -0.9088  1.0000</r>
       <r>   0.6028  1.0000</r>
       <r>   5.0034  1.0000</r>
       <r>   5.0034  1.0000</r>
       <r>   6.4931  1.0000</r>
       <r>   6.4931  1.0000</r>
       <r>  10.7504  0.0000</r>
       <r>  10.9958  0.0000</r>
       <r>  10.9958  0.0000</r>
       <r>  12.1714  0.0000</r>
       <r>  12.5815  0.0000</r>
       <r>  12.5815  0.0000</r>
      </set>
      <set comment="kpoint 54">
       <r>  -0.2138  1.0000</r>
       <r>  -0.2138  1.0000</r>
       <r>   5.5162  1.0000</r>
       <r>   5.5162  1.0000</r>
       <r>   5.8641  1.0000</r>
       <r>   5.8641  1.0000</r>
       <r>  11.3642  0.0000</r>
       <r>  11.3642  0.0000</r>
       <r>  11.4040  0.0000</r>
       <r>  11.4040  0.0000</r>
       <r>  12.1064  0.0000</r>
       <r>  12.1064  0.0000</r>
      </set>
      <set comment="kpoint 55">
       <r>  -1.6076  1.0000</r>
       <r>   2.8943  1.0000</r>
       <r>   2.8943  1.0000</r>
       <r>   4.3447  1.0000</r>
       <r>   7.2713  1.0000</r>
       <r>   8.6840  0.0000</r>
       <r>   8.6840  0.0000</r>
       <r>  10.4066  0.0000</r>
       <r>  11.7916  0.0000</r>
       <r>  11.7916  0.0000</r>
       <r>  12.9480  0.0000</r>
       <r>  14.5381  0.0000</r>
      </set>
      <set comment="kpoint 56">
       <r>  -1.1625  1.0000</r>
       <r>   1.8485  1.0000</r>
       <r>   3.3239  1.0000</r>
       <r>   4.7615  1.0000</r>
       <r>   6.2706  1.0000</r>
       <r>   7.6817  1.0000</r>
       <r>   9.1084  0.0000</r>
       <r>  10.8167  0.0000</r>
       <r>  11.9571  0.0000</r>
       <r>  12.1657  0.0000</r>
       <r>  13.5795  0.0000</r>
       <r>  13.6990  0.0000</r>
      </set>
      <set comment="kpoint 57">
       <r>  -0.5924  1.0000</r>
       <r>   0.9158  1.0000</r>
       <r>   3.8732  1.0000</r>
       <r>   5.1628  1.0000</r>
       <r>   5.5126  1.0000</r>
       <r>   6.7886  1.0000</r>
       <r>   9.6479  0.0000</r>
       <r>  11.0741  0.0000</r>
       <r>  11.3374  0.0000</r>
       <r>  12.4334  0.0000</r>
       <r>  13.1158  0.0000</r>
       <r>  14.1731  0.0000</r>
      </set>
      <set comment="kpoint 58">
       <r>   0.1011  1.0000</r>
       <r>   0.1011  1.0000</r>
       <r>   4.5353  1.0000</r>
       <r>   4.5353  1.0000</r>
       <r>   6.0161  1.0000</r>
       <r>   6.0161  1.0000</r>
       <r>  10.3035  0.0000</r>
       <r>  10.3035  0.0000</r>
       <r>  11.9459  0.0000</r>
       <r>  11.9459  0.0000</r>
       <r>  13.4849  0.0000</r>
       <r>  13.4849  0.0000</r>
      </set>
      <set comment="kpoint 59">
       <r>  -0.7188  1.0000</r>
       <r>   2.2822  1.0000</r>
       <r>   2.2822  1.0000</r>
       <r>   5.0445  1.0000</r>
       <r>   5.3933  1.0000</r>
       <r>   8.1038  1.0000</r>
       <r>   8.1038  1.0000</r>
       <r>  10.9617  0.0000</r>
       <r>  11.2353  0.0000</r>
       <r>  13.7381  0.0000</r>
       <r>  13.7381  0.0000</r>
       <r>  14.3298  0.0000</r>
      </set>
      <set comment="kpoint 60">
       <r>  -0.1505  1.0000</r>
       <r>   1.3527  1.0000</r>
       <r>   2.8375  1.0000</r>
       <r>   4.2976  1.0000</r>
       <r>   5.7753  1.0000</r>
       <r>   7.2090  1.0000</r>
       <r>   8.6439  0.0000</r>
       <r>  10.0749  0.0000</r>
       <r>  11.7647  0.0000</r>
       <r>  13.1191  0.0000</r>
       <r>  14.4936  0.0000</r>
       <r>  14.6249  0.0000</r>
      </set>
      <set comment="kpoint 61">
       <r>   0.5407  1.0000</r>
       <r>   0.5407  1.0000</r>
       <r>   3.5118  1.0000</r>
       <r>   3.5118  1.0000</r>
       <r>   6.4302  1.0000</r>
       <r>   6.4302  1.0000</r>
       <r>   9.3015  0.0000</r>
       <r>   9.3015  0.0000</r>
       <r>  12.3994  0.0000</r>
       <r>  12.3994  0.0000</r>
       <r>  15.1454  0.0000</r>
       <r>  15.1455  0.0000</r>
      </set>
      <set comment="kpoint 62">
       <r>   0.4154  1.0000</r>
       <r>   1.9124  1.0000</r>
       <r>   1.9124  1.0000</r>
       <r>   3.3906  1.0000</r>
       <r>   6.3102  1.0000</r>
       <r>   7.7497  1.0000</r>
       <r>   7.7497  1.0000</r>
       <r>   9.1850  0.0000</r>
       <r>  12.2981  0.0000</r>
       <r>  13.6774  0.0000</r>
       <r>  13.6774  0.0000</r>
       <r>  15.0580  0.0000</r>
      </set>
      <set comment="kpoint 63">
       <r>   1.1038  1.0000</r>
       <r>   1.1038  1.0000</r>
       <r>   2.5927  1.0000</r>
       <r>   2.5927  1.0000</r>
       <r>   6.9706  1.0000</r>
       <r>   6.9706  1.0000</r>
       <r>   8.4091  0.0000</r>
       <r>   8.4091  0.0000</r>
       <r>  12.9381  0.0000</r>
       <r>  12.9381  0.0000</r>
       <r>  14.3198  0.0000</r>
       <r>  14.3198  0.0000</r>
      </set>
      <set comment="kpoint 64">
       <r>   1.7887  1.0000</r>
       <r>   1.7887  1.0000</r>
       <r>   1.7887  1.0000</r>
       <r>   1.7887  1.0000</r>
       <r>   7.6311  1.0000</r>
       <r>   7.6311  1.0000</r>
       <r>   7.6311  1.0000</r>
       <r>   7.6311  1.0000</r>
       <r>  13.5791  0.0000</r>
       <r>  13.5791  0.0000</r>
       <r>  13.5791  0.0000</r>
       <r>  13.5791  0.0000</r>
      </set>
      <set comment="kpoint 65">
       <r>  -1.2895  1.0000</r>
       <r>   3.2012  1.0000</r>
       <r>   3.2012  1.0000</r>
       <r>   3.2012  1.0000</r>
       <r>   7.5768  1.0000</r>
       <r>   7.5768  1.0000</r>
       <r>   7.5768  1.0000</r>
       <r>  11.8557  0.0000</r>
       <r>  12.0924  0.0000</r>
       <r>  12.0924  0.0000</r>
       <r>  12.0924  0.0000</r>
       <r>  15.5767  0.0000</r>
      </set>
      <set comment="kpoint 66">
       <r>  -0.8455  1.0000</r>
       <r>   2.1585  1.0000</r>
       <r>   3.6288  1.0000</r>
       <r>   3.6288  1.0000</r>
       <r>   6.5670  1.0000</r>
       <r>   6.5670  1.0000</r>
       <r>   7.9995  1.0000</r>
       <r>  10.8602  0.0000</r>
       <r>  12.4969  0.0000</r>
       <r>  12.4969  0.0000</r>
       <r>  13.8931  0.0000</r>
       <r>  15.2107  0.0000</r>
      </set>
      <set comment="kpoint 67">
       <r>  -0.2766  1.0000</r>
       <r>   1.2280  1.0000</r>
       <r>   4.1710  1.0000</r>
       <r>   4.1710  1.0000</r>
       <r>   5.6726  1.0000</r>
       <r>   5.6726  1.0000</r>
       <r>   8.5404  0.0000</r>
       <r>   9.9729  0.0000</r>
       <r>  12.9909  0.0000</r>
       <r>  12.9909  0.0000</r>
       <r>  14.4833  0.0000</r>
       <r>  14.4833  0.0000</r>
      </set>
      <set comment="kpoint 68">
       <r>   0.4153  1.0000</r>
       <r>   0.4153  1.0000</r>
       <r>   4.6907  1.0000</r>
       <r>   4.6907  1.0000</r>
       <r>   5.0352  1.0000</r>
       <r>   5.0352  1.0000</r>
       <r>   9.1988  0.0000</r>
       <r>   9.1988  0.0000</r>
       <r>  13.3792  0.0000</r>
       <r>  13.3792  0.0000</r>
       <r>  14.0036  0.0000</r>
       <r>  14.0036  0.0000</r>
      </set>
      <set comment="kpoint 69">
       <r>  -0.4028  1.0000</r>
       <r>   2.5910  1.0000</r>
       <r>   2.5910  1.0000</r>
       <r>   4.0494  1.0000</r>
       <r>   5.5558  1.0000</r>
       <r>   6.9885  1.0000</r>
       <r>   6.9885  1.0000</r>
       <r>   9.8602  0.0000</r>
       <r>  12.9145  0.0000</r>
       <r>  14.2787  0.0000</r>
       <r>  14.2787  0.0000</r>
       <r>  15.6178  0.0000</r>
      </set>
      <set comment="kpoint 70">
       <r>   0.1642  1.0000</r>
       <r>   1.6640  1.0000</r>
       <r>   3.1440  1.0000</r>
       <r>   4.4538  1.0000</r>
       <r>   4.7916  1.0000</r>
       <r>   6.0885  1.0000</r>
       <r>   7.5306  1.0000</r>
       <r>   8.9690  0.0000</r>
       <r>  13.4330  0.0000</r>
       <r>  14.5585  0.0000</r>
       <r>  15.0980  0.0000</r>
       <r>  15.9409  0.0000</r>
      </set>
      <set comment="kpoint 71">
       <r>   0.8539  1.0000</r>
       <r>   0.8539  1.0000</r>
       <r>   3.8112  1.0000</r>
       <r>   3.8112  1.0000</r>
       <r>   5.3096  1.0000</r>
       <r>   5.3096  1.0000</r>
       <r>   8.1915  1.0000</r>
       <r>   8.1915  1.0000</r>
       <r>  14.0388  0.0000</r>
       <r>  14.0388  0.0000</r>
       <r>  15.5004  0.0000</r>
       <r>  15.5004  0.0000</r>
      </set>
      <set comment="kpoint 72">
       <r>   0.7289  1.0000</r>
       <r>   2.2221  1.0000</r>
       <r>   2.2221  1.0000</r>
       <r>   3.6906  1.0000</r>
       <r>   5.1881  1.0000</r>
       <r>   6.6310  1.0000</r>
       <r>   6.6310  1.0000</r>
       <r>   8.0742  1.0000</r>
       <r>  13.9607  0.0000</r>
       <r>  15.2881  0.0000</r>
       <r>  15.2881  0.0000</r>
       <r>  16.6424  0.0000</r>
      </set>
      <set comment="kpoint 73">
       <r>   1.4157  1.0000</r>
       <r>   1.4157  1.0000</r>
       <r>   2.8999  1.0000</r>
       <r>   2.8999  1.0000</r>
       <r>   5.8476  1.0000</r>
       <r>   5.8476  1.0000</r>
       <r>   7.2938  1.0000</r>
       <r>   7.2938  1.0000</r>
       <r>  14.5848  0.0000</r>
       <r>  14.5848  0.0000</r>
       <r>  15.9263  0.0000</r>
       <r>  15.9263  0.0000</r>
      </set>
      <set comment="kpoint 74">
       <r>   2.0988  1.0000</r>
       <r>   2.0988  1.0000</r>
       <r>   2.0988  1.0000</r>
       <r>   2.0988  1.0000</r>
       <r>   6.5113  1.0000</r>
       <r>   6.5113  1.0000</r>
       <r>   6.5113  1.0000</r>
       <r>   6.5113  1.0000</r>
       <r>  15.2136  0.0000</r>
       <r>  15.2136  0.0000</r>
       <r>  15.2136  0.0000</r>
       <r>  15.2136  0.0000</r>
      </set>
      <set comment="kpoint 75">
       <r>   0.0385  1.0000</r>
       <r>   3.0211  1.0000</r>
       <r>   3.0211  1.0000</r>
       <r>   3.0211  1.0000</r>
       <r>   5.9723  1.0000</r>
       <r>   5.9723  1.0000</r>
       <r>   5.9723  1.0000</r>
       <r>   8.8556  0.0000</r>
       <r>  14.7020  0.0000</r>
       <r>  14.7020  0.0000</r>
       <r>  14.7020  0.0000</r>
       <r>  16.7297  0.0000</r>
      </set>
      <set comment="kpoint 76">
       <r>   0.6037  1.0000</r>
       <r>   2.0983  1.0000</r>
       <r>   3.5673  1.0000</r>
       <r>   3.5673  1.0000</r>
       <r>   5.0719  1.0000</r>
       <r>   5.0719  1.0000</r>
       <r>   6.5154  1.0000</r>
       <r>   7.9601  1.0000</r>
       <r>  15.1975  0.0000</r>
       <r>  15.1975  0.0000</r>
       <r>  16.5105  0.0000</r>
       <r>  16.5460  0.0000</r>
      </set>
      <set comment="kpoint 77">
       <r>   1.2911  1.0000</r>
       <r>   1.2911  1.0000</r>
       <r>   4.0982  1.0000</r>
       <r>   4.0982  1.0000</r>
       <r>   4.4226  1.0000</r>
       <r>   4.4226  1.0000</r>
       <r>   7.1789  1.0000</r>
       <r>   7.1789  1.0000</r>
       <r>  15.6083  0.0000</r>
       <r>  15.6083  0.0000</r>
       <r>  16.0696  0.0000</r>
       <r>  16.0696  0.0000</r>
      </set>
      <set comment="kpoint 78">
       <r>   1.1666  1.0000</r>
       <r>   2.6538  1.0000</r>
       <r>   2.6538  1.0000</r>
       <r>   3.9795  1.0000</r>
       <r>   4.2986  1.0000</r>
       <r>   5.6115  1.0000</r>
       <r>   5.6115  1.0000</r>
       <r>   7.0608  1.0000</r>
       <r>  15.7220  0.0000</r>
       <r>  16.8549  0.0000</r>
       <r>  16.8549  0.0000</r>
       <r>  17.1931  0.0000</r>
      </set>
      <set comment="kpoint 79">
       <r>   1.8510  1.0000</r>
       <r>   1.8510  1.0000</r>
       <r>   3.3248  1.0000</r>
       <r>   3.3248  1.0000</r>
       <r>   4.8283  1.0000</r>
       <r>   4.8283  1.0000</r>
       <r>   6.2766  1.0000</r>
       <r>   6.2766  1.0000</r>
       <r>  16.3130  0.0000</r>
       <r>  16.3130  0.0000</r>
       <r>  17.5601  0.0000</r>
       <r>  17.6002  0.0000</r>
      </set>
      <set comment="kpoint 80">
       <r>   2.5310  1.0000</r>
       <r>   2.5310  1.0000</r>
       <r>   2.5310  1.0000</r>
       <r>   2.5310  1.0000</r>
       <r>   5.4907  1.0000</r>
       <r>   5.4907  1.0000</r>
       <r>   5.4907  1.0000</r>
       <r>   5.4907  1.0000</r>
       <r>  16.9222  0.0000</r>
       <r>  16.9222  0.0000</r>
       <r>  16.9222  0.0000</r>
       <r>  16.9222  0.0000</r>
      </set>
      <set comment="kpoint 81">
       <r>   1.7270  1.0000</r>
       <r>   3.2025  1.0000</r>
       <r>   3.2025  1.0000</r>
       <r>   3.2025  1.0000</r>
       <r>   4.7075  1.0000</r>
       <r>   4.7075  1.0000</r>
       <r>   4.7075  1.0000</r>
       <r>   6.1576  1.0000</r>
       <r>  17.5407  0.0000</r>
       <r>  17.5407  0.0000</r>
       <r>  17.5407  0.0000</r>
       <r>  18.2163  0.0000</r>
      </set>
      <set comment="kpoint 82">
       <r>   2.4077  1.0000</r>
       <r>   2.4077  1.0000</r>
       <r>   3.7421  1.0000</r>
       <r>   3.7421  1.0000</r>
       <r>   4.0492  1.0000</r>
       <r>   4.0492  1.0000</r>
       <r>   5.3708  1.0000</r>
       <r>   5.3708  1.0000</r>
       <r>  17.9635  0.0000</r>
       <r>  17.9635  0.0000</r>
       <r>  18.1875  0.0000</r>
       <r>  18.1875  0.0000</r>
      </set>
      <set comment="kpoint 83">
       <r>   3.0805  1.0000</r>
       <r>   3.0805  1.0000</r>
       <r>   3.0805  1.0000</r>
       <r>   3.0805  1.0000</r>
       <r>   4.5856  1.0000</r>
       <r>   4.5856  1.0000</r>
       <r>   4.5856  1.0000</r>
       <r>   4.5856  1.0000</r>
       <r>  18.6151  0.0000</r>
       <r>  18.6151  0.0000</r>
       <r>  18.6151  0.0000</r>
       <r>  18.6151  0.0000</r>
      </set>
      <set comment="kpoint 84">
       <r>   3.6234  1.0000</r>
       <r>   3.6234  1.0000</r>
       <r>   3.6234  1.0000</r>
       <r>   3.6234  1.0000</r>
       <r>   3.9239  1.0000</r>
       <r>   3.9239  1.0000</r>
       <r>   3.9239  1.0000</r>
       <r>   3.9239  1.0000</r>
       <r>  19.9638  0.0000</r>
       <r>  19.9638  0.0000</r>
       <r>  19.9638  0.0000</r>
       <r>  19.9638  0.0000</r>
      </set>
     </set>
    </set>
   </array>
  </eigenvalues>
 </calculation>
 <structure name="finalpos" >
  <crystal>
   <varray name="basis" >
    <v>       3.99693331      0.00000000      0.00000000</v>
    <v>       0.00000000      3.99693331      0.00000000</v>
    <v>       0.00000000      0.00000000      3.99693331</v>
   </varray>
   <i name="volume">     63.85291151</i>
   <varray name="rec_basis" >
    <v>       0.25019182      0.00000000      0.00000000</v>
    <v>       0.00000000      0.25019182      0.00000000</v>
    <v>       0.00000000      0.00000000      0.25019182</v>
   </varray>
  </crystal>
  <varray name="positions" >
   <v>       0.50000000      0.50000000      0.00000000</v>
   <v>       0.50000000      0.00000000      0.50000000</v>
   <v>       0.00000000      0.50000000      0.50000000</v>
   <v>       0.00000000      0.00000000      0.00000000</v>
  </varray>
 </structure>
</modeling>
