       N       E                     dE             d eps       ncg     rms          rms(c)
RMM:   1    -0.872244476304E+02   -0.87224E+02   -0.55317E+02 17580   0.433E+01    0.651E+00
RMM:   2    -0.860917023228E+02    0.11327E+01   -0.11456E+01 17839   0.110E+01    0.124E+00
RMM:   3    -0.860856887226E+02    0.60136E-02   -0.17940E-01 18307   0.772E-01    0.653E-01
RMM:   4    -0.860856236952E+02    0.65027E-04   -0.42943E-02 18161   0.653E-01    0.201E-01
RMM:   5    -0.860848052822E+02    0.81841E-03   -0.98014E-03 18192   0.338E-01    0.604E-02
RMM:   6    -0.860847515229E+02    0.53759E-04   -0.14937E-04 18545   0.311E-02    0.364E-02
RMM:   7    -0.860847114617E+02    0.40061E-04   -0.23006E-04 18256   0.498E-02    0.548E-03
RMM:   8    -0.860847080817E+02    0.33800E-05   -0.31538E-06 10337   0.304E-03
   1 F= -.86084708E+02 E0= -.86080368E+02  d E =-.130196E-01
