       N       E                     dE             d eps       ncg     rms          rms(c)
RMM:   1     0.395694377104E+04    0.39569E+04   -0.16053E+05  4240   0.167E+03
RMM:   2     0.861785142969E+03   -0.30952E+04   -0.34174E+04  4240   0.405E+02
RMM:   3     0.208233425652E+03   -0.65355E+03   -0.70535E+03  4240   0.158E+02
RMM:   4     0.113342509978E+01   -0.20710E+03   -0.15344E+03  4240   0.754E+01
RMM:   5    -0.700177454190E+02   -0.71151E+02   -0.43249E+02  4240   0.468E+01
RMM:   6    -0.865782172756E+02   -0.16560E+02   -0.11352E+02  4240   0.237E+01
RMM:   7    -0.901350443051E+02   -0.35568E+01   -0.28273E+01  4240   0.135E+01
RMM:   8    -0.908998390822E+02   -0.76479E+00   -0.71179E+00  4240   0.632E+00
RMM:   9    -0.911518372526E+02   -0.25200E+00   -0.23534E+00  8478   0.341E+00
RMM:  10    -0.911755567361E+02   -0.23719E-01   -0.22169E-01  8488   0.499E-01
RMM:  11    -0.911764904925E+02   -0.93376E-03   -0.83666E-03  8262   0.239E-01
RMM:  12    -0.911765851287E+02   -0.94636E-04   -0.91183E-04  7289   0.225E-02    0.129E+01
RMM:  13    -0.861780361008E+02    0.49985E+01   -0.22047E+01  8480   0.149E+01    0.257E+00
RMM:  14    -0.861170230121E+02    0.61013E-01   -0.33435E-01  8480   0.109E+00    0.150E+00
RMM:  15    -0.860861002180E+02    0.30923E-01   -0.62176E-02  8480   0.106E+00    0.277E-01
RMM:  16    -0.860859046860E+02    0.19553E-03   -0.27097E-02  8480   0.474E-01    0.165E-01
RMM:  17    -0.860850263185E+02    0.87837E-03   -0.12229E-03  8480   0.118E-01    0.418E-02
RMM:  18    -0.860849643186E+02    0.62000E-04   -0.23734E-04  8466   0.452E-02    0.329E-03
RMM:  19    -0.860849604886E+02    0.38299E-05   -0.42779E-06  4398   0.351E-03
   1 F= -.86084960E+02 E0= -.86080619E+02  d E =-.860850E+02
