   4   4   0   0
  0.1166450E+02  0.3600052E-09  0.3600052E-09  0.3600052E-09  0.5000000E-15
  1.000000000000000E-004
  CAR 
 unknown system                          
     27.02488880     -7.09522389  301      3.90444518      1.00000000
     -7.095  0.0000E+00  0.0000E+00
     -6.981  0.0000E+00  0.0000E+00
     -6.868  0.0000E+00  0.0000E+00
     -6.754  0.0000E+00  0.0000E+00
     -6.640  0.0000E+00  0.0000E+00
     -6.527  0.0000E+00  0.0000E+00
     -6.413  0.0000E+00  0.0000E+00
     -6.299  0.0000E+00  0.0000E+00
     -6.185  0.0000E+00  0.0000E+00
     -6.072  0.0000E+00  0.0000E+00
     -5.958  0.0000E+00  0.0000E+00
     -5.844  0.0000E+00  0.0000E+00
     -5.730  0.0000E+00  0.0000E+00
     -5.617  0.0000E+00  0.0000E+00
     -5.503  0.6458E-02  0.7345E-03
     -5.389  0.7690E-01  0.1385E-01
     -5.275  0.3832E-01  0.2404E-01
     -5.162  0.2934E+00  0.5742E-01
     -5.048  0.3919E-01  0.6349E-01
     -4.934  0.2093E+00  0.9159E-01
     -4.821  0.1547E+00  0.1247E+00
     -4.707  0.1541E+00  0.1480E+00
     -4.593  0.4772E-06  0.1829E+00
     -4.479  0.3076E+00  0.2223E+00
     -4.366  0.3075E+00  0.2660E+00
     -4.252  0.4596E+00  0.3183E+00
     -4.138  0.1538E+00  0.3360E+00
     -4.024  0.3389E+00  0.3745E+00
     -3.911  0.6581E+00  0.4502E+00
     -3.797  0.4532E+00  0.5027E+00
     -3.683  0.3076E+00  0.5386E+00
     -3.569  0.3842E+00  0.5823E+00
     -3.456  0.4615E+00  0.6523E+00
     -3.342  0.1563E+00  0.6920E+00
     -3.228  0.2918E-03  0.7442E+00
     -3.115  0.6496E+00  0.8355E+00
     -3.001  0.2660E+00  0.8969E+00
     -2.887  0.4460E+00  0.9873E+00
     -2.773  0.1396E-01  0.9965E+00
     -2.660  0.3399E+00  0.1108E+01
     -2.546  0.6226E+00  0.1201E+01
     -2.432  0.3928E+00  0.1315E+01
     -2.318  0.3917E+00  0.1367E+01
     -2.205  0.6152E+00  0.1445E+01
     -2.091  0.9616E+00  0.1555E+01
     -1.977  0.9297E+00  0.1678E+01
     -1.863  0.1125E+01  0.1840E+01
     -1.750  0.7146E+00  0.1922E+01
     -1.636  0.8654E+00  0.2026E+01
     -1.522  0.1131E+01  0.2240E+01
     -1.409  0.1195E+01  0.2427E+01
     -1.295  0.8330E+00  0.2584E+01
     -1.181  0.2144E+01  0.2950E+01
     -1.067  0.3556E+01  0.3373E+01
     -0.954  0.2984E+01  0.3839E+01
     -0.840  0.2725E+01  0.4387E+01
     -0.726  0.2987E+01  0.4933E+01
     -0.612  0.3655E+01  0.5551E+01
     -0.499  0.4533E+01  0.6261E+01
     -0.385  0.5736E+01  0.7224E+01
     -0.271  0.7330E+01  0.8289E+01
     -0.157  0.6122E+01  0.9293E+01
     -0.044  0.5520E+01  0.1025E+02
      0.070  0.6407E+01  0.1121E+02
      0.184  0.5460E+01  0.1213E+02
      0.297  0.5912E+01  0.1310E+02
      0.411  0.6915E+01  0.1433E+02
      0.525  0.7823E+01  0.1557E+02
      0.639  0.9037E+01  0.1708E+02
      0.752  0.1021E+02  0.1859E+02
      0.866  0.1098E+02  0.2045E+02
      0.980  0.1209E+02  0.2243E+02
      1.094  0.1094E+02  0.2417E+02
      1.207  0.8501E+01  0.2548E+02
      1.321  0.6979E+01  0.2663E+02
      1.435  0.8132E+01  0.2786E+02
      1.549  0.1010E+02  0.2942E+02
      1.662  0.1071E+02  0.3118E+02
      1.776  0.9899E+01  0.3270E+02
      1.890  0.9045E+01  0.3405E+02
      2.003  0.8299E+01  0.3543E+02
      2.117  0.1059E+02  0.3719E+02
      2.231  0.1865E+02  0.3988E+02
      2.345  0.8039E+01  0.4159E+02
      2.458  0.1105E+01  0.4193E+02
      2.572  0.6146E+00  0.4220E+02
      2.686  0.6690E+00  0.4233E+02
      2.800  0.1398E+01  0.4254E+02
      2.913  0.8229E+00  0.4273E+02
      3.027  0.1037E+01  0.4288E+02
      3.141  0.1098E+01  0.4301E+02
      3.255  0.1384E+01  0.4320E+02
      3.368  0.8289E+00  0.4331E+02
      3.482  0.4928E+00  0.4341E+02
      3.596  0.1210E+01  0.4365E+02
      3.709  0.1354E+00  0.4377E+02
      3.823  0.1185E+01  0.4394E+02
      3.937  0.6152E+00  0.4401E+02
      4.051  0.1230E+01  0.4415E+02
      4.164  0.1372E+01  0.4431E+02
      4.278  0.2772E-01  0.4437E+02
      4.392  0.1625E+01  0.4468E+02
      4.506  0.1539E+00  0.4470E+02
      4.619  0.5995E+00  0.4479E+02
      4.733  0.6092E+00  0.4487E+02
      4.847  0.1028E+01  0.4503E+02
      4.961  0.1385E+01  0.4522E+02
      5.074  0.6537E+00  0.4531E+02
      5.188  0.1207E+01  0.4545E+02
      5.302  0.6658E+00  0.4552E+02
      5.415  0.4613E+00  0.4564E+02
      5.529  0.4616E+00  0.4573E+02
      5.643  0.3546E+00  0.4581E+02
      5.757  0.7421E+00  0.4600E+02
      5.870  0.7569E+00  0.4610E+02
      5.984  0.6480E+00  0.4621E+02
      6.098  0.5489E+00  0.4630E+02
      6.212  0.7408E+00  0.4640E+02
      6.325  0.4126E+00  0.4652E+02
      6.439  0.4569E+00  0.4660E+02
      6.553  0.3180E+00  0.4663E+02
      6.667  0.1263E+01  0.4684E+02
      6.780  0.1234E+00  0.4688E+02
      6.894  0.3082E+00  0.4692E+02
      7.008  0.1048E+01  0.4706E+02
      7.121  0.8464E+00  0.4717E+02
      7.235  0.6531E-12  0.4718E+02
      7.349  0.4284E+00  0.4723E+02
      7.463  0.3845E+00  0.4731E+02
      7.576  0.6152E+00  0.4742E+02
      7.690  0.2790E+00  0.4745E+02
      7.804  0.9298E+00  0.4759E+02
      7.918  0.3302E+00  0.4766E+02
      8.031  0.9228E+00  0.4780E+02
      8.145  0.2117E+00  0.4789E+02
      8.259  0.9026E+00  0.4807E+02
      8.373  0.8950E+00  0.4819E+02
      8.486  0.4822E+00  0.4828E+02
      8.600  0.1022E+01  0.4845E+02
      8.714  0.1294E+01  0.4864E+02
      8.827  0.6175E+00  0.4872E+02
      8.941  0.5303E+00  0.4880E+02
      9.055  0.1069E+01  0.4898E+02
      9.169  0.8012E+00  0.4909E+02
      9.282  0.8376E+00  0.4926E+02
      9.396  0.3622E+00  0.4935E+02
      9.510  0.1232E+01  0.4952E+02
      9.624  0.5788E-04  0.4957E+02
      9.737  0.6123E+00  0.4967E+02
      9.851  0.1086E+01  0.4980E+02
      9.965  0.7802E+00  0.4996E+02
     10.079  0.4719E-02  0.5003E+02
     10.192  0.6991E+00  0.5017E+02
     10.306  0.7690E+00  0.5028E+02
     10.420  0.5876E+00  0.5036E+02
     10.534  0.7663E+00  0.5051E+02
     10.647  0.5485E+00  0.5059E+02
     10.761  0.4011E+00  0.5070E+02
     10.875  0.6922E+00  0.5079E+02
     10.988  0.6107E+00  0.5087E+02
     11.102  0.9606E+00  0.5098E+02
     11.216  0.1085E+01  0.5115E+02
     11.330  0.4691E+00  0.5126E+02
     11.443  0.7544E+00  0.5140E+02
     11.557  0.1260E+01  0.5154E+02
     11.671  0.7136E+00  0.5163E+02
     11.785  0.1375E+01  0.5184E+02
     11.898  0.8219E+00  0.5193E+02
     12.012  0.6994E+00  0.5215E+02
     12.126  0.1149E+01  0.5229E+02
     12.240  0.7054E+00  0.5240E+02
     12.353  0.7204E+00  0.5254E+02
     12.467  0.1339E+01  0.5271E+02
     12.581  0.1214E+01  0.5291E+02
     12.694  0.9977E+00  0.5302E+02
     12.808  0.1134E+01  0.5318E+02
     12.922  0.9045E+00  0.5335E+02
     13.036  0.7825E+00  0.5349E+02
     13.149  0.1230E+01  0.5368E+02
     13.263  0.1172E+01  0.5383E+02
     13.377  0.1257E+01  0.5399E+02
     13.491  0.6963E+00  0.5408E+02
     13.604  0.1223E+01  0.5430E+02
     13.718  0.1201E+01  0.5451E+02
     13.832  0.1146E+01  0.5469E+02
     13.946  0.1034E+01  0.5485E+02
     14.059  0.9962E-01  0.5495E+02
     14.173  0.2059E+01  0.5519E+02
     14.287  0.6749E+00  0.5533E+02
     14.400  0.3072E+00  0.5545E+02
     14.514  0.4614E+00  0.5550E+02
     14.628  0.1616E+01  0.5569E+02
     14.742  0.1468E+01  0.5597E+02
     14.855  0.5960E+00  0.5613E+02
     14.969  0.1147E+01  0.5632E+02
     15.083  0.1354E+01  0.5651E+02
     15.197  0.1228E+01  0.5671E+02
     15.310  0.1216E+01  0.5685E+02
     15.424  0.1439E+01  0.5703E+02
     15.538  0.1363E+01  0.5722E+02
     15.652  0.3578E+00  0.5728E+02
     15.765  0.1756E+01  0.5750E+02
     15.879  0.1513E+01  0.5771E+02
     15.993  0.1397E+01  0.5793E+02
     16.106  0.7728E+00  0.5804E+02
     16.220  0.1411E+01  0.5822E+02
     16.334  0.9864E+00  0.5835E+02
     16.448  0.1118E+01  0.5851E+02
     16.561  0.1887E+01  0.5881E+02
     16.675  0.6963E+00  0.5896E+02
     16.789  0.5255E+00  0.5912E+02
     16.903  0.8715E+00  0.5934E+02
     17.016  0.8395E+00  0.5947E+02
     17.130  0.1481E+01  0.5973E+02
     17.244  0.1604E+01  0.5994E+02
     17.358  0.1522E+01  0.6016E+02
     17.471  0.5640E+00  0.6025E+02
     17.585  0.1739E+01  0.6046E+02
     17.699  0.1113E+01  0.6065E+02
     17.812  0.1005E+01  0.6090E+02
     17.926  0.7763E+00  0.6101E+02
     18.040  0.1365E+01  0.6119E+02
     18.154  0.6059E+00  0.6131E+02
     18.267  0.1179E+01  0.6148E+02
     18.381  0.7905E+00  0.6158E+02
     18.495  0.5229E+00  0.6175E+02
     18.609  0.9608E+00  0.6189E+02
     18.722  0.7690E+00  0.6201E+02
     18.836  0.1475E+01  0.6218E+02
     18.950  0.5085E+00  0.6228E+02
     19.064  0.3076E+00  0.6238E+02
     19.177  0.3528E-08  0.6238E+02
     19.291  0.3407E+00  0.6242E+02
     19.405  0.2750E+00  0.6252E+02
     19.518  0.8584E+00  0.6262E+02
     19.632  0.1213E+01  0.6277E+02
     19.746  0.3990E+00  0.6282E+02
     19.860  0.3808E-06  0.6283E+02
     19.973  0.5217E+00  0.6291E+02
     20.087  0.3992E+00  0.6298E+02
     20.201  0.6343E-05  0.6299E+02
     20.315  0.3524E+00  0.6304E+02
     20.428  0.7821E+00  0.6319E+02
     20.542  0.0000E+00  0.6322E+02
     20.656  0.2290E+00  0.6325E+02
     20.770  0.3076E+00  0.6333E+02
     20.883  0.1526E+00  0.6335E+02
     20.997  0.1924E-04  0.6335E+02
     21.111  0.5127E-01  0.6337E+02
     21.224  0.5857E+00  0.6344E+02
     21.338  0.6024E-10  0.6346E+02
     21.452  0.7690E+00  0.6355E+02
     21.566  0.8538E-17  0.6355E+02
     21.679  0.1776E+00  0.6357E+02
     21.793  0.1149E+00  0.6361E+02
     21.907  0.1940E-13  0.6362E+02
     22.021  0.1538E+00  0.6364E+02
     22.134  0.3078E+00  0.6367E+02
     22.248  0.0000E+00  0.6371E+02
     22.362  0.4836E-11  0.6371E+02
     22.476  0.1538E+00  0.6372E+02
     22.589  0.2790E+00  0.6375E+02
     22.703  0.0000E+00  0.6376E+02
     22.817  0.2045E-01  0.6376E+02
     22.930  0.4894E-02  0.6379E+02
     23.044  0.1538E+00  0.6382E+02
     23.158  0.3076E+00  0.6385E+02
     23.272  0.1534E+00  0.6387E+02
     23.385  0.0000E+00  0.6387E+02
     23.499  0.0000E+00  0.6387E+02
     23.613  0.0000E+00  0.6387E+02
     23.727  0.8479E-01  0.6388E+02
     23.840  0.5494E-01  0.6389E+02
     23.954  0.8180E-01  0.6391E+02
     24.068  0.0000E+00  0.6394E+02
     24.182  0.9615E-02  0.6394E+02
     24.295  0.0000E+00  0.6396E+02
     24.409  0.0000E+00  0.6396E+02
     24.523  0.0000E+00  0.6396E+02
     24.636  0.0000E+00  0.6396E+02
     24.750  0.0000E+00  0.6396E+02
     24.864  0.2721E-01  0.6396E+02
     24.978  0.2013E+00  0.6400E+02
     25.091  0.0000E+00  0.6400E+02
     25.205  0.0000E+00  0.6400E+02
     25.319  0.0000E+00  0.6400E+02
     25.433  0.6344E-10  0.6400E+02
     25.546  0.2563E-01  0.6400E+02
     25.660  0.0000E+00  0.6400E+02
     25.774  0.0000E+00  0.6400E+02
     25.888  0.0000E+00  0.6400E+02
     26.001  0.0000E+00  0.6400E+02
     26.115  0.0000E+00  0.6400E+02
     26.229  0.0000E+00  0.6400E+02
     26.342  0.0000E+00  0.6400E+02
     26.456  0.0000E+00  0.6400E+02
     26.570  0.0000E+00  0.6400E+02
     26.684  0.0000E+00  0.6400E+02
     26.797  0.0000E+00  0.6400E+02
     26.911  0.0000E+00  0.6400E+02
     27.025  0.0000E+00  0.6400E+02
