    4    4    1    1
  0.1166450E+02  0.3600052E-09  0.3600052E-09  0.3600052E-09  0.5000000E-15
  1.000000000000000E-004
  CAR 
 unknown system                          
   44  120   32
 
  0.0000000E+00  0.0000000E+00  0.0000000E+00  0.3644315E-03
   1       -5.5443
   2       -1.0696
   3       -1.0696
   4       -1.0696
   5       -0.6091
   6       -0.6091
   7       -0.6091
   8        0.8094
   9        0.8094
  10        0.8094
  11        1.6535
  12        1.6535
  13        2.2139
  14        2.2139
  15        2.2139
  16        2.3712
  17        2.3712
  18        2.3712
  19        2.3712
  20        2.3712
  21        2.3712
  22        5.4022
  23        5.4022
  24        5.4022
  25       11.1064
  26       11.1064
  27       11.1064
  28       17.1710
  29       17.1710
  30       17.1710
  31       17.1710
  32       17.1710
 
  0.7142857E-01  0.0000000E+00  0.0000000E+00  0.2186589E-02
   1       -5.4816
   2       -1.0696
   3       -1.0401
   4       -1.0401
   5       -0.5923
   6       -0.5913
   7       -0.5913
   8        0.7907
   9        0.8244
  10        0.8244
  11        1.6365
  12        1.6604
  13        2.1919
  14        2.1919
  15        2.2067
  16        2.2578
  17        2.2578
  18        2.3452
  19        2.3452
  20        2.3712
  21        2.3712
  22        5.0087
  23        5.5713
  24        5.5713
  25       11.1290
  26       11.1290
  27       11.6236
  28       16.7320
  29       16.7320
  30       16.8964
  31       16.8964
  32       17.2632
 
  0.1428571E+00  0.0000000E+00  0.0000000E+00  0.2186589E-02
   1       -5.2946
   2       -1.0782
   3       -0.9545
   4       -0.9545
   5       -0.5424
   6       -0.5377
   7       -0.5377
   8        0.7355
   9        0.8692
  10        0.8692
  11        1.5868
  12        1.6807
  13        1.9759
  14        1.9759
  15        2.1273
  16        2.1273
  17        2.1856
  18        2.2698
  19        2.2698
  20        2.3713
  21        2.3713
  22        4.1192
  23        6.0203
  24        6.0203
  25       11.1986
  26       11.1986
  27       12.8911
  28       15.7556
  29       15.7556
  30       16.2231
  31       16.2231
  32       17.5366
 
  0.2142857E+00  0.0000000E+00  0.0000000E+00  0.2186589E-02
   1       -4.9865
   2       -1.1253
   3       -0.8224
   4       -0.8224
   5       -0.4618
   6       -0.4476
   7       -0.4476
   8        0.6470
   9        0.9429
  10        0.9429
  11        1.5089
  12        1.6207
  13        1.6207
  14        1.7135
  15        2.0252
  16        2.0252
  17        2.1516
  18        2.1524
  19        2.1524
  20        2.3715
  21        2.3715
  22        3.1222
  23        6.6531
  24        6.6531
  25       11.3198
  26       11.3198
  27       14.5442
  28       14.6145
  29       14.6145
  30       15.3959
  31       15.3959
  32       17.9829
 
  0.2857143E+00  0.0000000E+00  0.0000000E+00  0.2186589E-02
   1       -4.5633
   2       -1.2704
   3       -0.6608
   4       -0.6608
   5       -0.3537
   6       -0.3202
   7       -0.3202
   8        0.5303
   9        1.0441
  10        1.0441
  11        1.2527
  12        1.2527
  13        1.4113
  14        1.7572
  15        1.8968
  16        1.8968
  17        2.0035
  18        2.0035
  19        2.1065
  20        2.2395
  21        2.3717
  22        2.3717
  23        7.4081
  24        7.4081
  25       11.4993
  26       11.4993
  27       13.4487
  28       13.4487
  29       14.5694
  30       14.5694
  31       16.4091
  32       18.5898
 
  0.3571429E+00  0.0000000E+00  0.0000000E+00  0.2186589E-02
   1       -4.0359
   2       -1.5930
   3       -0.4968
   4       -0.4968
   5       -0.2232
   6       -0.1543
   7       -0.1543
   8        0.3920
   9        0.9013
  10        0.9013
  11        1.1704
  12        1.1704
  13        1.3078
  14        1.6123
  15        1.7625
  16        1.7625
  17        1.8097
  18        1.8349
  19        1.8349
  20        2.0528
  21        2.3718
  22        2.3718
  23        8.2540
  24        8.2540
  25       11.7444
  26       11.7444
  27       12.3066
  28       12.3066
  29       13.8210
  30       13.8210
  31       18.4048
  32       19.3428
 
  0.4285714E+00  0.0000000E+00  0.0000000E+00  0.2186589E-02
   1       -3.4234
   2       -2.1170
   3       -0.3689
   4       -0.3689
   5       -0.0760
   6        0.0510
   7        0.0510
   8        0.2394
   9        0.5803
  10        0.5803
  11        1.2213
  12        1.2875
  13        1.3184
  14        1.3184
  15        1.6550
  16        1.6550
  17        1.6580
  18        1.6580
  19        1.8685
  20        1.9932
  21        2.3719
  22        2.3719
  23        9.1750
  24        9.1750
  25       11.2078
  26       11.2078
  27       12.0505
  28       12.0505
  29       13.1986
  30       13.1986
  31       20.2275
  32       20.2275
 
  0.5000000E+00  0.0000000E+00  0.0000000E+00  0.1093294E-02
   1       -2.7616
   2       -2.7616
   3       -0.3194
   4       -0.3194
   5        0.0807
   6        0.0807
   7        0.2960
   8        0.2960
   9        0.2960
  10        0.2960
  11        1.1914
  12        1.1914
  13        1.4831
  14        1.4831
  15        1.4831
  16        1.4831
  17        1.6128
  18        1.6128
  19        1.9307
  20        1.9307
  21        2.3720
  22        2.3720
  23       10.1618
  24       10.1618
  25       10.1618
  26       10.1618
  27       12.2801
  28       12.2801
  29       12.8615
  30       12.8615
  31       21.2297
  32       21.2297
 
  0.7142857E-01  0.7142857E-01  0.0000000E+00  0.4373178E-02
   1       -5.4192
   2       -1.0395
   3       -1.0395
   4       -1.0111
   5       -0.5747
   6       -0.5747
   7       -0.5739
   8        0.7800
   9        0.8316
  10        0.8384
  11        1.6317
  12        1.6561
  13        2.1701
  14        2.1701
  15        2.1705
  16        2.1711
  17        2.2419
  18        2.2419
  19        2.3451
  20        2.3451
  21        2.3546
  22        5.1759
  23        5.1759
  24        5.7305
  25       11.1517
  26       11.6527
  27       11.6527
  28       15.8204
  29       16.8193
  30       16.8193
  31       16.9850
  32       16.9850
 
  0.1428571E+00  0.7142857E-01  0.0000000E+00  0.8746356E-02
   1       -5.2328
   2       -1.0466
   3       -0.9525
   4       -0.9270
   5       -0.5256
   6       -0.5218
   7       -0.5217
   8        0.7299
   9        0.8721
  10        0.8796
  11        1.5880
  12        1.6739
  13        1.9184
  14        1.9243
  15        2.0923
  16        2.1079
  17        2.1355
  18        2.2068
  19        2.2696
  20        2.3451
  21        2.3456
  22        4.2939
  23        5.6111
  24        6.1596
  25       11.2210
  26       11.7421
  27       12.9292
  28       14.6820
  29       15.8368
  30       16.3044
  31       17.0775
  32       17.1731
 
  0.2142857E+00  0.7142857E-01  0.0000000E+00  0.8746356E-02
   1       -4.9256
   2       -1.0910
   3       -0.8178
   4       -0.7971
   5       -0.4461
   6       -0.4342
   7       -0.4330
   8        0.6441
   9        0.9446
  10        0.9467
  11        1.5143
  12        1.5706
  13        1.5841
  14        1.7092
  15        1.9454
  16        2.0089
  17        2.0315
  18        2.1521
  19        2.1608
  20        2.3434
  21        2.3450
  22        3.3330
  23        6.2108
  24        6.7743
  25       11.3391
  26       11.8971
  27       13.5355
  28       14.5871
  29       14.6928
  30       15.4698
  31       16.5080
  32       17.4971
 
  0.2857143E+00  0.7142857E-01  0.0000000E+00  0.8746356E-02
   1       -4.5040
   2       -1.2323
   3       -0.6526
   4       -0.6374
   5       -0.3397
   6       -0.3115
   7       -0.3074
   8        0.5298
   9        1.0344
  10        1.0451
  11        1.2061
  12        1.2309
  13        1.4260
  14        1.7105
  15        1.7572
  16        1.8840
  17        1.9030
  18        2.0031
  19        2.0956
  20        2.3429
  21        2.3449
  22        2.5535
  23        6.9129
  24        7.5155
  25       11.4957
  26       12.1257
  27       12.4529
  28       13.5263
  29       14.6372
  30       15.6803
  31       16.4512
  32       18.0633
 
  0.3571429E+00  0.7142857E-01  0.0000000E+00  0.8746356E-02
   1       -3.9787
   2       -1.5507
   3       -0.4840
   4       -0.4736
   5       -0.2111
   6       -0.1542
   7       -0.1441
   8        0.3940
   9        0.8603
  10        0.8902
  11        1.1203
  12        1.1710
  13        1.3574
  14        1.4001
  15        1.7536
  16        1.7683
  17        1.8151
  18        1.8345
  19        1.9577
  20        2.1503
  21        2.3431
  22        2.3446
  23        7.6868
  24        8.3514
  25       11.2589
  26       11.8934
  27       12.3853
  28       12.4330
  29       13.8868
  30       14.8568
  31       18.4086
  32       18.7586
 
  0.4285714E+00  0.7142857E-01  0.0000000E+00  0.8746356E-02
   1       -3.3691
   2       -2.0704
   3       -0.3506
   4       -0.3446
   5       -0.0662
   6        0.0387
   7        0.0578
   8        0.2441
   9        0.5467
  10        0.5770
  11        1.1331
  12        1.1794
  13        1.3185
  14        1.3996
  15        1.6504
  16        1.6577
  17        1.6588
  18        1.7362
  19        1.8807
  20        2.0300
  21        2.3435
  22        2.3443
  23        8.5178
  24        9.2650
  25       10.3255
  26       11.2887
  27       12.1709
  28       12.7665
  29       13.3151
  30       14.1123
  31       19.5632
  32       19.7443
 
  0.5000000E+00  0.7142857E-01  0.0000000E+00  0.4373178E-02
   1       -2.7108
   2       -2.7108
   3       -0.2965
   4       -0.2965
   5        0.0880
   6        0.0880
   7        0.2717
   8        0.2717
   9        0.2985
  10        0.2985
  11        1.1139
  12        1.1139
  13        1.4829
  14        1.4829
  15        1.5454
  16        1.5454
  17        1.6127
  18        1.6127
  19        1.9518
  20        1.9518
  21        2.3439
  22        2.3439
  23        9.3988
  24        9.3988
  25       10.2465
  26       10.2465
  27       12.5716
  28       12.5716
  29       13.4966
  30       13.4966
  31       20.4564
  32       20.4564
 
  0.1428571E+00  0.1428571E+00  0.0000000E+00  0.4373178E-02
   1       -5.0482
   2       -0.9548
   3       -0.9548
   4       -0.8474
   5       -0.4749
   6       -0.4749
   7       -0.4736
   8        0.6983
   9        0.8967
  10        0.9103
  11        1.5716
  12        1.6751
  13        1.7403
  14        1.7946
  15        1.7946
  16        2.0510
  17        2.1343
  18        2.1343
  19        2.2692
  20        2.2692
  21        2.3051
  22        4.7209
  23        4.7209
  24        6.5462
  25       11.2863
  26       13.0449
  27       13.0449
  28       13.4239
  29       16.0769
  30       16.0769
  31       16.5460
  32       16.5460
 
  0.2142857E+00  0.1428571E+00  0.0000000E+00  0.8746356E-02
   1       -4.7443
   2       -0.9911
   3       -0.8123
   4       -0.7241
   5       -0.3990
   6       -0.3937
   7       -0.3899
   8        0.6274
   9        0.9581
  10        0.9583
  11        1.4366
  12        1.4708
  13        1.5164
  14        1.6024
  15        1.7110
  16        1.9603
  17        2.0345
  18        2.1051
  19        2.1512
  20        2.2685
  21        2.2815
  22        3.7728
  23        5.2781
  24        7.1184
  25       11.3648
  26       12.2641
  27       13.2418
  28       14.7158
  29       14.9242
  30       15.6910
  31       16.4662
  32       16.9435
 
  0.2857143E+00  0.1428571E+00  0.0000000E+00  0.8746356E-02
   1       -4.3274
   2       -1.1214
   3       -0.6361
   4       -0.5709
   5       -0.2975
   6       -0.2844
   7       -0.2698
   8        0.5241
   9        1.0137
  10        1.0529
  11        1.0810
  12        1.1637
  13        1.3591
  14        1.4484
  15        1.7711
  16        1.8455
  17        1.9091
  18        2.0020
  19        2.0412
  20        2.2676
  21        2.2708
  22        2.9915
  23        5.9113
  24        7.8252
  25       10.9356
  26       11.7589
  27       13.5209
  28       13.7559
  29       14.8451
  30       16.5641
  31       16.9908
  32       17.2496
 
  0.3571429E+00  0.1428571E+00  0.0000000E+00  0.8746356E-02
   1       -3.8086
   2       -1.4271
   3       -0.4530
   4       -0.4080
   5       -0.1750
   6       -0.1520
   7       -0.1140
   8        0.3978
   9        0.7506
  10        0.8557
  11        1.0464
  12        1.1257
  13        1.1753
  14        1.4150
  15        1.7259
  16        1.7752
  17        1.8334
  18        1.8475
  19        1.9313
  20        2.2663
  21        2.2666
  22        2.4779
  23        6.6018
  24        8.6349
  25        9.9573
  26       11.9677
  27       12.6176
  28       13.7881
  29       14.1825
  30       16.4921
  31       17.6346
  32       18.0062
 
  0.4285714E+00  0.1428571E+00  0.0000000E+00  0.8746356E-02
   1       -3.2078
   2       -1.9335
   3       -0.3020
   4       -0.2740
   5       -0.0372
   6        0.0035
   7        0.0779
   8        0.2568
   9        0.4556
  10        0.5662
  11        0.9962
  12        1.0227
  13        1.3206
  14        1.4697
  15        1.6340
  16        1.6572
  17        1.6624
  18        1.7709
  19        1.9382
  20        2.2012
  21        2.2649
  22        2.2656
  23        7.3459
  24        9.0170
  25        9.5289
  26       11.5277
  27       12.3134
  28       13.3160
  29       14.4669
  30       15.7351
  31       18.3812
  32       18.8311
 
  0.5000000E+00  0.1428571E+00  0.0000000E+00  0.4373178E-02
   1       -2.5608
   2       -2.5608
   3       -0.2311
   4       -0.2311
   5        0.1092
   6        0.1092
   7        0.2036
   8        0.2036
   9        0.3053
  10        0.3053
  11        0.9815
  12        0.9815
  13        1.4834
  14        1.4834
  15        1.6012
  16        1.6012
  17        1.6077
  18        1.6077
  19        2.0478
  20        2.0478
  21        2.2649
  22        2.2649
  23        8.1482
  24        8.1482
  25       10.4958
  26       10.4958
  27       12.7644
  28       12.7644
  29       15.0481
  30       15.0481
  31       19.2159
  32       19.2159
 
  0.2142857E+00  0.2142857E+00  0.0000000E+00  0.4373178E-02
   1       -4.4459
   2       -0.8352
   3       -0.8352
   4       -0.6117
   5       -0.3262
   6       -0.3202
   7       -0.3202
   8        0.5819
   9        0.9770
  10        1.0005
  11        1.2458
  12        1.2458
  13        1.2845
  14        1.4879
  15        1.7497
  16        1.8821
  17        2.0125
  18        2.0125
  19        2.1500
  20        2.1500
  21        2.2239
  22        4.2970
  23        4.2970
  24        7.6431
  25       10.8130
  26       11.7096
  27       14.9250
  28       14.9250
  29       15.2997
  30       15.2997
  31       16.0663
  32       16.0663
 
  0.2857143E+00  0.2142857E+00  0.0000000E+00  0.8746356E-02
   1       -4.0374
   2       -0.9475
   3       -0.6403
   4       -0.4714
   5       -0.2363
   6       -0.2271
   7       -0.2092
   8        0.5028
   9        0.9105
  10        0.9941
  11        1.0356
  12        1.0491
  13        1.0793
  14        1.4397
  15        1.7818
  16        1.8287
  17        1.8932
  18        1.9536
  19        2.0006
  20        2.1485
  21        2.1858
  22        3.4644
  23        4.8733
  24        8.3080
  25        9.7227
  26       11.8648
  27       14.1284
  28       15.0063
  29       15.4167
  30       15.8064
  31       16.4043
  32       16.9706
 
  0.3571429E+00  0.2142857E+00  0.0000000E+00  0.8746356E-02
   1       -3.5305
   2       -1.2327
   3       -0.4328
   4       -0.3145
   5       -0.1393
   6       -0.1152
   7       -0.0659
   8        0.3970
   9        0.6069
  10        0.7951
  11        0.8752
  12        0.9852
  13        1.1910
  14        1.4186
  15        1.6771
  16        1.7631
  17        1.8326
  18        1.8522
  19        1.9358
  20        2.1473
  21        2.1643
  22        2.8614
  23        5.4986
  24        8.6944
  25        9.0835
  26       12.1456
  27       12.9943
  28       14.2996
  29       15.7302
  30       16.4300
  31       17.0784
  32       18.2398
 
  0.4285714E+00  0.2142857E+00  0.0000000E+00  0.8746356E-02
   1       -2.9456
   2       -1.7159
   3       -0.2505
   4       -0.1645
   5       -0.0505
   6        0.0100
   7        0.1092
   8        0.2738
   9        0.3389
  10        0.5455
  11        0.8221
  12        0.9309
  13        1.3292
  14        1.4654
  15        1.5997
  16        1.6490
  17        1.6581
  18        1.7159
  19        2.0678
  20        2.1469
  21        2.1533
  22        2.4768
  23        6.1802
  24        7.7650
  25        9.9507
  26       11.9141
  27       12.5248
  28       13.6007
  29       16.2409
  30       17.1570
  31       17.5399
  32       17.7990
 
  0.5000000E+00  0.2142857E+00  0.0000000E+00  0.4373178E-02
   1       -2.3192
   2       -2.3192
   3       -0.1409
   4       -0.1409
   5        0.1099
   6        0.1099
   7        0.1421
   8        0.1421
   9        0.3143
  10        0.3143
  11        0.8588
  12        0.8588
  13        1.4874
  14        1.4874
  15        1.5746
  16        1.5746
  17        1.5864
  18        1.5864
  19        2.1484
  20        2.1484
  21        2.2360
  22        2.2360
  23        6.9309
  24        6.9309
  25       10.8971
  26       10.8971
  27       13.0079
  28       13.0079
  29       16.8533
  30       16.8533
  31       17.9758
  32       17.9758
 
  0.2857143E+00  0.2857143E+00  0.0000000E+00  0.4373178E-02
   1       -3.6416
   2       -0.7286
   3       -0.7286
   4       -0.3547
   5       -0.1667
   6       -0.1287
   7       -0.1287
   8        0.4563
   9        0.7458
  10        0.7458
  11        0.8919
  12        0.9749
  13        1.1364
  14        1.4011
  15        1.6976
  16        1.8404
  17        1.8404
  18        1.9357
  19        1.9995
  20        1.9995
  21        2.1132
  22        3.9733
  23        3.9733
  24        8.5766
  25        8.9323
  26       12.0912
  27       14.6313
  28       14.6313
  29       15.5551
  30       15.5551
  31       17.2268
  32       17.2268
 
  0.3571429E+00  0.2857143E+00  0.0000000E+00  0.8746356E-02
   1       -3.1531
   2       -0.9868
   3       -0.4923
   4       -0.2341
   5       -0.0882
   6       -0.0327
   7       -0.0029
   8        0.3832
   9        0.4917
  10        0.6576
  11        0.7068
  12        0.9369
  13        1.2284
  14        1.3761
  15        1.6079
  16        1.7158
  17        1.7462
  18        1.8335
  19        1.9998
  20        2.0619
  21        2.0789
  22        3.2823
  23        4.5279
  24        7.5460
  25        9.6727
  26       12.4086
  27       13.5023
  28       14.7156
  29       15.2513
  30       16.1203
  31       17.6500
  32       18.6906
 
  0.4285714E+00  0.2857143E+00  0.0000000E+00  0.8746356E-02
   1       -2.5936
   2       -1.4355
   3       -0.2785
   4       -0.1281
   5       -0.0214
   6        0.0735
   7        0.1486
   8        0.2744
   9        0.2893
  10        0.5119
  11        0.6749
  12        0.8603
  13        1.3517
  14        1.4071
  15        1.5427
  16        1.6040
  17        1.6221
  18        1.6631
  19        2.0032
  20        2.0300
  21        2.2558
  22        2.8035
  23        5.1438
  24        6.6359
  25       10.5108
  26       12.4337
  27       12.8226
  28       13.9729
  29       15.9760
  30       16.7878
  31       17.7015
  32       18.1780
 
  0.5000000E+00  0.2857143E+00  0.0000000E+00  0.4373178E-02
   1       -2.0005
   2       -2.0005
   3       -0.1376
   4       -0.1376
   5        0.0959
   6        0.0959
   7        0.1833
   8        0.1833
   9        0.3224
  10        0.3224
  11        0.7594
  12        0.7594
  13        1.4974
  14        1.4974
  15        1.4993
  16        1.4993
  17        1.5380
  18        1.5380
  19        2.0121
  20        2.0121
  21        2.4833
  22        2.4833
  23        5.8400
  24        5.8400
  25       11.4341
  26       11.4341
  27       13.3419
  28       13.3419
  29       16.7951
  30       16.7951
  31       17.5583
  32       17.5583
 
  0.3571429E+00  0.3571429E+00  0.0000000E+00  0.4373178E-02
   1       -2.6915
   2       -0.7200
   3       -0.7200
   4       -0.2068
   5        0.0169
   6        0.0708
   7        0.0708
   8        0.3499
   9        0.4771
  10        0.4771
  11        0.5934
  12        0.8842
  13        1.2960
  14        1.3328
  15        1.5289
  16        1.6288
  17        1.6288
  18        1.8383
  19        1.8383
  20        1.9763
  21        2.2622
  22        3.7505
  23        3.7505
  24        6.5308
  25       10.3806
  26       12.7623
  27       14.1281
  28       14.1281
  29       15.2328
  30       15.2328
  31       17.6061
  32       18.3613
 
  0.4285714E+00  0.3571429E+00  0.0000000E+00  0.8746356E-02
   1       -2.1703
   2       -1.1209
   3       -0.4763
   4       -0.2226
   5        0.1272
   6        0.1497
   7        0.1919
   8        0.2964
   9        0.3351
  10        0.4625
  11        0.5587
  12        0.7999
  13        1.3372
  14        1.3962
  15        1.4679
  16        1.5148
  17        1.5232
  18        1.6763
  19        1.8503
  20        1.9141
  21        2.4873
  22        3.1789
  23        4.2853
  24        5.6545
  25       11.1907
  26       13.0722
  27       13.2152
  28       14.4477
  29       14.8597
  30       15.8563
  31       16.6043
  32       17.4215
 
  0.5000000E+00  0.3571429E+00  0.0000000E+00  0.4373178E-02
   1       -1.6281
   2       -1.6281
   3       -0.3038
   4       -0.3038
   5        0.2258
   6        0.2258
   7        0.2273
   8        0.2273
   9        0.3252
  10        0.3252
  11        0.6816
  12        0.6816
  13        1.4053
  14        1.4053
  15        1.4618
  16        1.4618
  17        1.5256
  18        1.5256
  19        1.8738
  20        1.8738
  21        2.7773
  22        2.7773
  23        4.9117
  24        4.9117
  25       12.0908
  26       12.0908
  27       13.7751
  28       13.7751
  29       15.6874
  30       15.6874
  31       16.5860
  32       16.5860
 
  0.4285714E+00  0.4285714E+00  0.0000000E+00  0.4373178E-02
   1       -1.7044
   2       -0.8118
   3       -0.8118
   4       -0.3562
   5        0.2337
   6        0.2337
   7        0.2666
   8        0.2899
   9        0.3970
  10        0.4669
  11        0.4669
  12        0.7233
  13        1.3022
  14        1.3993
  15        1.4215
  16        1.4215
  17        1.4694
  18        1.7028
  19        1.7028
  20        1.8186
  21        2.7697
  22        3.6214
  23        3.6214
  24        4.8314
  25       11.9753
  26       13.7099
  27       13.8170
  28       13.8170
  29       15.0285
  30       15.0285
  31       15.5889
  32       16.5154
 
  0.5000000E+00  0.4285714E+00  0.0000000E+00  0.4373178E-02
   1       -1.2359
   2       -1.2359
   3       -0.5496
   4       -0.5496
   5        0.2681
   6        0.2681
   7        0.3186
   8        0.3186
   9        0.3783
  10        0.3783
  11        0.6084
  12        0.6084
  13        1.3344
  14        1.3344
  15        1.3766
  16        1.3766
  17        1.5729
  18        1.5729
  19        1.7486
  20        1.7486
  21        3.1319
  22        3.1319
  23        4.1613
  24        4.1613
  25       12.8535
  26       12.8535
  27       14.3130
  28       14.3130
  29       14.6582
  30       14.6582
  31       15.7175
  32       15.7175
 
  0.5000000E+00  0.5000000E+00  0.0000000E+00  0.1093294E-02
   1       -0.8649
   2       -0.8649
   3       -0.8649
   4       -0.8649
   5        0.2996
   6        0.2996
   7        0.2996
   8        0.2996
   9        0.5116
  10        0.5116
  11        0.5116
  12        0.5116
  13        1.3225
  14        1.3225
  15        1.3225
  16        1.3225
  17        1.6468
  18        1.6468
  19        1.6468
  20        1.6468
  21        3.5793
  22        3.5793
  23        3.5793
  24        3.5793
  25       13.7118
  26       13.7118
  27       13.7118
  28       13.7118
  29       14.9596
  30       14.9596
  31       14.9596
  32       14.9596
 
  0.7142857E-01  0.7142857E-01  0.7142857E-01  0.2915452E-02
   1       -5.3569
   2       -1.0101
   3       -1.0101
   4       -1.0101
   5       -0.5576
   6       -0.5576
   7       -0.5576
   8        0.7699
   9        0.8448
  10        0.8448
  11        1.6400
  12        1.6400
  13        2.1366
  14        2.1366
  15        2.1366
  16        2.1538
  17        2.1538
  18        2.1538
  19        2.3394
  20        2.3394
  21        2.3394
  22        5.3313
  23        5.3313
  24        5.3313
  25       11.6820
  26       11.6820
  27       11.6820
  28       15.9027
  29       15.9027
  30       15.9027
  31       17.4422
  32       17.4422
 
  0.1428571E+00  0.7142857E-01  0.7142857E-01  0.8746356E-02
   1       -5.1711
   2       -1.0158
   3       -0.9247
   4       -0.9247
   5       -0.5091
   6       -0.5060
   7       -0.5060
   8        0.7240
   9        0.8804
  10        0.8843
  11        1.5932
  12        1.6643
  13        1.8735
  14        1.8735
  15        2.0320
  16        2.0969
  17        2.0969
  18        2.1017
  19        2.2987
  20        2.3318
  21        2.3318
  22        4.4494
  23        5.7438
  24        5.7438
  25       11.7712
  26       11.7712
  27       12.9672
  28       14.7605
  29       14.7605
  30       16.1468
  31       17.2585
  32       17.2585
 
  0.2142857E+00  0.7142857E-01  0.7142857E-01  0.8746356E-02
   1       -4.8651
   2       -1.0577
   3       -0.7925
   4       -0.7925
   5       -0.4307
   6       -0.4197
   7       -0.4197
   8        0.6413
   9        0.9462
  10        0.9495
  11        1.5225
  12        1.5370
  13        1.5370
  14        1.7034
  15        1.8521
  16        2.0040
  17        2.0040
  18        2.0119
  19        2.2428
  20        2.3262
  21        2.3262
  22        3.4983
  23        6.3232
  24        6.3232
  25       11.9229
  26       11.9229
  27       13.6127
  28       13.6127
  29       14.6291
  30       16.5448
  31       16.5851
  32       16.5851
 
  0.2857143E+00  0.7142857E-01  0.7142857E-01  0.8746356E-02
   1       -4.4451
   2       -1.1957
   3       -0.6298
   4       -0.6298
   5       -0.3256
   6       -0.2989
   7       -0.2989
   8        0.5298
   9        1.0303
  10        1.0393
  11        1.1869
  12        1.1869
  13        1.4434
  14        1.5901
  15        1.7555
  16        1.8833
  17        1.8833
  18        1.8885
  19        2.1791
  20        2.3229
  21        2.3229
  22        2.7157
  23        7.0094
  24        7.0094
  25       12.0970
  26       12.0970
  27       12.5625
  28       12.5625
  29       15.7506
  30       15.7506
  31       16.4788
  32       17.1016
 
  0.3571429E+00  0.7142857E-01  0.7142857E-01  0.8746356E-02
   1       -3.9220
   2       -1.5100
   3       -0.4616
   4       -0.4616
   5       -0.1988
   6       -0.1451
   7       -0.1451
   8        0.3966
   9        0.8527
  10        0.8527
  11        1.0982
  12        1.1517
  13        1.2989
  14        1.4014
  15        1.7427
  16        1.7546
  17        1.7546
  18        1.8179
  19        2.1098
  20        2.1998
  21        2.3210
  22        2.3210
  23        7.7700
  24        7.7700
  25       11.4027
  26       11.4027
  27       12.5298
  28       12.5298
  29       14.9219
  30       14.9219
  31       17.6917
  32       18.5495
 
  0.4285714E+00  0.7142857E-01  0.7142857E-01  0.8746356E-02
   1       -3.3154
   2       -2.0252
   3       -0.3265
   4       -0.3265
   5       -0.0560
   6        0.0402
   7        0.0402
   8        0.2494
   9        0.5504
  10        0.5504
  11        1.0924
  12        1.1128
  13        1.2837
  14        1.4735
  15        1.5866
  16        1.6503
  17        1.6503
  18        1.8743
  19        1.8877
  20        2.0367
  21        2.3201
  22        2.3201
  23        8.5836
  24        8.5836
  25       10.4372
  26       10.4372
  27       12.9304
  28       12.9304
  29       14.1767
  30       14.1767
  31       18.4672
  32       20.2567
 
  0.5000000E+00  0.7142857E-01  0.7142857E-01  0.4373178E-02
   1       -2.6611
   2       -2.6611
   3       -0.2731
   4       -0.2731
   5        0.0959
   6        0.0959
   7        0.2149
   8        0.2149
   9        0.3348
  10        0.3348
  11        1.0657
  12        1.0657
  13        1.4308
  14        1.4308
  15        1.6091
  16        1.6091
  17        1.6418
  18        1.6418
  19        1.9616
  20        1.9616
  21        2.3199
  22        2.3199
  23        9.2809
  24        9.2809
  25        9.6881
  26        9.6881
  27       13.3111
  28       13.3111
  29       13.6795
  30       13.6795
  31       19.3228
  32       19.3228
 
  0.1428571E+00  0.1428571E+00  0.7142857E-01  0.8746356E-02
   1       -4.9873
   2       -0.9263
   3       -0.9263
   4       -0.8443
   5       -0.4595
   6       -0.4595
   7       -0.4584
   8        0.6935
   9        0.9039
  10        0.9122
  11        1.5846
  12        1.6612
  13        1.6998
  14        1.7485
  15        1.7485
  16        2.0210
  17        2.0512
  18        2.0512
  19        2.2958
  20        2.2958
  21        2.3068
  22        4.8446
  23        4.8446
  24        6.1084
  25       11.8562
  26       13.0820
  27       13.0820
  28       13.5022
  29       14.9938
  30       14.9938
  31       17.5119
  32       17.5119
 
  0.2142857E+00  0.1428571E+00  0.7142857E-01  0.1749271E-01
   1       -4.6846
   2       -0.9612
   3       -0.7874
   4       -0.7199
   5       -0.3842
   6       -0.3795
   7       -0.3766
   8        0.6257
   9        0.9569
  10        0.9602
  11        1.4083