<?xml version="1.0" encoding="ISO-8859-1"?>
<modeling>
 <generator>
  <i name="program" type="string">vasp</i>
  <i name="version" type="string">4.6.28 </i>
  <i name="subversion" type="string">25Jul05 complex  parallel</i>
  <i name="platform" type="string">LinuxIFC</i>
  <i name="date" type="string">2016 12 21</i>
  <i name="time" type="string">13:29:55</i>
 </generator>
 <incar>
  <i type="string" name="PREC">accurate</i>
  <i type="int" name="IALGO">    38</i>
  <i type="logical" name="ADDGRID"> T  </i>
  <i name="EDIFF">      0.00000001</i>
  <i type="int" name="IBRION">     2</i>
  <i type="int" name="NSW">   200</i>
  <i type="int" name="ISIF">     3</i>
  <i name="ENCUT">    500.00000000</i>
  <i type="logical" name="LREAL"> F  </i>
  <i type="int" name="ISMEAR">     0</i>
  <i name="SIGMA">      0.01000000</i>
  <i type="logical" name="LWAVE"> F  </i>
  <i type="logical" name="LCHARG"> F  </i>
 </incar>
 <kpoints>
  <generation param="Auto">
   <i name="subdivisionlength">     50.00000000</i>
   <v type="int" name="divisions">      12      12      12</v>
   <v name="usershift">      0.00000000      0.00000000      0.00000000</v>
   <v name="genvec1">      0.08333333      0.00000000      0.00000000</v>
   <v name="genvec2">      0.00000000      0.08333333      0.00000000</v>
   <v name="genvec3">      0.00000000      0.00000000      0.08333333</v>
   <v name="shift">      0.00000000      0.00000000      0.00000000</v>
  </generation>
  <varray name="kpointlist" >
   <v>       0.00000000      0.00000000      0.00000000</v>
   <v>       0.08333333      0.00000000      0.00000000</v>
   <v>       0.16666667      0.00000000      0.00000000</v>
   <v>       0.25000000      0.00000000      0.00000000</v>
   <v>       0.33333333      0.00000000      0.00000000</v>
   <v>       0.41666667      0.00000000      0.00000000</v>
   <v>       0.50000000      0.00000000      0.00000000</v>
   <v>       0.08333333      0.08333333      0.00000000</v>
   <v>       0.16666667      0.08333333      0.00000000</v>
   <v>       0.25000000      0.08333333      0.00000000</v>
   <v>       0.33333333      0.08333333      0.00000000</v>
   <v>       0.41666667      0.08333333      0.00000000</v>
   <v>       0.50000000      0.08333333      0.00000000</v>
   <v>       0.16666667      0.16666667      0.00000000</v>
   <v>       0.25000000      0.16666667      0.00000000</v>
   <v>       0.33333333      0.16666667      0.00000000</v>
   <v>       0.41666667      0.16666667      0.00000000</v>
   <v>       0.50000000      0.16666667      0.00000000</v>
   <v>       0.25000000      0.25000000      0.00000000</v>
   <v>       0.33333333      0.25000000      0.00000000</v>
   <v>       0.41666667      0.25000000      0.00000000</v>
   <v>       0.50000000      0.25000000      0.00000000</v>
   <v>       0.33333333      0.33333333      0.00000000</v>
   <v>       0.41666667      0.33333333      0.00000000</v>
   <v>       0.50000000      0.33333333      0.00000000</v>
   <v>       0.41666667      0.41666667      0.00000000</v>
   <v>       0.50000000      0.41666667      0.00000000</v>
   <v>       0.50000000      0.50000000      0.00000000</v>
   <v>       0.08333333      0.08333333      0.08333333</v>
   <v>       0.16666667      0.08333333      0.08333333</v>
   <v>       0.25000000      0.08333333      0.08333333</v>
   <v>       0.33333333      0.08333333      0.08333333</v>
   <v>       0.41666667      0.08333333      0.08333333</v>
   <v>       0.50000000      0.08333333      0.08333333</v>
   <v>       0.16666667      0.16666667      0.08333333</v>
   <v>       0.25000000      0.16666667      0.08333333</v>
   <v>       0.33333333      0.16666667      0.08333333</v>
   <v>       0.41666667      0.16666667      0.08333333</v>
   <v>       0.50000000      0.16666667      0.08333333</v>
   <v>       0.25000000      0.25000000      0.08333333</v>
   <v>       0.33333333      0.25000000      0.08333333</v>
   <v>       0.41666667      0.25000000      0.08333333</v>
   <v>       0.50000000      0.25000000      0.08333333</v>
   <v>       0.33333333      0.33333333      0.08333333</v>
   <v>       0.41666667      0.33333333      0.08333333</v>
   <v>       0.50000000      0.33333333      0.08333333</v>
   <v>       0.41666667      0.41666667      0.08333333</v>
   <v>       0.50000000      0.41666667      0.08333333</v>
   <v>       0.50000000      0.50000000      0.08333333</v>
   <v>       0.16666667      0.16666667      0.16666667</v>
   <v>       0.25000000      0.16666667      0.16666667</v>
   <v>       0.33333333      0.16666667      0.16666667</v>
   <v>       0.41666667      0.16666667      0.16666667</v>
   <v>       0.50000000      0.16666667      0.16666667</v>
   <v>       0.25000000      0.25000000      0.16666667</v>
   <v>       0.33333333      0.25000000      0.16666667</v>
   <v>       0.41666667      0.25000000      0.16666667</v>
   <v>       0.50000000      0.25000000      0.16666667</v>
   <v>       0.33333333      0.33333333      0.16666667</v>
   <v>       0.41666667      0.33333333      0.16666667</v>
   <v>       0.50000000      0.33333333      0.16666667</v>
   <v>       0.41666667      0.41666667      0.16666667</v>
   <v>       0.50000000      0.41666667      0.16666667</v>
   <v>       0.50000000      0.50000000      0.16666667</v>
   <v>       0.25000000      0.25000000      0.25000000</v>
   <v>       0.33333333      0.25000000      0.25000000</v>
   <v>       0.41666667      0.25000000      0.25000000</v>
   <v>       0.50000000      0.25000000      0.25000000</v>
   <v>       0.33333333      0.33333333      0.25000000</v>
   <v>       0.41666667      0.33333333      0.25000000</v>
   <v>       0.50000000      0.33333333      0.25000000</v>
   <v>       0.41666667      0.41666667      0.25000000</v>
   <v>       0.50000000      0.41666667      0.25000000</v>
   <v>       0.50000000      0.50000000      0.25000000</v>
   <v>       0.33333333      0.33333333      0.33333333</v>
   <v>       0.41666667      0.33333333      0.33333333</v>
   <v>       0.50000000      0.33333333      0.33333333</v>
   <v>       0.41666667      0.41666667      0.33333333</v>
   <v>       0.50000000      0.41666667      0.33333333</v>
   <v>       0.50000000      0.50000000      0.33333333</v>
   <v>       0.41666667      0.41666667      0.41666667</v>
   <v>       0.50000000      0.41666667      0.41666667</v>
   <v>       0.50000000      0.50000000      0.41666667</v>
   <v>       0.50000000      0.50000000      0.50000000</v>
  </varray>
  <varray name="weights" >
   <v>       0.00057870</v>
   <v>       0.00347222</v>
   <v>       0.00347222</v>
   <v>       0.00347222</v>
   <v>       0.00347222</v>
   <v>       0.00347222</v>
   <v>       0.00173611</v>
   <v>       0.00694444</v>
   <v>       0.01388889</v>
   <v>       0.01388889</v>
   <v>       0.01388889</v>
   <v>       0.01388889</v>
   <v>       0.00694444</v>
   <v>       0.00694444</v>
   <v>       0.01388889</v>
   <v>       0.01388889</v>
   <v>       0.01388889</v>
   <v>       0.00694444</v>
   <v>       0.00694444</v>
   <v>       0.01388889</v>
   <v>       0.01388889</v>
   <v>       0.00694444</v>
   <v>       0.00694444</v>
   <v>       0.01388889</v>
   <v>       0.00694444</v>
   <v>       0.00694444</v>
   <v>       0.00694444</v>
   <v>       0.00173611</v>
   <v>       0.00462963</v>
   <v>       0.01388889</v>
   <v>       0.01388889</v>
   <v>       0.01388889</v>
   <v>       0.01388889</v>
   <v>       0.00694444</v>
   <v>       0.01388889</v>
   <v>       0.02777778</v>
   <v>       0.02777778</v>
   <v>       0.02777778</v>
   <v>       0.01388889</v>
   <v>       0.01388889</v>
   <v>       0.02777778</v>
   <v>       0.02777778</v>
   <v>       0.01388889</v>
   <v>       0.01388889</v>
   <v>       0.02777778</v>
   <v>       0.01388889</v>
   <v>       0.01388889</v>
   <v>       0.01388889</v>
   <v>       0.00347222</v>
   <v>       0.00462963</v>
   <v>       0.01388889</v>
   <v>       0.01388889</v>
   <v>       0.01388889</v>
   <v>       0.00694444</v>
   <v>       0.01388889</v>
   <v>       0.02777778</v>
   <v>       0.02777778</v>
   <v>       0.01388889</v>
   <v>       0.01388889</v>
   <v>       0.02777778</v>
   <v>       0.01388889</v>
   <v>       0.01388889</v>
   <v>       0.01388889</v>
   <v>       0.00347222</v>
   <v>       0.00462963</v>
   <v>       0.01388889</v>
   <v>       0.01388889</v>
   <v>       0.00694444</v>
   <v>       0.01388889</v>
   <v>       0.02777778</v>
   <v>       0.01388889</v>
   <v>       0.01388889</v>
   <v>       0.01388889</v>
   <v>       0.00347222</v>
   <v>       0.00462963</v>
   <v>       0.01388889</v>
   <v>       0.00694444</v>
   <v>       0.01388889</v>
   <v>       0.01388889</v>
   <v>       0.00347222</v>
   <v>       0.00462963</v>
   <v>       0.00694444</v>
   <v>       0.00347222</v>
   <v>       0.00057870</v>
  </varray>
 </kpoints>
 <parameters>
  <separator name="general" >
   <i type="string" name="SYSTEM">unknown system</i>
   <i type="logical" name="LCOMPAT"> F  </i>
  </separator>
  <separator name="electronic" >
   <i type="string" name="PREC">accura</i>
   <i name="ENMAX">    500.00000000</i>
   <i name="ENAUG">    412.49600000</i>
   <i name="EDIFF">      0.00000001</i>
   <i type="int" name="IALGO">    38</i>
   <i type="int" name="IWAVPR">    11</i>
   <i type="int" name="NBANDS">    26</i>
   <i name="NELECT">     44.00000000</i>
   <separator name="electronic smearing" >
    <i type="int" name="ISMEAR">     0</i>
    <i name="SIGMA">      0.01000000</i>
   </separator>
   <separator name="electronic projectors" >
    <i type="logical" name="LREAL"> F  </i>
    <v name="ROPT">      0.00000000</v>
    <i type="int" name="LMAXPAW">  -100</i>
    <i type="int" name="LMAXMIX">     2</i>
   </separator>
   <separator name="electronic startup" >
    <i type="int" name="ISTART">     0</i>
    <i type="int" name="ICHARG">     2</i>
    <i type="int" name="INIWAV">     1</i>
   </separator>
   <separator name="electronic spin" >
    <i type="int" name="ISPIN">     1</i>
    <i type="logical" name="LNONCOLLINEAR"> F  </i>
    <v name="MAGMOM">      1.00000000      1.00000000      1.00000000      1.00000000</v>
    <i name="NUPDOWN">     -1.00000000</i>
    <i type="logical" name="LSORBIT"> F  </i>
    <v name="SAXIS">      0.00000000      0.00000000      1.00000000</v>
    <i type="logical" name="LSPIRAL"> F  </i>
    <v name="QSPIRAL">      0.00000000      0.00000000      0.00000000</v>
    <i type="logical" name="LZEROZ"> F  </i>
   </separator>
   <separator name="electronic exchange-correlation" >
    <i type="string" name="GGA">--</i>
    <i type="int" name="VOSKOWN">     0</i>
    <i type="logical" name="LASPH"> F  </i>
    <i type="logical" name="LMETAGGA"> F  </i>
    <i type="string" name="GGA2">--</i>
   </separator>
   <separator name="electronic convergence" >
    <i type="int" name="NELM">    60</i>
    <i type="int" name="NELMDL">    -5</i>
    <i type="int" name="NELMIN">     2</i>
    <i name="ENINI">    500.00000000</i>
    <separator name="electronic convergence detail" >
     <i type="logical" name="LDIAG"> T  </i>
     <i name="WEIMIN">      0.00100000</i>
     <i name="EBREAK">      0.00000000</i>
     <i name="DEPER">      0.30000000</i>
     <i type="int" name="NRMM">     4</i>
     <i name="TIME">      0.10000000</i>
    </separator>
   </separator>
   <separator name="electronic mixer" >
    <i name="AMIX">      0.40000000</i>
    <i name="BMIX">      1.00000000</i>
    <i name="AMIN">      0.10000000</i>
    <i name="AMIX_MAG">      1.60000000</i>
    <i name="BMIX_MAG">      1.00000000</i>
    <separator name="electronic mixer details" >
     <i type="int" name="IMIX">     4</i>
     <i type="int" name="MAXMIX">   -45</i>
     <i name="WC">    100.00000000</i>
     <i type="int" name="INIMIX">     1</i>
     <i type="int" name="MIXPRE">     1</i>
     <i type="int" name="MREMOVE">     5</i>
    </separator>
   </separator>
   <separator name="electronic dipolcorrection" >
    <i type="int" name="IDIPOL">     0</i>
    <i type="logical" name="LDIPOL"> F  </i>
    <v name="DIPOL">   -100.00000000</v>
    <i name="EFIELD">      0.00000000</i>
   </separator>
  </separator>
  <separator name="grids" >
   <i type="int" name="NGX">    30</i>
   <i type="int" name="NGY">    30</i>
   <i type="int" name="NGZ">    30</i>
   <i type="int" name="NGXF">    60</i>
   <i type="int" name="NGYF">    60</i>
   <i type="int" name="NGZF">    60</i>
   <i type="logical" name="ADDGRID"> T  </i>
  </separator>
  <separator name="ionic" >
   <i type="int" name="NSW">   200</i>
   <i type="int" name="IBRION">     2</i>
   <i type="int" name="ISIF">     3</i>
   <i name="PSTRESS">      0.00000000</i>
   <i name="EDIFFG">      0.00000010</i>
   <i type="int" name="NFREE">     1</i>
   <i name="POTIM">      0.50000000</i>
   <i name="SMASS">     -3.00000000</i>
  </separator>
  <separator name="ionic md" >
   <i name="TEBEG">      0.00010000</i>
   <i name="TEEND">      0.00010000</i>
   <i type="int" name="NBLOCK">     1</i>
   <i type="int" name="KBLOCK">   200</i>
   <i type="int" name="NPACO">   256</i>
   <i name="APACO">     16.00000000</i>
  </separator>
  <separator name="symmetry" >
   <i type="int" name="ISYM">     2</i>
   <i name="SYMPREC">      0.00001000</i>
  </separator>
  <separator name="dos" >
   <i type="logical" name="LORBIT"> F  </i>
   <v name="RWIGS">     -1.00000000</v>
   <i type="int" name="NEDOS">   301</i>
   <i name="EMIN">     10.00000000</i>
   <i name="EMAX">    -10.00000000</i>
  </separator>
  <separator name="writing" >
   <i type="int" name="NWRITE">     2</i>
   <i type="logical" name="LWAVE"> F  </i>
   <i type="logical" name="LCHARG"> F  </i>
   <i type="logical" name="LPARD"> F  </i>
   <i type="logical" name="LVTOT"> F  </i>
   <i type="logical" name="LELF"> F  </i>
   <i type="logical" name="LOPTICS"> F  </i>
   <i name="STM">      0.00000000</i>
  </separator>
  <separator name="performance" >
   <i type="int" name="NPAR">     4</i>
   <i type="int" name="NSIM">     4</i>
   <i type="int" name="NBLK">   192</i>
   <i type="logical" name="LPLANE"> T  </i>
   <i type="logical" name="LCRITICAL_MEM"> F  </i>
   <i type="logical" name="LSCALAPACK"> F  </i>
   <i type="logical" name="LSCALU"> F  </i>
   <i type="logical" name="LASYNC"> F  </i>
  </separator>
  <separator name="miscellaneous" >
   <i type="int" name="IDIOT">     3</i>
   <i type="logical" name="LMUSIC"> F  </i>
   <v name="POMASS">    107.86800000</v>
   <i type="logical" name="LCORR"> T  </i>
  </separator>
  <i type="logical" name="LREAL_COMPAT"> F  </i>
  <i type="logical" name="GGA_COMPAT"> T  </i>
  <i type="logical" name="LBERRY"> F  </i>
  <i type="int" name="ICORELEVEL">     0</i>
  <i type="logical" name="LDAU"> F  </i>
  <i type="int" name="I_CONSTRAINED_M">     0</i>
 </parameters>
 <atominfo>
  <atoms>       4</atoms>
  <types>       1</types>
  <array name="atoms" >
   <dimension dim="1">ion</dimension>
   <field type="string">element</field>
   <field type="int">atomtype</field>
   <set>
    <rc><c>Ag</c><c>   1</c></rc>
    <rc><c>Ag</c><c>   1</c></rc>
    <rc><c>Ag</c><c>   1</c></rc>
    <rc><c>Ag</c><c>   1</c></rc>
   </set>
  </array>
  <array name="atomtypes" >
   <dimension dim="1">type</dimension>
   <field type="int">atomspertype</field>
   <field type="string">element</field>
   <field>mass</field>
   <field>valence</field>
   <field type="string">pseudopotential</field>
   <set>
    <rc><c>   4</c><c>Ag</c><c>    107.86800000</c><c>     11.00000000</c><c> PAW_PBE Ag 06Sep2000                   </c></rc>
   </set>
  </array>
 </atominfo>
 <structure name="initialpos" >
  <crystal>
   <varray name="basis" >
    <v>       4.16322478      0.00000000      0.00000000</v>
    <v>       0.00000000      4.16322478      0.00000000</v>
    <v>       0.00000000      0.00000000      4.16322478</v>
   </varray>
   <i name="volume">     72.15884616</i>
   <varray name="rec_basis" >
    <v>       0.24019842      0.00000000      0.00000000</v>
    <v>       0.00000000      0.24019842      0.00000000</v>
    <v>       0.00000000      0.00000000      0.24019842</v>
   </varray>
  </crystal>
  <varray name="positions" >
   <v>       0.00000000      0.00000000      0.00000000</v>
   <v>       0.50000000      0.50000000      0.00000000</v>
   <v>       0.50000000      0.00000000      0.50000000</v>
   <v>       0.00000000      0.50000000      0.50000000</v>
  </varray>
 </structure>
 <calculation>
  <scstep>
   <time name="dav">    2.57    2.59</time>
   <time name="total">    2.67    2.69</time>
   <energy>
    <i name="alphaZ">    393.74844240</i>
    <i name="ewald">  -3837.67204927</i>
    <i name="hartreedc">   -845.16707338</i>
    <i name="XCdc">    -43.39480634</i>
    <i name="pawpsdc">   3482.67677651</i>
    <i name="pawaedc">  -3297.07979946</i>
    <i name="eentropy">     -0.00018107</i>
    <i name="bandstr">    388.75214785</i>
    <i name="atom">   4149.63283719</i>
    <i name="e_fr_energy">    391.49629443</i>
    <i name="e_wo_entrp">    391.49647551</i>
    <i name="e_0_energy">    391.49638497</i>
   </energy>
  </scstep>
  <scstep>
   <time name="dav">    2.57    2.57</time>
   <time name="total">    2.57    2.57</time>
   <energy>
    <i name="e_fr_energy">      0.60792672</i>
    <i name="e_wo_entrp">      0.60799035</i>
    <i name="e_0_energy">      0.60795853</i>
   </energy>
  </scstep>
  <scstep>
   <time name="dav">    2.72    2.72</time>
   <time name="total">    2.72    2.73</time>
   <energy>
    <i name="e_fr_energy">    -12.12303259</i>
    <i name="e_wo_entrp">    -12.12295048</i>
    <i name="e_0_energy">    -12.12299153</i>
   </energy>
  </scstep>
  <scstep>
   <time name="dav">    2.66    2.67</time>
   <time name="total">    2.67    2.67</time>
   <energy>
    <i name="e_fr_energy">    -12.20707534</i>
    <i name="e_wo_entrp">    -12.20693627</i>
    <i name="e_0_energy">    -12.20700581</i>
   </energy>
  </scstep>
  <scstep>
   <time name="dav">    2.69    2.69</time>
   <time name="total">    2.93    2.93</time>
   <energy>
    <i name="e_fr_energy">    -12.20739917</i>
    <i name="e_wo_entrp">    -12.20726009</i>
    <i name="e_0_energy">    -12.20732963</i>
   </energy>
  </scstep>
  <scstep>
   <time name="dav">    2.65    2.65</time>
   <time name="total">    2.97    2.98</time>
   <energy>
    <i name="e_fr_energy">    -11.35139240</i>
    <i name="e_wo_entrp">    -11.35134167</i>
    <i name="e_0_energy">    -11.35136704</i>
   </energy>
  </scstep>
  <scstep>
   <time name="dav">    2.60    2.60</time>
   <time name="total">    2.93    2.93</time>
   <energy>
    <i name="e_fr_energy">    -11.32874868</i>
    <i name="e_wo_entrp">    -11.32865286</i>
    <i name="e_0_energy">    -11.32870077</i>
   </energy>
  </scstep>
  <scstep>
   <time name="dav">    2.63    2.63</time>
   <time name="total">    2.96    2.96</time>
   <energy>
    <i name="e_fr_energy">    -11.31836484</i>
    <i name="e_wo_entrp">    -11.31825197</i>
    <i name="e_0_energy">    -11.31830840</i>
   </energy>
  </scstep>
  <scstep>
   <time name="dav">    2.64    2.64</time>
   <time name="total">    2.97    2.97</time>
   <energy>
    <i name="e_fr_energy">    -11.31848747</i>
    <i name="e_wo_entrp">    -11.31836829</i>
    <i name="e_0_energy">    -11.31842788</i>
   </energy>
  </scstep>
  <scstep>
   <time name="dav">    2.62    2.62</time>
   <time name="total">    2.95    2.95</time>
   <energy>
    <i name="e_fr_energy">    -11.31846634</i>
    <i name="e_wo_entrp">    -11.31835063</i>
    <i name="e_0_energy">    -11.31840849</i>
   </energy>
  </scstep>
  <scstep>
   <time name="dav">    2.67    2.67</time>
   <time name="total">    3.00    3.00</time>
   <energy>
    <i name="e_fr_energy">    -11.31846519</i>
    <i name="e_wo_entrp">    -11.31834995</i>
    <i name="e_0_energy">    -11.31840757</i>
   </energy>
  </scstep>
  <scstep>
   <time name="dav">    2.30    2.30</time>
   <time name="total">    2.63    2.63</time>
   <energy>
    <i name="e_fr_energy">    -11.31846448</i>
    <i name="e_wo_entrp">    -11.31834936</i>
    <i name="e_0_energy">    -11.31840692</i>
   </energy>
  </scstep>
  <scstep>
   <time name="dav">    1.73    1.73</time>
   <time name="total">    2.06    2.06</time>
   <energy>
    <i name="e_fr_energy">    -11.31846439</i>
    <i name="e_wo_entrp">    -11.31834927</i>
    <i name="e_0_energy">    -11.31840683</i>
   </energy>
  </scstep>
  <scstep>
   <time name="dav">    1.70    1.70</time>
   <time name="total">    1.80    1.80</time>
   <energy>
    <i name="alphaZ">    393.74844240</i>
    <i name="ewald">  -3837.67204927</i>
    <i name="hartreedc">   -798.16733547</i>
    <i name="XCdc">    -45.12503174</i>
    <i name="pawpsdc">   3467.17884122</i>
    <i name="pawaedc">  -3290.02782031</i>
    <i name="eentropy">     -0.00011513</i>
    <i name="bandstr">    -50.88623329</i>
    <i name="atom">   4149.63283719</i>
    <i name="e_fr_energy">    -11.31846439</i>
    <i name="e_wo_entrp">    -11.31834926</i>
    <i name="e_0_energy">    -11.31840682</i>
   </energy>
  </scstep>
  <structure>
   <crystal>
    <varray name="basis" >
     <v>       4.16322478      0.00000000      0.00000000</v>
     <v>       0.00000000      4.16322478      0.00000000</v>
     <v>       0.00000000      0.00000000      4.16322478</v>
    </varray>
    <i name="volume">     72.15884616</i>
    <varray name="rec_basis" >
     <v>       0.24019842      0.00000000      0.00000000</v>
     <v>       0.00000000      0.24019842      0.00000000</v>
     <v>       0.00000000      0.00000000      0.24019842</v>
    </varray>
   </crystal>
   <varray name="positions" >
    <v>       0.00000000      0.00000000      0.00000000</v>
    <v>       0.50000000      0.50000000      0.00000000</v>
    <v>       0.50000000      0.00000000      0.50000000</v>
    <v>       0.00000000      0.50000000      0.50000000</v>
   </varray>
  </structure>
  <varray name="forces" >
   <v>       0.00000000      0.00000000     -0.00000000</v>
   <v>       0.00000000     -0.00000000      0.00000000</v>
   <v>      -0.00000000      0.00000000      0.00000000</v>
   <v>      -0.00000000     -0.00000000      0.00000000</v>
  </varray>
  <varray name="stress" >
   <v>       0.00470402      0.00000000      0.00000000</v>
   <v>       0.00000000      0.00470402      0.00000000</v>
   <v>       0.00000000      0.00000000      0.00470402</v>
  </varray>
  <energy>
   <i name="e_fr_energy">    -11.31846439</i>
   <i name="e_wo_entrp">    -11.31840682</i>
   <i name="e_0_energy">     -0.00011513</i>
  </energy>
  <eigenvalues>
   <array>
    <dimension dim="1">band</dimension>
    <dimension dim="2">kpoint</dimension>
    <dimension dim="3">spin</dimension>
    <field>eigene</field>
    <field>occ</field>
    <set>
     <set comment="spin 1">
      <set comment="kpoint 1">
       <r>  -4.3308  1.0000</r>
       <r>  -3.0794  1.0000</r>
       <r>  -3.0794  1.0000</r>
       <r>  -3.0794  1.0000</r>
       <r>  -2.9613  1.0000</r>
       <r>  -2.9613  1.0000</r>
       <r>  -2.9613  1.0000</r>
       <r>  -1.6031  1.0000</r>
       <r>  -1.6031  1.0000</r>
       <r>  -1.6031  1.0000</r>
       <r>  -0.6662  1.0000</r>
       <r>  -0.6662  1.0000</r>
       <r>   0.0249  1.0000</r>
       <r>   0.0249  1.0000</r>
       <r>   0.0249  1.0000</r>
       <r>   0.2418  1.0000</r>
       <r>   0.2418  1.0000</r>
       <r>   0.2418  1.0000</r>
       <r>   0.2418  1.0000</r>
       <r>   0.2418  1.0000</r>
       <r>   0.2418  1.0000</r>
       <r>   4.6999  0.0000</r>
       <r>   4.6999  0.0000</r>
       <r>   4.6999  0.0000</r>
       <r>   9.3561  0.0000</r>
       <r>   9.3561  0.0000</r>
       <r>   9.3561  0.0000</r>
       <r>  13.5778  0.0000</r>
      </set>
      <set comment="kpoint 2">
       <r>  -4.2611  1.0000</r>
       <r>  -3.0517  1.0000</r>
       <r>  -3.0436  1.0000</r>
       <r>  -3.0436  1.0000</r>
       <r>  -2.9404  1.0000</r>
       <r>  -2.9293  1.0000</r>
       <r>  -2.9293  1.0000</r>
       <r>  -1.6288  1.0000</r>
       <r>  -1.5788  1.0000</r>
       <r>  -1.5788  1.0000</r>
       <r>  -0.6919  1.0000</r>
       <r>  -0.6549  1.0000</r>
       <r>  -0.0094  1.0000</r>
       <r>  -0.0094  1.0000</r>
       <r>   0.0125  1.0000</r>
       <r>   0.1219  1.0000</r>
       <r>   0.1219  1.0000</r>
       <r>   0.1998  1.0000</r>
       <r>   0.1998  1.0000</r>
       <r>   0.2418  1.0000</r>
       <r>   0.2418  1.0000</r>
       <r>   4.2188  0.0000</r>
       <r>   4.8782  0.0000</r>
       <r>   4.8782  0.0000</r>
       <r>   9.3681  0.0000</r>
       <r>   9.3681  0.0000</r>
       <r>   9.9484  0.0000</r>
       <r>  13.3214  0.0000</r>
      </set>
      <set comment="kpoint 3">
       <r>  -4.0559  1.0000</r>
       <r>  -2.9724  1.0000</r>
       <r>  -2.9405  1.0000</r>
       <r>  -2.9405  1.0000</r>
       <r>  -2.8786  1.0000</r>
       <r>  -2.8335  1.0000</r>
       <r>  -2.8335  1.0000</r>
       <r>  -1.7037  1.0000</r>
       <r>  -1.5065  1.0000</r>
       <r>  -1.5065  1.0000</r>
       <r>  -0.7639  1.0000</r>
       <r>  -0.6219  1.0000</r>
       <r>  -0.1880  1.0000</r>
       <r>  -0.1880  1.0000</r>
       <r>  -0.1082  1.0000</r>
       <r>  -0.1082  1.0000</r>
       <r>  -0.0236  1.0000</r>
       <r>   0.0799  1.0000</r>
       <r>   0.0799  1.0000</r>
       <r>   0.2420  1.0000</r>
       <r>   0.2420  1.0000</r>
       <r>   3.1893  0.0000</r>
       <r>   5.3626  0.0000</r>
       <r>   5.3626  0.0000</r>
       <r>   9.4058  0.0000</r>
       <r>   9.4058  0.0000</r>
       <r>  11.3115  0.0000</r>
       <r>  12.6614  0.0000</r>
      </set>
      <set comment="kpoint 4">
       <r>  -3.7284  1.0000</r>
       <r>  -2.8530  1.0000</r>
       <r>  -2.7851  1.0000</r>
       <r>  -2.7851  1.0000</r>
       <r>  -2.7792  1.0000</r>
       <r>  -2.6744  1.0000</r>
       <r>  -2.6744  1.0000</r>
       <r>  -1.8210  1.0000</r>
       <r>  -1.3884  1.0000</r>
       <r>  -1.3884  1.0000</r>
       <r>  -0.8641  1.0000</r>
       <r>  -0.5955  1.0000</r>
       <r>  -0.5955  1.0000</r>
       <r>  -0.5690  1.0000</r>
       <r>  -0.2586  1.0000</r>
       <r>  -0.2586  1.0000</r>
       <r>  -0.1019  1.0000</r>
       <r>  -0.1019  1.0000</r>
       <r>  -0.0805  1.0000</r>
       <r>   0.2423  1.0000</r>
       <r>   0.2423  1.0000</r>
       <r>   2.0486  1.0000</r>
       <r>   6.0581  0.0000</r>
       <r>   6.0581  0.0000</r>
       <r>   9.4728  0.0000</r>
       <r>   9.4728  0.0000</r>
       <r>  11.7829  0.0000</r>
       <r>  11.7829  0.0000</r>
      </set>
      <set comment="kpoint 5">
       <r>  -3.3128  1.0000</r>
       <r>  -2.7175  1.0000</r>
       <r>  -2.6474  1.0000</r>
       <r>  -2.6061  1.0000</r>
       <r>  -2.6061  1.0000</r>
       <r>  -2.4535  1.0000</r>
       <r>  -2.4535  1.0000</r>
       <r>  -1.9706  1.0000</r>
       <r>  -1.2280  1.0000</r>
       <r>  -1.2280  1.0000</r>
       <r>  -1.0303  1.0000</r>
       <r>  -1.0303  1.0000</r>
       <r>  -0.9507  1.0000</r>
       <r>  -0.4995  1.0000</r>
       <r>  -0.4335  1.0000</r>
       <r>  -0.4335  1.0000</r>
       <r>  -0.3244  1.0000</r>
       <r>  -0.3244  1.0000</r>
       <r>  -0.1542  1.0000</r>
       <r>   0.2425  1.0000</r>
       <r>   0.2425  1.0000</r>
       <r>   0.9687  1.0000</r>
       <r>   6.8896  0.0000</r>
       <r>   6.8896  0.0000</r>
       <r>   9.5695  0.0000</r>
       <r>   9.5695  0.0000</r>
       <r>  10.8056  0.0000</r>
       <r>  10.8056  0.0000</r>
      </set>
      <set comment="kpoint 6">
       <r>  -2.8960  1.0000</r>
       <r>  -2.6140  1.0000</r>
       <r>  -2.4905  1.0000</r>
       <r>  -2.4524  1.0000</r>
       <r>  -2.4524  1.0000</r>
       <r>  -2.1727  1.0000</r>
       <r>  -2.1727  1.0000</r>
       <r>  -2.1404  1.0000</r>
       <r>  -1.4514  1.0000</r>
       <r>  -1.4514  1.0000</r>
       <r>  -1.0312  1.0000</r>
       <r>  -1.0312  1.0000</r>
       <r>  -0.9275  1.0000</r>
       <r>  -0.5849  1.0000</r>
       <r>  -0.5849  1.0000</r>
       <r>  -0.5658  1.0000</r>
       <r>  -0.5658  1.0000</r>
       <r>  -0.4177  1.0000</r>
       <r>  -0.2390  1.0000</r>
       <r>   0.0424  1.0000</r>
       <r>   0.2426  1.0000</r>
       <r>   0.2426  1.0000</r>
       <r>   7.8097  0.0000</r>
       <r>   7.8097  0.0000</r>
       <r>   9.6784  0.0000</r>
       <r>   9.6784  0.0000</r>
       <r>   9.7943  0.0000</r>
       <r>   9.7943  0.0000</r>
      </set>
      <set comment="kpoint 7">
       <r>  -2.6389  1.0000</r>
       <r>  -2.6389  1.0000</r>
       <r>  -2.3891  1.0000</r>
       <r>  -2.3891  1.0000</r>
       <r>  -2.3178  1.0000</r>
       <r>  -2.3178  1.0000</r>
       <r>  -1.8364  1.0000</r>
       <r>  -1.8364  1.0000</r>
       <r>  -1.8364  1.0000</r>
       <r>  -1.8364  1.0000</r>
       <r>  -0.8065  1.0000</r>
       <r>  -0.8065  1.0000</r>
       <r>  -0.8065  1.0000</r>
       <r>  -0.8065  1.0000</r>
       <r>  -0.6475  1.0000</r>
       <r>  -0.6475  1.0000</r>
       <r>  -0.6234  1.0000</r>
       <r>  -0.6234  1.0000</r>
       <r>  -0.3289  1.0000</r>
       <r>  -0.3289  1.0000</r>
       <r>   0.2427  1.0000</r>
       <r>   0.2427  1.0000</r>
       <r>   8.7866  0.0000</r>
       <r>   8.7866  0.0000</r>
       <r>   8.7866  0.0000</r>
       <r>   8.7866  0.0000</r>
       <r>   9.7347  0.0000</r>
       <r>   9.7347  0.0000</r>
      </set>
      <set comment="kpoint 8">
       <r>  -4.1925  1.0000</r>
       <r>  -3.0156  1.0000</r>
       <r>  -3.0156  1.0000</r>
       <r>  -3.0144  1.0000</r>
       <r>  -2.9088  1.0000</r>
       <r>  -2.9088  1.0000</r>
       <r>  -2.8919  1.0000</r>
       <r>  -1.6383  1.0000</r>
       <r>  -1.5700  1.0000</r>
       <r>  -1.5561  1.0000</r>
       <r>  -0.6987  1.0000</r>
       <r>  -0.6603  1.0000</r>
       <r>  -0.0422  1.0000</r>
       <r>  -0.0397  1.0000</r>
       <r>  -0.0397  1.0000</r>
       <r>   0.0388  1.0000</r>
       <r>   0.0974  1.0000</r>
       <r>   0.0974  1.0000</r>
       <r>   0.1997  1.0000</r>
       <r>   0.1997  1.0000</r>
       <r>   0.2128  1.0000</r>
       <r>   4.3889  0.0000</r>
       <r>   4.3889  0.0000</r>
       <r>   5.0490  0.0000</r>
       <r>   9.3799  0.0000</r>
       <r>   9.9688  0.0000</r>
       <r>   9.9688  0.0000</r>
       <r>  12.4980  0.0000</r>
      </set>
      <set comment="kpoint 9">
       <r>  -3.9901  1.0000</r>
       <r>  -2.9355  1.0000</r>
       <r>  -2.9281  1.0000</r>
       <r>  -2.9119  1.0000</r>
       <r>  -2.8483  1.0000</r>
       <r>  -2.8143  1.0000</r>
       <r>  -2.7833  1.0000</r>
       <r>  -1.7035  1.0000</r>
       <r>  -1.5055  1.0000</r>
       <r>  -1.4895  1.0000</r>
       <r>  -0.7608  1.0000</r>
       <r>  -0.6295  1.0000</r>
       <r>  -0.2773  1.0000</r>
       <r>  -0.2395  1.0000</r>
       <r>  -0.1390  1.0000</r>
       <r>  -0.1371  1.0000</r>
       <r>  -0.0724  1.0000</r>
       <r>   0.0382  1.0000</r>
       <r>   0.0795  1.0000</r>
       <r>   0.1982  1.0000</r>
       <r>   0.1995  1.0000</r>
       <r>   3.3547  0.0000</r>
       <r>   4.8446  0.0000</r>
       <r>   5.5171  0.0000</r>
       <r>   9.4149  0.0000</r>
       <r>  10.0312  0.0000</r>
       <r>  11.3375  0.0000</r>
       <r>  11.5608  0.0000</r>
      </set>
      <set comment="kpoint 10">
       <r>  -3.6677  1.0000</r>
       <r>  -2.8148  1.0000</r>
       <r>  -2.7897  1.0000</r>
       <r>  -2.7554  1.0000</r>
       <r>  -2.7510  1.0000</r>
       <r>  -2.6575  1.0000</r>
       <r>  -2.6139  1.0000</r>
       <r>  -1.8160  1.0000</r>
       <r>  -1.3891  1.0000</r>
       <r>  -1.3854  1.0000</r>
       <r>  -0.8502  1.0000</r>
       <r>  -0.6665  1.0000</r>
       <r>  -0.6267  1.0000</r>
       <r>  -0.5699  1.0000</r>
       <r>  -0.3093  1.0000</r>
       <r>  -0.2820  1.0000</r>
       <r>  -0.2355  1.0000</r>
       <r>  -0.1028  1.0000</r>
       <r>  -0.0380  1.0000</r>
       <r>   0.1954  1.0000</r>
       <r>   0.1991  1.0000</r>
       <r>   2.2216  1.0000</r>
       <r>   5.4847  0.0000</r>
       <r>   6.1962  0.0000</r>
       <r>   9.4612  0.0000</r>
       <r>  10.1355  0.0000</r>
       <r>  10.6463  0.0000</r>
       <r>  11.8868  0.0000</r>
      </set>
      <set comment="kpoint 11">
       <r>  -3.2593  1.0000</r>
       <r>  -2.6770  1.0000</r>
       <r>  -2.6220  1.0000</r>
       <r>  -2.6135  1.0000</r>
       <r>  -2.5749  1.0000</r>
       <r>  -2.4397  1.0000</r>
       <r>  -2.3994  1.0000</r>
       <r>  -1.9613  1.0000</r>
       <r>  -1.2712  1.0000</r>
       <r>  -1.2294  1.0000</r>
       <r>  -1.0864  1.0000</r>
       <r>  -1.0466  1.0000</r>
       <r>  -0.8975  1.0000</r>
       <r>  -0.5335  1.0000</r>
       <r>  -0.4892  1.0000</r>
       <r>  -0.4505  1.0000</r>
       <r>  -0.4161  1.0000</r>
       <r>  -0.3257  1.0000</r>
       <r>  -0.1290  1.0000</r>
       <r>   0.1952  1.0000</r>
       <r>   0.1985  1.0000</r>
       <r>   1.1639  1.0000</r>
       <r>   6.2304  0.0000</r>
       <r>   7.0145  0.0000</r>
       <r>   9.3514  0.0000</r>
       <r>   9.9710  0.0000</r>
       <r>  10.2595  0.0000</r>
       <r>  10.9080  0.0000</r>
      </set>
      <set comment="kpoint 12">
       <r>  -2.8489  1.0000</r>
       <r>  -2.5707  1.0000</r>
       <r>  -2.4686  1.0000</r>
       <r>  -2.4431  1.0000</r>
       <r>  -2.4205  1.0000</r>
       <r>  -2.1636  1.0000</r>
       <r>  -2.1484  1.0000</r>
       <r>  -2.1268  1.0000</r>
       <r>  -1.4887  1.0000</r>
       <r>  -1.4566  1.0000</r>
       <r>  -1.1918  1.0000</r>
       <r>  -1.0329  1.0000</r>
       <r>  -0.7923  1.0000</r>
       <r>  -0.7728  1.0000</r>
       <r>  -0.5947  1.0000</r>
       <r>  -0.5752  1.0000</r>
       <r>  -0.5674  1.0000</r>
       <r>  -0.3892  1.0000</r>
       <r>  -0.2403  1.0000</r>
       <r>   0.1959  1.0000</r>
       <r>   0.1977  1.0000</r>
       <r>   0.2851  1.0000</r>
       <r>   7.0312  0.0000</r>
       <r>   7.9247  0.0000</r>
       <r>   8.6755  0.0000</r>
       <r>   9.8982  0.0000</r>
       <r>   9.9527  0.0000</r>
       <r>  10.2965  0.0000</r>
      </set>
      <set comment="kpoint 13">
       <r>  -2.5937  1.0000</r>
       <r>  -2.5937  1.0000</r>
       <r>  -2.3623  1.0000</r>
       <r>  -2.3623  1.0000</r>
       <r>  -2.2999  1.0000</r>
       <r>  -2.2999  1.0000</r>
       <r>  -1.8473  1.0000</r>
       <r>  -1.8473  1.0000</r>
       <r>  -1.8333  1.0000</r>
       <r>  -1.8333  1.0000</r>
       <r>  -1.0447  1.0000</r>
       <r>  -1.0447  1.0000</r>
       <r>  -0.8083  1.0000</r>
       <r>  -0.8083  1.0000</r>
       <r>  -0.6480  1.0000</r>
       <r>  -0.6480  1.0000</r>
       <r>  -0.4578  1.0000</r>
       <r>  -0.4578  1.0000</r>
       <r>  -0.2371  1.0000</r>
       <r>  -0.2371  1.0000</r>
       <r>   0.1968  1.0000</r>
       <r>   0.1968  1.0000</r>
       <r>   7.8551  0.0000</r>
       <r>   7.8551  0.0000</r>
       <r>   8.8947  0.0000</r>
       <r>   8.8947  0.0000</r>
       <r>  10.1429  0.0000</r>
       <r>  10.1429  0.0000</r>
      </set>
      <set comment="kpoint 14">
       <r>  -3.7970  1.0000</r>
       <r>  -2.8731  1.0000</r>
       <r>  -2.8296  1.0000</r>
       <r>  -2.8296  1.0000</r>
       <r>  -2.7577  1.0000</r>
       <r>  -2.7577  1.0000</r>
       <r>  -2.6553  1.0000</r>
       <r>  -1.7307  1.0000</r>
       <r>  -1.4734  1.0000</r>
       <r>  -1.4404  1.0000</r>
       <r>  -0.7847  1.0000</r>
       <r>  -0.6131  1.0000</r>
       <r>  -0.4434  1.0000</r>
       <r>  -0.4434  1.0000</r>
       <r>  -0.4229  1.0000</r>
       <r>  -0.2213  1.0000</r>
       <r>  -0.0624  1.0000</r>
       <r>  -0.0624  1.0000</r>
       <r>   0.0782  1.0000</r>
       <r>   0.0782  1.0000</r>
       <r>   0.1272  1.0000</r>
       <r>   3.7863  0.0000</r>
       <r>   3.7863  0.0000</r>
       <r>   5.9483  0.0000</r>
       <r>   9.4209  0.0000</r>
       <r>  10.4823  0.0000</r>
       <r>  11.4066  0.0000</r>
       <r>  11.4066  0.0000</r>
      </set>
      <set comment="kpoint 15">
       <r>  -3.4907  1.0000</r>
       <r>  -2.7640  1.0000</r>
       <r>  -2.7046  1.0000</r>
       <r>  -2.6693  1.0000</r>
       <r>  -2.6667  1.0000</r>
       <r>  -2.6075  1.0000</r>
       <r>  -2.4759  1.0000</r>
       <r>  -1.8141  1.0000</r>
       <r>  -1.3775  1.0000</r>
       <r>  -1.3718  1.0000</r>
       <r>  -0.8470  1.0000</r>
       <r>  -0.8301  1.0000</r>
       <r>  -0.7325  1.0000</r>
       <r>  -0.6521  1.0000</r>
       <r>  -0.5346  1.0000</r>
       <r>  -0.3509  1.0000</r>
       <r>  -0.2122  1.0000</r>
       <r>  -0.1053  1.0000</r>
       <r>  -0.1001  1.0000</r>
       <r>   0.0763  1.0000</r>
       <r>   0.0889  1.0000</r>
       <r>   2.6538  1.0000</r>
       <r>   4.3769  0.0000</r>
       <r>   6.5878  0.0000</r>
       <r>   9.1213  0.0000</r>
       <r>   9.8240  0.0000</r>
       <r>  11.4552  0.0000</r>
       <r>  12.1902  0.0000</r>
      </set>
      <set comment="kpoint 16">
       <r>  -3.1051  1.0000</r>
       <r>  -2.6050  1.0000</r>
       <r>  -2.5601  1.0000</r>
       <r>  -2.5464  1.0000</r>
       <r>  -2.4838  1.0000</r>
       <r>  -2.3997  1.0000</r>
       <r>  -2.2711  1.0000</r>
       <r>  -1.9397  1.0000</r>
       <r>  -1.3307  1.0000</r>
       <r>  -1.2267  1.0000</r>
       <r>  -1.2251  1.0000</r>
       <r>  -1.1006  1.0000</r>
       <r>  -0.8897  1.0000</r>
       <r>  -0.8555  1.0000</r>
       <r>  -0.5023  1.0000</r>
       <r>  -0.4055  1.0000</r>
       <r>  -0.3926  1.0000</r>
       <r>  -0.3292  1.0000</r>
       <r>  -0.1835  1.0000</r>
       <r>   0.0739  1.0000</r>
       <r>   0.0741  1.0000</r>
       <r>   1.6113  1.0000</r>
       <r>   5.0560  0.0000</r>
       <r>   7.3726  0.0000</r>
       <r>   8.2680  0.0000</r>
       <r>   9.8623  0.0000</r>
       <r>  11.2069  0.0000</r>
       <r>  11.2471  0.0000</r>
      </set>
      <set comment="kpoint 17">
       <r>  -2.7159  1.0000</r>
       <r>  -2.4453  1.0000</r>
       <r>  -2.4191  1.0000</r>
       <r>  -2.4038  1.0000</r>
       <r>  -2.3272  1.0000</r>
       <r>  -2.1373  1.0000</r>
       <r>  -2.0890  1.0000</r>
       <r>  -2.0718  1.0000</r>
       <r>  -1.5842  1.0000</r>
       <r>  -1.4748  1.0000</r>
       <r>  -1.3505  1.0000</r>
       <r>  -1.1327  1.0000</r>
       <r>  -1.0343  1.0000</r>
       <r>  -0.7182  1.0000</r>
       <r>  -0.6276  1.0000</r>
       <r>  -0.5711  1.0000</r>
       <r>  -0.5628  1.0000</r>
       <r>  -0.3132  1.0000</r>
       <r>  -0.2101  1.0000</r>
       <r>   0.0696  1.0000</r>
       <r>   0.0714  1.0000</r>
       <r>   0.7464  1.0000</r>
       <r>   5.7899  0.0000</r>
       <r>   7.3927  0.0000</r>
       <r>   8.2571  0.0000</r>
       <r>  10.0771  0.0000</r>
       <r>  10.2010  0.0000</r>
       <r>  10.8086  0.0000</r>
      </set>
      <set comment="kpoint 18">
       <r>  -2.4651  1.0000</r>
       <r>  -2.4651  1.0000</r>
       <r>  -2.2898  1.0000</r>
       <r>  -2.2898  1.0000</r>
       <r>  -2.2478  1.0000</r>
       <r>  -2.2478  1.0000</r>
       <r>  -1.8680  1.0000</r>
       <r>  -1.8680  1.0000</r>
       <r>  -1.8259  1.0000</r>
       <r>  -1.8259  1.0000</r>
       <r>  -1.3129  1.0000</r>
       <r>  -1.3129  1.0000</r>
       <r>  -0.8115  1.0000</r>
       <r>  -0.8115  1.0000</r>
       <r>  -0.6578  1.0000</r>
       <r>  -0.6578  1.0000</r>
       <r>  -0.4990  1.0000</r>
       <r>  -0.4990  1.0000</r>
       <r>   0.0695  1.0000</r>
       <r>   0.0695  1.0000</r>
       <r>   0.1358  1.0000</r>
       <r>   0.1358  1.0000</r>
       <r>   6.5677  0.0000</r>
       <r>   6.5677  0.0000</r>
       <r>   9.2087  0.0000</r>
       <r>   9.2087  0.0000</r>
       <r>  10.3962  0.0000</r>
       <r>  10.3962  0.0000</r>
      </set>
      <set comment="kpoint 19">
       <r>  -3.2138  1.0000</r>
       <r>  -2.6871  1.0000</r>
       <r>  -2.5371  1.0000</r>
       <r>  -2.5371  1.0000</r>
       <r>  -2.5276  1.0000</r>
       <r>  -2.5276  1.0000</r>
       <r>  -2.2951  1.0000</r>
       <r>  -1.8455  1.0000</r>
       <r>  -1.3476  1.0000</r>
       <r>  -1.3203  1.0000</r>
       <r>  -1.0348  1.0000</r>
       <r>  -1.0348  1.0000</r>
       <r>  -0.9307  1.0000</r>
       <r>  -0.8940  1.0000</r>
       <r>  -0.4593  1.0000</r>
       <r>  -0.4076  1.0000</r>
       <r>  -0.2318  1.0000</r>
       <r>  -0.2318  1.0000</r>
       <r>  -0.1088  1.0000</r>
       <r>  -0.1088  1.0000</r>
       <r>  -0.0109  1.0000</r>
       <r>   3.2245  0.0000</r>
       <r>   3.2245  0.0000</r>
       <r>   7.1817  0.0000</r>
       <r>   8.1146  0.0000</r>
       <r>   9.8219  0.0000</r>
       <r>  12.5087  0.0000</r>
       <r>  12.5087  0.0000</r>
      </set>
      <set comment="kpoint 20">
       <r>  -2.8710  1.0000</r>
       <r>  -2.5579  1.0000</r>
       <r>  -2.4226  1.0000</r>
       <r>  -2.3807  1.0000</r>
       <r>  -2.3414  1.0000</r>
       <r>  -2.3363  1.0000</r>
       <r>  -2.1015  1.0000</r>
       <r>  -1.9242  1.0000</r>
       <r>  -1.4010  1.0000</r>
       <r>  -1.3556  1.0000</r>
       <r>  -1.2531  1.0000</r>
       <r>  -1.2055  1.0000</r>
       <r>  -1.1994  1.0000</r>
       <r>  -0.9120  1.0000</r>
       <r>  -0.5882  1.0000</r>
       <r>  -0.4041  1.0000</r>
       <r>  -0.3334  1.0000</r>
       <r>  -0.3070  1.0000</r>
       <r>  -0.1926  1.0000</r>
       <r>  -0.1125  1.0000</r>
       <r>  -0.0717  1.0000</r>
       <r>   2.1702  1.0000</r>
       <r>   3.8734  0.0000</r>
       <r>   7.1057  0.0000</r>
       <r>   7.9252  0.0000</r>
       <r>   9.9985  0.0000</r>
       <r>  11.6796  0.0000</r>
       <r>  11.8029  0.0000</r>
      </set>
      <set comment="kpoint 21">
       <r>  -2.5243  1.0000</r>
       <r>  -2.3831  1.0000</r>
       <r>  -2.2996  1.0000</r>
       <r>  -2.2527  1.0000</r>
       <r>  -2.1804  1.0000</r>
       <r>  -2.0974  1.0000</r>
       <r>  -2.0375  1.0000</r>
       <r>  -1.9434  1.0000</r>
       <r>  -1.7060  1.0000</r>
       <r>  -1.5137  1.0000</r>
       <r>  -1.4473  1.0000</r>
       <r>  -1.4438  1.0000</r>
       <r>  -1.0240  1.0000</r>
       <r>  -0.8060  1.0000</r>
       <r>  -0.6910  1.0000</r>
       <r>  -0.5794  1.0000</r>
       <r>  -0.5741  1.0000</r>
       <r>  -0.4400  1.0000</r>
       <r>  -0.1146  1.0000</r>
       <r>  -0.1010  1.0000</r>
       <r>   0.1236  1.0000</r>
       <r>   1.2796  1.0000</r>
       <r>   4.5806  0.0000</r>
       <r>   6.1841  0.0000</r>
       <r>   8.7762  0.0000</r>
       <r>  10.2773  0.0000</r>
       <r>  10.6792  0.0000</r>
       <r>  11.1744  0.0000</r>
      </set>
      <set comment="kpoint 22">
       <r>  -2.2787  1.0000</r>
       <r>  -2.2787  1.0000</r>
       <r>  -2.2010  1.0000</r>
       <r>  -2.2010  1.0000</r>
       <r>  -2.1674  1.0000</r>
       <r>  -2.1674  1.0000</r>
       <r>  -1.8601  1.0000</r>
       <r>  -1.8601  1.0000</r>
       <r>  -1.8187  1.0000</r>
       <r>  -1.8187  1.0000</r>
       <r>  -1.5218  1.0000</r>
       <r>  -1.5218  1.0000</r>
       <r>  -0.8102  1.0000</r>
       <r>  -0.8102  1.0000</r>
       <r>  -0.6954  1.0000</r>
       <r>  -0.6954  1.0000</r>
       <r>  -0.6207  1.0000</r>
       <r>  -0.6207  1.0000</r>
       <r>  -0.1124  1.0000</r>
       <r>  -0.1124  1.0000</r>
       <r>   0.5966  1.0000</r>
       <r>   0.5966  1.0000</r>
       <r>   5.3470  0.0000</r>
       <r>   5.3470  0.0000</r>
       <r>   9.7029  0.0000</r>
       <r>   9.7029  0.0000</r>
       <r>  10.6657  0.0000</r>
       <r>  10.6657  0.0000</r>
      </set>
      <set comment="kpoint 23">
       <r>  -2.5946  1.0000</r>
       <r>  -2.4663  1.0000</r>
       <r>  -2.2548  1.0000</r>
       <r>  -2.2548  1.0000</r>
       <r>  -2.1660  1.0000</r>
       <r>  -2.1660  1.0000</r>
       <r>  -1.9379  1.0000</r>
       <r>  -1.9201  1.0000</r>
       <r>  -1.5826  1.0000</r>
       <r>  -1.5826  1.0000</r>
       <r>  -1.3703  1.0000</r>
       <r>  -1.3642  1.0000</r>
       <r>  -1.1219  1.0000</r>
       <r>  -0.9883  1.0000</r>
       <r>  -0.6970  1.0000</r>
       <r>  -0.4728  1.0000</r>
       <r>  -0.4728  1.0000</r>
       <r>  -0.3357  1.0000</r>
       <r>  -0.3357  1.0000</r>
       <r>  -0.1944  1.0000</r>
       <r>   0.1246  1.0000</r>
       <r>   2.7963  1.0000</r>
       <r>   2.7963  1.0000</r>
       <r>   6.0426  0.0000</r>
       <r>   8.6285  0.0000</r>
       <r>  10.2335  0.0000</r>
       <r>  12.3099  0.0000</r>
       <r>  12.3182  0.0000</r>
      </set>
      <set comment="kpoint 24">
       <r>  -2.3282  1.0000</r>
       <r>  -2.3248  1.0000</r>
       <r>  -2.1625  1.0000</r>
       <r>  -2.0499  1.0000</r>
       <r>  -2.0221  1.0000</r>
       <r>  -1.9966  1.0000</r>
       <r>  -1.9896  1.0000</r>
       <r>  -1.8248  1.0000</r>
       <r>  -1.7823  1.0000</r>
       <r>  -1.7130  1.0000</r>
       <r>  -1.5843  1.0000</r>
       <r>  -1.4559  1.0000</r>
       <r>  -0.9834  1.0000</r>
       <r>  -0.9436  1.0000</r>
       <r>  -0.7866  1.0000</r>
       <r>  -0.6490  1.0000</r>
       <r>  -0.6040  1.0000</r>
       <r>  -0.5705  1.0000</r>
       <r>  -0.3318  1.0000</r>
       <r>  -0.2733  1.0000</r>
       <r>   0.5507  1.0000</r>
       <r>   1.8708  1.0000</r>
       <r>   3.4839  0.0000</r>
       <r>   5.0909  0.0000</r>
       <r>   9.4450  0.0000</r>
       <r>  10.5712  0.0000</r>
       <r>  11.3028  0.0000</r>
       <r>  11.6079  0.0000</r>
      </set>
      <set comment="kpoint 25">
       <r>  -2.1453  1.0000</r>
       <r>  -2.1453  1.0000</r>
       <r>  -2.1035  1.0000</r>
       <r>  -2.1035  1.0000</r>
       <r>  -2.0696  1.0000</r>
       <r>  -2.0696  1.0000</r>
       <r>  -1.8200  1.0000</r>
       <r>  -1.8200  1.0000</r>
       <r>  -1.7709  1.0000</r>
       <r>  -1.7709  1.0000</r>
       <r>  -1.6257  1.0000</r>
       <r>  -1.6257  1.0000</r>
       <r>  -0.7934  1.0000</r>
       <r>  -0.7934  1.0000</r>
       <r>  -0.7804  1.0000</r>
       <r>  -0.7804  1.0000</r>
       <r>  -0.7773  1.0000</r>
       <r>  -0.7773  1.0000</r>
       <r>  -0.3146  1.0000</r>
       <r>  -0.3146  1.0000</r>
       <r>   1.1224  1.0000</r>
       <r>   1.1224  1.0000</r>
       <r>   4.2433  0.0000</r>
       <r>   4.2433  0.0000</r>
       <r>  10.3446  0.0000</r>
       <r>  10.3446  0.0000</r>
       <r>  11.0252  0.0000</r>
       <r>  11.0252  0.0000</r>
      </set>
      <set comment="kpoint 26">
       <r>  -2.2434  1.0000</r>
       <r>  -2.1686  1.0000</r>
       <r>  -2.0038  1.0000</r>
       <r>  -2.0038  1.0000</r>
       <r>  -1.9645  1.0000</r>
       <r>  -1.9577  1.0000</r>
       <r>  -1.9577  1.0000</r>
       <r>  -1.7639  1.0000</r>
       <r>  -1.7639  1.0000</r>
       <r>  -1.6948  1.0000</r>
       <r>  -1.6387  1.0000</r>
       <r>  -1.4421  1.0000</r>
       <r>  -1.0325  1.0000</r>
       <r>  -0.8931  1.0000</r>
       <r>  -0.8873  1.0000</r>
       <r>  -0.7783  1.0000</r>
       <r>  -0.7783  1.0000</r>
       <r>  -0.5511  1.0000</r>
       <r>  -0.5511  1.0000</r>
       <r>  -0.4123  1.0000</r>
       <r>   1.0767  1.0000</r>
       <r>   2.5292  1.0000</r>
       <r>   2.5292  1.0000</r>
       <r>   4.1221  0.0000</r>
       <r>  10.2298  0.0000</r>
       <r>  10.9723  0.0000</r>
       <r>  12.0416  0.0000</r>
       <r>  12.0426  0.0000</r>
      </set>
      <set comment="kpoint 27">
       <r>  -2.1198  1.0000</r>
       <r>  -2.1198  1.0000</r>
       <r>  -2.0562  1.0000</r>
       <r>  -2.0562  1.0000</r>
       <r>  -1.9711  1.0000</r>
       <r>  -1.9711  1.0000</r>
       <r>  -1.8407  1.0000</r>
       <r>  -1.8407  1.0000</r>
       <r>  -1.6180  1.0000</r>
       <r>  -1.6180  1.0000</r>
       <r>  -1.5626  1.0000</r>
       <r>  -1.5626  1.0000</r>
       <r>  -0.9414  1.0000</r>
       <r>  -0.9414  1.0000</r>
       <r>  -0.9010  1.0000</r>
       <r>  -0.9010  1.0000</r>
       <r>  -0.7455  1.0000</r>
       <r>  -0.7455  1.0000</r>
       <r>  -0.5031  1.0000</r>
       <r>  -0.5031  1.0000</r>
       <r>   1.7286  1.0000</r>
       <r>   1.7286  1.0000</r>
       <r>   3.2730  0.0000</r>
       <r>   3.2730  0.0000</r>
       <r>  11.1029  0.0000</r>
       <r>  11.1029  0.0000</r>
       <r>  11.4933  0.0000</r>
       <r>  11.4933  0.0000</r>
      </set>
      <set comment="kpoint 28">
       <r>  -2.0892  1.0000</r>
       <r>  -2.0892  1.0000</r>
       <r>  -2.0892  1.0000</r>
       <r>  -2.0892  1.0000</r>
       <r>  -1.8907  1.0000</r>
       <r>  -1.8907  1.0000</r>
       <r>  -1.8907  1.0000</r>
       <r>  -1.8907  1.0000</r>
       <r>  -1.5057  1.0000</r>
       <r>  -1.5057  1.0000</r>
       <r>  -1.5057  1.0000</r>
       <r>  -1.5057  1.0000</r>
       <r>  -1.0020  1.0000</r>
       <r>  -1.0020  1.0000</r>
       <r>  -1.0020  1.0000</r>
       <r>  -1.0020  1.0000</r>
       <r>  -0.6508  1.0000</r>
       <r>  -0.6508  1.0000</r>
       <r>  -0.6508  1.0000</r>
       <r>  -0.6508  1.0000</r>
       <r>   2.4384  1.0000</r>
       <r>   2.4384  1.0000</r>
       <r>   2.4384  1.0000</r>
       <r>   2.4384  1.0000</r>
       <r>  11.9514  0.0000</r>
       <r>  11.9514  0.0000</r>
       <r>  11.9514  0.0000</r>
       <r>  11.9514  0.0000</r>
      </set>
      <set comment="kpoint 29">
       <r>  -4.1250  1.0000</r>
       <r>  -2.9872  1.0000</r>
       <r>  -2.9872  1.0000</r>
       <r>  -2.9872  1.0000</r>
       <r>  -2.8710  1.0000</r>
       <r>  -2.8710  1.0000</r>
       <r>  -2.8710  1.0000</r>
       <r>  -1.6443  1.0000</r>
       <r>  -1.5495  1.0000</r>
       <r>  -1.5495  1.0000</r>
       <r>  -0.6845  1.0000</r>
       <r>  -0.6845  1.0000</r>
       <r>  -0.0717  1.0000</r>
       <r>  -0.0717  1.0000</r>
       <r>  -0.0717  1.0000</r>
       <r>  -0.0068  1.0000</r>
       <r>  -0.0068  1.0000</r>
       <r>  -0.0068  1.0000</r>
       <r>   0.1913  1.0000</r>
       <r>   0.1913  1.0000</r>
       <r>   0.1913  1.0000</r>
       <r>   4.5504  0.0000</r>
       <r>   4.5504  0.0000</r>
       <r>   4.5504  0.0000</r>
       <r>   9.9878  0.0000</r>
       <r>   9.9878  0.0000</r>
       <r>   9.9878  0.0000</r>
       <r>  12.6078  0.0000</r>
      </set>
      <set comment="kpoint 30">
       <r>  -3.9263  1.0000</r>
       <r>  -2.9098  1.0000</r>
       <r>  -2.9024  1.0000</r>
       <r>  -2.9024  1.0000</r>
       <r>  -2.8086  1.0000</r>
       <r>  -2.7618  1.0000</r>
       <r>  -2.7618  1.0000</r>
       <r>  -1.6993  1.0000</r>
       <r>  -1.4926  1.0000</r>
       <r>  -1.4884  1.0000</r>
       <r>  -0.7501  1.0000</r>
       <r>  -0.6426  1.0000</r>
       <r>  -0.3095  1.0000</r>
       <r>  -0.3095  1.0000</r>
       <r>  -0.1603  1.0000</r>
       <r>  -0.1410  1.0000</r>
       <r>  -0.1410  1.0000</r>
       <r>  -0.1380  1.0000</r>
       <r>   0.1328  1.0000</r>
       <r>   0.1781  1.0000</r>
       <r>   0.1781  1.0000</r>
       <r>   3.5083  0.0000</r>
       <r>   4.9875  0.0000</r>
       <r>   4.9875  0.0000</r>
       <r>  10.0399  0.0000</r>
       <r>  10.0399  0.0000</r>
       <r>  11.3545  0.0000</r>
       <r>  11.6765  0.0000</r>
      </set>
      <set comment="kpoint 31">
       <r>  -3.6105  1.0000</r>
       <r>  -2.7957  1.0000</r>
       <r>  -2.7652  1.0000</r>
       <r>  -2.7652  1.0000</r>
       <r>  -2.7057  1.0000</r>
       <r>  -2.5928  1.0000</r>
       <r>  -2.5928  1.0000</r>
       <r>  -1.8048  1.0000</r>
       <r>  -1.3886  1.0000</r>
       <r>  -1.3882  1.0000</r>
       <r>  -0.8297  1.0000</r>
       <r>  -0.6905  1.0000</r>
       <r>  -0.6905  1.0000</r>
       <r>  -0.5758  1.0000</r>
       <r>  -0.3408  1.0000</r>
       <r>  -0.3030  1.0000</r>
       <r>  -0.2785  1.0000</r>
       <r>  -0.2785  1.0000</r>
       <r>   0.0493  1.0000</r>
       <r>   0.1683  1.0000</r>
       <r>   0.1683  1.0000</r>
       <r>   2.3753  1.0000</r>
       <r>   5.6089  0.0000</r>
       <r>   5.6089  0.0000</r>
       <r>  10.0571  0.0000</r>
       <r>  10.0571  0.0000</r>
       <r>  10.8389  0.0000</r>
       <r>  10.8389  0.0000</r>
      </set>
      <set comment="kpoint 32">
       <r>  -3.2123  1.0000</r>
       <r>  -2.6674  1.0000</r>
       <r>  -2.5884  1.0000</r>
       <r>  -2.5884  1.0000</r>
       <r>  -2.5684  1.0000</r>
       <r>  -2.3821  1.0000</r>
       <r>  -2.3821  1.0000</r>
       <r>  -1.9430  1.0000</r>
       <r>  -1.2914  1.0000</r>
       <r>  -1.2517  1.0000</r>
       <r>  -1.0972  1.0000</r>
       <r>  -1.0972  1.0000</r>
       <r>  -0.8396  1.0000</r>
       <r>  -0.5966  1.0000</r>
       <r>  -0.4883  1.0000</r>
       <r>  -0.4854  1.0000</r>
       <r>  -0.4447  1.0000</r>
       <r>  -0.4447  1.0000</r>
       <r>  -0.0503  1.0000</r>
       <r>   0.1629  1.0000</r>
       <r>   0.1629  1.0000</r>
       <r>   1.3205  1.0000</r>
       <r>   6.3390  0.0000</r>
       <r>   6.3390  0.0000</r>
       <r>   9.5859  0.0000</r>
       <r>   9.5859  0.0000</r>
       <r>  10.5988  0.0000</r>
       <r>  10.5988  0.0000</r>
      </set>
      <set comment="kpoint 33">
       <r>  -2.8144  1.0000</r>
       <r>  -2.5605  1.0000</r>
       <r>  -2.4163  1.0000</r>
       <r>  -2.4143  1.0000</r>
       <r>  -2.4143  1.0000</r>
       <r>  -2.1433  1.0000</r>
       <r>  -2.1433  1.0000</r>
       <r>  -2.0998  1.0000</r>
       <r>  -1.4845  1.0000</r>
       <r>  -1.4845  1.0000</r>
       <r>  -1.2495  1.0000</r>
       <r>  -1.0840  1.0000</r>
       <r>  -0.8816  1.0000</r>
       <r>  -0.6880  1.0000</r>
       <r>  -0.6473  1.0000</r>
       <r>  -0.5932  1.0000</r>
       <r>  -0.5932  1.0000</r>
       <r>  -0.3855  1.0000</r>
       <r>  -0.1600  1.0000</r>
       <r>   0.1602  1.0000</r>
       <r>   0.1602  1.0000</r>
       <r>   0.4309  1.0000</r>
       <r>   7.1281  0.0000</r>
       <r>   7.1281  0.0000</r>
       <r>   8.7768  0.0000</r>
       <r>   8.7768  0.0000</r>
       <r>  10.7967  0.0000</r>
       <r>  10.7967  0.0000</r>
      </set>
      <set comment="kpoint 34">
       <r>  -2.5714  1.0000</r>
       <r>  -2.5714  1.0000</r>
       <r>  -2.3359  1.0000</r>
       <r>  -2.3359  1.0000</r>
       <r>  -2.2610  1.0000</r>
       <r>  -2.2610  1.0000</r>
       <r>  -1.9218  1.0000</r>
       <r>  -1.9218  1.0000</r>
       <r>  -1.7644  1.0000</r>
       <r>  -1.7644  1.0000</r>
       <r>  -1.1331  1.0000</r>
       <r>  -1.1331  1.0000</r>
       <r>  -0.8924  1.0000</r>
       <r>  -0.8924  1.0000</r>
       <r>  -0.6559  1.0000</r>
       <r>  -0.6559  1.0000</r>
       <r>  -0.2739  1.0000</r>
       <r>  -0.2739  1.0000</r>
       <r>  -0.2290  1.0000</r>
       <r>  -0.2290  1.0000</r>
       <r>   0.1595  1.0000</r>
       <r>   0.1595  1.0000</r>
       <r>   7.9253  0.0000</r>
       <r>   7.9253  0.0000</r>
       <r>   7.9677  0.0000</r>
       <r>   7.9677  0.0000</r>
       <r>  10.9586  0.0000</r>
       <r>  10.9586  0.0000</r>
      </set>
      <set comment="kpoint 35">
       <r>  -3.7392  1.0000</r>
       <r>  -2.8512  1.0000</r>
       <r>  -2.8306  1.0000</r>
       <r>  -2.8306  1.0000</r>
       <r>  -2.6963  1.0000</r>
       <r>  -2.6963  1.0000</r>
       <r>  -2.6317  1.0000</r>
       <r>  -1.7141  1.0000</r>
       <r>  -1.4663  1.0000</r>
       <r>  -1.4457  1.0000</r>
       <r>  -0.7593  1.0000</r>
       <r>  -0.6342  1.0000</r>
       <r>  -0.4682  1.0000</r>
       <r>  -0.4653  1.0000</r>
       <r>  -0.4653  1.0000</r>
       <r>  -0.2726  1.0000</r>
       <r>  -0.2055  1.0000</r>
       <r>  -0.2055  1.0000</r>
       <r>   0.1272  1.0000</r>
       <r>   0.1272  1.0000</r>
       <r>   0.1361  1.0000</r>
       <r>   3.9164  0.0000</r>
       <r>   3.9164  0.0000</r>
       <r>   5.3824  0.0000</r>
       <r>   9.9704  0.0000</r>
       <r>  10.7037  0.0000</r>
       <r>  11.3314  0.0000</r>
       <r>  11.3314  0.0000</r>
      </set>
      <set comment="kpoint 36">
       <r>  -3.4446  1.0000</r>
       <r>  -2.7454  1.0000</r>
       <r>  -2.7279  1.0000</r>
       <r>  -2.6983  1.0000</r>
       <r>  -2.5855  1.0000</r>
       <r>  -2.5271  1.0000</r>
       <r>  -2.4526  1.0000</r>
       <r>  -1.7834  1.0000</r>
       <r>  -1.3852  1.0000</r>
       <r>  -1.3789  1.0000</r>
       <r>  -0.8440  1.0000</r>
       <r>  -0.8096  1.0000</r>
       <r>  -0.7781  1.0000</r>
       <r>  -0.6717  1.0000</r>
       <r>  -0.5525  1.0000</r>
       <r>  -0.3911  1.0000</r>
       <r>  -0.3460  1.0000</r>
       <r>  -0.3079  1.0000</r>
       <r>   0.0555  1.0000</r>
       <r>   0.0978  1.0000</r>
       <r>   0.0991  1.0000</r>
       <r>   2.7738  1.0000</r>
       <r>   4.4850  0.0000</r>
       <r>   5.9574  0.0000</r>
       <r>   9.2844  0.0000</r>
       <r>  10.4883  0.0000</r>
       <r>  10.7715  0.0000</r>
       <r>  11.8423  0.0000</r>
      </set>
      <set comment="kpoint 37">
       <r>  -3.0791  1.0000</r>
       <r>  -2.6143  1.0000</r>
       <r>  -2.5886  1.0000</r>
       <r>  -2.5214  1.0000</r>
       <r>  -2.4374  1.0000</r>
       <r>  -2.3260  1.0000</r>
       <r>  -2.2532  1.0000</r>
       <r>  -1.8930  1.0000</r>
       <r>  -1.3404  1.0000</r>
       <r>  -1.2650  1.0000</r>
       <r>  -1.2235  1.0000</r>
       <r>  -1.1351  1.0000</r>
       <r>  -0.9118  1.0000</r>
       <r>  -0.7789  1.0000</r>
       <r>  -0.5350  1.0000</r>
       <r>  -0.5271  1.0000</r>
       <r>  -0.4542  1.0000</r>
       <r>  -0.4246  1.0000</r>
       <r>  -0.0402  1.0000</r>
       <r>   0.0726  1.0000</r>
       <r>   0.0759  1.0000</r>
       <r>   1.7161  1.0000</r>
       <r>   5.1472  0.0000</r>
       <r>   6.6444  0.0000</r>
       <r>   8.3605  0.0000</r>
       <r>   9.9041  0.0000</r>
       <r>  10.6861  0.0000</r>
       <r>  11.9995  0.0000</r>
      </set>
      <set comment="kpoint 38">
       <r>  -2.7219  1.0000</r>
       <r>  -2.5169  1.0000</r>
       <r>  -2.4005  1.0000</r>
       <r>  -2.3340  1.0000</r>
       <r>  -2.2792  1.0000</r>
       <r>  -2.1284  1.0000</r>
       <r>  -2.0786  1.0000</r>
       <r>  -2.0188  1.0000</r>
       <r>  -1.5516  1.0000</r>
       <r>  -1.4750  1.0000</r>
       <r>  -1.3684  1.0000</r>
       <r>  -1.1585  1.0000</r>
       <r>  -1.1160  1.0000</r>
       <r>  -0.7405  1.0000</r>
       <r>  -0.6489  1.0000</r>
       <r>  -0.6039  1.0000</r>
       <r>  -0.5769  1.0000</r>
       <r>  -0.2342  1.0000</r>
       <r>  -0.1649  1.0000</r>
       <r>   0.0603  1.0000</r>
       <r>   0.0626  1.0000</r>
       <r>   0.8181  1.0000</r>
       <r>   5.8683  0.0000</r>
       <r>   7.3161  0.0000</r>
       <r>   7.5640  0.0000</r>
       <r>   9.0450  0.0000</r>
       <r>  11.0255  0.0000</r>
       <r>  11.9460  0.0000</r>
      </set>
      <set comment="kpoint 39">
       <r>  -2.5138  1.0000</r>
       <r>  -2.5138  1.0000</r>
       <r>  -2.2642  1.0000</r>
       <r>  -2.2642  1.0000</r>
       <r>  -2.1431  1.0000</r>
       <r>  -2.1431  1.0000</r>
       <r>  -1.9996  1.0000</r>
       <r>  -1.9996  1.0000</r>
       <r>  -1.6941  1.0000</r>
       <r>  -1.6941  1.0000</r>
       <r>  -1.3378  1.0000</r>
       <r>  -1.3378  1.0000</r>
       <r>  -0.9390  1.0000</r>
       <r>  -0.9390  1.0000</r>
       <r>  -0.6862  1.0000</r>
       <r>  -0.6862  1.0000</r>
       <r>  -0.3332  1.0000</r>
       <r>  -0.3332  1.0000</r>
       <r>   0.0575  1.0000</r>
       <r>   0.0575  1.0000</r>
       <r>   0.1468  1.0000</r>
       <r>   0.1468  1.0000</r>
       <r>   6.6351  0.0000</r>
       <r>   6.6351  0.0000</r>
       <r>   8.2203  0.0000</r>
       <r>   8.2203  0.0000</r>
       <r>  11.4779  0.0000</r>
       <r>  11.4779  0.0000</r>
      </set>
      <set comment="kpoint 40">
       <r>  -3.1895  1.0000</r>
       <r>  -2.6742  1.0000</r>
       <r>  -2.6071  1.0000</r>
       <r>  -2.6071  1.0000</r>
       <r>  -2.4121  1.0000</r>
       <r>  -2.4121  1.0000</r>
       <r>  -2.2737  1.0000</r>
       <r>  -1.7859  1.0000</r>
       <r>  -1.3552  1.0000</r>
       <r>  -1.3460  1.0000</r>
       <r>  -1.0407  1.0000</r>
       <r>  -1.0407  1.0000</r>
       <r>  -0.9594  1.0000</r>
       <r>  -0.8397  1.0000</r>
       <r>  -0.5232  1.0000</r>
       <r>  -0.4303  1.0000</r>
       <r>  -0.4110  1.0000</r>
       <r>  -0.4110  1.0000</r>
       <r>   0.0092  1.0000</r>
       <r>   0.0092  1.0000</r>
       <r>   0.0223  1.0000</r>
       <r>   3.3175  0.0000</r>
       <r>   3.3175  0.0000</r>
       <r>   6.4725  0.0000</r>
       <r>   8.2079  0.0000</r>
       <r>  10.6258  0.0000</r>
       <r>  11.2835  0.0000</r>
       <r>  11.2835  0.0000</r>
      </set>
      <set comment="kpoint 41">
       <r>  -2.8850  1.0000</r>
       <r>  -2.5510  1.0000</r>
       <r>  -2.5120  1.0000</r>
       <r>  -2.4384  1.0000</r>
       <r>  -2.2534  1.0000</r>
       <r>  -2.2180  1.0000</r>
       <r>  -2.0908  1.0000</r>
       <r>  -1.8303  1.0000</r>
       <r>  -1.3824  1.0000</r>
       <r>  -1.3600  1.0000</r>
       <r>  -1.2600  1.0000</r>
       <r>  -1.2515  1.0000</r>
       <r>  -1.2136  1.0000</r>
       <r>  -0.8197  1.0000</r>
       <r>  -0.6459  1.0000</r>
       <r>  -0.5787  1.0000</r>
       <r>  -0.5203  1.0000</r>
       <r>  -0.2175  1.0000</r>
       <r>  -0.1004  1.0000</r>
       <r>  -0.0424  1.0000</r>
       <r>  -0.0379  1.0000</r>
       <r>   2.2430  1.0000</r>
       <r>   3.9478  0.0000</r>
       <r>   6.9655  0.0000</r>
       <r>   7.3399  0.0000</r>
       <r>  10.3433  0.0000</r>
       <r>  10.9021  0.0000</r>
       <r>  11.8829  0.0000</r>
      </set>
      <set comment="kpoint 42">
       <r>  -2.6015  1.0000</r>
       <r>  -2.4371  1.0000</r>
       <r>  -2.3815  1.0000</r>
       <r>  -2.2365  1.0000</r>
       <r>  -2.0899  1.0000</r>
       <r>  -2.0806  1.0000</r>
       <r>  -1.9751  1.0000</r>
       <r>  -1.8924  1.0000</r>
       <r>  -1.6201  1.0000</r>
       <r>  -1.4651  1.0000</r>
       <r>  -1.4497  1.0000</r>
       <r>  -1.4413  1.0000</r>
       <r>  -1.1330  1.0000</r>
       <r>  -0.7751  1.0000</r>
       <r>  -0.7419  1.0000</r>
       <r>  -0.6573  1.0000</r>
       <r>  -0.6554  1.0000</r>
       <r>  -0.2453  1.0000</r>
       <r>  -0.0753  1.0000</r>
       <r>  -0.0740  1.0000</r>
       <r>   0.1034  1.0000</r>
       <r>   1.3221  1.0000</r>
       <r>   4.6422  0.0000</r>
       <r>   6.2237  0.0000</r>
       <r>   7.8794  0.0000</r>
       <r>   9.4652  0.0000</r>
       <r>  11.3043  0.0000</r>
       <r>  12.4846  0.0000</r>
      </set>
      <set comment="kpoint 43">
       <r>  -2.4401  1.0000</r>
       <r>  -2.4401  1.0000</r>
       <r>  -2.1911  1.0000</r>
       <r>  -2.1911  1.0000</r>
       <r>  -2.0354  1.0000</r>
       <r>  -2.0354  1.0000</r>
       <r>  -1.9554  1.0000</r>
       <r>  -1.9554  1.0000</r>
       <r>  -1.6228  1.0000</r>
       <r>  -1.6228  1.0000</r>
       <r>  -1.5249  1.0000</r>
       <r>  -1.5249  1.0000</r>
       <r>  -0.9674  1.0000</r>
       <r>  -0.9674  1.0000</r>
       <r>  -0.7522  1.0000</r>
       <r>  -0.7522  1.0000</r>
       <r>  -0.4366  1.0000</r>
       <r>  -0.4366  1.0000</r>
       <r>  -0.0857  1.0000</r>
       <r>  -0.0857  1.0000</r>
       <r>   0.6017  1.0000</r>
       <r>   0.6017  1.0000</r>
       <r>   5.3990  0.0000</r>
       <r>   5.3990  0.0000</r>
       <r>   8.6445  0.0000</r>
       <r>   8.6445  0.0000</r>
       <r>  11.8362  0.0000</r>
       <r>  11.8362  0.0000</r>
      </set>
      <set comment="kpoint 44">
       <r>  -2.6717  1.0000</r>
       <r>  -2.4712  1.0000</r>
       <r>  -2.3691  1.0000</r>
       <r>  -2.3691  1.0000</r>
       <r>  -2.0532  1.0000</r>
       <r>  -2.0532  1.0000</r>
       <r>  -1.9345  1.0000</r>
       <r>  -1.7887  1.0000</r>
       <r>  -1.5406  1.0000</r>
       <r>  -1.5406  1.0000</r>
       <r>  -1.3529  1.0000</r>
       <r>  -1.3347  1.0000</r>
       <r>  -1.2320  1.0000</r>
       <r>  -0.8555  1.0000</r>
       <r>  -0.7687  1.0000</r>
       <r>  -0.6533  1.0000</r>
       <r>  -0.6533  1.0000</r>
       <r>  -0.1796  1.0000</r>
       <r>  -0.1796  1.0000</r>
       <r>  -0.1405  1.0000</r>
       <r>   0.1001  1.0000</r>
       <r>   2.8506  1.0000</r>
       <r>   2.8506  1.0000</r>
       <r>   6.0702  0.0000</r>
       <r>   7.7655  0.0000</r>
       <r>  10.9090  0.0000</r>
       <r>  10.9090  0.0000</r>
       <r>  11.2344  0.0000</r>
      </set>
      <set comment="kpoint 45">
       <r>  -2.4864  1.0000</r>
       <r>  -2.3497  1.0000</r>
       <r>  -2.3354  1.0000</r>
       <r>  -2.2106  1.0000</r>
       <r>  -1.9748  1.0000</r>
       <r>  -1.8713  1.0000</r>
       <r>  -1.8537  1.0000</r>
       <r>  -1.7778  1.0000</r>
       <r>  -1.6663  1.0000</r>
       <r>  -1.6482  1.0000</r>
       <r>  -1.4492  1.0000</r>
       <r>  -1.4375  1.0000</r>
       <r>  -1.1490  1.0000</r>
       <r>  -0.8592  1.0000</r>
       <r>  -0.8266  1.0000</r>
       <r>  -0.7618  1.0000</r>
       <r>  -0.7494  1.0000</r>
       <r>  -0.3454  1.0000</r>
       <r>  -0.2354  1.0000</r>
       <r>  -0.2148  1.0000</r>
       <r>   0.5338  1.0000</r>
       <r>   1.9000  1.0000</r>
       <r>   3.5275  0.0000</r>
       <r>   5.1255  0.0000</r>
       <r>   8.4422  0.0000</r>
       <r>  10.0147  0.0000</r>
       <r>  11.5835  0.0000</r>
       <r>  11.6932  0.0000</r>
      </set>
      <set comment="kpoint 46">
       <r>  -2.3682  1.0000</r>
       <r>  -2.3682  1.0000</r>
       <r>  -2.2046  1.0000</r>
       <r>  -2.2046  1.0000</r>
       <r>  -1.9594  1.0000</r>
       <r>  -1.9594  1.0000</r>
       <r>  -1.7626  1.0000</r>
       <r>  -1.7626  1.0000</r>
       <r>  -1.6178  1.0000</r>
       <r>  -1.6178  1.0000</r>
       <r>  -1.5390  1.0000</r>
       <r>  -1.5390  1.0000</r>
       <r>  -1.0027  1.0000</r>
       <r>  -1.0027  1.0000</r>
       <r>  -0.8582  1.0000</r>
       <r>  -0.8582  1.0000</r>
       <r>  -0.5464  1.0000</r>
       <r>  -0.5464  1.0000</r>
       <r>  -0.2479  1.0000</r>
       <r>  -0.2479  1.0000</r>
       <r>   1.1250  1.0000</r>
       <r>   1.1250  1.0000</r>
       <r>   4.2811  0.0000</r>
       <r>   4.2811  0.0000</r>
       <r>   9.1945  0.0000</r>
       <r>   9.1945  0.0000</r>
       <r>  12.2833  0.0000</r>
       <r>  12.2838  0.0000</r>
      </set>
      <set comment="kpoint 47">
       <r>  -2.3913  1.0000</r>
       <r>  -2.2990  1.0000</r>
       <r>  -2.2490  1.0000</r>
       <r>  -2.2490  1.0000</r>
       <r>  -1.8434  1.0000</r>
       <r>  -1.8434  1.0000</r>
       <r>  -1.8358  1.0000</r>
       <r>  -1.7473  1.0000</r>
       <r>  -1.5944  1.0000</r>
       <r>  -1.5944  1.0000</r>
       <r>  -1.4104  1.0000</r>
       <r>  -1.3647  1.0000</r>
       <r>  -1.1677  1.0000</r>
       <r>  -0.9675  1.0000</r>
       <r>  -0.9083  1.0000</r>
       <r>  -0.9083  1.0000</r>
       <r>  -0.7428  1.0000</r>
       <r>  -0.4142  1.0000</r>
       <r>  -0.4142  1.0000</r>
       <r>  -0.3375  1.0000</r>
       <r>   1.0675  1.0000</r>
       <r>   2.5533  1.0000</r>
       <r>   2.5533  1.0000</r>
       <r>   4.1505  0.0000</r>
       <r>   9.1040  0.0000</r>
       <r>  10.6732  0.0000</r>
       <r>  10.6732  0.0000</r>
       <r>  12.2070  0.0000</r>
      </set>
      <set comment="kpoint 48">
       <r>  -2.3132  1.0000</r>
       <r>  -2.3132  1.0000</r>
       <r>  -2.2440  1.0000</r>
       <r>  -2.2440  1.0000</r>
       <r>  -1.8663  1.0000</r>
       <r>  -1.8663  1.0000</r>
       <r>  -1.7725  1.0000</r>
       <r>  -1.7725  1.0000</r>
       <r>  -1.4563  1.0000</r>
       <r>  -1.4563  1.0000</r>
       <r>  -1.4315  1.0000</r>
       <r>  -1.4315  1.0000</r>
       <r>  -1.0638  1.0000</r>
       <r>  -1.0638  1.0000</r>
       <r>  -0.9898  1.0000</r>
       <r>  -0.9898  1.0000</r>
       <r>  -0.6021  1.0000</r>
       <r>  -0.6021  1.0000</r>
       <r>  -0.4123  1.0000</r>
       <r>  -0.4123  1.0000</r>
       <r>   1.7337  1.0000</r>
       <r>   1.7337  1.0000</r>
       <r>   3.2973  0.0000</r>
       <r>   3.2973  0.0000</r>
       <r>   9.8483  0.0000</r>
       <r>   9.8483  0.0000</r>
       <r>  11.4272  0.0000</r>
       <r>  11.4272  0.0000</r>
      </set>
      <set comment="kpoint 49">
       <r>  -2.2768  1.0000</r>
       <r>  -2.2768  1.0000</r>
       <r>  -2.2768  1.0000</r>
       <r>  -2.2768  1.0000</r>
       <r>  -1.8110  1.0000</r>
       <r>  -1.8110  1.0000</r>
       <r>  -1.8110  1.0000</r>
       <r>  -1.8110  1.0000</r>
       <r>  -1.3473  1.0000</r>
       <r>  -1.3473  1.0000</r>
       <r>  -1.3473  1.0000</r>
       <r>  -1.3473  1.0000</r>
       <r>  -1.0980  1.0000</r>
       <r>  -1.0980  1.0000</r>
       <r>  -1.0980  1.0000</r>
       <r>  -1.0980  1.0000</r>
       <r>  -0.5489  1.0000</r>
       <r>  -0.5489  1.0000</r>
       <r>  -0.5489  1.0000</r>
       <r>  -0.5489  1.0000</r>
       <r>   2.4512  1.0000</r>
       <r>   2.4512  1.0000</r>
       <r>   2.4512  1.0000</r>
       <r>   2.4512  1.0000</r>
       <r>  10.5936  0.0000</r>
       <r>  10.5936  0.0000</r>
       <r>  10.5936  0.0000</r>
       <r>  10.5936  0.0000</r>
      </set>
      <set comment="kpoint 50">
       <r>  -3.5715  1.0000</r>
       <r>  -2.7913  1.0000</r>
       <r>  -2.7913  1.0000</r>
       <r>  -2.7913  1.0000</r>
       <r>  -2.5596  1.0000</r>
       <r>  -2.5596  1.0000</r>
       <r>  -2.5596  1.0000</r>
       <r>  -1.6853  1.0000</r>
       <r>  -1.4422  1.0000</r>
       <r>  -1.4422  1.0000</r>
       <r>  -0.6876  1.0000</r>
       <r>  -0.6876  1.0000</r>
       <r>  -0.5973  1.0000</r>
       <r>  -0.5973  1.0000</r>
       <r>  -0.5973  1.0000</r>
       <r>  -0.3992  1.0000</r>
       <r>  -0.3992  1.0000</r>
       <r>  -0.3992  1.0000</r>
       <r>   0.1397  1.0000</r>
       <r>   0.1397  1.0000</r>
       <r>   0.1397  1.0000</r>
       <r>   4.2729  0.0000</r>
       <r>   4.2729  0.0000</r>
       <r>   4.2729  0.0000</r>
       <r>  10.6113  0.0000</r>
       <r>  10.6113  0.0000</r>
       <r>  10.6113  0.0000</r>
       <r>  11.7785  0.0000</r>
      </set>
      <set comment="kpoint 51">
       <r>  -3.3139  1.0000</r>
       <r>  -2.7079  1.0000</r>
       <r>  -2.6963  1.0000</r>
       <r>  -2.6963  1.0000</r>
       <r>  -2.4380  1.0000</r>
       <r>  -2.3805  1.0000</r>
       <r>  -2.3805  1.0000</r>
       <r>  -1.6993  1.0000</r>
       <r>  -1.3948  1.0000</r>
       <r>  -1.3930  1.0000</r>
       <r>  -0.8999  1.0000</r>
       <r>  -0.8999  1.0000</r>
       <r>  -0.7920  1.0000</r>
       <r>  -0.7284  1.0000</r>
       <r>  -0.5801  1.0000</r>
       <r>  -0.5637  1.0000</r>
       <r>  -0.4996  1.0000</r>
       <r>  -0.4996  1.0000</r>
       <r>   0.1082  1.0000</r>
       <r>   0.1082  1.0000</r>
       <r>   0.1126  1.0000</r>
       <r>   3.1034  0.1621</r>
       <r>   4.7877  0.0000</r>
       <r>   4.7877  0.0000</r>
       <r>   9.5930  0.0000</r>
       <r>   9.5930  0.0000</r>
       <r>  11.1251  0.0000</r>
       <r>  11.9312  0.0000</r>
      </set>
      <set comment="kpoint 52">
       <r>  -3.0078  1.0000</r>
       <r>  -2.6204  1.0000</r>
       <r>  -2.5490  1.0000</r>
       <r>  -2.5490  1.0000</r>
       <r>  -2.2741  1.0000</r>
       <r>  -2.1953  1.0000</r>
       <r>  -2.1953  1.0000</r>
       <r>  -1.7584  1.0000</r>
       <r>  -1.3660  1.0000</r>
       <r>  -1.3191  1.0000</r>
       <r>  -1.2223  1.0000</r>
       <r>  -1.2223  1.0000</r>
       <r>  -1.0255  1.0000</r>
       <r>  -0.7420  1.0000</r>
       <r>  -0.6343  1.0000</r>
       <r>  -0.6044  1.0000</r>
       <r>  -0.6044  1.0000</r>
       <r>  -0.4497  1.0000</r>
       <r>   0.0484  1.0000</r>
       <r>   0.0650  1.0000</r>
       <r>   0.0650  1.0000</r>
       <r>   2.0139  1.0000</r>
       <r>   5.4015  0.0000</r>
       <r>   5.4015  0.0000</r>
       <r>   8.6295  0.0000</r>
       <r>   8.6295  0.0000</r>
       <r>  11.7364  0.0000</r>
       <r>  12.2153  0.0000</r>
      </set>
      <set comment="kpoint 53">
       <r>  -2.7277  1.0000</r>
       <r>  -2.5561  1.0000</r>
       <r>  -2.3616  1.0000</r>
       <r>  -2.3616  1.0000</r>
       <r>  -2.0901  1.0000</r>
       <r>  -2.0853  1.0000</r>
       <r>  -2.0853  1.0000</r>
       <r>  -1.8296  1.0000</r>
       <r>  -1.4678  1.0000</r>
       <r>  -1.4678  1.0000</r>
       <r>  -1.4195  1.0000</r>
       <r>  -1.2585  1.0000</r>
       <r>  -1.2127  1.0000</r>
       <r>  -0.9172  1.0000</r>
       <r>  -0.7147  1.0000</r>
       <r>  -0.7147  1.0000</r>
       <r>  -0.3096  1.0000</r>
       <r>  -0.2928  1.0000</r>
       <r>  -0.0493  1.0000</r>
       <r>   0.0334  1.0000</r>
       <r>   0.0334  1.0000</r>
       <r>   1.0611  1.0000</r>
       <r>   6.0681  0.0000</r>
       <r>   6.0681  0.0000</r>
       <r>   7.7641  0.0000</r>
       <r>   7.7641  0.0000</r>
       <r>  12.4488  0.0000</r>
       <r>  12.5913  0.0000</r>
      </set>
      <set comment="kpoint 54">
       <r>  -2.5694  1.0000</r>
       <r>  -2.5694  1.0000</r>
       <r>  -2.1920  1.0000</r>
       <r>  -2.1920  1.0000</r>
       <r>  -2.1428  1.0000</r>
       <r>  -2.1428  1.0000</r>
       <r>  -1.9283  1.0000</r>
       <r>  -1.9283  1.0000</r>
       <r>  -1.5468  1.0000</r>
       <r>  -1.5468  1.0000</r>
       <r>  -1.4159  1.0000</r>
       <r>  -1.4159  1.0000</r>
       <r>  -1.0770  1.0000</r>
       <r>  -1.0770  1.0000</r>
       <r>  -0.7678  1.0000</r>
       <r>  -0.7678  1.0000</r>
       <r>  -0.1722  1.0000</r>
       <r>  -0.1722  1.0000</r>
       <r>   0.0224  1.0000</r>
       <r>   0.0224  1.0000</r>
       <r>   0.2822  1.0000</r>
       <r>   0.2822  1.0000</r>
       <r>   6.5715  0.0000</r>
       <r>   6.5715  0.0000</r>
       <r>   7.1965  0.0000</r>
       <r>   7.1965  0.0000</r>
       <r>  12.8782  0.0000</r>
       <r>  12.8782  0.0000</r>
      </set>
      <set comment="kpoint 55">
       <r>  -3.1222  1.0000</r>
       <r>  -2.6434  1.0000</r>
       <r>  -2.6335  1.0000</r>
       <r>  -2.6335  1.0000</r>
       <r>  -2.2567  1.0000</r>
       <r>  -2.2567  1.0000</r>
       <r>  -2.2071  1.0000</r>
       <r>  -1.6093  1.0000</r>
       <r>  -1.3915  1.0000</r>
       <r>  -1.3765  1.0000</r>
       <r>  -1.0669  1.0000</r>
       <r>  -1.0669  1.0000</r>
       <r>  -1.0373  1.0000</r>
       <r>  -0.7104  1.0000</r>
       <r>  -0.6680  1.0000</r>
       <r>  -0.6529  1.0000</r>
       <r>  -0.6529  1.0000</r>
       <r>  -0.4908  1.0000</r>
       <r>   0.0774  1.0000</r>
       <r>   0.0942  1.0000</r>
       <r>   0.0942  1.0000</r>
       <r>   3.5816  0.0000</r>
       <r>   3.5816  0.0000</r>
       <r>   5.2335  0.0000</r>
       <r>   8.4804  0.0000</r>
       <r>  10.0440  0.0000</r>
       <r>  10.0440  0.0000</r>
       <r>  12.1471  0.0000</r>
      </set>
      <set comment="kpoint 56">
       <r>  -2.9078  1.0000</r>
       <r>  -2.5780  1.0000</r>
       <r>  -2.5419  1.0000</r>
       <r>  -2.5110  1.0000</r>
       <r>  -2.0889  1.0000</r>
       <r>  -2.0853  1.0000</r>
       <r>  -2.0526  1.0000</r>
       <r>  -1.5864  1.0000</r>
       <r>  -1.3654  1.0000</r>
       <r>  -1.3435  1.0000</r>
       <r>  -1.3269  1.0000</r>
       <r>  -1.2474  1.0000</r>
       <r>  -1.2300  1.0000</r>
       <r>  -0.8263  1.0000</r>
       <r>  -0.7789  1.0000</r>
       <r>  -0.7292  1.0000</r>
       <r>  -0.6348  1.0000</r>
       <r>  -0.2890  1.0000</r>
       <r>   0.0244  1.0000</r>
       <r>   0.0390  1.0000</r>
       <r>   0.0408  1.0000</r>
       <r>   2.4599  1.0000</r>
       <r>   4.1588  0.0000</r>
       <r>   5.7490  0.0000</r>
       <r>   7.5116  0.0000</r>
       <r>   9.0567  0.0000</r>
       <r>  10.6277  0.0000</r>
       <r>  12.4731  0.0000</r>
      </set>
      <set comment="kpoint 57">
       <r>  -2.7179  1.0000</r>
       <r>  -2.5548  1.0000</r>
       <r>  -2.4015  1.0000</r>
       <r>  -2.3581  1.0000</r>
       <r>  -2.0423  1.0000</r>
       <r>  -2.0081  1.0000</r>
       <r>  -1.8820  1.0000</r>
       <r>  -1.5892  1.0000</r>
       <r>  -1.4592  1.0000</r>
       <r>  -1.4395  1.0000</r>
       <r>  -1.4093  1.0000</r>
       <r>  -1.3563  1.0000</r>
       <r>  -1.2660  1.0000</r>
       <r>  -0.9971  1.0000</r>
       <r>  -0.8637  1.0000</r>
       <r>  -0.8208  1.0000</r>
       <r>  -0.4090  1.0000</r>
       <r>  -0.0570  1.0000</r>
       <r>  -0.0219  1.0000</r>
       <r>  -0.0142  1.0000</r>
       <r>   0.0532  1.0000</r>
       <r>   1.4697  1.0000</r>
       <r>   4.8061  0.0000</r>
       <r>   6.0289  0.0000</r>
       <r>   6.9687  0.0000</r>
       <r>   8.1732  0.0000</r>
       <r>  11.3223  0.0000</r>
       <r>  12.9139  0.0000</r>
      </set>
      <set comment="kpoint 58">
       <r>  -2.5949  1.0000</r>
       <r>  -2.5949  1.0000</r>
       <r>  -2.2747  1.0000</r>
       <r>  -2.2747  1.0000</r>
       <r>  -2.0823  1.0000</r>
       <r>  -2.0823  1.0000</r>
       <r>  -1.6753  1.0000</r>
       <r>  -1.6753  1.0000</r>
       <r>  -1.5151  1.0000</r>
       <r>  -1.5151  1.0000</r>
       <r>  -1.4032  1.0000</r>
       <r>  -1.4032  1.0000</r>
       <r>  -1.1477  1.0000</r>
       <r>  -1.1477  1.0000</r>
       <r>  -0.8877  1.0000</r>
       <r>  -0.8877  1.0000</r>
       <r>  -0.2027  1.0000</r>
       <r>  -0.2027  1.0000</r>
       <r>  -0.0376  1.0000</r>
       <r>  -0.0376  1.0000</r>
       <r>   0.6490  1.0000</r>
       <r>   0.6490  1.0000</r>
       <r>   5.4960  0.0000</r>
       <r>   5.4960  0.0000</r>
       <r>   7.4108  0.0000</r>
       <r>   7.4108  0.0000</r>
       <r>  12.1091  0.0000</r>
       <r>  12.1091  0.0000</r>
      </set>
      <set comment="kpoint 59">
       <r>  -2.7967  1.0000</r>
       <r>  -2.5003  1.0000</r>
       <r>  -2.4995  1.0000</r>
       <r>  -2.4995  1.0000</r>
       <r>  -1.9449  1.0000</r>
       <r>  -1.9368  1.0000</r>
       <r>  -1.9368  1.0000</r>
       <r>  -1.5332  1.0000</r>
       <r>  -1.4127  1.0000</r>
       <r>  -1.4127  1.0000</r>
       <r>  -1.3589  1.0000</r>
       <r>  -1.2442  1.0000</r>
       <r>  -1.2346  1.0000</r>
       <r>  -0.9216  1.0000</r>
       <r>  -0.8810  1.0000</r>
       <r>  -0.8810  1.0000</r>
       <r>  -0.6621  1.0000</r>
       <r>  -0.0405  1.0000</r>
       <r>  -0.0228  1.0000</r>
       <r>  -0.0228  1.0000</r>
       <r>   0.0280  1.0000</r>
       <r>   3.0119  1.0000</r>
       <r>   3.0119  1.0000</r>
       <r>   5.8320  0.0000</r>
       <r>   6.8930  0.0000</r>
       <r>   9.6193  0.0000</r>
       <r>   9.6193  0.0000</r>
       <r>  12.8336  0.0000</r>
      </set>
      <set comment="kpoint 60">
       <r>  -2.6880  1.0000</r>
       <r>  -2.5273  1.0000</r>
       <r>  -2.4350  1.0000</r>
       <r>  -2.4141  1.0000</r>
       <r>  -1.9326  1.0000</r>
       <r>  -1.9268  1.0000</r>
       <r>  -1.7651  1.0000</r>
       <r>  -1.5631  1.0000</r>
       <r>  -1.4478  1.0000</r>
       <r>  -1.3837  1.0000</r>
       <r>  -1.3447  1.0000</r>
       <r>  -1.2353  1.0000</r>
       <r>  -1.2040  1.0000</r>
       <r>  -1.0335  1.0000</r>
       <r>  -1.0117  1.0000</r>
       <r>  -0.9466  1.0000</r>
       <r>  -0.5188  1.0000</r>
       <r>  -0.1346  1.0000</r>
       <r>  -0.1041  1.0000</r>
       <r>  -0.0946  1.0000</r>
       <r>   0.4900  1.0000</r>
       <r>   1.9979  1.0000</r>
       <r>   3.6499  0.0000</r>
       <r>   5.1565  0.0000</r>
       <r>   7.2496  0.0000</r>
       <r>   8.7163  0.0000</r>
       <r>  10.2959  0.0000</r>
       <r>  11.9344  0.0000</r>
      </set>
      <set comment="kpoint 61">
       <r>  -2.5937  1.0000</r>
       <r>  -2.5937  1.0000</r>
       <r>  -2.3846  1.0000</r>
       <r>  -2.3846  1.0000</r>
       <r>  -1.9580  1.0000</r>
       <r>  -1.9580  1.0000</r>
       <r>  -1.6305  1.0000</r>
       <r>  -1.6305  1.0000</r>
       <r>  -1.4039  1.0000</r>
       <r>  -1.4039  1.0000</r>
       <r>  -1.2682  1.0000</r>
       <r>  -1.2682  1.0000</r>
       <r>  -1.1583  1.0000</r>
       <r>  -1.1583  1.0000</r>
       <r>  -1.0158  1.0000</r>
       <r>  -1.0158  1.0000</r>
       <r>  -0.3046  1.0000</r>
[...]
       <r>   2.4899  1.0000</r>
       <r>   2.4899  1.0000</r>
       <r>   2.4899  1.0000</r>
       <r>   9.2938  0.0000</r>
       <r>   9.2938  0.0000</r>
       <r>   9.2938  0.0000</r>
       <r>   9.2938  0.0000</r>
      </set>
      <set comment="kpoint 65">
       <r>  -3.0249  1.0000</r>
       <r>  -2.6136  1.0000</r>
       <r>  -2.6136  1.0000</r>
       <r>  -2.6136  1.0000</r>
       <r>  -2.0919  1.0000</r>
       <r>  -2.0919  1.0000</r>
       <r>  -2.0919  1.0000</r>
       <r>  -1.4189  1.0000</r>
       <r>  -1.4189  1.0000</r>
       <r>  -1.3315  1.0000</r>
       <r>  -1.1416  1.0000</r>
       <r>  -1.1416  1.0000</r>
       <r>  -1.1416  1.0000</r>
       <r>  -0.8389  1.0000</r>
       <r>  -0.8389  1.0000</r>
       <r>  -0.8389  1.0000</r>
       <r>  -0.5487  1.0000</r>
       <r>  -0.5487  1.0000</r>
       <r>   0.1059  1.0000</r>
       <r>   0.1059  1.0000</r>
       <r>   0.1059  1.0000</r>
       <r>   3.9799  0.0000</r>
       <r>   3.9799  0.0000</r>
       <r>   3.9799  0.0000</r>
       <r>   8.9136  0.0000</r>
       <r>   8.9136  0.0000</r>
       <r>   8.9136  0.0000</r>
       <r>  13.8129  0.0000</r>
      </set>
      <set comment="kpoint 66">
       <r>  -2.9125  1.0000</r>
       <r>  -2.6057  1.0000</r>
       <r>  -2.5551  1.0000</r>
       <r>  -2.5551  1.0000</r>
       <r>  -1.9754  1.0000</r>
       <r>  -1.9754  1.0000</r>
       <r>  -1.9338  1.0000</r>
       <r>  -1.4578  1.0000</r>
       <r>  -1.4124  1.0000</r>
       <r>  -1.2406  1.0000</r>
       <r>  -1.2363  1.0000</r>
       <r>  -1.2363  1.0000</r>
       <r>  -1.1371  1.0000</r>
       <r>  -1.0080  1.0000</r>
       <r>  -0.9344  1.0000</r>
       <r>  -0.9344  1.0000</r>
       <r>  -0.4221  1.0000</r>
       <r>  -0.3789  1.0000</r>
       <r>   0.0664  1.0000</r>
       <r>   0.0664  1.0000</r>
       <r>   0.0903  1.0000</r>
       <r>   2.8101  1.0000</r>
       <r>   4.4674  0.0000</r>
       <r>   4.4674  0.0000</r>
       <r>   7.9198  0.0000</r>
       <r>   7.9198  0.0000</r>
       <r>   9.4838  0.0000</r>
       <r>  12.7756  0.0000</r>
      </set>
      <set comment="kpoint 67">
       <r>  -2.7995  1.0000</r>
       <r>  -2.6338  1.0000</r>
       <r>  -2.4780  1.0000</r>
       <r>  -2.4780  1.0000</r>
       <r>  -1.9695  1.0000</r>
       <r>  -1.9695  1.0000</r>
       <r>  -1.7552  1.0000</r>
       <r>  -1.5115  1.0000</r>
       <r>  -1.3664  1.0000</r>
       <r>  -1.2990  1.0000</r>
       <r>  -1.2330  1.0000</r>
       <r>  -1.2330  1.0000</r>
       <r>  -1.1825  1.0000</r>
       <r>  -1.1590  1.0000</r>
       <r>  -1.0018  1.0000</r>
       <r>  -1.0018  1.0000</r>
       <r>  -0.2174  1.0000</r>
       <r>   0.0131  1.0000</r>
       <r>   0.0131  1.0000</r>
       <r>   0.0276  1.0000</r>
       <r>   0.0880  1.0000</r>
       <r>   1.7568  1.0000</r>
       <r>   4.9744  0.0000</r>
       <r>   4.9744  0.0000</r>
       <r>   7.1156  0.0000</r>
       <r>   7.1156  0.0000</r>
       <r>  10.1686  0.0000</r>
       <r>  11.8216  0.0000</r>
      </set>
      <set comment="kpoint 68">
       <r>  -2.7014  1.0000</r>
       <r>  -2.7014  1.0000</r>
       <r>  -2.4357  1.0000</r>
       <r>  -2.4357  1.0000</r>
       <r>  -1.9992  1.0000</r>
       <r>  -1.9992  1.0000</r>
       <r>  -1.6013  1.0000</r>
       <r>  -1.6013  1.0000</r>
       <r>  -1.2808  1.0000</r>
       <r>  -1.2808  1.0000</r>
       <r>  -1.2802  1.0000</r>
       <r>  -1.2802  1.0000</r>
       <r>  -1.1843  1.0000</r>
       <r>  -1.1843  1.0000</r>
       <r>  -1.0499  1.0000</r>
       <r>  -1.0499  1.0000</r>
       <r>  -0.0780  1.0000</r>
       <r>  -0.0780  1.0000</r>
       <r>  -0.0117  1.0000</r>
       <r>  -0.0117  1.0000</r>
       <r>   0.8406  1.0000</r>
       <r>   0.8406  1.0000</r>
       <r>   5.2592  0.0000</r>
       <r>   5.2592  0.0000</r>
       <r>   6.7328  0.0000</r>
       <r>   6.7328  0.0000</r>
       <r>  10.9513  0.0000</r>
       <r>  10.9513  0.0000</r>
      </set>
      <set comment="kpoint 69">
       <r>  -2.8880  1.0000</r>
       <r>  -2.6036  1.0000</r>
       <r>  -2.6036  1.0000</r>
       <r>  -2.5733  1.0000</r>
       <r>  -1.9071  1.0000</r>
       <r>  -1.8624  1.0000</r>
       <r>  -1.8624  1.0000</r>
       <r>  -1.4766  1.0000</r>
       <r>  -1.4506  1.0000</r>
       <r>  -1.2259  1.0000</r>
       <r>  -1.2259  1.0000</r>
       <r>  -1.1207  1.0000</r>
       <r>  -1.0901  1.0000</r>
       <r>  -1.0687  1.0000</r>
       <r>  -1.0687  1.0000</r>
       <r>  -0.7906  1.0000</r>
       <r>  -0.4653  1.0000</r>
       <r>  -0.0860  1.0000</r>
       <r>   0.0412  1.0000</r>
       <r>   0.0648  1.0000</r>
       <r>   0.0648  1.0000</r>
       <r>   3.2714  0.0000</r>
       <r>   3.2714  0.0000</r>
       <r>   4.7789  0.0000</r>
       <r>   7.0200  0.0000</r>
       <r>   8.4679  0.0000</r>
       <r>   8.4679  0.0000</r>
       <r>  11.7252  0.0000</r>
      </set>
      <set comment="kpoint 70">
       <r>  -2.8352  1.0000</r>
       <r>  -2.6784  1.0000</r>
       <r>  -2.5873  1.0000</r>
       <r>  -2.5748  1.0000</r>
       <r>  -1.8919  1.0000</r>
       <r>  -1.8738  1.0000</r>
       <r>  -1.7374  1.0000</r>
       <r>  -1.5377  1.0000</r>
       <r>  -1.4320  1.0000</r>
       <r>  -1.2767  1.0000</r>
       <r>  -1.2163  1.0000</r>
       <r>  -1.1775  1.0000</r>
       <r>  -1.0729  1.0000</r>
       <r>  -1.0150  1.0000</r>
       <r>  -1.0100  1.0000</r>
       <r>  -0.8125  1.0000</r>
       <r>  -0.2810  1.0000</r>
       <r>  -0.0087  1.0000</r>
       <r>   0.0049  1.0000</r>
       <r>   0.0098  1.0000</r>
       <r>   0.4580  1.0000</r>
       <r>   2.1895  1.0000</r>
       <r>   3.8164  0.0000</r>
       <r>   4.8204  0.0000</r>
       <r>   6.6231  0.0000</r>
       <r>   7.5984  0.0000</r>
       <r>   9.1336  0.0000</r>
       <r>  10.7675  0.0000</r>
      </set>
      <set comment="kpoint 71">
       <r>  -2.7612  1.0000</r>
       <r>  -2.7612  1.0000</r>
       <r>  -2.5755  1.0000</r>
       <r>  -2.5755  1.0000</r>
       <r>  -1.8929  1.0000</r>
       <r>  -1.8929  1.0000</r>
       <r>  -1.6257  1.0000</r>
       <r>  -1.6257  1.0000</r>
       <r>  -1.3688  1.0000</r>
       <r>  -1.3688  1.0000</r>
       <r>  -1.2085  1.0000</r>
       <r>  -1.2085  1.0000</r>
       <r>  -0.9669  1.0000</r>
       <r>  -0.9669  1.0000</r>
       <r>  -0.9571  1.0000</r>
       <r>  -0.9571  1.0000</r>
       <r>  -0.1031  1.0000</r>
       <r>  -0.1031  1.0000</r>
       <r>  -0.0316  1.0000</r>
       <r>  -0.0316  1.0000</r>
       <r>   1.2411  1.0000</r>
       <r>   1.2411  1.0000</r>
       <r>   4.3941  0.0000</r>
       <r>   4.3941  0.0000</r>
       <r>   6.9221  0.0000</r>
       <r>   6.9221  0.0000</r>
       <r>   9.9028  0.0000</r>
       <r>   9.9028  0.0000</r>
      </set>
      <set comment="kpoint 72">
       <r>  -2.8262  1.0000</r>
       <r>  -2.6935  1.0000</r>
       <r>  -2.6935  1.0000</r>
       <r>  -2.6427  1.0000</r>
       <r>  -1.8285  1.0000</r>
       <r>  -1.7605  1.0000</r>
       <r>  -1.7605  1.0000</r>
       <r>  -1.5764  1.0000</r>
       <r>  -1.4578  1.0000</r>
       <r>  -1.3264  1.0000</r>
       <r>  -1.3264  1.0000</r>
       <r>  -1.2858  1.0000</r>
       <r>  -0.8657  1.0000</r>
       <r>  -0.8657  1.0000</r>
       <r>  -0.8386  1.0000</r>
       <r>  -0.5930  1.0000</r>
       <r>  -0.3416  1.0000</r>
       <r>  -0.0668  1.0000</r>
       <r>  -0.0614  1.0000</r>
       <r>  -0.0614  1.0000</r>
       <r>   1.0470  1.0000</r>
       <r>   2.7524  1.0000</r>
       <r>   2.7524  1.0000</r>
       <r>   4.1764  0.0000</r>
       <r>   6.8643  0.0000</r>
       <r>   8.2257  0.0000</r>
       <r>   8.2257  0.0000</r>
       <r>   9.8161  0.0000</r>
      </set>
      <set comment="kpoint 73">
       <r>  -2.7767  1.0000</r>
       <r>  -2.7767  1.0000</r>
       <r>  -2.6817  1.0000</r>
       <r>  -2.6817  1.0000</r>
       <r>  -1.7883  1.0000</r>
       <r>  -1.7883  1.0000</r>
       <r>  -1.6554  1.0000</r>
       <r>  -1.6554  1.0000</r>
       <r>  -1.4167  1.0000</r>
       <r>  -1.4167  1.0000</r>
       <r>  -1.3342  1.0000</r>
       <r>  -1.3342  1.0000</r>
       <r>  -0.7671  1.0000</r>
       <r>  -0.7671  1.0000</r>
       <r>  -0.6965  1.0000</r>
       <r>  -0.6965  1.0000</r>
       <r>  -0.1925  1.0000</r>
       <r>  -0.1925  1.0000</r>
       <r>  -0.1047  1.0000</r>
       <r>  -0.1047  1.0000</r>
       <r>   1.8203  1.0000</r>
       <r>   1.8203  1.0000</r>
       <r>   3.4285  0.0000</r>
       <r>   3.4285  0.0000</r>
       <r>   7.4562  0.0000</r>
       <r>   7.4562  0.0000</r>
       <r>   8.9680  0.0000</r>
       <r>   8.9680  0.0000</r>
      </set>
      <set comment="kpoint 74">
       <r>  -2.7497  1.0000</r>
       <r>  -2.7497  1.0000</r>
       <r>  -2.7497  1.0000</r>
       <r>  -2.7497  1.0000</r>
       <r>  -1.7050  1.0000</r>
       <r>  -1.7050  1.0000</r>
       <r>  -1.7050  1.0000</r>
       <r>  -1.7050  1.0000</r>
       <r>  -1.4086  1.0000</r>
       <r>  -1.4086  1.0000</r>
       <r>  -1.4086  1.0000</r>
       <r>  -1.4086  1.0000</r>
       <r>  -0.6290  1.0000</r>
       <r>  -0.6290  1.0000</r>
       <r>  -0.6290  1.0000</r>
       <r>  -0.6290  1.0000</r>
       <r>  -0.2010  1.0000</r>
       <r>  -0.2010  1.0000</r>
       <r>  -0.2010  1.0000</r>
       <r>  -0.2010  1.0000</r>
       <r>   2.5555  1.0000</r>
       <r>   2.5555  1.0000</r>
       <r>   2.5555  1.0000</r>
       <r>   2.5555  1.0000</r>
       <r>   8.1498  0.0000</r>
       <r>   8.1498  0.0000</r>
       <r>   8.1498  0.0000</r>
       <r>   8.1498  0.0000</r>
      </set>
      <set comment="kpoint 75">
       <r>  -2.9296  1.0000</r>
       <r>  -2.6771  1.0000</r>
       <r>  -2.6771  1.0000</r>
       <r>  -2.6771  1.0000</r>
       <r>  -1.8237  1.0000</r>
       <r>  -1.8237  1.0000</r>
       <r>  -1.8237  1.0000</r>
       <r>  -1.4994  1.0000</r>
       <r>  -1.4994  1.0000</r>
       <r>  -1.2449  1.0000</r>
       <r>  -1.2449  1.0000</r>
       <r>  -1.2449  1.0000</r>
       <r>  -0.9729  1.0000</r>
       <r>  -0.9729  1.0000</r>
       <r>  -0.9729  1.0000</r>
       <r>  -0.2814  1.0000</r>
       <r>  -0.2814  1.0000</r>
       <r>  -0.1155  1.0000</r>
       <r>   0.0791  1.0000</r>
       <r>   0.0791  1.0000</r>
       <r>   0.0791  1.0000</r>
       <r>   3.6018  0.0000</r>
       <r>   3.6018  0.0000</r>
       <r>   3.6018  0.0000</r>
       <r>   7.4935  0.0000</r>
       <r>   7.4935  0.0000</r>
       <r>   7.4935  0.0000</r>
       <r>  10.6673  0.0000</r>
      </set>
      <set comment="kpoint 76">
       <r>  -2.9216  1.0000</r>
       <r>  -2.7834  1.0000</r>
       <r>  -2.7203  1.0000</r>
       <r>  -2.7203  1.0000</r>
       <r>  -1.8108  1.0000</r>
       <r>  -1.8108  1.0000</r>
       <r>  -1.7227  1.0000</r>
       <r>  -1.5516  1.0000</r>
       <r>  -1.5021  1.0000</r>
       <r>  -1.3708  1.0000</r>
       <r>  -1.3255  1.0000</r>
       <r>  -1.3255  1.0000</r>
       <r>  -0.8036  1.0000</r>
       <r>  -0.7846  1.0000</r>
       <r>  -0.7846  1.0000</r>
       <r>  -0.4306  1.0000</r>
       <r>  -0.1242  1.0000</r>
       <r>   0.0429  1.0000</r>
       <r>   0.0429  1.0000</r>
       <r>   0.0636  1.0000</r>
       <r>   0.6175  1.0000</r>
       <r>   2.4982  1.0000</r>
       <r>   3.9309  0.0000</r>
       <r>   3.9309  0.0000</r>
       <r>   6.7751  0.0000</r>
       <r>   6.7751  0.0000</r>
       <r>   8.1184  0.0000</r>
       <r>   9.7124  0.0000</r>
      </set>
      <set comment="kpoint 77">
       <r>  -2.8697  1.0000</r>
       <r>  -2.8697  1.0000</r>
       <r>  -2.7344  1.0000</r>
       <r>  -2.7344  1.0000</r>
       <r>  -1.8094  1.0000</r>
       <r>  -1.8094  1.0000</r>
       <r>  -1.6278  1.0000</r>
       <r>  -1.6278  1.0000</r>
       <r>  -1.4584  1.0000</r>
       <r>  -1.4584  1.0000</r>
       <r>  -1.3514  1.0000</r>
       <r>  -1.3514  1.0000</r>
       <r>  -0.7031  1.0000</r>
       <r>  -0.7031  1.0000</r>
       <r>  -0.6187  1.0000</r>
       <r>  -0.6187  1.0000</r>
       <r>  -0.0059  1.0000</r>
       <r>  -0.0059  1.0000</r>
       <r>   0.0153  1.0000</r>
       <r>   0.0153  1.0000</r>
       <r>   1.4996  1.0000</r>
       <r>   1.4996  1.0000</r>
       <r>   4.0884  0.0000</r>
       <r>   4.0884  0.0000</r>
       <r>   6.4871  0.0000</r>
       <r>   6.4871  0.0000</r>
       <r>   8.8616  0.0000</r>
       <r>   8.8616  0.0000</r>
      </set>
      <set comment="kpoint 78">
       <r>  -2.9485  1.0000</r>
       <r>  -2.8404  1.0000</r>
       <r>  -2.8404  1.0000</r>
       <r>  -2.8082  1.0000</r>
       <r>  -1.7579  1.0000</r>
       <r>  -1.7182  1.0000</r>
       <r>  -1.7182  1.0000</r>
       <r>  -1.5701  1.0000</r>
       <r>  -1.5453  1.0000</r>
       <r>  -1.4419  1.0000</r>
       <r>  -1.4419  1.0000</r>
       <r>  -1.4227  1.0000</r>
       <r>  -0.5630  1.0000</r>
       <r>  -0.5630  1.0000</r>
       <r>  -0.5622  1.0000</r>
       <r>  -0.1945  1.0000</r>
       <r>  -0.1711  1.0000</r>
       <r>   0.0237  1.0000</r>
       <r>   0.0371  1.0000</r>
       <r>   0.0371  1.0000</r>
       <r>   1.1737  1.0000</r>
       <r>   2.9216  1.0000</r>
       <r>   2.9216  1.0000</r>
       <r>   3.8101  0.0000</r>
       <r>   6.4463  0.0000</r>
       <r>   7.2793  0.0000</r>
       <r>   7.2793  0.0000</r>
       <r>   8.7747  0.0000</r>
      </set>
      <set comment="kpoint 79">
       <r>  -2.9195  1.0000</r>
       <r>  -2.9195  1.0000</r>
       <r>  -2.8486  1.0000</r>
       <r>  -2.8486  1.0000</r>
       <r>  -1.7270  1.0000</r>
       <r>  -1.7270  1.0000</r>
       <r>  -1.6337  1.0000</r>
       <r>  -1.6337  1.0000</r>
       <r>  -1.5177  1.0000</r>
       <r>  -1.5177  1.0000</r>
       <r>  -1.4624  1.0000</r>
       <r>  -1.4624  1.0000</r>
       <r>  -0.4592  1.0000</r>
       <r>  -0.4592  1.0000</r>
       <r>  -0.3553  1.0000</r>
       <r>  -0.3553  1.0000</r>
       <r>  -0.0341  1.0000</r>
       <r>  -0.0341  1.0000</r>
       <r>  -0.0006  1.0000</r>
       <r>  -0.0006  1.0000</r>
       <r>   1.9790  1.0000</r>
       <r>   1.9790  1.0000</r>
       <r>   3.4078  0.0000</r>
       <r>   3.4078  0.0000</r>
       <r>   6.6754  0.0000</r>
       <r>   6.6754  0.0000</r>
       <r>   7.9596  0.0000</r>
       <r>   7.9596  0.0000</r>
      </set>
      <set comment="kpoint 80">
       <r>  -2.9117  1.0000</r>
       <r>  -2.9117  1.0000</r>
       <r>  -2.9117  1.0000</r>
       <r>  -2.9117  1.0000</r>
       <r>  -1.6620  1.0000</r>
       <r>  -1.6620  1.0000</r>
       <r>  -1.6620  1.0000</r>
       <r>  -1.6620  1.0000</r>
       <r>  -1.5238  1.0000</r>
       <r>  -1.5238  1.0000</r>
       <r>  -1.5238  1.0000</r>
       <r>  -1.5238  1.0000</r>
       <r>  -0.2839  1.0000</r>
       <r>  -0.2839  1.0000</r>
       <r>  -0.2839  1.0000</r>
       <r>  -0.2839  1.0000</r>
       <r>  -0.0642  1.0000</r>
       <r>  -0.0642  1.0000</r>
       <r>  -0.0642  1.0000</r>
       <r>  -0.0642  1.0000</r>
       <r>   2.6447  1.0000</r>
       <r>   2.6447  1.0000</r>
       <r>   2.6447  1.0000</r>
       <r>   2.6447  1.0000</r>
       <r>   7.2153  0.0000</r>
       <r>   7.2153  0.0000</r>
       <r>   7.2153  0.0000</r>
       <r>   7.2153  0.0000</r>
      </set>
      <set comment="kpoint 81">
       <r>  -3.0052  1.0000</r>
       <r>  -2.9301  1.0000</r>
       <r>  -2.9301  1.0000</r>
       <r>  -2.9301  1.0000</r>
       <r>  -1.6851  1.0000</r>
       <r>  -1.6851  1.0000</r>
       <r>  -1.6851  1.0000</r>
       <r>  -1.5862  1.0000</r>
       <r>  -1.5862  1.0000</r>
       <r>  -1.5226  1.0000</r>
       <r>  -1.5226  1.0000</r>
       <r>  -1.5226  1.0000</r>
       <r>  -0.3136  1.0000</r>
       <r>  -0.3136  1.0000</r>
       <r>  -0.3136  1.0000</r>
       <r>  -0.0406  1.0000</r>
       <r>  -0.0406  1.0000</r>
       <r>   0.0608  1.0000</r>
       <r>   0.0608  1.0000</r>
       <r>   0.0608  1.0000</r>
       <r>   1.5973  1.0000</r>
       <r>   3.0925  0.7129</r>
       <r>   3.0925  0.7129</r>
       <r>   3.0925  0.7129</r>
       <r>   6.6197  0.0000</r>
       <r>   6.6197  0.0000</r>
       <r>   6.6197  0.0000</r>
       <r>   7.8765  0.0000</r>
      </set>
      <set comment="kpoint 82">
       <r>  -2.9979  1.0000</r>
       <r>  -2.9979  1.0000</r>
       <r>  -2.9603  1.0000</r>
       <r>  -2.9603  1.0000</r>
       <r>  -1.6713  1.0000</r>
       <r>  -1.6713  1.0000</r>
       <r>  -1.6252  1.0000</r>
       <r>  -1.6252  1.0000</r>
       <r>  -1.5784  1.0000</r>
       <r>  -1.5784  1.0000</r>
       <r>  -1.5524  1.0000</r>
       <r>  -1.5524  1.0000</r>
       <r>  -0.2001  1.0000</r>
       <r>  -0.2001  1.0000</r>
       <r>  -0.1198  1.0000</r>
       <r>  -0.1198  1.0000</r>
       <r>   0.0390  1.0000</r>
       <r>   0.0390  1.0000</r>
       <r>   0.0436  1.0000</r>
       <r>   0.0436  1.0000</r>
       <r>   2.2906  1.0000</r>
       <r>   2.2906  1.0000</r>
       <r>   3.1710  0.0000</r>
       <r>   3.1710  0.0000</r>
       <r>   6.3740  0.0000</r>
       <r>   6.3740  0.0000</r>
       <r>   7.1422  0.0000</r>
       <r>   7.1422  0.0000</r>
      </set>
      <set comment="kpoint 83">
       <r>  -3.0111  1.0000</r>
       <r>  -3.0111  1.0000</r>
       <r>  -3.0111  1.0000</r>
       <r>  -3.0111  1.0000</r>
       <r>  -1.6316  1.0000</r>
       <r>  -1.6316  1.0000</r>
       <r>  -1.6316  1.0000</r>
       <r>  -1.6316  1.0000</r>
       <r>  -1.5961  1.0000</r>
       <r>  -1.5961  1.0000</r>
       <r>  -1.5961  1.0000</r>
       <r>  -1.5961  1.0000</r>
       <r>  -0.0365  1.0000</r>
       <r>  -0.0365  1.0000</r>
       <r>  -0.0365  1.0000</r>
       <r>  -0.0365  1.0000</r>
       <r>   0.0239  1.0000</r>
       <r>   0.0239  1.0000</r>
       <r>   0.0239  1.0000</r>
       <r>   0.0239  1.0000</r>
       <r>   2.7362  1.0000</r>
       <r>   2.7362  1.0000</r>
       <r>   2.7362  1.0000</r>
       <r>   2.7362  1.0000</r>
       <r>   6.5755  0.0000</r>
       <r>   6.5755  0.0000</r>
       <r>   6.5755  0.0000</r>
       <r>   6.5755  0.0000</r>
      </set>
      <set comment="kpoint 84">
       <r>  -3.0446  1.0000</r>
       <r>  -3.0446  1.0000</r>
       <r>  -3.0446  1.0000</r>
       <r>  -3.0446  1.0000</r>
       <r>  -1.6207  1.0000</r>
       <r>  -1.6207  1.0000</r>
       <r>  -1.6207  1.0000</r>
       <r>  -1.6207  1.0000</r>
       <r>  -1.6207  1.0000</r>
       <r>  -1.6207  1.0000</r>
       <r>  -1.6207  1.0000</r>
       <r>  -1.6207  1.0000</r>
       <r>   0.0543  1.0000</r>
       <r>   0.0543  1.0000</r>
       <r>   0.0543  1.0000</r>
       <r>   0.0543  1.0000</r>
       <r>   0.0543  1.0000</r>
       <r>   0.0543  1.0000</r>
       <r>   0.0543  1.0000</r>
       <r>   0.0543  1.0000</r>
       <r>   2.7786  1.0000</r>
       <r>   2.7786  1.0000</r>
       <r>   2.7786  1.0000</r>
       <r>   2.7786  1.0000</r>
       <r>   6.3418  0.0000</r>
       <r>   6.3418  0.0000</r>
       <r>   6.3418  0.0000</r>
       <r>   6.3418  0.0000</r>
      </set>
     </set>
    </set>
   </array>
  </eigenvalues>
 </calculation>
 <structure name="finalpos" >
  <crystal>
   <varray name="basis" >
    <v>       4.16322478      0.00000000      0.00000000</v>
    <v>       0.00000000      4.16322478      0.00000000</v>
    <v>       0.00000000      0.00000000      4.16322478</v>
   </varray>
   <i name="volume">     72.15884616</i>
   <varray name="rec_basis" >
    <v>       0.24019842      0.00000000      0.00000000</v>
    <v>       0.00000000      0.24019842      0.00000000</v>
    <v>       0.00000000      0.00000000      0.24019842</v>
   </varray>
  </crystal>
  <varray name="positions" >
   <v>       0.00000000      0.00000000      0.00000000</v>
   <v>       0.50000000      0.50000000      0.00000000</v>
   <v>       0.50000000      0.00000000      0.50000000</v>
   <v>       0.00000000      0.50000000      0.50000000</v>
  </varray>
 </structure>
</modeling>
