 vasp.4.6.28 25Jul05 complex 
 executed on             LinuxIFC date 2017.01.18  12:21:46
 running on    4 nodes
 distr:  one band on    1 nodes,    4 groups


--------------------------------------------------------------------------------------------------------


 INCAR:
 POTCAR:   PAW_PBE Ag 06Sep2000                   
 POTCAR:   PAW_PBE Ag 06Sep2000                   
   VRHFIN =Ag : s1 d10                                                          
   LEXCH  = PE                                                                  
   EATOM  =  1037.4134 eV,   76.2477 Ry                                         
                                                                                
   TITEL  = PAW_PBE Ag 06Sep2000                                                
   LULTRA =        F    use ultrasoft PP ?                                      
   IUNSCR =        1    unscreen: 0-lin 1-nonlin 2-no                           
   RPACOR =    2.000    partial core radius                                     
   POMASS =  107.868; ZVAL   =   11.000    mass and valenz                      
   RCORE  =    2.400    outmost cutoff radius                                   
   RWIGS  =    2.840; RWIGS  =    1.503    wigner-seitz radius (au A)           
   ENMAX  =  249.846; ENMIN  =  187.385 eV                                      
   RCLOC  =    1.962    cutoff for local pot                                    
   LCOR   =        T    correct aug charges                                     
   LPAW   =        T    paw PP                                                  
   EAUG   =  412.496                                                            
   DEXC   =    -.047                                                            
   RMAX   =    2.917    core radius for proj-oper                               
   RAUG   =    1.300    factor for augmentation sphere                          
   RDEP   =    2.416    radius for radial grids                                 
   QCUT   =   -4.285; QGAM   =    8.570    optimization parameters              
                                                                                
   Description                                                                  
     l     E      TYP  RCUT    TYP  RCUT                                        
     2   .000     23  2.400                                                     
     2   .000     23  2.400                                                     
     0   .000     23  2.400                                                     
     0   .000     23  2.400                                                     
     1  -.200     23  2.400                                                     
     1  1.500     23  2.400                                                     
     3   .000      7   .000                                                     
  local pseudopotential read in
  partial core-charges read in
  atomic valenz-charges read in
  non local Contribution for L=           2  read in
    real space projection operators read in
  non local Contribution for L=           2  read in
    real space projection operators read in
  non local Contribution for L=           0  read in
    real space projection operators read in
  non local Contribution for L=           0  read in
    real space projection operators read in
  non local Contribution for L=           1  read in
    real space projection operators read in
  non local Contribution for L=           1  read in
    real space projection operators read in
    PAW grid and wavefunctions read in
 
   number of l-projection  operators is LMAX  =           6
   number of lm-projection operators is LMMAX =          18
 

 ----------------------------------------------------------------------------- 
|                                                                             |
|  ADVICE TO THIS USER RUNNING 'VASP/VAMP'   (HEAR YOUR MASTER'S VOICE ...):  |
|                                                                             |
|      You have a (more or less) 'large supercell' and for larger cells       |
|      it might be more efficient to use real space projection operators      |
|      So try LREAL= Auto  in the INCAR   file.                               |
|      Mind: If you want to do an extremely accurate calculations keep the    |
|      reciprocal projection scheme          (i.e. LREAL=.FALSE.)             |
|                                                                             |
 ----------------------------------------------------------------------------- 

 PAW_PBE Ag 06Sep2000                   :
 energy of atom  1       EATOM=-1037.4134
 kinetic energy error for atom=    0.0019 (will be added to EATOM!!)
 
 EXHCAR: internal setup
 exchange correlation table for  LEXCH =        8
   RHO(1)=    0.500       N(1)  =     2000
   RHO(2)=  100.500       N(2)  =     4000
 
 POSCAR: No title                                
  positions in direct lattice
  No initial velocities read in
 


--------------------------------------------------------------------------------------------------------


 ion  position               nearest neighbor table
   1  0.750  0.750  0.500-   3 3.18  14 3.18  19 3.18  20 3.18   5 3.18  26 3.18   6 3.18  29 3.18
                            11 3.18  18 3.18  10 3.18   8 3.18
   2  0.750  0.750  0.000-   8 3.18  10 3.18  22 3.18  27 3.18  11 3.18  18 3.18  32 3.18   5 3.18
                            26 3.18   3 3.18  20 3.18  12 3.19
   3  0.750  0.000  0.250-   1 3.18   5 3.18   9 3.18  28 3.18  19 3.18  13 3.18  18 3.18  27 3.18
                             6 3.18   2 3.18   4 3.18  12 3.19
   4  0.750  0.250  0.500-   6 3.18   8 3.18  10 3.18  29 3.18  13 3.18  31 3.18  14 3.18  19 3.18
                            21 3.18  28 3.18   3 3.18  20 3.18
   5  0.000  0.750  0.250-   3 3.18  14 3.18  25 3.18  15 3.18   1 3.18  16 3.18  10 3.18   7 3.18
                             2 3.18  22 3.18   6 3.18  12 3.18
   6  0.000  0.000  0.500-   4 3.18   7 3.18  11 3.18  13 3.18   8 3.18  16 3.18   1 3.18  17 3.18
                             3 3.18  23 3.18  21 3.18   5 3.18
   7  0.250  0.750  0.500-   6 3.18  16 3.18  29 3.18  30 3.18  11 3.18  18 3.18  14 3.18  19 3.18
                             5 3.18  26 3.18  25 3.18  23 3.18
   8  0.750  0.000  0.750-   2 3.18   4 3.18  11 3.18  31 3.18  27 3.18   6 3.18  21 3.18  26 3.18
                            19 3.18   1 3.18   9 3.18  12 3.19
   9  0.750  0.250  0.000-   3 3.18  20 3.18  32 3.18  28 3.18  21 3.18  22 3.18  27 3.18  31 3.18
                            13 3.18   8 3.18  10 3.18  12 3.19
  10  0.750  0.500  0.250-   2 3.18   4 3.18  13 3.18  18 3.18  22 3.18  29 3.18  28 3.18   5 3.18
                            14 3.18  32 3.18   9 3.18   1 3.18
  11  0.000  0.750  0.750-   6 3.18   8 3.18  22 3.18  30 3.18   7 3.18   2 3.18  23 3.18  20 3.18
                             1 3.18  15 3.18  14 3.18  12 3.18
  12  0.002  0.000  0.000-  15 3.17  23 3.17  24 3.17  16 3.17   5 3.18  21 3.18  13 3.18  11 3.18
                             9 3.19   3 3.19   2 3.19   8 3.19
  13  0.000  0.250  0.250-   6 3.18  10 3.18  16 3.18  22 3.18   4 3.18  24 3.18   3 3.18  25 3.18
                            17 3.18   9 3.18  14 3.18  12 3.18
  14  0.000  0.500  0.500-   1 3.18   5 3.18  17 3.18  21 3.18  20 3.18  25 3.18   4 3.18   7 3.18
                            10 3.18  30 3.18  13 3.18  11 3.18
  15  0.250  0.750  0.000-  12 3.17  23 3.18  25 3.18  32 3.18  26 3.18   5 3.18  27 3.18  22 3.18
                            11 3.18  18 3.18  30 3.18  16 3.18
  16  0.250  0.000  0.250-  12 3.17   7 3.18  13 3.18  18 3.18  24 3.18   6 3.18  27 3.18   5 3.18
                            28 3.18  19 3.18  17 3.18  15 3.18
  17  0.250  0.250  0.500-  14 3.18  19 3.18  23 3.18  25 3.18  21 3.18  28 3.18   6 3.18  29 3.18
                            13 3.18  31 3.18  30 3.18  16 3.18
  18  0.500  0.750  0.250-  10 3.18  16 3.18  27 3.18  29 3.18   2 3.18   7 3.18   3 3.18  25 3.18
                             1 3.18  15 3.18  19 3.18  32 3.18
  19  0.500  0.000  0.500-   1 3.18  17 3.18  26 3.18  28 3.18   3 3.18  23 3.18   4 3.18   7 3.18
                             8 3.18  16 3.18  18 3.18  31 3.18
  20  0.750  0.500  0.750-   1 3.18   9 3.18  21 3.18  26 3.18  14 3.18  32 3.18  31 3.18  11 3.18
                            22 3.18  29 3.18   4 3.18   2 3.18
  21  0.000  0.250  0.750-  14 3.18  20 3.18  23 3.18   9 3.18  17 3.18   8 3.18  30 3.18  24 3.18
                             4 3.18  22 3.18   6 3.18  12 3.18
  22  0.000  0.500  0.000-   2 3.18  11 3.18  13 3.18  24 3.18  10 3.18  30 3.18   9 3.18  15 3.18
                            25 3.18  20 3.18  21 3.18   5 3.18
  23  0.250  0.000  0.750-  12 3.17  15 3.18  17 3.18  21 3.18  26 3.18  19 3.18  11 3.18  31 3.18
                            27 3.18   6 3.18  24 3.18   7 3.18
  24  0.250  0.250  0.000-  12 3.17  16 3.18  22 3.18  27 3.18  30 3.18  13 3.18  31 3.18  32 3.18
                            28 3.18  21 3.18  25 3.18  23 3.18
  25  0.250  0.500  0.250-   5 3.18  15 3.18  17 3.18  28 3.18  14 3.18  32 3.18  13 3.18  18 3.18
                            29 3.18  22 3.18  24 3.18   7 3.18
  26  0.500  0.750  0.750-  19 3.18  20 3.18  23 3.18  32 3.18   1 3.18  15 3.18  30 3.18   8 3.18
                             7 3.18   2 3.18  27 3.18  29 3.18
  27  0.500  0.000  0.000-   2 3.18  18 3.18  24 3.18  31 3.18  16 3.18   8 3.18   9 3.18  15 3.18
                             3 3.18  23 3.18  28 3.18  26 3.18
  28  0.500  0.250  0.250-   3 3.18  19 3.18  25 3.18  32 3.18  17 3.18   9 3.18  10 3.18  16 3.18
                             4 3.18  24 3.18  29 3.18  27 3.18
  29  0.500  0.500  0.500-   4 3.18   7 3.18  18 3.18  31 3.18  30 3.18  10 3.18  17 3.18   1 3.18
                            20 3.18  25 3.18  26 3.18  28 3.18
  30  0.250  0.500  0.750-   7 3.18  11 3.18  24 3.18  31 3.18  29 3.18  22 3.18  21 3.18  26 3.18
                            14 3.18  32 3.18  17 3.18  15 3.18
  31  0.500  0.250  0.750-   8 3.18  27 3.18  29 3.18  30 3.18  24 3.18   4 3.18  20 3.18  23 3.18
                             9 3.18  17 3.18  19 3.18  32 3.18
  32  0.500  0.500  0.000-   9 3.18  15 3.18  26 3.18  28 3.18  20 3.18  25 3.18  24 3.18   2 3.18
                            10 3.18  30 3.18  18 3.18  31 3.18
 
  LATTYP: Found a simple cubic cell.
 ALAT       =     8.9937413100
  
  Lattice vectors:
  
 A1 = (   8.9937413100,   0.0000000000,   0.0000000000)
 A2 = (   0.0000001600,   8.9937413100,   0.0000000000)
 A3 = (   0.0000001600,   0.0000001600,   8.9937413100)
 Subroutine PRICEL returns:
 Original cell was already a primitive cell.
 

Analysis of symmetry for initial positions (statically):

 Routine SETGRP: Setting up the symmetry group for a 
 simple cubic supercell.


 Subroutine GETGRP returns: Found  8 space group operations
 (whereof  8 operations were pure point group operations)
 out of a pool of 48 trial point group operations.


The static configuration has the point symmetry C_4v.

Analysis of symmetry for dynamics (positions and initial velocities):

 Subroutine DYNSYM returns: Found  8 space group operations
 (whereof  8 operations were pure point group operations)
 out of a pool of  8 trial space group operations
 (whereof  8 operations were pure point group operations)
 and found also     1 'primitive' translations


The dynamic configuration has the point symmetry C_4v.
 
 
 KPOINTS: Automatic mesh                          

Automatic generation of k-mesh.
 
 Subroutine IBZKPT returns following result:
 ===========================================
 
 Found     40 irreducible k-points:
 
 Following reciprocal coordinates:
            Coordinates               Weight
  0.000000  0.000000  0.000000      1.000000
  0.142857 -0.000000 -0.000000      2.000000
  0.285714 -0.000000 -0.000000      2.000000
  0.428571 -0.000000 -0.000000      2.000000
  0.000000  0.142857 -0.000000      4.000000
  0.142857  0.142857 -0.000000      8.000000
  0.285714  0.142857 -0.000000      8.000000
  0.428571  0.142857 -0.000000      8.000000
  0.000000  0.285714 -0.000000      4.000000
  0.142857  0.285714 -0.000000      8.000000
  0.285714  0.285714 -0.000000      8.000000
  0.428571  0.285714 -0.000000      8.000000
  0.000000  0.428571 -0.000000      4.000000
  0.142857  0.428571 -0.000000      8.000000
  0.285714  0.428571 -0.000000      8.000000
  0.428571  0.428571 -0.000000      8.000000
  0.000000  0.142857  0.142857      4.000000
  0.142857  0.142857  0.142857      8.000000
  0.285714  0.142857  0.142857      8.000000
  0.428571  0.142857  0.142857      8.000000
  0.000000  0.285714  0.142857      8.000000
  0.142857  0.285714  0.142857     16.000000
  0.285714  0.285714  0.142857     16.000000
  0.428571  0.285714  0.142857     16.000000
  0.000000  0.428571  0.142857      8.000000
  0.142857  0.428571  0.142857     16.000000
  0.285714  0.428571  0.142857     16.000000
  0.428571  0.428571  0.142857     16.000000
  0.000000  0.285714  0.285714      4.000000
  0.142857  0.285714  0.285714      8.000000
  0.285714  0.285714  0.285714      8.000000
  0.428571  0.285714  0.285714      8.000000
  0.000000  0.428571  0.285714      8.000000
  0.142857  0.428571  0.285714     16.000000
  0.285714  0.428571  0.285714     16.000000
  0.428571  0.428571  0.285714     16.000000
  0.000000  0.428571  0.428571      4.000000
  0.142857  0.428571  0.428571      8.000000
  0.285714  0.428571  0.428571      8.000000
  0.428571  0.428571  0.428571      8.000000
 
 Following cartesian coordinates:
            Coordinates               Weight
  0.000000  0.000000  0.000000      1.000000
  0.015884 -0.000000 -0.000000      2.000000
  0.031768 -0.000000 -0.000000      2.000000
  0.047652 -0.000000 -0.000000      2.000000
  0.000000  0.015884 -0.000000      4.000000
  0.015884  0.015884 -0.000000      8.000000
  0.031768  0.015884 -0.000000      8.000000
  0.047652  0.015884 -0.000000      8.000000
  0.000000  0.031768 -0.000000      4.000000
  0.015884  0.031768 -0.000000      8.000000
  0.031768  0.031768 -0.000000      8.000000
  0.047652  0.031768 -0.000000      8.000000
  0.000000  0.047652 -0.000000      4.000000
  0.015884  0.047652 -0.000000      8.000000
  0.031768  0.047652 -0.000000      8.000000
  0.047652  0.047652 -0.000000      8.000000
  0.000000  0.015884  0.015884      4.000000
  0.015884  0.015884  0.015884      8.000000
  0.031768  0.015884  0.015884      8.000000
  0.047652  0.015884  0.015884      8.000000
  0.000000  0.031768  0.015884      8.000000
  0.015884  0.031768  0.015884     16.000000
  0.031768  0.031768  0.015884     16.000000
  0.047652  0.031768  0.015884     16.000000
  0.000000  0.047652  0.015884      8.000000
  0.015884  0.047652  0.015884     16.000000
  0.031768  0.047652  0.015884     16.000000
  0.047652  0.047652  0.015884     16.000000
  0.000000  0.031768  0.031768      4.000000
  0.015884  0.031768  0.031768      8.000000
  0.031768  0.031768  0.031768      8.000000
  0.047652  0.031768  0.031768      8.000000
  0.000000  0.047652  0.031768      8.000000
  0.015884  0.047652  0.031768     16.000000
  0.031768  0.047652  0.031768     16.000000
  0.047652  0.047652  0.031768     16.000000
  0.000000  0.047652  0.047652      4.000000
  0.015884  0.047652  0.047652      8.000000
  0.031768  0.047652  0.047652      8.000000
  0.047652  0.047652  0.047652      8.000000
 


--------------------------------------------------------------------------------------------------------




 Dimension of arrays:
   k-Points           NKPTS =     40   number of bands    NBANDS=    212
   number of dos      NEDOS =    301   number of ions     NIONS =     32
   non local maximal  LDIM  =      6   non local SUM 2l+1 LMDIM =     18
   total plane-waves  NPLWV = 373248
   max r-space proj   IRMAX =      1   max aug-charges    IRDMAX= 201992
   dimension x,y,z NGX =    72 NGY =   72 NGZ =   72
   dimension x,y,z NGXF=   144 NGYF=  144 NGZF=  144
   support grid    NGXF=   288 NGYF=  288 NGZF=  288
   ions per type =              32
 NGX,Y,Z   is equivalent  to a cutoff of  13.31, 13.31, 13.31 a.u.
 NGXF,Y,Z  is equivalent  to a cutoff of  26.62, 26.62, 26.62 a.u.


 I would recommend the setting:
   dimension x,y,z NGX =    72 NGY =   72 NGZ =   72
 SYSTEM =  No title                                
 POSCAR =  No title                                

 Startparameter for this run:
   NWRITE =      2    write-flag & timer
   PREC   = accura    medium, high low
   ISTART =      1    job   : 0-new  1-cont  2-samecut
   ICHARG =      0    charge: 1-file 2-atom 10-const
   ISPIN  =      1    spin polarized calculation?
   LNONCOLLINEAR =      F non collinear calculations
   LSORBIT =      F    spin-orbit coupling
   INIWAV =      1    electr: 0-lowe 1-rand  2-diag
   LASPH  =      F    aspherical Exc in radial PAW
   METAGGA=      F    non-selfconsistent MetaGGA calc.

 Electronic Relaxation 1
   ENCUT  =  600.0 eV  44.10 Ry    6.64 a.u.  17.96 17.96 17.96*2*pi/ulx,y,z
   ENINI  =  600.0     initial cutoff
   ENAUG  =  412.5 eV  augmentation charge cutoff
   NELM   =     60;   NELMIN=  2; NELMDL=  0     # of ELM steps 
   EDIFF  = 0.1E-04   stopping-criterion for ELM
   LREAL  =      F    real-space projection
   LCOMPAT=      F    compatible to vasp.4.4
   LREAL_COMPAT= F    compatible to vasp.4.5.1-3
   GGA_COMPAT  = T    GGA compatible to vasp.4.4-vasp.4.6
   LMAXPAW     = -100 max onsite density
   LMAXMIX     =    2 max onsite mixed and CHGCAR
   VOSKOWN=      1    Vosko Wilk Nusair interpolation
   ROPT   =    0.00000
 Ionic relaxation
   EDIFFG = -.2E-01   stopping-criterion for IOM
   NSW    =      0    number of steps for IOM
   NBLOCK =      1;   KBLOCK =      1    inner block; outer block 
   IBRION =     -1    ionic relax: 0-MD 1-quasi-New 2-CG
   NFREE  =      0    steps in history (QN), initial steepest desc. (CG)
   ISIF   =      2    stress and relaxation
   IWAVPR =     10    prediction:  0-non 1-charg 2-wave 3-comb
   ISYM   =      2    0-nonsym 1-usesym 2-fastsym
   LCORR  =      T    Harris-Foulkes like correction to forces

   POTIM  =   0.50    time-step for ionic-motion
   TEIN   =    0.0    initial temperature
   TEBEG  =    0.0;   TEEND  =   0.0 temperature during run
   SMASS  =  -3.00    Nose mass-parameter (am)
   estimated Nose-frequenzy (Omega)   =  0.10E-29 period in steps =****** mass=  -0.185E-26a.u.
   NPACO  =    256;   APACO  = 16.0  distance and # of slots for P.C.
   PSTRESS=    0.0 pullay stress

  Mass of Ions in am
   POMASS = 107.87
  Ionic Valenz
   ZVAL   =  11.00
  Atomic Wigner-Seitz radii
   RWIGS  =   1.34
   NELECT =     352.0000    total number of electrons
   NUPDOWN=      -1.0000    fix difference up-down

 DOS related values:
   EMIN   =  10.00;   EMAX   =-10.00  energy-range for DOS
   ISMEAR =     1;   SIGMA  =   0.20  broadening in eV -4-tet -1-fermi 0-gaus

 Electronic relaxation 2 (details)
   IALGO  =     48    algorithm
   LDIAG  =      T    sub-space diagonalisation
   IMIX   =      4    mixing-type and parameters
     AMIX     =   0.40;   BMIX     =  1.00
     AMIX_MAG =   1.60;   BMIX_MAG =  1.00
     AMIN     =   0.10
     WC   =   100.;   INIMIX=   1;  MIXPRE=   1

 Intra band minimization:
   WEIMIN = 0.0000     energy-eigenvalue tresh-hold
   EBREAK =  0.12E-07  absolut break condition
   DEPER  =   0.30     relativ break condition  

   TIME   =   0.10     timestep for ELM

  volume/ion in A,a.u.               =      22.73       153.41
  Fermi-wavevector in a.u.,eV,Ry     =   1.285233 22.474441  1.651825

 Second variation
   LSECVAR=     F    do a second variation
 
 Write flags
   LWAVE  =      F    write WAVECAR
   LCHARG =      F    write CHGCAR
   LVTOT  =      F    write LOCPOT, local potential
   LELF   =      F    write electronic localiz. function (ELF)
   LORBIT =      0    0 simple, 1 ext, 2 COOP (PROOUT)


 Dipole corrections
   IDIPOL =      0    1-x, 2-y, 3-z
   LDIPOL =      F    correct potential



--------------------------------------------------------------------------------------------------------


 Static calculation
 charge density will be updated during run
 non-spin polarized calculation
 RMM-DIIS sequential band-by-band
 performe sub-space diagonalisation
    before iterative eigenvector-optimisation
 modified Broyden-mixing scheme, WC =      100.0
 initial mixing is a Kerker type mixing with AMIX =  0.4000 and BMIX =      1.0000
 Hartree-type preconditioning will be used
 using additional bands           36
 reciprocal scheme for non local part
 use partial core corrections
 calculate Harris-corrections to forces 
   (improved forces if not selfconsistent)
 use gradient corrections 
 use of overlap-Matrix (Vanderbilt PP)
 Methfessel and Paxton  Order N= 1 SIGMA  =   0.20


--------------------------------------------------------------------------------------------------------


  energy-cutoff  :      600.00
  volume of cell :      727.48
      direct lattice vectors                 reciprocal lattice vectors
     8.993741310  0.000000000  0.000000000     0.111188433 -0.000000002 -0.000000002
     0.000000160  8.993741310  0.000000000     0.000000000  0.111188433 -0.000000002
     0.000000160  0.000000160  8.993741310     0.000000000  0.000000000  0.111188433

  length of vectors
     8.993741310  8.993741310  8.993741310     0.111188433  0.111188433  0.111188433


 
 old parameters found on file WAVECAR:
  energy-cutoff  :      600.00
  volume of cell :      727.48
      direct lattice vectors                 reciprocal lattice vectors
     8.993741310  0.000000000  0.000000000     0.111188433 -0.000000002 -0.000000002
     0.000000160  8.993741310  0.000000000     0.000000000  0.111188433 -0.000000002
     0.000000160  0.000000160  8.993741310     0.000000000  0.000000000  0.111188433

  length of vectors

 
 k-points in units of 2pi/SCALE and weight: Automatic mesh                          
   0.00000000  0.00000000  0.00000000       0.003
   0.01588406 -0.00000000 -0.00000000       0.006
   0.03176812 -0.00000000 -0.00000000       0.006
   0.04765219 -0.00000000 -0.00000000       0.006
   0.00000000  0.01588406 -0.00000000       0.012
   0.01588406  0.01588406 -0.00000000       0.023
   0.03176812  0.01588406 -0.00000000       0.023
   0.04765219  0.01588406 -0.00000000       0.023
   0.00000000  0.03176812 -0.00000000       0.012
   0.01588406  0.03176812 -0.00000000       0.023
   0.03176812  0.03176812 -0.00000000       0.023
   0.04765219  0.03176812 -0.00000000       0.023
   0.00000000  0.04765219 -0.00000000       0.012
   0.01588406  0.04765219 -0.00000000       0.023
   0.03176812  0.04765218 -0.00000000       0.023
   0.04765219  0.04765218 -0.00000000       0.023
   0.00000000  0.01588406  0.01588406       0.012
   0.01588406  0.01588406  0.01588406       0.023
   0.03176812  0.01588406  0.01588406       0.023
   0.04765219  0.01588406  0.01588406       0.023
   0.00000000  0.03176812  0.01588406       0.023
   0.01588406  0.03176812  0.01588406       0.047
   0.03176812  0.03176812  0.01588406       0.047
   0.04765219  0.03176812  0.01588406       0.047
   0.00000000  0.04765219  0.01588406       0.023
   0.01588406  0.04765219  0.01588406       0.047
   0.03176812  0.04765218  0.01588406       0.047
   0.04765219  0.04765218  0.01588406       0.047
   0.00000000  0.03176812  0.03176812       0.012
   0.01588406  0.03176812  0.03176812       0.023
   0.03176812  0.03176812  0.03176812       0.023
   0.04765219  0.03176812  0.03176812       0.023
   0.00000000  0.04765219  0.03176812       0.023
   0.01588406  0.04765219  0.03176812       0.047
   0.03176812  0.04765218  0.03176812       0.047
   0.04765219  0.04765218  0.03176812       0.047
   0.00000000  0.04765219  0.04765218       0.012
   0.01588406  0.04765219  0.04765218       0.023
   0.03176812  0.04765218  0.04765218       0.023
   0.04765219  0.04765218  0.04765218       0.023
 
 k-points in reciprocal lattice and weights: Automatic mesh                          
   0.00000000  0.00000000  0.00000000       0.003
   0.14285714 -0.00000000 -0.00000000       0.006
   0.28571429 -0.00000000 -0.00000000       0.006
   0.42857143 -0.00000000 -0.00000000       0.006
   0.00000000  0.14285714 -0.00000000       0.012
   0.14285714  0.14285714 -0.00000000       0.023
   0.28571429  0.14285714 -0.00000000       0.023
   0.42857143  0.14285714 -0.00000000       0.023
   0.00000000  0.28571429 -0.00000000       0.012
   0.14285714  0.28571429 -0.00000000       0.023
   0.28571429  0.28571429 -0.00000000       0.023
   0.42857143  0.28571429 -0.00000000       0.023
   0.00000000  0.42857143 -0.00000000       0.012
   0.14285714  0.42857143 -0.00000000       0.023
   0.28571429  0.42857143 -0.00000000       0.023
   0.42857143  0.42857143 -0.00000000       0.023
   0.00000000  0.14285714  0.14285714       0.012
   0.14285714  0.14285714  0.14285714       0.023
   0.28571429  0.14285714  0.14285714       0.023
   0.42857143  0.14285714  0.14285714       0.023
   0.00000000  0.28571429  0.14285714       0.023
   0.14285714  0.28571429  0.14285714       0.047
   0.28571429  0.28571429  0.14285714       0.047
   0.42857143  0.28571429  0.14285714       0.047
   0.00000000  0.42857143  0.14285714       0.023
   0.14285714  0.42857143  0.14285714       0.047
   0.28571429  0.42857143  0.14285714       0.047
   0.42857143  0.42857143  0.14285714       0.047
   0.00000000  0.28571429  0.28571429       0.012
   0.14285714  0.28571429  0.28571429       0.023
   0.28571429  0.28571429  0.28571429       0.023
   0.42857143  0.28571429  0.28571429       0.023
   0.00000000  0.42857143  0.28571429       0.023
   0.14285714  0.42857143  0.28571429       0.047
   0.28571429  0.42857143  0.28571429       0.047
   0.42857143  0.42857143  0.28571429       0.047
   0.00000000  0.42857143  0.42857143       0.012
   0.14285714  0.42857143  0.42857143       0.023
   0.28571429  0.42857143  0.42857143       0.023
   0.42857143  0.42857143  0.42857143       0.023
 
 position of ions in fractional coordinates (direct lattice) 
   0.75000000  0.75000000  0.50000000
   0.75000000  0.75000000  0.00000000
   0.75000000  0.00000000  0.25000000
   0.75000000  0.25000000  0.50000000
   0.00000000  0.75000000  0.25000000
   0.00000000  0.00000000  0.50000000
   0.25000000  0.75000000  0.50000000
   0.75000000  0.00000000  0.75000000
   0.75000000  0.25000000  0.00000000
   0.75000000  0.50000000  0.25000000
   0.00000000  0.75000000  0.75000000
   0.00222400  0.00000000  0.00000000
   0.00000000  0.25000000  0.25000000
   0.00000000  0.50000000  0.50000000
   0.25000000  0.75000000  0.00000000
   0.25000000  0.00000000  0.25000000
   0.25000000  0.25000000  0.50000000
   0.50000000  0.75000000  0.25000000
   0.50000000  0.00000000  0.50000000
   0.75000000  0.50000000  0.75000000
   0.00000000  0.25000000  0.75000000
   0.00000000  0.50000000  0.00000000
   0.25000000  0.00000000  0.75000000
   0.25000000  0.25000000  0.00000000
   0.25000000  0.50000000  0.25000000
   0.50000000  0.75000000  0.75000000
   0.50000000  0.00000000  0.00000000
   0.50000000  0.25000000  0.25000000
   0.50000000  0.50000000  0.50000000
   0.25000000  0.50000000  0.75000000
   0.50000000  0.25000000  0.75000000
   0.50000000  0.50000000  0.00000000
 
 position of ions in cartesian coordinates  (Angst):
   6.74530618  6.74530606  4.49687066
   6.74530610  6.74530598  0.00000000
   6.74530602  0.00000004  2.24843533
   6.74530610  2.24843541  4.49687066
   0.00000016  6.74530602  2.24843533
   0.00000008  0.00000008  4.49687066
   2.24843553  6.74530606  4.49687066
   6.74530610  0.00000012  6.74530598
   6.74530602  2.24843533  0.00000000
   6.74530610  4.49687070  2.24843533
   0.00000024  6.74530610  6.74530598
   0.02000208  0.00000000  0.00000000
   0.00000008  2.24843537  2.24843533
   0.00000016  4.49687074  4.49687066
   2.24843545  6.74530598  0.00000000
   2.24843537  0.00000004  2.24843533
   2.24843545  2.24843541  4.49687066
   4.49687082  6.74530602  2.24843533
   4.49687074  0.00000008  4.49687066
   6.74530618  4.49687078  6.74530598
   0.00000016  2.24843545  6.74530598
   0.00000008  4.49687066  0.00000000
   2.24843545  0.00000012  6.74530598
   2.24843537  2.24843533  0.00000000
   2.24843545  4.49687070  2.24843533
   4.49687090  6.74530610  6.74530598
   4.49687066  0.00000000  0.00000000
   4.49687073  2.24843537  2.24843533
   4.49687082  4.49687074  4.49687066
   2.24843553  4.49687078  6.74530598
   4.49687082  2.24843545  6.74530598
   4.49687074  4.49687066  0.00000000
 


--------------------------------------------------------------------------------------------------------


 k-point  1 :  0.00000.00000.0000  plane waves:  24207
 k-point  2 :  0.1429-.0000-.0000  plane waves:  24248
 k-point  3 :  0.2857-.0000-.0000  plane waves:  24288
 k-point  4 :  0.4286-.0000-.0000  plane waves:  24248
 k-point  5 :  0.00000.1429-.0000  plane waves:  24248
 k-point  6 :  0.14290.1429-.0000  plane waves:  24261
 k-point  7 :  0.28570.1429-.0000  plane waves:  24247
 k-point  8 :  0.42860.1429-.0000  plane waves:  24294
 k-point  9 :  0.00000.2857-.0000  plane waves:  24288
 k-point 10 :  0.14290.2857-.0000  plane waves:  24247
 k-point 11 :  0.28570.2857-.0000  plane waves:  24243
 k-point 12 :  0.42860.2857-.0000  plane waves:  24252
 k-point 13 :  0.00000.4286-.0000  plane waves:  24248
 k-point 14 :  0.14290.4286-.0000  plane waves:  24294
 k-point 15 :  0.28570.4286-.0000  plane waves:  24252
 k-point 16 :  0.42860.4286-.0000  plane waves:  24296
 k-point 17 :  0.00000.14290.1429  plane waves:  24261
 k-point 18 :  0.14290.14290.1429  plane waves:  24306
 k-point 19 :  0.28570.14290.1429  plane waves:  24268
 k-point 20 :  0.42860.14290.1429  plane waves:  24287
 k-point 21 :  0.00000.28570.1429  plane waves:  24247
 k-point 22 :  0.14290.28570.1429  plane waves:  24268
 k-point 23 :  0.28570.28570.1429  plane waves:  24282
 k-point 24 :  0.42860.28570.1429  plane waves:  24281
 k-point 25 :  0.00000.42860.1429  plane waves:  24294
 k-point 26 :  0.14290.42860.1429  plane waves:  24287
 k-point 27 :  0.28570.42860.1429  plane waves:  24281
 k-point 28 :  0.42860.42860.1429  plane waves:  24257
 k-point 29 :  0.00000.28570.2857  plane waves:  24243
 k-point 30 :  0.14290.28570.2857  plane waves:  24282
 k-point 31 :  0.28570.28570.2857  plane waves:  24270
 k-point 32 :  0.42860.28570.2857  plane waves:  24325
 k-point 33 :  0.00000.42860.2857  plane waves:  24252
 k-point 34 :  0.14290.42860.2857  plane waves:  24281
 k-point 35 :  0.28570.42860.2857  plane waves:  24325
 k-point 36 :  0.42860.42860.2857  plane waves:  24305
 k-point 37 :  0.00000.42860.4286  plane waves:  24296
 k-point 38 :  0.14290.42860.4286  plane waves:  24257
 k-point 39 :  0.28570.42860.4286  plane waves:  24305
 k-point 40 :  0.42860.42860.4286  plane waves:  24326

 maximum and minimum number of plane-waves per node :  24326 24207

 maximum number of plane-waves:  24326
 maximal index in each direction: 
   IXMAX= 17   IYMAX= 17   IZMAX= 17
   IXMIN=-18   IYMIN=-18   IZMIN=-18

 NGX is ok and might be reduce to  72
 NGY is ok and might be reduce to  72
 NGZ is ok and might be reduce to  72

 parallel 3dFFT wavefunction:
    minimum data exchange during FFTs selected (reduces bandwidth)
 parallel 3dFFT charge:
    minimum data exchange during FFTs selected (reduces bandwidth)

 For storing wavefunctions 3293.45 MBYTES are necessary
 For predicting wavefunctions  176.59 MBYTES are necessary
Broyden mixing: mesh for mixing (old mesh)
   NGX = 35   NGY = 35   NGZ = 35
  (NGX  =144   NGY  =144   NGZ  =144)
 gives a total of  42875 points
 charge density for first step will be calculated from the start-wavefunctions


--------------------------------------------------------------------------------------------------------


 Maximum index for augmentation-charges        48894 (set IRDMAX)


--------------------------------------------------------------------------------------------------------


 initial charge from wavefunction
 First call to EWALD:  gamma=   0.197
 Maximum number of real-space cells 3x 3x 3
 Maximum number of reciprocal cells 3x 3x 3

    FEWALD:  VPU time    0.00: CPU time    0.00


----------------------------------------- Iteration    1(   1)  ---------------------------------------


    POTLOK:  VPU time    0.44: CPU time    0.45
    SETDIJ:  VPU time    0.46: CPU time    0.46
    EDDIAG:  VPU time   27.97: CPU time   27.96
  RMM-DIIS:  VPU time  167.68: CPU time  167.60
    ORTHCH:  VPU time    4.92: CPU time    4.92
    DOS   :  VPU time    0.00: CPU time   -0.00
    CHARGE:  VPU time   11.15: CPU time   11.14
    MIXING:  VPU time    0.01: CPU time    0.01
    ------------------------------------------
      LOOP:  VPU time  212.70: CPU time  212.59

 eigenvalue-minimisations  : 17497
 total energy-change (2. order) :-0.8545895E+02  (-0.6935513E+02)
 number of electron  352.0000010 magnetization 
 augmentation part   172.9708122 magnetization 

 Broyden mixing:
  rms(total) = 0.71324E+00    rms(broyden)= 0.64647E+00
  rms(prec ) = 0.92805E+00
  weight for this iteration     100.00

 Free energy of the ion-electron system (eV)
  ---------------------------------------------------
  alpha Z        PSCENC =      2499.58107540
  Ewald energy   TEWEN  =    -28423.42482275
  -1/2 Hartree   DENC   =     -7518.42407575
  -V(xc)+E(xc)   XCENC  =      -404.70188044
  PAW double counting   =     26667.51424355   -25213.29109363
  entropy T*S    EENTRO =        -0.01545381
  eigenvalues    EBANDS =      -889.86482796
  atomic energy  EATOM  =     33197.16788402
  ---------------------------------------------------
  free energy    TOTEN  =       -85.45895136 eV

  energy without entropy =      -85.44349755  energy(sigma->0) =      -85.45380009


--------------------------------------------------------------------------------------------------------




----------------------------------------- Iteration    1(   2)  ---------------------------------------


    POTLOK:  VPU time    0.44: CPU time    0.44
    SETDIJ:  VPU time    0.45: CPU time    0.45
    EDDIAG:  VPU time   27.80: CPU time   27.79
  RMM-DIIS:  VPU time  168.88: CPU time  168.79
    ORTHCH:  VPU time    4.89: CPU time    4.88
    DOS   :  VPU time    0.00: CPU time   -0.00
    CHARGE:  VPU time   11.01: CPU time   11.01
    MIXING:  VPU time    0.01: CPU time    0.01
    ------------------------------------------
      LOOP:  VPU time  213.54: CPU time  213.44

 eigenvalue-minimisations  : 17724
 total energy-change (2. order) : 0.1369383E+01  (-0.1466847E+01)
 number of electron  352.0000010 magnetization 
 augmentation part   169.8650374 magnetization 

 Broyden mixing:
  rms(total) = 0.14121E+00    rms(broyden)= 0.14118E+00
  rms(prec ) = 0.17209E+00
  weight for this iteration     100.00

 eigenvalues of (default mixing * dielectric matrix)
  average eigenvalue GAMMA=   0.8460
  0.8460

 Free energy of the ion-electron system (eV)
  ---------------------------------------------------
  alpha Z        PSCENC =      2499.58107540
  Ewald energy   TEWEN  =    -28423.42482275
  -1/2 Hartree   DENC   =     -7641.43990472
  -V(xc)+E(xc)   XCENC  =      -375.11109449
  PAW double counting   =     27143.79471207   -25695.73769226
  entropy T*S    EENTRO =        -0.01766900
  eigenvalues    EBANDS =      -788.90205689
  atomic energy  EATOM  =     33197.16788402
  ---------------------------------------------------
  free energy    TOTEN  =       -84.08956862 eV

  energy without entropy =      -84.07189962  energy(sigma->0) =      -84.08367896


--------------------------------------------------------------------------------------------------------




----------------------------------------- Iteration    1(   3)  ---------------------------------------


    POTLOK:  VPU time    0.43: CPU time    0.43
    SETDIJ:  VPU time    0.44: CPU time    0.45
    EDDIAG:  VPU time   27.76: CPU time   27.75
  RMM-DIIS:  VPU time  173.40: CPU time  173.35
    ORTHCH:  VPU time    4.92: CPU time    4.92
    DOS   :  VPU time    0.00: CPU time   -0.00
    CHARGE:  VPU time   11.31: CPU time   11.30
    MIXING:  VPU time    0.01: CPU time    0.01
    ------------------------------------------
      LOOP:  VPU time  218.34: CPU time  218.28

 eigenvalue-minimisations  : 18213
 total energy-change (2. order) : 0.5876423E-02  (-0.2451757E-01)
 number of electron  352.0000010 magnetization 
 augmentation part   170.0160785 magnetization 

 Broyden mixing:
  rms(total) = 0.74550E-01    rms(broyden)= 0.74549E-01
  rms(prec ) = 0.85701E-01
  weight for this iteration     100.00

 eigenvalues of (default mixing * dielectric matrix)
  average eigenvalue GAMMA=   1.6451
  0.9569  2.3333

 Free energy of the ion-electron system (eV)
  ---------------------------------------------------
  alpha Z        PSCENC =      2499.58107540
  Ewald energy   TEWEN  =    -28423.42482275
  -1/2 Hartree   DENC   =     -7628.41026771
  -V(xc)+E(xc)   XCENC  =      -375.55367035
  PAW double counting   =     27239.38162236   -25790.91289801
  entropy T*S    EENTRO =        -0.01741433
  eigenvalues    EBANDS =      -801.89520083
  atomic energy  EATOM  =     33197.16788402
  ---------------------------------------------------
  free energy    TOTEN  =       -84.08369220 eV

  energy without entropy =      -84.06627787  energy(sigma->0) =      -84.07788742


--------------------------------------------------------------------------------------------------------




----------------------------------------- Iteration    1(   4)  ---------------------------------------


    POTLOK:  VPU time    0.44: CPU time    0.44
    SETDIJ:  VPU time    0.45: CPU time    0.45
    EDDIAG:  VPU time   27.82: CPU time   27.81
  RMM-DIIS:  VPU time  169.92: CPU time  169.85
    ORTHCH:  VPU time    4.92: CPU time    4.92
    DOS   :  VPU time    0.00: CPU time   -0.00
    CHARGE:  VPU time   11.12: CPU time   11.12
    MIXING:  VPU time    0.01: CPU time    0.01
    ------------------------------------------
      LOOP:  VPU time  214.74: CPU time  214.66

 eigenvalue-minimisations  : 18135
 total energy-change (2. order) :-0.8129281E-03  (-0.6336402E-02)
 number of electron  352.0000010 magnetization 
 augmentation part   170.2470029 magnetization 

 Broyden mixing:
  rms(total) = 0.24962E-01    rms(broyden)= 0.24962E-01
  rms(prec ) = 0.36252E-01
  weight for this iteration     100.00

 eigenvalues of (default mixing * dielectric matrix)
  average eigenvalue GAMMA=   1.5464
  2.5037  1.0678  1.0678

 Free energy of the ion-electron system (eV)
  ---------------------------------------------------
  alpha Z        PSCENC =      2499.58107540
  Ewald energy   TEWEN  =    -28423.42482275
  -1/2 Hartree   DENC   =     -7618.27946580
  -V(xc)+E(xc)   XCENC  =      -375.88413291
  PAW double counting   =     27391.90507849   -25943.09591023
  entropy T*S    EENTRO =        -0.01719312
  eigenvalues    EBANDS =      -812.03701823
  atomic energy  EATOM  =     33197.16788402
  ---------------------------------------------------
  free energy    TOTEN  =       -84.08450513 eV

  energy without entropy =      -84.06731201  energy(sigma->0) =      -84.07877409


--------------------------------------------------------------------------------------------------------




----------------------------------------- Iteration    1(   5)  ---------------------------------------


    POTLOK:  VPU time    0.43: CPU time    0.43
    SETDIJ:  VPU time    0.45: CPU time    0.45
    EDDIAG:  VPU time   27.73: CPU time   27.72
  RMM-DIIS:  VPU time  169.76: CPU time  169.71
    ORTHCH:  VPU time    4.91: CPU time    4.91
    DOS   :  VPU time    0.00: CPU time   -0.00
    CHARGE:  VPU time   11.37: CPU time   11.36
    MIXING:  VPU time    0.01: CPU time    0.01
    ------------------------------------------
      LOOP:  VPU time  214.71: CPU time  214.65

 eigenvalue-minimisations  : 18076
 total energy-change (2. order) : 0.1651128E-02  (-0.1562353E-02)
 number of electron  352.0000010 magnetization 
 augmentation part   170.1260434 magnetization 

 Broyden mixing:
  rms(total) = 0.69022E-02    rms(broyden)= 0.69016E-02
  rms(prec ) = 0.95969E-02
  weight for this iteration     100.00

 eigenvalues of (default mixing * dielectric matrix)
  average eigenvalue GAMMA=   1.4309
  2.5239  1.3270  0.9363  0.9363

 Free energy of the ion-electron system (eV)
  ---------------------------------------------------
  alpha Z        PSCENC =      2499.58107540
  Ewald energy   TEWEN  =    -28423.42482275
  -1/2 Hartree   DENC   =     -7624.91386338
  -V(xc)+E(xc)   XCENC  =      -375.63894882
  PAW double counting   =     27461.82262538   -26013.26668509
  entropy T*S    EENTRO =        -0.01730622
  eigenvalues    EBANDS =      -805.39281255
  atomic energy  EATOM  =     33197.16788402
  ---------------------------------------------------
  free energy    TOTEN  =       -84.08285400 eV

  energy without entropy =      -84.06554778  energy(sigma->0) =      -84.07708526


--------------------------------------------------------------------------------------------------------




----------------------------------------- Iteration    1(   6)  ---------------------------------------


    POTLOK:  VPU time    0.44: CPU time    0.44
    SETDIJ:  VPU time    0.45: CPU time    0.45
    EDDIAG:  VPU time   27.84: CPU time   27.83
  RMM-DIIS:  VPU time  173.42: CPU time  173.37
    ORTHCH:  VPU time    4.94: CPU time    4.94
    DOS   :  VPU time    0.00: CPU time   -0.00
    CHARGE:  VPU time   11.61: CPU time   11.60
    MIXING:  VPU time    0.01: CPU time    0.01
    ------------------------------------------
      LOOP:  VPU time  218.76: CPU time  218.71

 eigenvalue-minimisations  : 18621
 total energy-change (2. order) : 0.8482956E-04  (-0.2209863E-04)
 number of electron  352.0000010 magnetization 
 augmentation part   170.1323166 magnetization 

 Broyden mixing:
  rms(total) = 0.43944E-02    rms(broyden)= 0.43944E-02
  rms(prec ) = 0.59973E-02
  weight for this iteration     100.00

 eigenvalues of (default mixing * dielectric matrix)
  average eigenvalue GAMMA=   1.4738
  2.5412  1.8293  1.0272  1.0272  0.9442

 Free energy of the ion-electron system (eV)
  ---------------------------------------------------
  alpha Z        PSCENC =      2499.58107540
  Ewald energy   TEWEN  =    -28423.42482275
  -1/2 Hartree   DENC   =     -7624.51376518
  -V(xc)+E(xc)   XCENC  =      -375.65179598
  PAW double counting   =     27462.17666393   -26013.59068023
  entropy T*S    EENTRO =        -0.01729571
  eigenvalues    EBANDS =      -805.81003267
  atomic energy  EATOM  =     33197.16788402
  ---------------------------------------------------
  free energy    TOTEN  =       -84.08276917 eV

  energy without entropy =      -84.06547346  energy(sigma->0) =      -84.07700393


--------------------------------------------------------------------------------------------------------




----------------------------------------- Iteration    1(   7)  ---------------------------------------


    POTLOK:  VPU time    0.45: CPU time    0.45
    SETDIJ:  VPU time    0.46: CPU time    0.46
    EDDIAG:  VPU time   28.88: CPU time   28.86
  RMM-DIIS:  VPU time  185.44: CPU time  185.35
    ORTHCH:  VPU time    4.98: CPU time    4.98
    DOS   :  VPU time    0.00: CPU time   -0.00
    CHARGE:  VPU time   12.72: CPU time   12.71
    MIXING:  VPU time    0.01: CPU time    0.01
    ------------------------------------------
      LOOP:  VPU time  233.00: CPU time  232.89

 eigenvalue-minimisations  : 18243
 total energy-change (2. order) : 0.6330269E-04  (-0.3649685E-04)
 number of electron  352.0000010 magnetization 
 augmentation part   170.1503965 magnetization 

 Broyden mixing:
  rms(total) = 0.72644E-03    rms(broyden)= 0.72628E-03
  rms(prec ) = 0.10458E-02
  weight for this iteration     100.00

 eigenvalues of (default mixing * dielectric matrix)
  average eigenvalue GAMMA=   1.5083
  2.6402  2.0015  1.5872  0.9744  0.9744  0.8719

 Free energy of the ion-electron system (eV)
  ---------------------------------------------------
  alpha Z        PSCENC =      2499.58107540
  Ewald energy   TEWEN  =    -28423.42482275
  -1/2 Hartree   DENC   =     -7623.65365807
  -V(xc)+E(xc)   XCENC  =      -375.68143576
  PAW double counting   =     27460.04571538   -26011.41911833
  entropy T*S    EENTRO =        -0.01727725
  eigenvalues    EBANDS =      -806.68106851
  atomic energy  EATOM  =     33197.16788402
  ---------------------------------------------------
  free energy    TOTEN  =       -84.08270587 eV

  energy without entropy =      -84.06542861  energy(sigma->0) =      -84.07694678


--------------------------------------------------------------------------------------------------------




----------------------------------------- Iteration    1(   8)  ---------------------------------------


    POTLOK:  VPU time    0.46: CPU time    0.46
    SETDIJ:  VPU time    0.47: CPU time    0.47
    EDDIAG:  VPU time   30.31: CPU time   30.30
  RMM-DIIS:  VPU time  114.82: CPU time  114.77
    ORTHCH:  VPU time    4.98: CPU time    4.97
    DOS   :  VPU time    0.00: CPU time   -0.00
    ------------------------------------------
      LOOP:  VPU time  151.10: CPU time  151.03

 eigenvalue-minimisations  : 10432
 total energy-change (2. order) : 0.2028501E-05  (-0.4287063E-06)
 number of electron  352.0000010 magnetization 
 augmentation part   170.1503965 magnetization 

 Free energy of the ion-electron system (eV)
  ---------------------------------------------------
  alpha Z        PSCENC =      2499.58107540
  Ewald energy   TEWEN  =    -28423.42482275
  -1/2 Hartree   DENC   =     -7623.67830147
  -V(xc)+E(xc)   XCENC  =      -375.68019207
  PAW double counting   =     27459.63507624   -26011.00660866
  entropy T*S    EENTRO =        -0.01727665
  eigenvalues    EBANDS =      -806.65953790
  atomic energy  EATOM  =     33197.16788402
  ---------------------------------------------------
  free energy    TOTEN  =       -84.08270384 eV

  energy without entropy =      -84.06542719  energy(sigma->0) =      -84.07694495


--------------------------------------------------------------------------------------------------------




 average (electrostatic) potential at core
  the test charge radii are     1.1249
  (the norm of the test charge is              1.0000)
       1 -42.8545       2 -42.8531       3 -42.8531       4 -42.8545       5 -42.8545
       6 -42.8545       7 -42.8546       8 -42.8531       9 -42.8531      10 -42.8545
      11 -42.8545      12 -42.8546      13 -42.8545      14 -42.8545      15 -42.8560
      16 -42.8560      17 -42.8546      18 -42.8545      19 -42.8545      20 -42.8545
      21 -42.8545      22 -42.8545      23 -42.8560      24 -42.8560      25 -42.8546
      26 -42.8545      27 -42.8545      28 -42.8545      29 -42.8545      30 -42.8546
      31 -42.8545      32 -42.8545
 
 
 
 E-fermi :   1.4078     XC(G=0): -10.5796     alpha+bet : -6.4050
   add alpha+bet to get absolut eigen values

 k-point   1 :       0.0000    0.0000    0.0000
  band No.  band energies     occupation 
      1      -4.5527      2.00000
      2      -3.6009      2.00000
      3      -3.6009      2.00000
      4      -3.6009      2.00000
      5      -3.5960      2.00000
      6      -3.5959      2.00000
      7      -3.5959      2.00000
      8      -3.5959      2.00000
      9      -3.5493      2.00000
     10      -3.5493      2.00000
     11      -3.5493      2.00000
     12      -3.2284      2.00000
     13      -3.2261      2.00000
     14      -3.2260      2.00000
     15      -3.2260      2.00000
     16      -3.2260      2.00000
     17      -3.2237      2.00000
     18      -3.1256      2.00000
     19      -3.1237      2.00000
     20      -3.1236      2.00000
     21      -3.1236      2.00000
     22      -3.1236      2.00000
     23      -3.1217      2.00000
     24      -3.1205      2.00000
     25      -3.1185      2.00000
     26      -3.1185      2.00000
     27      -3.1184      2.00000
     28      -3.1184      2.00000
     29      -3.1165      2.00000
     30      -2.9398      2.00000
     31      -2.9398      2.00000
     32      -2.9394      2.00000
     33      -2.9385      2.00000
     34      -2.9380      2.00000
     35      -2.9380      2.00000
     36      -2.9380      2.00000
     37      -2.9380      2.00000
     38      -2.9375      2.00000
     39      -2.9366      2.00000
     40      -2.9363      2.00000
     41      -2.9363      2.00000
     42      -2.8144      2.00000
     43      -2.8120      2.00000
     44      -2.8120      2.00000
     45      -2.8108      2.00000
     46      -2.8107      2.00000
     47      -2.8107      2.00000
     48      -2.8107      2.00000
     49      -2.8107      2.00000
     50      -2.8107      2.00000
     51      -2.8096      2.00000
     52      -2.8096      2.00000
     53      -2.8073      2.00000
     54      -2.7720      2.00000
     55      -2.7720      2.00000
     56      -2.7697      2.00000
     57      -2.7697      2.00000
     58      -2.7697      2.00000
     59      -2.7697      2.00000
     60      -2.7697      2.00000
     61      -2.7697      2.00000
     62      -2.7697      2.00000
     63      -2.7694      2.00000
     64      -2.7673      2.00000
     65      -2.7673      2.00000
     66      -2.6612      2.00000
     67      -2.6612      2.00000
     68      -2.6612      2.00000
     69      -2.6611      2.00000
     70      -2.6611      2.00000
     71      -2.6611      2.00000
     72      -2.6611      2.00000
     73      -2.6611      2.00000
     74      -2.6552      2.00000
     75      -2.6552      2.00000
     76      -2.6551      2.00000
     77      -2.4837      2.00000
     78      -2.4815      2.00000
     79      -2.4810      2.00000
     80      -2.4810      2.00000
     81      -2.4808      2.00000
     82      -2.4808      2.00000
     83      -2.4808      2.00000
     84      -2.4808      2.00000
     85      -2.4805      2.00000
     86      -2.4805      2.00000
     87      -2.4801      2.00000
     88      -2.4778      2.00000
     89      -2.2480      2.00000
     90      -2.2472      2.00000
     91      -2.2461      2.00000
     92      -2.2461      2.00000
     93      -2.2456      2.00000
     94      -2.2456      2.00000
     95      -2.2456      2.00000
     96      -2.2456      2.00000
     97      -2.2452      2.00000
     98      -2.2452      2.00000
     99      -2.2440      2.00000
    100      -2.2434      2.00000
    101      -2.1216      2.00000
    102      -2.1216      2.00000
    103      -2.1193      2.00000
    104      -2.1193      2.00000
    105      -2.1191      2.00000
    106      -2.1191      2.00000
    107      -2.1191      2.00000
    108      -2.1191      2.00000
    109      -2.1189      2.00000
    110      -2.1189      2.00000
    111      -2.1167      2.00000
    112      -2.1167      2.00000
    113      -2.0415      2.00000
    114      -2.0413      2.00000
    115      -2.0240      2.00000
    116      -2.0240      2.00000
    117      -2.0217      2.00000
    118      -2.0215      2.00000
    119      -2.0213      2.00000
    120      -2.0213      2.00000
    121      -2.0213      2.00000
    122      -2.0213      2.00000
    123      -2.0212      2.00000
    124      -2.0208      2.00000
    125      -2.0187      2.00000
    126      -2.0187      2.00000
    127      -2.0095      2.00000
    128      -2.0083      2.00000
    129      -2.0083      2.00000
    130      -2.0080      2.00000
    131      -2.0080      2.00000
    132      -2.0067      2.00000
    133      -1.8185      2.00000
    134      -1.8175      2.00000
    135      -1.8174      2.00000
    136      -1.8174      2.00000
    137      -1.8174      2.00000
    138      -1.8163      2.00000
    139      -1.7624      2.00000
    140      -1.7596      2.00000
    141      -1.7596      2.00000
    142      -1.7596      2.00000
    143      -1.7595      2.00000
    144      -1.7567      2.00000
    145      -1.5855      2.00000
    146      -1.5855      2.00000
    147      -1.5855      2.00000
    148      -1.5635      2.00000
    149      -1.5635      2.00000
    150      -1.5635      2.00000
    151      -1.5635      2.00000
    152      -1.5635      2.00000
    153      -1.5635      2.00000
    154      -1.5635      2.00000
    155      -1.5634      2.00000
    156      -1.4407      2.00000
    157      -1.4403      2.00000
    158      -1.4403      2.00000
    159      -1.4403      2.00000
    160      -1.4402      2.00000
    161      -1.4402      2.00000
    162      -1.4398      2.00000
    163      -1.4397      2.00000
    164      -1.4397      2.00000
    165      -1.4397      2.00000
    166      -1.4397      2.00000
    167      -1.4393      2.00000
    168       0.6764      2.00000
    169       0.6793      2.00000
    170       0.6793      2.00000
    171       0.6808      2.00000
    172       0.6812      2.00000
    173       0.6812      2.00000
    174       0.6813      2.00000
    175       0.6813      2.00000
    176       0.6817      2.00000
    177       0.6832      2.00000
    178       0.6832      2.00000
    179       0.6861      2.00000
    180       1.6455     -0.07050
    181       1.6456     -0.07050
    182       1.6456     -0.07051
    183       1.6456     -0.07051
    184       3.2027     -0.00000
    185       3.2027     -0.00000
    186       3.2028     -0.00000
    187       3.6228     -0.00000
    188       3.6228     -0.00000
    189       3.6228     -0.00000
    190       3.6228     -0.00000
    191       6.1531     -0.00000
    192       6.1533     -0.00000
    193       6.1537     -0.00000
    194       6.3559     -0.00000
    195       6.3567     -0.00000
    196       6.3605     -0.00000
    197       6.3606     -0.00000
    198       6.3609     -0.00000
    199       6.3609     -0.00000
    200       6.3610     -0.00000
    201       6.3612     -0.00000
    202       6.3613     -0.00000
    203       6.3654     -0.00000
    204       6.3658     -0.00000
    205       6.4039     -0.00000
    206       6.5521     -0.00000
    207       6.5522     -0.00000
    208       6.5523     -0.00000
    209       6.5523     -0.00000
    210       6.5523     -0.00000
    211       8.6564      0.00000
    212       8.8407      0.00000

 k-point   2 :       0.1429   -0.0000   -0.0000
  band No.  band energies     occupation 
      1      -4.5101      2.00000
      2      -3.5865      2.00000
      3      -3.5825      2.00000
      4      -3.5825      2.00000
      5      -3.5783      2.00000
      6      -3.5783      2.00000
      7      -3.5783      2.00000
      8      -3.5783      2.00000
      9      -3.5389      2.00000
     10      -3.5329      2.00000
     11      -3.5329      2.00000
     12      -3.3456      2.00000
     13      -3.2370      2.00000
     14      -3.2170      2.00000
     15      -3.2018      2.00000
     16      -3.2018      2.00000
     17      -3.2017      2.00000
     18      -3.2017      2.00000
     19      -3.1562      2.00000
     20      -3.1562      2.00000
     21      -3.1116      2.00000
     22      -3.1116      2.00000
     23      -3.1116      2.00000
     24      -3.1116      2.00000
     25      -3.1091      2.00000
     26      -3.1091      2.00000
     27      -3.1091      2.00000
     28      -3.1090      2.00000
     29      -3.0330      2.00000
     30      -3.0329      2.00000
     31      -3.0329      2.00000
     32      -3.0328      2.00000
     33      -3.0182      2.00000
     34      -2.9705      2.00000
     35      -2.9705      2.00000
     36      -2.9664      2.00000
     37      -2.9663      2.00000
     38      -2.9662      2.00000
     39      -2.9662      2.00000
     40      -2.8963      2.00000
     41      -2.8963      2.00000
     42      -2.8963      2.00000
     43      -2.8963      2.00000
     44      -2.8598      2.00000
     45      -2.8598      2.00000
     46      -2.8598      2.00000
     47      -2.8597      2.00000
     48      -2.7796      2.00000
     49      -2.7782      2.00000
     50      -2.7782      2.00000
     51      -2.7781      2.00000
     52      -2.7766      2.00000
     53      -2.7763      2.00000
     54      -2.7763      2.00000
     55      -2.7752      2.00000
     56      -2.7733      2.00000
     57      -2.7731      2.00000
     58      -2.7731      2.00000
     59      -2.7729      2.00000
     60      -2.7682      2.00000
     61      -2.7681      2.00000
     62      -2.7681      2.00000
     63      -2.7675      2.00000
     64      -2.6672      2.00000
     65      -2.6658      2.00000
     66      -2.6658      2.00000
     67      -2.6657      2.00000
     68      -2.6657      2.00000
     69      -2.6490      2.00000
     70      -2.6490      2.00000
     71      -2.6490      2.00000
     72      -2.6489      2.00000
     73      -2.6430      2.00000
     74      -2.6430      2.00000
     75      -2.5516      2.00000
     76      -2.5516      2.00000
     77      -2.5516      2.00000
     78      -2.5516      2.00000
     79      -2.5466      2.00000
     80      -2.5466      2.00000
     81      -2.5280      2.00000
     82      -2.5279      2.00000
     83      -2.5279      2.00000
     84      -2.5279      2.00000
     85      -2.4002      2.00000
     86      -2.4002      2.00000
     87      -2.4002      2.00000
     88      -2.4002      2.00000
     89      -2.2963      2.00000
     90      -2.2962      2.00000
     91      -2.2962      2.00000
     92      -2.2961      2.00000
     93      -2.2484      2.00000
     94      -2.2484      2.00000
     95      -2.2194      2.00000
     96      -2.2193      2.00000
     97      -2.2193      2.00000
     98      -2.2193      2.00000
     99      -2.2053      2.00000
    100      -2.2052      2.00000
    101      -2.2052      2.00000
    102      -2.2052      2.00000
    103      -2.1850      2.00000
    104      -2.1850      2.00000
    105      -2.1849      2.00000
    106      -2.1848      2.00000
    107      -2.1201      2.00000
    108      -2.1201      2.00000
    109      -2.1201      2.00000
    110      -2.1200      2.00000
    111      -2.0857      2.00000
    112      -2.0764      2.00000
    113      -2.0764      2.00000
    114      -2.0764      2.00000
    115      -2.0764      2.00000
    116      -2.0532      2.00000
    117      -2.0359      2.00000
    118      -2.0087      2.00000
    119      -2.0086      2.00000
    120      -2.0086      2.00000
    121      -2.0085      2.00000
    122      -1.9829      2.00000
    123      -1.9829      2.00000
    124      -1.9784      2.00000
    125      -1.9783      2.00000
    126      -1.9687      2.00000
    127      -1.9687      2.00000
    128      -1.9687      2.00000
    129      -1.9685      2.00000
    130      -1.9397      2.00000
    131      -1.9397      2.00000
    132      -1.9396      2.00000
    133      -1.9396      2.00000
    134      -1.8679      2.00000
    135      -1.8237      2.00000
    136      -1.8237      2.00000
    137      -1.8237      2.00000
    138      -1.8236      2.00000
    139      -1.7665      2.00000
    140      -1.6369      2.00000
    141      -1.6368      2.00000
    142      -1.6368      2.00000
    143      -1.6368      2.00000
    144      -1.6012      2.00000
    145      -1.6011      2.00000
    146      -1.5963      2.00000
    147      -1.5962      2.00000
    148      -1.5962      2.00000
    149      -1.5962      2.00000
    150      -1.5914      2.00000
    151      -1.5778      2.00000
    152      -1.5778      2.00000
    153      -1.5778      2.00000
    154      -1.5778      2.00000
    155      -1.4903      2.00000
    156      -1.4903      2.00000
    157      -1.4611      2.00000
    158      -1.4611      2.00000
    159      -1.4611      2.00000
    160      -1.4611      2.00000
    161      -1.4597      2.00000
    162      -1.4597      2.00000
    163      -1.4407      2.00000
    164      -1.4403      2.00000
    165      -1.4398      2.00000
    166      -1.4393      2.00000
    167      -1.2203      2.00000
    168       0.1377      2.00000
    169       0.1377      2.00000
    170       0.1377      2.00000
    171       0.1377      2.00000
    172       0.7047      2.00001
    173       0.7047      2.00001
    174       0.7047      2.00001
    175       0.7047      2.00001
    176       1.3053      1.75371
    177       1.3053      1.75371
    178       1.3053      1.75359
    179       1.3053      1.75358
    180       1.5376      0.11841
    181       1.5376      0.11836
    182       1.5376      0.11833
    183       1.5376      0.11833
    184       2.8071     -0.00000
    185       3.2916     -0.00000
    186       3.2916     -0.00000
    187       3.8306     -0.00000
    188       3.8306     -0.00000
    189       3.8307     -0.00000
    190       3.8307     -0.00000
    191       5.5488     -0.00000
    192       5.5488     -0.00000
    193       5.5488     -0.00000
    194       5.5488     -0.00000
    195       5.6670     -0.00000
    196       5.6670     -0.00000
    197       6.1648     -0.00000
    198       6.1648     -0.00000
    199       6.4224     -0.00000
    200       6.4224     -0.00000
    201       6.4224     -0.00000
    202       6.4224     -0.00000
    203       6.5159     -0.00000
    204       6.5159     -0.00000
    205       6.6232     -0.00000
    206       7.0408      0.00000
    207       7.0408      0.00000
    208       7.0409      0.00000
    209       7.0751      0.00000
    210       7.0899      0.00000
    211       7.9855      0.00000
    212       8.1795      0.00000

 k-point   3 :       0.2857   -0.0000   -0.0000
  band No.  band energies     occupation 
      1      -4.3835      2.00000
      2      -3.6048      2.00000
      3      -3.5446      2.00000
      4      -3.5291      2.00000
      5      -3.5290      2.00000
      6      -3.5258      2.00000
      7      -3.5258      2.00000
      8      -3.5258      2.00000
      9      -3.5257      2.00000
     10      -3.5080      2.00000
     11      -3.4838      2.00000
     12      -3.4838      2.00000
     13      -3.3091      2.00000
     14      -3.3083      2.00000
     15      -3.2393      2.00000
     16      -3.2392      2.00000
     17      -3.1830      2.00000
     18      -3.1830      2.00000
     19      -3.1830      2.00000
     20      -3.1830      2.00000
     21      -3.1442      2.00000
     22      -3.1442      2.00000
     23      -3.1319      2.00000
     24      -3.1319      2.00000
     25      -3.1319      2.00000
     26      -3.1319      2.00000
     27      -3.0814      2.00000
     28      -3.0814      2.00000
     29      -3.0814      2.00000
     30      -3.0814      2.00000
     31      -3.0789      2.00000
     32      -3.0789      2.00000
     33      -3.0789      2.00000
     34      -3.0789      2.00000
     35      -2.9843      2.00000
     36      -2.9843      2.00000
     37      -2.9843      2.00000
     38      -2.9843      2.00000
     39      -2.9218      2.00000
     40      -2.9197      2.00000
     41      -2.9197      2.00000
     42      -2.9196      2.00000
     43      -2.9196      2.00000
     44      -2.8605      2.00000
     45      -2.8604      2.00000
     46      -2.8604      2.00000
     47      -2.8604      2.00000
     48      -2.7792      2.00000
     49      -2.7792      2.00000
     50      -2.7792      2.00000
     51      -2.7792      2.00000
     52      -2.7656      2.00000
     53      -2.7643      2.00000
     54      -2.7643      2.00000
     55      -2.7643      2.00000
     56      -2.7617      2.00000
     57      -2.7616      2.00000
     58      -2.7616      2.00000
     59      -2.7605      2.00000
     60      -2.7456      2.00000
     61      -2.7456      2.00000
     62      -2.7456      2.00000
     63      -2.7454      2.00000
     64      -2.7026      2.00000
     65      -2.6789      2.00000
     66      -2.6789      2.00000
     67      -2.6788      2.00000
     68      -2.6788      2.00000
     69      -2.6510      2.00000
     70      -2.6510      2.00000
     71      -2.6510      2.00000
     72      -2.6509      2.00000
     73      -2.6255      2.00000
     74      -2.6253      2.00000
     75      -2.6253      2.00000
     76      -2.6253      2.00000
     77      -2.6130      2.00000
     78      -2.6130      2.00000
     79      -2.6129      2.00000
     80      -2.6129      2.00000
     81      -2.6068      2.00000
     82      -2.6068      2.00000
     83      -2.3879      2.00000
     84      -2.3878      2.00000
     85      -2.3878      2.00000
     86      -2.3878      2.00000
     87      -2.3792      2.00000
     88      -2.3792      2.00000
     89      -2.3792      2.00000
     90      -2.3792      2.00000
     91      -2.3655      2.00000
     92      -2.3655      2.00000
     93      -2.3077      2.00000
     94      -2.3077      2.00000
     95      -2.2236      2.00000
     96      -2.2235      2.00000
     97      -2.2235      2.00000
     98      -2.2235      2.00000
     99      -2.1935      2.00000
    100      -2.1223      2.00000
    101      -2.1223      2.00000
    102      -2.1223      2.00000
    103      -2.1223      2.00000
    104      -2.1114      2.00000
    105      -2.1109      2.00000
    106      -2.1109      2.00000
    107      -2.1109      2.00000
    108      -2.1072      2.00000
    109      -2.1072      2.00000
    110      -2.1072      2.00000
    111      -2.1072      2.00000
    112      -2.1066      2.00000
    113      -2.1066      2.00000
    114      -2.1066      2.00000
    115      -2.1062      2.00000
    116      -2.0868      2.00000
    117      -2.0195      2.00000
    118      -2.0121      2.00000
    119      -2.0121      2.00000
    120      -2.0121      2.00000
    121      -2.0121      2.00000
    122      -1.9156      2.00000
    123      -1.9027      2.00000
    124      -1.9026      2.00000
    125      -1.8713      2.00000
    126      -1.8713      2.00000
    127      -1.8713      2.00000
    128      -1.8712      2.00000
    129      -1.8612      2.00000
    130      -1.8612      2.00000
    131      -1.8611      2.00000
    132      -1.8611      2.00000
    133      -1.8466      2.00000
    134      -1.8466      2.00000
    135      -1.8367      2.00000
    136      -1.8367      2.00000
    137      -1.8367      2.00000
    138      -1.8367      2.00000
    139      -1.7178      2.00000
    140      -1.6914      2.00000
    141      -1.6914      2.00000
    142      -1.6914      2.00000
    143      -1.6914      2.00000
    144      -1.6469      2.00000
    145      -1.6468      2.00000
    146      -1.6291      2.00000
    147      -1.6291      2.00000
    148      -1.6197      2.00000
    149      -1.6197      2.00000
    150      -1.6197      2.00000
    151      -1.6196      2.00000
    152      -1.6088      2.00000
    153      -1.5221      2.00000
    154      -1.5221      2.00000
    155      -1.5221      2.00000
    156      -1.5221      2.00000
    157      -1.5163      2.00000
    158      -1.5163      2.00000
    159      -1.4407      2.00000
    160      -1.4402      2.00000
    161      -1.4399      2.00000
    162      -1.4393      2.00000
    163      -1.3880      2.00000
    164      -1.3880      2.00000
    165      -1.3880      2.00000
    166      -1.3880      2.00000
    167      -0.5354      2.00000
    168      -0.3317      2.00000
    169      -0.3317      2.00000
    170      -0.3317      2.00000
    171      -0.3317      2.00000
    172       0.7767      2.00008
    173       0.7768      2.00008
    174       0.7768      2.00008
    175       0.7768      2.00008
    176       1.3101      1.72717
    177       1.3101      1.72709
    178       1.3101      1.72709
    179       1.3101      1.72709
    180       1.9953     -0.00026
    181       2.0120     -0.00017
    182       2.0120     -0.00017
    183       2.0120     -0.00017
    184       2.0121     -0.00017
    185       3.5462     -0.00000
    186       3.5462     -0.00000
    187       4.3547     -0.00000
    188       4.3547     -0.00000
    189       4.3547     -0.00000
    190       4.3547     -0.00000
    191       4.5890     -0.00000
    192       4.5890     -0.00000
    193       4.5890     -0.00000
    194       4.5890     -0.00000
    195       5.0214     -0.00000
    196       5.0214     -0.00000
    197       6.1997     -0.00000
    198       6.1997     -0.00000
    199       6.4314     -0.00000
    200       6.4315     -0.00000
    201       6.6039     -0.00000
    202       6.6039     -0.00000
    203       6.6040     -0.00000
    204       6.6040     -0.00000
    205       6.8354     -0.00000
    206       6.8355     -0.00000
    207       6.8355     -0.00000
    208       6.8361     -0.00000
    209       7.2996      0.00000
    210       7.2998      0.00000
    211       7.3101      0.00000
    212       7.7813      0.00000

 k-point   4 :       0.4286   -0.0000   -0.0000
  band No.  band energies     occupation 
      1      -4.1785      2.00000
      2      -3.9080      2.00000
      3      -3.4788      2.00000
      4      -3.4579      2.00000
      5      -3.4462      2.00000
      6      -3.4462      2.00000
      7      -3.4399      2.00000
      8      -3.4399      2.00000
      9      -3.4399      2.00000
     10      -3.4398      2.00000
     11      -3.4023      2.00000
     12      -3.4023      2.00000
     13      -3.3961      2.00000
     14      -3.3906      2.00000
     15      -3.3441      2.00000
     16      -3.3440      2.00000
     17      -3.3236      2.00000
     18      -3.3236      2.00000
     19      -3.3236      2.00000
     20      -3.3236      2.00000
     21      -3.2887      2.00000
     22      -3.2887      2.00000
     23      -3.0377      2.00000
     24      -3.0377      2.00000
     25      -3.0377      2.00000
     26      -3.0377      2.00000
     27      -3.0372      2.00000
     28      -3.0370      2.00000
     29      -3.0369      2.00000
     30      -3.0369      2.00000
     31      -3.0265      2.00000
     32      -3.0265      2.00000
     33      -3.0264      2.00000
     34      -3.0264      2.00000
     35      -3.0036      2.00000
     36      -3.0036      2.00000
     37      -3.0036      2.00000
     38      -3.0034      2.00000
     39      -2.9817      2.00000
     40      -2.9817      2.00000
     41      -2.9817      2.00000
     42      -2.9817      2.00000
     43      -2.9107      2.00000
     44      -2.9107      2.00000
     45      -2.9107      2.00000
     46      -2.9107      2.00000
     47      -2.8338      2.00000
     48      -2.7721      2.00000
     49      -2.7721      2.00000
     50      -2.7721      2.00000
     51      -2.7720      2.00000
     52      -2.7615      2.00000
     53      -2.7597      2.00000
     54      -2.7597      2.00000
     55      -2.7596      2.00000
     56      -2.7589      2.00000
     57      -2.7573      2.00000
     58      -2.7572      2.00000
     59      -2.7572      2.00000
     60      -2.7557      2.00000
     61      -2.7311      2.00000
     62      -2.7311      2.00000
     63      -2.7311      2.00000
     64      -2.7311      2.00000
     65      -2.7210      2.00000
     66      -2.7210      2.00000
     67      -2.7210      2.00000
     68      -2.7210      2.00000
     69      -2.6982      2.00000
     70      -2.6982      2.00000
     71      -2.6982      2.00000
     72      -2.6982      2.00000
     73      -2.6256      2.00000
     74      -2.6255      2.00000
     75      -2.6255      2.00000
     76      -2.6255      2.00000
     77      -2.5551      2.00000
     78      -2.5550      2.00000
     79      -2.5550      2.00000
     80      -2.5549      2.00000
     81      -2.5474      2.00000
     82      -2.5474      2.00000
     83      -2.5229      2.00000
     84      -2.5229      2.00000
     85      -2.5229      2.00000
     86      -2.5229      2.00000
     87      -2.4780      2.00000
     88      -2.4780      2.00000
     89      -2.4780      2.00000
     90      -2.4780      2.00000
     91      -2.4662      2.00000
     92      -2.4662      2.00000
     93      -2.1831      2.00000
     94      -2.1355      2.00000
     95      -2.1238      2.00000
     96      -2.1238      2.00000
     97      -2.1238      2.00000
     98      -2.1237      2.00000
     99      -2.1206      2.00000
    100      -2.1206      2.00000
    101      -2.1206      2.00000
    102      -2.1206      2.00000
    103      -2.0635      2.00000
    104      -2.0635      2.00000
    105      -2.0570      2.00000
    106      -2.0569      2.00000
    107      -2.0568      2.00000
    108      -2.0568      2.00000
    109      -2.0258      2.00000
    110      -2.0258      2.00000
    111      -2.0258      2.00000
    112      -2.0257      2.00000
    113      -2.0247      2.00000
    114      -2.0247      2.00000
    115      -2.0245      2.00000
    116      -2.0245      2.00000
    117      -2.0077      2.00000
    118      -2.0077      2.00000
    119      -2.0077      2.00000
    120      -2.0075      2.00000
    121      -1.9932      2.00000
    122      -1.9579      2.00000
    123      -1.9238      2.00000
    124      -1.9238      2.00000
    125      -1.9238      2.00000
    126      -1.9238      2.00000
    127      -1.8397      2.00000
    128      -1.8397      2.00000
    129      -1.8397      2.00000
    130      -1.8397      2.00000
    131      -1.8297      2.00000
    132      -1.8297      2.00000
    133      -1.8086      2.00000
    134      -1.8086      2.00000
    135      -1.7725      2.00000
    136      -1.7725      2.00000
    137      -1.7725      2.00000
    138      -1.7725      2.00000
    139      -1.7234      2.00000
    140      -1.7234      2.00000
    141      -1.7234      2.00000
    142      -1.7234      2.00000
    143      -1.7186      2.00000
    144      -1.7186      2.00000
    145      -1.7177      2.00000
    146      -1.7177      2.00000
    147      -1.6862      2.00000
    148      -1.6862      2.00000
    149      -1.6861      2.00000
    150      -1.6861      2.00000
    151      -1.6737      2.00000
    152      -1.6368      2.00000
    153      -1.6137      2.00000
    154      -1.6137      2.00000
    155      -1.6137      2.00000
    156      -1.6137      2.00000
    157      -1.6047      2.00000
    158      -1.6047      2.00000
    159      -1.4407      2.00000
    160      -1.4401      2.00000
    161      -1.4400      2.00000
    162      -1.4394      2.00000
    163      -1.0862      2.00000
    164      -1.0862      2.00000
    165      -1.0862      2.00000
    166      -1.0862      2.00000
    167      -0.7364      2.00000
    168      -0.7364      2.00000
    169      -0.7363      2.00000
    170      -0.7363      2.00000
    171       0.2506      2.00000
    172       0.9016      2.00202
    173       0.9018      2.00202
    174       0.9018      2.00202
    175       0.9018      2.00202
    176       1.0825      2.04370
    177       1.0826      2.04376
    178       1.0826      2.04376
    179       1.0826      2.04376
    180       1.1079      2.05539
    181       2.7997     -0.00000
    182       2.7997     -0.00000
    183       2.7998     -0.00000
    184       2.7998     -0.00000
    185       3.6627     -0.00000
    186       3.6627     -0.00000
    187       3.6627     -0.00000
    188       3.6628     -0.00000
    189       3.9387     -0.00000
    190       3.9387     -0.00000
    191       4.4388     -0.00000
    192       4.4388     -0.00000
    193       5.0661     -0.00000
    194       5.0661     -0.00000
    195       5.0661     -0.00000
    196       5.0661     -0.00000
    197       5.9024     -0.00000
    198       5.9024     -0.00000
    199       5.9024     -0.00000
    200       5.9024     -0.00000
    201       6.2581     -0.00000
    202       6.2581     -0.00000
    203       6.3381     -0.00000
    204       6.3381     -0.00000
    205       6.8969      0.00000
    206       6.8969      0.00000
    207       6.8970      0.00000
    208       6.8971      0.00000
    209       7.2920      0.00000
    210       7.2938      0.00000
    211       7.3110      0.00000
    212       7.3355      0.00000

 k-point   5 :       0.0000    0.1429   -0.0000
  band No.  band energies     occupation 
      1      -4.5101      2.00000
      2      -3.5865      2.00000
      3      -3.5825      2.00000
      4      -3.5825      2.00000
      5      -3.5784      2.00000
      6      -3.5783      2.00000
      7      -3.5783      2.00000
      8      -3.5782      2.00000
      9      -3.5389      2.00000
     10      -3.5330      2.00000
     11      -3.5329      2.00000
     12      -3.3456      2.00000
     13      -3.2370      2.00000
     14      -3.2170      2.00000
     15      -3.2035      2.00000
     16      -3.2018      2.00000
     17      -3.2017      2.00000
     18      -3.2001      2.00000
     19      -3.1562      2.00000
     20      -3.1562      2.00000
     21      -3.1130      2.00000
     22      -3.1117      2.00000
     23      -3.1117      2.00000
     24      -3.1106      2.00000
     25      -3.1102      2.00000
     26      -3.1090      2.00000
     27      -3.1090      2.00000
     28      -3.1074      2.00000
     29      -3.0330      2.00000
     30      -3.0330      2.00000
     31      -3.0327      2.00000
     32      -3.0327      2.00000
     33      -3.0184      2.00000
     34      -2.9709      2.00000
     35      -2.9703      2.00000
     36      -2.9674      2.00000
     37      -2.9664      2.00000
     38      -2.9662      2.00000
     39      -2.9650      2.00000
     40      -2.8978      2.00000
     41      -2.8963      2.00000
     42      -2.8963      2.00000
     43      -2.8948      2.00000
     44      -2.8613      2.00000
     45      -2.8597      2.00000
[...]
    108      -2.1629      2.00000
    109      -2.1627      2.00000
    110      -2.1617      2.00000
    111      -2.1616      2.00000
    112      -2.1607      2.00000
    113      -2.1606      2.00000
    114      -2.1595      2.00000
    115      -2.1595      2.00000
    116      -2.1140      2.00000
    117      -2.1127      2.00000
    118      -2.1114      2.00000
    119      -2.0704      2.00000
    120      -2.0702      2.00000
    121      -2.0694      2.00000
    122      -2.0694      2.00000
    123      -2.0686      2.00000
    124      -2.0685      2.00000
    125      -2.0148      2.00000
    126      -2.0144      2.00000
    127      -2.0143      2.00000
    128      -2.0115      2.00000
    129      -2.0110      2.00000
    130      -1.9884      2.00000
    131      -1.9873      2.00000
    132      -1.9863      2.00000
    133      -1.9814      2.00000
    134      -1.9804      2.00000
    135      -1.9795      2.00000
    136      -1.9282      2.00000
    137      -1.9273      2.00000
    138      -1.9264      2.00000
    139      -1.8851      2.00000
    140      -1.8851      2.00000
    141      -1.8760      2.00000
    142      -1.8070      2.00000
    143      -1.8061      2.00000
    144      -1.8053      2.00000
    145      -1.5549      2.00000
    146      -1.5547      2.00000
    147      -1.5544      2.00000
    148      -1.5419      2.00000
    149      -1.5417      2.00000
    150      -1.5415      2.00000
    151      -1.5415      2.00000
    152      -1.5414      2.00000
    153      -1.5413      2.00000
    154      -1.5405      2.00000
    155      -1.5402      2.00000
    156      -1.5402      2.00000
    157      -1.5402      2.00000
    158      -1.5401      2.00000
    159      -1.5396      2.00000
    160      -1.5382      2.00000
    161      -1.5381      2.00000
    162      -1.5379      2.00000
    163      -1.5306      2.00000
    164      -1.5304      2.00000
    165      -1.5302      2.00000
    166      -1.5213      2.00000
    167      -1.5212      2.00000
    168      -1.5211      2.00000
    169       1.3608      1.38538
    170       1.3623      1.37352
    171       1.3638      1.36192
    172       1.7007     -0.05839
    173       1.7024     -0.05765
    174       1.7036     -0.05714
    175       1.7036     -0.05714
    176       1.7047     -0.05664
    177       1.7065     -0.05587
    178       2.0126     -0.00016
    179       2.0133     -0.00016
    180       2.0140     -0.00016
    181       2.2412     -0.00000
    182       2.2420     -0.00000
    183       2.2428     -0.00000
    184       2.5950     -0.00000
    185       2.5969     -0.00000
    186       2.5980     -0.00000
    187       2.5980     -0.00000
    188       2.5991     -0.00000
    189       2.6010     -0.00000
    190       2.9249     -0.00000
    191       2.9264     -0.00000
    192       2.9279     -0.00000
    193       5.2935     -0.00000
    194       5.2944     -0.00000
    195       5.2952     -0.00000
    196       5.6385     -0.00000
    197       5.6394     -0.00000
    198       5.6404     -0.00000
    199       6.1158     -0.00000
    200       6.1159     -0.00000
    201       6.1177     -0.00000
    202       6.1177     -0.00000
    203       6.1196     -0.00000
    204       6.1196     -0.00000
    205       6.4687     -0.00000
    206       6.4688     -0.00000
    207       6.4704     -0.00000
    208       6.4706     -0.00000
    209       6.4722     -0.00000
    210       6.4725     -0.00000
    211       6.9156      0.00000
    212       6.9176      0.00000


--------------------------------------------------------------------------------------------------------


 soft charge-density along one line, spin component           1
         0         1         2         3         4         5         6         7         8         9
 total charge-density along one line
 
 pseudopotential strength for first ion, spin component:           1
-12.858   0.000  -0.000   0.000  -0.000   0.261  -0.000   0.000
  0.000 -12.858   0.000  -0.000  -0.000  -0.000   0.261  -0.000
 -0.000   0.000 -12.851   0.000  -0.000   0.000  -0.000   0.260
  0.000  -0.000   0.000 -12.858   0.000  -0.000   0.000  -0.000
 -0.000  -0.000  -0.000   0.000 -12.852   0.000   0.000   0.000
  0.261  -0.000   0.000  -0.000   0.000   0.433   0.000  -0.000
 -0.000   0.261  -0.000   0.000   0.000   0.000   0.433   0.000
  0.000  -0.000   0.260  -0.000   0.000  -0.000   0.000   0.433
 -0.000   0.000  -0.000   0.261  -0.000   0.000  -0.000   0.000
  0.000   0.000   0.000  -0.000   0.260  -0.000  -0.000  -0.000
  0.000  -0.000  -0.000  -0.000  -0.000   0.000   0.000   0.000
  0.000   0.000   0.000   0.000   0.000  -0.000  -0.000  -0.000
 -0.000   0.000  -0.000  -0.000  -0.000   0.000  -0.000   0.000
 -0.000   0.000   0.000  -0.000  -0.000   0.000  -0.000  -0.000
  0.000  -0.000   0.000   0.000  -0.000  -0.000   0.000  -0.000
  0.000  -0.000   0.000   0.000   0.000  -0.000   0.000  -0.000
  0.000  -0.000  -0.000   0.000   0.000  -0.000   0.000   0.000
 -0.000   0.000  -0.000  -0.000   0.000   0.000  -0.000   0.000
 total augmentation occupancy for first ion, spin component:           1
  1.949   0.000  -0.001   0.000  -0.000  -0.040  -0.000  -0.000  -0.000   0.000   0.004  -0.000  -0.000   0.000  -0.000  -0.000
  0.000   1.950  -0.001  -0.000  -0.001  -0.000  -0.041   0.001   0.000   0.000   0.003  -0.001   0.000  -0.000  -0.000  -0.000
 -0.001  -0.001   1.970  -0.000  -0.002  -0.000   0.001  -0.059   0.001   0.001   0.010   0.000  -0.000   0.000  -0.000  -0.000
  0.000  -0.000  -0.000   1.952   0.000  -0.000   0.000   0.001  -0.043   0.000   0.002  -0.001   0.000  -0.000   0.000  -0.000
 -0.000  -0.001  -0.002   0.000   1.965   0.000   0.000   0.001   0.000  -0.055   0.006   0.000   0.000   0.000  -0.000  -0.000
 -0.040  -0.000  -0.000  -0.000   0.000   0.036   0.000   0.001   0.000  -0.000  -0.001   0.001  -0.000  -0.000   0.000   0.000
 -0.000  -0.041   0.001   0.000   0.000   0.000   0.037  -0.001   0.000   0.000  -0.001   0.001   0.000   0.000   0.000   0.000
 -0.000   0.001  -0.059   0.001   0.001   0.001  -0.001   0.031  -0.001  -0.000  -0.007   0.000   0.000  -0.000   0.000  -0.000
 -0.000   0.000   0.001  -0.043   0.000   0.000   0.000  -0.001   0.039  -0.001   0.000   0.001  -0.000   0.000  -0.000   0.000
  0.000   0.000   0.001   0.000  -0.055  -0.000   0.000  -0.000  -0.001   0.030  -0.004   0.000  -0.000  -0.000   0.000   0.000
  0.004   0.003   0.010   0.002   0.006  -0.001  -0.001  -0.007   0.000  -0.004   0.904  -0.246  -0.000   0.000  -0.000   0.000
 -0.000  -0.001   0.000  -0.001   0.000   0.001   0.001   0.000   0.001   0.000  -0.246   0.104   0.000   0.000  -0.000  -0.000
 -0.000   0.000  -0.000   0.000   0.000  -0.000   0.000   0.000  -0.000  -0.000  -0.000   0.000   0.063   0.001   0.002  -0.003
  0.000  -0.000   0.000  -0.000   0.000  -0.000   0.000  -0.000   0.000  -0.000   0.000   0.000   0.001   0.067  -0.000  -0.000
 -0.000  -0.000  -0.000   0.000  -0.000   0.000   0.000   0.000  -0.000   0.000  -0.000  -0.000   0.002  -0.000   0.065  -0.000
 -0.000  -0.000  -0.000  -0.000  -0.000   0.000   0.000  -0.000   0.000   0.000   0.000  -0.000  -0.003  -0.000  -0.000   0.000
 -0.000   0.000  -0.000  -0.000  -0.000   0.000  -0.000   0.000   0.000   0.000   0.000  -0.000  -0.000  -0.003  -0.000   0.000
  0.000   0.000   0.000   0.000  -0.000  -0.000  -0.000  -0.000  -0.000   0.000  -0.000   0.000  -0.000  -0.000  -0.003   0.000


------------------------ aborting loop because EDIFF is reached ----------------------------------------




--------------------------------------------------------------------------------------------------------


    CHARGE:  VPU time   13.15: CPU time   13.15
    FORLOC:  VPU time    0.10: CPU time    0.10
    FORNL :  VPU time  149.87: CPU time  149.79
    STRESS:  VPU time  212.08: CPU time  211.97
    FORCOR:  VPU time    0.55: CPU time    0.55
    FORHAR:  VPU time    0.17: CPU time    0.18
    MIXING:  VPU time    0.01: CPU time    0.01


--------------------------------------------------------------------------------------------------------



  FREE ENERGIE OF THE ION-ELECTRON SYSTEM (eV)
  ---------------------------------------------------
  free  energy   TOTEN  =       -84.082704 eV

  energy  without entropy=      -84.065427  energy(sigma->0) =      -84.076945
 

  FORCE on cell =-STRESS in cart. coord.  units (eV/reduce length):
  Direction    X        Y        Z        XY       YZ       ZX
  --------------------------------------------------------------------------------------
  Alpha Z   2499.58   2499.58   2499.58
  Ewald    -9474.59  -9474.48  -9474.48     -0.00     -0.00     -0.00
  Hartree   2541.30   2541.38   2541.38     -0.00     -0.00     -0.00
  E(xc)    -1848.47  -1848.47  -1848.47     -0.00     -0.00     -0.00
  Local     2755.15   2754.95   2754.95      0.00      0.00      0.00
  n-local  -2197.68  -2200.78  -2194.57      1.71      1.12      0.53
  augment   1331.87   1331.87   1331.87     -0.00     -0.00     -0.00
  Kinetic   4345.34   4340.27   4350.42      1.28      0.31     -0.67
  -------------------------------------------------------------------------------------
  Total      -47.49    -47.50    -47.50     -0.00     -0.00     -0.00
  in kB     -104.60   -104.60   -104.60     -0.00     -0.00     -0.00
  external pressure =     -104.60 kB  Pullay stress =        0.00 kB


 VOLUME and BASIS-vectors are now :
 -----------------------------------------------------------------------------
  energy-cutoff  :      600.00
  volume of cell :      727.48
      direct lattice vectors                 reciprocal lattice vectors
     8.993741310  0.000000000  0.000000000     0.111188433 -0.000000002 -0.000000002
     0.000000160  8.993741310  0.000000000     0.000000000  0.111188433 -0.000000002
     0.000000160  0.000000160  8.993741310     0.000000000  0.000000000  0.111188433

  length of vectors
     8.993741310  8.993741310  8.993741310     0.111188433  0.111188433  0.111188433


 FORCES acting on ions
    electron-ion (+dipol)            ewald-force                    non-local-force                 convergence-correction
 -----------------------------------------------------------------------------------------------
   -.255E-01 -.125E+00 0.118E-07   0.275E-01 0.124E+00 -.125E-07   -.118E-02 0.656E-03 0.269E-20   -.349E-03 0.691E-04 -.123E-09
   -.806E+00 -.151E+01 0.634E-08   0.796E+00 0.150E+01 -.257E-09   0.106E-01 0.985E-02 -.527E-20   0.135E-02 0.102E-02 0.146E-09
   -.806E+00 0.253E-07 0.151E+01   0.796E+00 -.265E-07 -.150E+01   0.106E-01 -.175E-09 -.985E-02   0.135E-02 -.155E-09 -.102E-02
   -.255E-01 0.125E+00 -.647E-08   0.275E-01 -.124E+00 0.690E-08   -.118E-02 -.656E-03 -.156E-20   -.349E-03 -.691E-04 0.118E-09
   0.978E+00 -.693E-02 0.693E-02   -.981E+00 0.686E-02 -.686E-02   0.278E-03 0.609E-04 -.609E-04   0.146E-02 0.139E-04 -.139E-04
   0.518E+00 -.177E-08 -.331E-07   -.520E+00 0.136E-08 0.367E-07   0.914E-04 -.349E-19 0.149E-21   0.115E-02 -.320E-09 0.563E-09
   -.210E-01 0.125E+00 -.673E-08   0.230E-01 -.125E+00 0.718E-08   -.120E-02 -.639E-03 -.111E-21   -.329E-03 -.124E-03 0.115E-09
   -.806E+00 -.205E-07 -.151E+01   0.796E+00 0.264E-07 0.150E+01   0.106E-01 0.175E-09 0.985E-02   0.135E-02 0.164E-09 0.102E-02
   -.806E+00 0.151E+01 -.150E-08   0.796E+00 -.150E+01 0.211E-09   0.106E-01 -.985E-02 -.445E-20   0.135E-02 -.102E-02 -.137E-09
   -.255E-01 -.428E-08 0.125E+00   0.275E-01 0.469E-08 -.124E+00   -.118E-02 -.117E-10 -.656E-03   -.349E-03 0.117E-09 -.692E-04
   0.978E+00 -.693E-02 -.693E-02   -.981E+00 0.686E-02 0.686E-02   0.278E-03 0.609E-04 0.609E-04   0.146E-02 0.139E-04 0.139E-04
   0.628E+01 -.981E-07 0.142E-06   -.622E+01 0.105E-06 0.105E-06   -.691E-01 0.605E-20 0.388E-21   -.932E-02 -.635E-09 -.635E-09
   0.978E+00 0.693E-02 0.693E-02   -.981E+00 -.686E-02 -.686E-02   0.278E-03 -.609E-04 -.609E-04   0.146E-02 -.139E-04 -.139E-04
   0.216E+00 -.945E-08 -.956E-08   -.215E+00 0.973E-08 0.973E-08   -.227E-02 0.312E-19 -.448E-20   0.105E-02 0.256E-09 0.256E-09
   -.797E+00 0.153E+01 -.160E-08   0.787E+00 -.152E+01 0.233E-09   0.106E-01 -.100E-01 0.181E-20   0.133E-02 -.986E-03 -.133E-09
   -.797E+00 -.209E-07 -.153E+01   0.787E+00 0.268E-07 0.152E+01   0.106E-01 0.178E-09 0.100E-01   0.133E-02 0.196E-09 0.986E-03
   -.210E-01 -.125E+00 0.116E-07   0.230E-01 0.125E+00 -.123E-07   -.120E-02 0.639E-03 0.331E-21   -.329E-03 0.124E-03 -.150E-09
   -.549E+00 0.203E-02 -.203E-02   0.552E+00 -.205E-02 0.205E-02   -.215E-03 0.246E-04 -.246E-04   -.147E-02 -.102E-04 0.102E-04
   -.414E+00 0.174E-08 0.236E-07   0.408E+00 -.135E-08 -.232E-07   0.545E-02 0.254E-19 0.675E-21   -.196E-03 0.297E-09 -.472E-09
   -.255E-01 0.957E-08 -.125E+00   0.275E-01 -.103E-07 0.124E+00   -.118E-02 0.117E-10 0.656E-03   -.349E-03 -.122E-09 0.692E-04
   0.978E+00 0.693E-02 -.693E-02   -.981E+00 -.686E-02 0.686E-02   0.278E-03 -.609E-04 0.609E-04   0.146E-02 -.139E-04 0.139E-04
   0.518E+00 -.344E-07 -.172E-08   -.520E+00 0.367E-07 0.136E-08   0.914E-04 -.687E-21 -.176E-19   0.115E-02 0.563E-09 -.320E-09
   -.797E+00 0.256E-07 0.153E+01   0.787E+00 -.268E-07 -.152E+01   0.106E-01 -.178E-09 -.100E-01   0.133E-02 -.150E-09 -.986E-03
   -.797E+00 -.153E+01 0.641E-08   0.787E+00 0.152E+01 -.235E-09   0.106E-01 0.100E-01 0.133E-19   0.133E-02 0.986E-03 0.178E-09
   -.210E-01 0.938E-08 -.125E+00   0.230E-01 -.101E-07 0.125E+00   -.120E-02 0.114E-10 0.639E-03   -.329E-03 -.148E-09 0.124E-03
   -.549E+00 0.203E-02 0.203E-02   0.552E+00 -.205E-02 -.205E-02   -.215E-03 0.246E-04 0.246E-04   -.147E-02 -.102E-04 -.102E-04
   -.162E+01 0.342E-08 -.247E-06   0.164E+01 -.180E-08 -.180E-08   -.116E-01 -.758E-20 0.183E-21   -.292E-02 0.584E-09 0.583E-09
   -.549E+00 -.203E-02 -.203E-02   0.552E+00 0.205E-02 0.205E-02   -.215E-03 -.246E-04 -.246E-04   -.147E-02 0.102E-04 0.102E-04
   -.199E+00 0.836E-08 0.825E-08   0.201E+00 -.858E-08 -.858E-08   -.475E-03 -.432E-20 -.374E-21   -.798E-03 -.260E-09 -.260E-09
   -.210E-01 -.453E-08 0.125E+00   0.230E-01 0.496E-08 -.125E+00   -.120E-02 -.114E-10 -.639E-03   -.329E-03 0.113E-09 -.124E-03
   -.549E+00 -.203E-02 0.203E-02   0.552E+00 0.205E-02 -.205E-02   -.215E-03 -.246E-04 0.246E-04   -.147E-02 0.102E-04 -.102E-04
   -.414E+00 0.224E-07 0.178E-08   0.408E+00 -.232E-07 -.135E-08   0.545E-02 0.424E-21 -.265E-20   -.196E-03 -.472E-09 0.297E-09
 -----------------------------------------------------------------------------------------------
   0.413E-03 -.227E-10 -.116E-08   0.102E-12 -.154E-12 0.199E-12   0.304E-02 0.119E-17 -.785E-18   -.215E-02 -.321E-10 -.339E-10
 
 
 POSITION                                       TOTAL-FORCE (eV/Angst)
 -----------------------------------------------------------------------------------
      6.74531      6.74531      4.49687         0.000401      0.000043      0.000000
      6.74531      6.74531      0.00000         0.001208      0.001637      0.000000
      6.74531      0.00000      2.24844         0.001208     -0.000000     -0.001637
      6.74531      2.24844      4.49687         0.000401     -0.000043      0.000000
      0.00000      6.74531      2.24844        -0.000507      0.000004     -0.000004
      0.00000      0.00000      4.49687        -0.000605      0.000000      0.000000
      2.24844      6.74531      4.49687         0.000399     -0.000038     -0.000000
      6.74531      0.00000      6.74531         0.001208      0.000000      0.001637
      6.74531      2.24844      0.00000         0.001208     -0.001637     -0.000000
      6.74531      4.49687      2.24844         0.000401     -0.000000     -0.000043
      0.00000      6.74531      6.74531        -0.000507      0.000004      0.000004
      0.02000      0.00000      0.00000        -0.015255     -0.000000     -0.000000
      0.00000      2.24844      2.24844        -0.000507     -0.000004     -0.000004
      0.00000      4.49687      4.49687         0.000059      0.000000     -0.000000
      2.24844      6.74531      0.00000         0.001472     -0.001948     -0.000000
      2.24844      0.00000      2.24844         0.001472      0.000000      0.001948
      2.24844      2.24844      4.49687         0.000399      0.000038     -0.000000
      4.49687      6.74531      2.24844         0.001074     -0.000007      0.000007
      4.49687      0.00000      4.49687        -0.000995     -0.000000      0.000000
      6.74531      4.49687      6.74531         0.000401      0.000000      0.000043
      0.00000      2.24844      6.74531        -0.000507     -0.000004      0.000004
      0.00000      4.49687      0.00000        -0.000605      0.000000      0.000000
      2.24844      0.00000      6.74531         0.001472     -0.000000     -0.001948
      2.24844      2.24844      0.00000         0.001472      0.001948      0.000000
      2.24844      4.49687      2.24844         0.000399      0.000000      0.000038
      4.49687      6.74531      6.74531         0.001074     -0.000007     -0.000007
      4.49687      0.00000      0.00000         0.002335      0.000000     -0.000000
      4.49687      2.24844      2.24844         0.001074      0.000007      0.000007
      4.49687      4.49687      4.49687        -0.000127     -0.000000     -0.000000
      2.24844      4.49687      6.74531         0.000399     -0.000000     -0.000038
      4.49687      2.24844      6.74531         0.001074      0.000007     -0.000007
      4.49687      4.49687      0.00000        -0.000995      0.000000      0.000000
 -----------------------------------------------------------------------------------
    total drift:                                0.001310     -0.000000     -0.000000


--------------------------------------------------------------------------------------------------------



 mean value of Nose-termostat <S>:     1.000 mean value of <T> :     0.000
 mean temperature <T/S>/<1/S>  :     0.000

     LOOP+:  VPU time 2052.88: CPU time 2052.05

 ----------------------------------------------------------------------------- 
|                                                                             |
|           W    W    AA    RRRRR   N    N  II  N    N   GGGG   !!!           |
|           W    W   A  A   R    R  NN   N  II  NN   N  G    G  !!!           |
|           W    W  A    A  R    R  N N  N  II  N N  N  G       !!!           |
|           W WW W  AAAAAA  RRRRR   N  N N  II  N  N N  G  GGG   !            |
|           WW  WW  A    A  R   R   N   NN  II  N   NN  G    G                |
|           W    W  A    A  R    R  N    N  II  N    N   GGGG   !!!           |
|                                                                             |
|      The partial DOS and the PROCAR file are not evaluated for NPAR/=1      |
|      please rerun with NPAR=1                                               |
|                                                                             |
 ----------------------------------------------------------------------------- 

  
  
 General timing and accounting informations for this job:
 ========================================================
  
                  Total CPU time used (sec):     2105.676
                            User time (sec):     2026.364
                          System time (sec):       79.312
                         Elapsed time (sec):     2105.154
  
                   Maximum memory used (kb):     1733212.
                   Average memory used (kb):           0.
  
                          Minor page faults:       147528
                          Major page faults:            2
                 Voluntary context switches:         1241
