   4   4   0   0
  0.1985825E+02  0.4298665E-09  0.4298665E-09  0.4298665E-09  0.5000000E-15
  1.000000000000000E-004
  CAR 
 unknown system                          
     20.00255807     -5.57052856  301      3.92736904      1.00000000
     -5.571  0.0000E+00  0.0000E+00
     -5.485  0.0000E+00  0.0000E+00
     -5.400  0.0000E+00  0.0000E+00
     -5.315  0.0000E+00  0.0000E+00
     -5.230  0.0000E+00  0.0000E+00
     -5.144  0.0000E+00  0.0000E+00
     -5.059  0.0000E+00  0.0000E+00
     -4.974  0.0000E+00  0.0000E+00
     -4.889  0.0000E+00  0.0000E+00
     -4.803  0.0000E+00  0.0000E+00
     -4.718  0.0000E+00  0.0000E+00
     -4.633  0.0000E+00  0.0000E+00
     -4.548  0.0000E+00  0.0000E+00
     -4.462  0.4271E-17  0.3641E-18
     -4.377  0.1585E-01  0.1351E-02
     -4.292  0.1038E+00  0.1039E-01
     -4.207  0.1449E+00  0.2315E-01
     -4.121  0.1738E+00  0.4010E-01
     -4.036  0.2083E+00  0.5876E-01
     -3.951  0.2692E+00  0.8188E-01
     -3.866  0.2865E+00  0.1076E+00
     -3.780  0.2946E+00  0.1331E+00
     -3.695  0.3353E+00  0.1645E+00
     -3.610  0.3379E+00  0.1955E+00
     -3.525  0.3558E+00  0.2301E+00
     -3.439  0.3765E+00  0.2658E+00
     -3.354  0.4381E+00  0.3054E+00
     -3.269  0.4911E+00  0.3485E+00
     -3.184  0.4760E+00  0.3911E+00
     -3.098  0.5176E+00  0.4372E+00
     -3.013  0.5825E+00  0.4890E+00
     -2.928  0.5886E+00  0.5411E+00
     -2.843  0.6122E+00  0.5965E+00
     -2.757  0.6521E+00  0.6580E+00
     -2.672  0.7096E+00  0.7248E+00
     -2.587  0.6903E+00  0.7891E+00
     -2.502  0.8923E+00  0.8704E+00
     -2.417  0.8840E+00  0.9516E+00
     -2.331  0.9627E+00  0.1040E+01
     -2.246  0.1181E+01  0.1147E+01
     -2.161  0.1593E+01  0.1287E+01
     -2.076  0.2485E+01  0.1514E+01
     -1.990  0.2799E+01  0.1773E+01
     -1.905  0.2923E+01  0.2042E+01
     -1.820  0.3517E+01  0.2361E+01
     -1.735  0.4230E+01  0.2750E+01
     -1.649  0.5566E+01  0.3253E+01
     -1.564  0.6779E+01  0.3881E+01
     -1.479  0.7915E+01  0.4610E+01
     -1.394  0.8724E+01  0.5413E+01
     -1.308  0.8409E+01  0.6189E+01
     -1.223  0.8094E+01  0.6928E+01
     -1.138  0.7815E+01  0.7652E+01
     -1.053  0.7356E+01  0.8340E+01
     -0.967  0.7213E+01  0.8994E+01
     -0.882  0.6427E+01  0.9590E+01
     -0.797  0.5555E+01  0.1010E+02
     -0.712  0.5617E+01  0.1061E+02
     -0.626  0.7743E+01  0.1131E+02
     -0.541  0.8358E+01  0.1208E+02
     -0.456  0.9541E+01  0.1295E+02
     -0.371  0.9886E+01  0.1387E+02
     -0.285  0.9138E+01  0.1473E+02
     -0.200  0.9751E+01  0.1561E+02
     -0.115  0.9584E+01  0.1649E+02
     -0.030  0.1045E+02  0.1745E+02
      0.056  0.1193E+02  0.1854E+02
      0.141  0.1300E+02  0.1973E+02
      0.226  0.1812E+02  0.2139E+02
      0.311  0.1287E+02  0.2258E+02
      0.397  0.9610E+01  0.2348E+02
      0.482  0.7689E+01  0.2420E+02
      0.567  0.8493E+01  0.2497E+02
      0.652  0.7592E+01  0.2568E+02
      0.737  0.8008E+01  0.2641E+02
      0.823  0.9056E+01  0.2723E+02
      0.908  0.9840E+01  0.2814E+02
      0.993  0.9984E+01  0.2905E+02
      1.078  0.1116E+02  0.3008E+02
      1.164  0.9923E+01  0.3099E+02
      1.249  0.8930E+01  0.3183E+02
      1.334  0.8476E+01  0.3261E+02
      1.419  0.8204E+01  0.3336E+02
      1.505  0.7942E+01  0.3410E+02
      1.590  0.7832E+01  0.3482E+02
      1.675  0.8506E+01  0.3560E+02
      1.760  0.9016E+01  0.3641E+02
      1.846  0.1021E+02  0.3734E+02
      1.931  0.1308E+02  0.3853E+02
      2.016  0.1561E+02  0.3995E+02
      2.101  0.1065E+02  0.4096E+02
      2.187  0.6184E+01  0.4155E+02
      2.272  0.4609E+01  0.4199E+02
      2.357  0.7703E+00  0.4206E+02
      2.442  0.1425E+01  0.4219E+02
      2.528  0.1024E+01  0.4228E+02
      2.613  0.1208E+01  0.4240E+02
      2.698  0.1218E+01  0.4250E+02
      2.783  0.9773E+00  0.4260E+02
      2.869  0.1279E+01  0.4271E+02
      2.954  0.9878E+00  0.4280E+02
      3.039  0.1294E+01  0.4292E+02
      3.124  0.9569E+00  0.4301E+02
      3.210  0.1258E+01  0.4312E+02
      3.295  0.8729E+00  0.4321E+02
      3.380  0.1410E+01  0.4333E+02
      3.465  0.9588E+00  0.4342E+02
      3.551  0.1205E+01  0.4353E+02
      3.636  0.1153E+01  0.4363E+02
      3.721  0.1136E+01  0.4374E+02
      3.806  0.1145E+01  0.4385E+02
      3.892  0.1074E+01  0.4394E+02
      3.977  0.1247E+01  0.4406E+02
      4.062  0.1040E+01  0.4415E+02
      4.147  0.1352E+01  0.4427E+02
      4.232  0.1176E+01  0.4438E+02
      4.318  0.1046E+01  0.4447E+02
      4.403  0.1199E+01  0.4458E+02
      4.488  0.1103E+01  0.4468E+02
      4.573  0.1096E+01  0.4479E+02
      4.659  0.1210E+01  0.4489E+02
      4.744  0.1063E+01  0.4500E+02
      4.829  0.1099E+01  0.4510E+02
      4.914  0.1138E+01  0.4520E+02
      5.000  0.1156E+01  0.4530E+02
      5.085  0.1131E+01  0.4541E+02
      5.170  0.1039E+01  0.4550E+02
      5.255  0.1143E+01  0.4561E+02
      5.341  0.1106E+01  0.4571E+02
      5.426  0.1104E+01  0.4581E+02
      5.511  0.1111E+01  0.4592E+02
      5.596  0.9565E+00  0.4601E+02
      5.682  0.1205E+01  0.4612E+02
      5.767  0.1064E+01  0.4622E+02
      5.852  0.1131E+01  0.4632E+02
      5.937  0.1047E+01  0.4642E+02
      6.023  0.1135E+01  0.4652E+02
      6.108  0.9872E+00  0.4661E+02
      6.193  0.1091E+01  0.4671E+02
      6.278  0.1002E+01  0.4681E+02
      6.364  0.1981E+01  0.4699E+02
      6.449  0.1812E+01  0.4715E+02
      6.534  0.1569E+01  0.4729E+02
      6.619  0.1589E+01  0.4744E+02
      6.705  0.1469E+01  0.4757E+02
      6.790  0.1429E+01  0.4770E+02
      6.875  0.1343E+01  0.4782E+02
      6.960  0.1316E+01  0.4794E+02
      7.046  0.1268E+01  0.4806E+02
      7.131  0.1041E+01  0.4816E+02
      7.216  0.1283E+01  0.4827E+02
      7.301  0.1108E+01  0.4838E+02
      7.387  0.1066E+01  0.4848E+02
      7.472  0.1014E+01  0.4857E+02
      7.557  0.1015E+01  0.4867E+02
      7.642  0.1137E+01  0.4877E+02
      7.727  0.8761E+00  0.4885E+02
      7.813  0.9851E+00  0.4894E+02
      7.898  0.9572E+00  0.4903E+02
      7.983  0.9368E+00  0.4912E+02
      8.068  0.1025E+01  0.4921E+02
      8.154  0.1097E+01  0.4931E+02
      8.239  0.1379E+01  0.4944E+02
      8.324  0.1323E+01  0.4956E+02
      8.409  0.1608E+01  0.4970E+02
      8.495  0.1404E+01  0.4984E+02
      8.580  0.1616E+01  0.4998E+02
      8.665  0.1465E+01  0.5011E+02
      8.750  0.1603E+01  0.5027E+02
      8.836  0.1598E+01  0.5041E+02
      8.921  0.1372E+01  0.5053E+02
      9.006  0.1350E+01  0.5066E+02
      9.091  0.1411E+01  0.5079E+02
      9.177  0.1433E+01  0.5092E+02
      9.262  0.1374E+01  0.5104E+02
      9.347  0.1566E+01  0.5118E+02
      9.432  0.1062E+01  0.5128E+02
      9.518  0.1443E+01  0.5141E+02
      9.603  0.1163E+01  0.5152E+02
      9.688  0.1190E+01  0.5163E+02
      9.773  0.1224E+01  0.5174E+02
      9.859  0.1209E+01  0.5185E+02
      9.944  0.1031E+01  0.5194E+02
     10.029  0.1215E+01  0.5205E+02
     10.114  0.9671E+00  0.5214E+02
     10.200  0.1198E+01  0.5225E+02
     10.285  0.1259E+01  0.5236E+02
     10.370  0.1186E+01  0.5248E+02
     10.455  0.1330E+01  0.5260E+02
     10.541  0.1312E+01  0.5272E+02
     10.626  0.1581E+01  0.5285E+02
     10.711  0.1167E+01  0.5296E+02
     10.796  0.1430E+01  0.5309E+02
     10.881  0.1396E+01  0.5322E+02
     10.967  0.1444E+01  0.5336E+02
     11.052  0.1196E+01  0.5347E+02
     11.137  0.1429E+01  0.5360E+02
     11.222  0.1120E+01  0.5371E+02
     11.308  0.1504E+01  0.5384E+02
     11.393  0.1607E+01  0.5399E+02
     11.478  0.1510E+01  0.5412E+02
     11.563  0.1136E+01  0.5423E+02
     11.649  0.1218E+01  0.5435E+02
     11.734  0.1267E+01  0.5447E+02
     11.819  0.1867E+01  0.5464E+02
     11.904  0.1267E+01  0.5475E+02
     11.990  0.1315E+01  0.5487E+02
     12.075  0.1342E+01  0.5500E+02
     12.160  0.1412E+01  0.5513E+02
     12.245  0.1443E+01  0.5526E+02
     12.331  0.1538E+01  0.5540E+02
     12.416  0.1302E+01  0.5552E+02
     12.501  0.1353E+01  0.5564E+02
     12.586  0.1370E+01  0.5577E+02
     12.672  0.1592E+01  0.5591E+02
     12.757  0.1908E+01  0.5609E+02
     12.842  0.1441E+01  0.5622E+02
     12.927  0.1598E+01  0.5636E+02
     13.013  0.1579E+01  0.5651E+02
     13.098  0.1735E+01  0.5667E+02
     13.183  0.1960E+01  0.5685E+02
     13.268  0.1758E+01  0.5701E+02
     13.354  0.1575E+01  0.5716E+02
     13.439  0.1869E+01  0.5734E+02
     13.524  0.1866E+01  0.5750E+02
     13.609  0.1855E+01  0.5767E+02
     13.695  0.2156E+01  0.5787E+02
     13.780  0.2226E+01  0.5807E+02
     13.865  0.1630E+01  0.5822E+02
     13.950  0.2011E+01  0.5840E+02
     14.036  0.2077E+01  0.5859E+02
     14.121  0.1941E+01  0.5877E+02
     14.206  0.1969E+01  0.5895E+02
     14.291  0.1759E+01  0.5912E+02
     14.376  0.1729E+01  0.5928E+02
     14.462  0.1915E+01  0.5945E+02
     14.547  0.1774E+01  0.5962E+02
     14.632  0.1824E+01  0.5978E+02
     14.717  0.2044E+01  0.5997E+02
     14.803  0.1460E+01  0.6011E+02
     14.888  0.2103E+01  0.6030E+02
     14.973  0.1452E+01  0.6044E+02
     15.058  0.1533E+01  0.6059E+02
     15.144  0.2234E+01  0.6079E+02
     15.229  0.1490E+01  0.6093E+02
     15.314  0.1511E+01  0.6107E+02
     15.399  0.2079E+01  0.6125E+02
     15.485  0.1290E+01  0.6138E+02
     15.570  0.1733E+01  0.6154E+02
     15.655  0.1484E+01  0.6168E+02
     15.740  0.1402E+01  0.6181E+02
     15.826  0.1297E+01  0.6192E+02
     15.911  0.1398E+01  0.6206E+02
     15.996  0.1057E+01  0.6215E+02
     16.081  0.1242E+01  0.6226E+02
     16.167  0.9942E+00  0.6236E+02
     16.252  0.1048E+01  0.6245E+02
     16.337  0.9391E+00  0.6254E+02
     16.422  0.9946E+00  0.6263E+02
     16.508  0.6555E+00  0.6270E+02
     16.593  0.1088E+01  0.6279E+02
     16.678  0.7599E+00  0.6287E+02
     16.763  0.6460E+00  0.6293E+02
     16.849  0.7917E+00  0.6300E+02
     16.934  0.8117E+00  0.6307E+02
     17.019  0.4869E+00  0.6312E+02
     17.104  0.7920E+00  0.6319E+02
     17.190  0.4262E+00  0.6323E+02
     17.275  0.6932E+00  0.6329E+02
     17.360  0.5463E+00  0.6334E+02
     17.445  0.3755E+00  0.6338E+02
     17.530  0.6732E+00  0.6344E+02
     17.616  0.3333E+00  0.6348E+02
     17.701  0.4496E+00  0.6352E+02
     17.786  0.5337E+00  0.6356E+02
     17.871  0.3245E+00  0.6359E+02
     17.957  0.4643E+00  0.6364E+02
     18.042  0.3775E+00  0.6367E+02
     18.127  0.4107E+00  0.6371E+02
     18.212  0.4183E+00  0.6375E+02
     18.298  0.4195E+00  0.6378E+02
     18.383  0.4998E+00  0.6383E+02
     18.468  0.7818E+00  0.6390E+02
     18.553  0.5745E+00  0.6396E+02
     18.639  0.2925E+00  0.6399E+02
     18.724  0.1032E+00  0.6400E+02
     18.809  0.1558E-01  0.6400E+02
     18.894  0.1207E-01  0.6400E+02
     18.980  0.0000E+00  0.6400E+02
     19.065  0.0000E+00  0.6400E+02
     19.150  0.0000E+00  0.6400E+02
     19.235  0.0000E+00  0.6400E+02
     19.321  0.0000E+00  0.6400E+02
     19.406  0.0000E+00  0.6400E+02
     19.491  0.0000E+00  0.6400E+02
     19.576  0.0000E+00  0.6400E+02
     19.662  0.0000E+00  0.6400E+02
     19.747  0.0000E+00  0.6400E+02
     19.832  0.0000E+00  0.6400E+02
     19.917  0.0000E+00  0.6400E+02
     20.003  0.0000E+00  0.6400E+02
