    4    4    1    1
  0.1985825E+02  0.4298665E-09  0.4298665E-09  0.4298665E-09  0.5000000E-15
  1.000000000000000E-004
  CAR 
 unknown system                          
   44 1330   32
 
  0.0000000E+00  0.0000000E+00  0.0000000E+00  0.2143347E-04
   1       -4.4081
   2       -1.8834
   3       -1.8834
   4       -1.8834
   5       -1.6511
   6       -1.6511
   7       -1.6511
   8       -0.0623
   9       -0.0622
  10       -0.0622
  11        1.0938
  12        1.0938
  13        1.9729
  14        1.9729
  15        1.9729
  16        2.2527
  17        2.2527
  18        2.2527
  19        2.2527
  20        2.2527
  21        2.2527
  22        5.3715
  23        5.3715
  24        5.3715
  25        8.6191
  26        8.6191
  27        8.6191
  28       13.6293
  29       13.6293
  30       13.6293
  31       13.6293
  32       13.6293
 
  0.2777778E-01  0.0000000E+00  0.0000000E+00  0.1286008E-03
   1       -4.4002
   2       -1.8809
   3       -1.8784
   4       -1.8784
   5       -1.6485
   6       -1.6471
   7       -1.6471
   8       -0.0658
   9       -0.0590
  10       -0.0590
  11        1.0901
  12        1.0953
  13        1.9677
  14        1.9677
  15        1.9711
  16        2.2304
  17        2.2304
  18        2.2463
  19        2.2463
  20        2.2527
  21        2.2527
  22        5.2880
  23        5.3999
  24        5.3999
  25        8.6137
  26        8.6137
  27        8.7166
  28       13.6122
  29       13.6122
  30       13.6140
  31       13.6141
  32       13.6446
 
  0.5555556E-01  0.0000000E+00  0.0000000E+00  0.1286008E-03
   1       -4.3766
   2       -1.8736
   3       -1.8636
   4       -1.8636
   5       -1.6406
   6       -1.6352
   7       -1.6352
   8       -0.0763
   9       -0.0494
  10       -0.0494
  11        1.0790
  12        1.1000
  13        1.9522
  14        1.9522
  15        1.9657
  16        2.1657
  17        2.1657
  18        2.2271
  19        2.2271
  20        2.2527
  21        2.2527
  22        5.0627
  23        5.4825
  24        5.4825
  25        8.5977
  26        8.5977
  27        8.9839
  28       13.5610
  29       13.5610
  30       13.5695
  31       13.5695
  32       13.6903
 
  0.8333333E-01  0.0000000E+00  0.0000000E+00  0.1286008E-03
   1       -4.3372
   2       -1.8617
   3       -1.8391
   4       -1.8391
   5       -1.6275
   6       -1.6152
   7       -1.6152
   8       -0.0937
   9       -0.0334
  10       -0.0334
  11        1.0608
  12        1.1078
  13        1.9266
  14        1.9266
  15        1.9568
  16        2.0649
  17        2.0649
  18        2.1956
  19        2.1956
  20        2.2528
  21        2.2528
  22        4.7457
  23        5.6133
  24        5.6133
  25        8.5717
  26        8.5717
  27        9.3711
  28       13.4770
  29       13.4770
  30       13.5004
  31       13.5004
  32       13.7659
 
  0.1111111E+00  0.0000000E+00  0.0000000E+00  0.1286008E-03
   1       -4.2823
   2       -1.8457
   3       -1.8051
   4       -1.8051
   5       -1.6092
   6       -1.5874
   7       -1.5874
   8       -0.1177
   9       -0.0111
  10       -0.0111
  11        1.0356
  12        1.1186
  13        1.8910
  14        1.8910
  15        1.9359
  16        1.9359
  17        1.9445
  18        2.1523
  19        2.1523
  20        2.2529
  21        2.2529
  22        4.3789
  23        5.7841
  24        5.7841
  25        8.5366
  26        8.5366
  27        9.8367
  28       13.3618
  29       13.3618
  30       13.4128
  31       13.4128
  32       13.8708
 
  0.1388889E+00  0.0000000E+00  0.0000000E+00  0.1286008E-03
   1       -4.2121
   2       -1.8262
   3       -1.7622
   4       -1.7622
   5       -1.5859
   6       -1.5516
   7       -1.5516
   8       -0.1482
   9        0.0176
  10        0.0176
  11        1.0039
  12        1.1324
  13        1.7864
  14        1.7864
  15        1.8458
  16        1.8458
  17        1.9288
  18        2.0982
  19        2.0982
  20        2.2529
  21        2.2529
  22        3.9889
  23        5.9872
  24        5.9872
  25        8.4935
  26        8.4935
  27       10.3545
  28       13.2176
  29       13.2176
  30       13.3132
  31       13.3132
  32       14.0040
 
  0.1666667E+00  0.0000000E+00  0.0000000E+00  0.1286008E-03
   1       -4.1268
   2       -1.8042
   3       -1.7108
   4       -1.7108
   5       -1.5577
   6       -1.5078
   7       -1.5078
   8       -0.1847
   9        0.0524
  10        0.0524
  11        0.9663
  12        1.1490
  13        1.6228
  14        1.6228
  15        1.7915
  16        1.7915
  17        1.9100
  18        2.0341
  19        2.0341
  20        2.2530
  21        2.2530
  22        3.5918
  23        6.2159
  24        6.2159
  25        8.4439
  26        8.4439
  27       10.9093
  28       13.0470
  29       13.0470
  30       13.2077
  31       13.2077
  32       14.1643
 
  0.1944444E+00  0.0000000E+00  0.0000000E+00  0.1286008E-03
   1       -4.0268
   2       -1.7811
   3       -1.6518
   4       -1.6518
   5       -1.5247
   6       -1.4562
   7       -1.4562
   8       -0.2268
   9        0.0934
  10        0.0934
  11        0.9232
  12        1.1685
  13        1.4503
  14        1.4503
  15        1.7289
  16        1.7289
  17        1.8881
  18        1.9612
  19        1.9612
  20        2.2531
  21        2.2531
  22        3.1974
  23        6.4649
  24        6.4649
  25        8.3895
  26        8.3895
  27       11.4920
  28       12.8524
  29       12.8524
  30       13.1016
  31       13.1016
  32       14.3504
 
  0.2222222E+00  0.0000000E+00  0.0000000E+00  0.1286008E-03
   1       -3.9125
   2       -1.7585
   3       -1.5860
   4       -1.5860
   5       -1.4870
   6       -1.3966
   7       -1.3966
   8       -0.2742
   9        0.1404
  10        0.1404
  11        0.8757
  12        1.1906
  13        1.2728
  14        1.2728
  15        1.6589
  16        1.6589
  17        1.8635
  18        1.8806
  19        1.8806
  20        2.2532
  21        2.2532
  22        2.8126
  23        6.7300
  24        6.7300
  25        8.3321
  26        8.3321
  27       12.0972
  28       12.6366
  29       12.6366
  30       12.9987
  31       12.9987
  32       14.5608
 
  0.2500000E+00  0.0000000E+00  0.0000000E+00  0.1286008E-03
   1       -3.7846
   2       -1.7385
   3       -1.5146
   4       -1.5146
   5       -1.4449
   6       -1.3292
   7       -1.3292
   8       -0.3262
   9        0.1934
  10        0.1934
  11        0.8245
  12        1.0933
  13        1.0933
  14        1.2152
  15        1.5826
  16        1.5826
  17        1.7936
  18        1.7936
  19        1.8362
  20        2.2533
  21        2.2533
  22        2.4428
  23        7.0080
  24        7.0080
  25        8.2736
  26        8.2736
  27       12.4019
  28       12.4019
  29       12.7211
  30       12.9019
  31       12.9019
  32       14.7942
 
  0.2777778E+00  0.0000000E+00  0.0000000E+00  0.1286008E-03
   1       -3.6438
   2       -1.7239
   3       -1.4390
   4       -1.4390
   5       -1.3987
   6       -1.2540
   7       -1.2540
   8       -0.3824
   9        0.2521
  10        0.2521
  11        0.7710
  12        0.9139
  13        0.9139
  14        1.2422
  15        1.5018
  16        1.5018
  17        1.7013
  18        1.7013
  19        1.8066
  20        2.0927
  21        2.2535
  22        2.2535
  23        7.2964
  24        7.2964
  25        8.2158
  26        8.2158
  27       12.1509
  28       12.1509
  29       12.8132
  30       12.8132
  31       13.3614
  32       15.0488
 
  0.3055556E+00  0.0000000E+00  0.0000000E+00  0.1286008E-03
   1       -3.4910
   2       -1.7184
   3       -1.3611
   4       -1.3611
   5       -1.3484
   6       -1.1711
   7       -1.1711
   8       -0.4423
   9        0.3163
  10        0.3163
  11        0.7167
  12        0.7363
  13        0.7363
  14        1.2713
  15        1.4183
  16        1.4183
  17        1.6049
  18        1.6049
  19        1.7670
  20        1.7749
  21        2.2536
  22        2.2536
  23        7.5932
  24        7.5932
  25        8.1605
  26        8.1605
  27       11.8857
  28       11.8857
  29       12.7340
  30       12.7340
  31       14.0162
  32       15.3231
 
  0.3333333E+00  0.0000000E+00  0.0000000E+00  0.1286008E-03
   1       -3.3277
   2       -1.7260
   3       -1.2946
   4       -1.2831
   5       -1.2831
   6       -1.0804
   7       -1.0804
   8       -0.5052
   9        0.3859
  10        0.3859
  11        0.5618
  12        0.5618
  13        0.6632
  14        1.3024
  15        1.3346
  16        1.3346
  17        1.4708
  18        1.5055
  19        1.5055
  20        1.7413
  21        2.2537
  22        2.2537
  23        7.8966
  24        7.8966
  25        8.1094
  26        8.1094
  27       11.6084
  28       11.6084
  29       12.6648
  30       12.6648
  31       14.6843
  32       15.6154
 
  0.3611111E+00  0.0000000E+00  0.0000000E+00  0.1286008E-03
   1       -3.1554
   2       -1.7518
   3       -1.2373
   4       -1.2076
   5       -1.2076
   6       -0.9820
   7       -0.9820
   8       -0.5705
   9        0.3912
  10        0.3913
  11        0.4606
  12        0.4606
  13        0.6128
  14        1.2091
  15        1.2537
  16        1.2537
  17        1.3353
  18        1.4041
  19        1.4041
  20        1.7063
  21        2.2538
  22        2.2538
  23        8.0638
  24        8.0638
  25        8.2053
  26        8.2053
  27       11.3209
  28       11.3209
  29       12.6062
  30       12.6062
  31       15.3645
  32       15.9241
 
  0.3888889E+00  0.0000000E+00  0.0000000E+00  0.1286008E-03
   1       -2.9762
   2       -1.8004
   3       -1.1771
   4       -1.1380
   5       -1.1380
   6       -0.8762
   7       -0.8762
   8       -0.6377
   9        0.2255
  10        0.2255
  11        0.5402
  12        0.5402
  13        0.5682
  14        0.9870
  15        1.1791
  16        1.1791
  17        1.3019
  18        1.3019
  19        1.3698
  20        1.6699
  21        2.2538
  22        2.2538
  23        8.0249
  24        8.0249
  25        8.5180
  26        8.5180
  27       11.0249
  28       11.0249
  29       12.5583
  30       12.5583
  31       16.0576
  32       16.2475
 
  0.4166667E+00  0.0000000E+00  0.0000000E+00  0.1286008E-03
   1       -2.7931
   2       -1.8757
   3       -1.1142
   4       -1.0777
   5       -1.0777
   6       -0.7628
   7       -0.7628
   8       -0.7062
   9        0.0651
  10        0.0651
  11        0.5328
  12        0.6243
  13        0.6243
  14        0.8082
  15        1.1146
  16        1.1146
  17        1.1995
  18        1.1995
  19        1.4055
  20        1.6326
  21        2.2539
  22        2.2539
  23        7.9936
  24        7.9936
  25        8.8335
  26        8.8335
  27       10.7219
  28       10.7219
  29       12.5212
  30       12.5212
  31       16.5839
  32       16.5862
 
  0.4444444E+00  0.0000000E+00  0.0000000E+00  0.1286008E-03
   1       -2.6097
   2       -1.9792
   3       -1.0491
   4       -1.0309
   5       -1.0309
   6       -0.7755
   7       -0.6421
   8       -0.6421
   9       -0.0894
  10       -0.0894
  11        0.5109
  12        0.6740
  13        0.7125
  14        0.7125
  15        1.0646
  16        1.0646
  17        1.0979
  18        1.0979
  19        1.4423
  20        1.5947
  21        2.2539
  22        2.2539
  23        7.9708
  24        7.9708
  25        9.1506
  26        9.1506
  27       10.4135
  28       10.4135
  29       12.4947
  30       12.4947
  31       16.9316
  32       16.9316
 
  0.4722222E+00  0.0000000E+00  0.0000000E+00  0.1286008E-03
   1       -2.4308
   2       -2.1094
   3       -1.0009
   4       -1.0009
   5       -0.9823
   6       -0.8449
   7       -0.5142
   8       -0.5142
   9       -0.2376
  10       -0.2376
  11        0.5076
  12        0.5826
  13        0.8045
  14        0.8045
  15        0.9977
  16        0.9977
  17        1.0327
  18        1.0327
  19        1.4799
  20        1.5564
  21        2.2540
  22        2.2540
  23        7.9569
  24        7.9569
  25        9.4683
  26        9.4683
  27       10.1009
  28       10.1009
  29       12.4789
  30       12.4789
  31       17.2885
  32       17.2885
 
  0.5000000E+00  0.0000000E+00  0.0000000E+00  0.6430041E-04
   1       -2.2619
   2       -2.2619
   3       -0.9907
   4       -0.9907
   5       -0.9140
   6       -0.9140
   7       -0.3794
   8       -0.3794
   9       -0.3794
  10       -0.3794
  11        0.5293
  12        0.5293
  13        0.8997
  14        0.8997
  15        0.8997
  16        0.8997
  17        1.0217
  18        1.0217
  19        1.5180
  20        1.5180
  21        2.2540
  22        2.2540
  23        7.9523
  24        7.9523
  25        9.7855
  26        9.7855
  27        9.7855
  28        9.7855
  29       12.4736
  30       12.4736
  31       17.6529
  32       17.6529
 
  0.2777778E-01  0.2777778E-01  0.0000000E+00  0.2572016E-03
   1       -4.3924
   2       -1.8760
   3       -1.8760
   4       -1.8736
   5       -1.6445
   6       -1.6445
   7       -1.6431
   8       -0.0673
   9       -0.0578
  10       -0.0559
  11        1.0890
  12        1.0943
  13        1.9625
  14        1.9657
  15        1.9657
  16        2.2126
  17        2.2240
  18        2.2240
  19        2.2463
  20        2.2463
  21        2.2484
  22        5.3161
  23        5.3161
  24        5.4279
  25        8.6082
  26        8.7115
  27        8.7115
  28       13.5368
  29       13.6274
  30       13.6275
  31       13.6293
  32       13.6293
 
  0.5555556E-01  0.2777778E-01  0.0000000E+00  0.5144033E-03
   1       -4.3687
   2       -1.8686
   3       -1.8611
   4       -1.8590
   5       -1.6366
   6       -1.6326
   7       -1.6310
   8       -0.0768
   9       -0.0492
  10       -0.0463
  11        1.0790
  12        1.0980
  13        1.9472
  14        1.9495
  15        1.9597
  16        2.1512
  17        2.1597
  18        2.2049
  19        2.2271
  20        2.2462
  21        2.2463
  22        5.0904
  23        5.3979
  24        5.5096
  25        8.5920
  26        8.6964
  27        8.9793
  28       13.4332
  29       13.5762
  30       13.5849
  31       13.6707
  32       13.6731
 
  0.8333333E-01  0.2777778E-01  0.0000000E+00  0.5144033E-03
   1       -4.3294
   2       -1.8567
   3       -1.8365
   4       -1.8348
   5       -1.6236
   6       -1.6127
   7       -1.6108
   8       -0.0939
   9       -0.0335
  10       -0.0305
  11        1.0610
  12        1.1057
  13        1.9215
  14        1.9217
  15        1.9496
  16        2.0523
  17        2.0607
  18        2.1738
  19        2.1955
  20        2.2456
  21        2.2463
  22        4.7735
  23        5.5268
  24        5.6390
  25        8.5656
  26        8.6721
  27        9.3666
  28       13.3065
  29       13.4920
  30       13.5159
  31       13.6504
  32       13.7489
 
  0.1111111E+00  0.2777778E-01  0.0000000E+00  0.5144033E-03
   1       -4.2746
   2       -1.8406
   3       -1.8025
   4       -1.8014
   5       -1.6054
   6       -1.5848
   7       -1.5825
   8       -0.1178
   9       -0.0112
  10       -0.0084
  11        1.0361
  12        1.1166
  13        1.8748
  14        1.8863
  15        1.9250
  16        1.9353
  17        1.9425
  18        2.1313
  19        2.1523
  20        2.2455
  21        2.2464
  22        4.4075
  23        5.6947
  24        5.8084
  25        8.5299
  26        8.6395
  27        9.8317
  28       13.1614
  29       13.3767
  30       13.4285
  31       13.6000
  32       13.8553
 
  0.1388889E+00  0.2777778E-01  0.0000000E+00  0.5144033E-03
   1       -4.2044
   2       -1.8211
   3       -1.7596
   4       -1.7592
   5       -1.5821
   6       -1.5491
   7       -1.5462
   8       -0.1481
   9        0.0174
  10        0.0200
  11        1.0046
  12        1.1306
  13        1.7638
  14        1.7771
  15        1.8414
  16        1.8585
  17        1.9162
  18        2.0787
  19        2.0981
  20        2.2455
  21        2.2464
  22        4.0193
  23        5.8932
  24        6.0101
  25        8.4860
  26        8.6000
  27       10.3484
  28       13.0012
  29       13.2323
  30       13.3293
  31       13.5238
  32       13.9883
 
  0.1666667E+00  0.2777778E-01  0.0000000E+00  0.5144033E-03
   1       -4.1192
   2       -1.7991
   3       -1.7087
   4       -1.7081
   5       -1.5539
   6       -1.5054
   7       -1.5018
   8       -0.1845
   9        0.0523
  10        0.0545
  11        0.9671
  12        1.1475
  13        1.6059
  14        1.6149
  15        1.7874
  16        1.7986
  17        1.8907
  18        2.0184
  19        2.0340
  20        2.2455
  21        2.2465
  22        3.6249
  23        6.1153
  24        6.2374
  25        8.4354
  26        8.5557
  27       10.9014
  28       12.8281
  29       13.0614
  30       13.2246
  31       13.4276
  32       14.1498
 
  0.1944444E+00  0.2777778E-01  0.0000000E+00  0.5144033E-03
   1       -4.0193
   2       -1.7759
   3       -1.6507
   4       -1.6490
   5       -1.5210
   6       -1.4538
   7       -1.4495
   8       -0.2265
   9        0.0932
  10        0.0950
  11        0.9244
  12        1.1672
  13        1.4351
  14        1.4437
  15        1.7251
  16        1.7345
  17        1.8545
  18        1.9557
  19        1.9611
  20        2.2456
  21        2.2466
  22        3.2348
  23        6.3549
  24        6.4852
  25        8.3799
  26        8.5090
  27       11.4815
  28       12.6430
  29       12.8667
  30       13.1194
  31       13.3182
  32       14.3319
 
  0.2222222E+00  0.2777778E-01  0.0000000E+00  0.5144033E-03
   1       -3.9052
   2       -1.7532
   3       -1.5859
   4       -1.5831
   5       -1.4834
   6       -1.3944
   7       -1.3892
   8       -0.2737
   9        0.1403
  10        0.1413
  11        0.8772
  12        1.1896
  13        1.2585
  14        1.2674
  15        1.6555
  16        1.6639
  17        1.7982
  18        1.8805
  19        1.9004
  20        2.2457
  21        2.2467
  22        2.8567
  23        6.6064
  24        6.7492
  25        8.3211
  26        8.4630
  27       12.0830
  28       12.4452
  29       12.6506
  30       13.0177
  31       13.2028
  32       14.5419
 
  0.2500000E+00  0.2777778E-01  0.0000000E+00  0.5144033E-03
   1       -3.7774
   2       -1.7331
   3       -1.5155
   4       -1.5116
   5       -1.4414
   6       -1.3271
   7       -1.3212
   8       -0.3256
   9        0.1932
  10        0.1934
  11        0.8267
  12        1.0797
  13        1.0888
  14        1.2146
  15        1.5796
  16        1.5874
  17        1.7168
  18        1.7935
  19        1.8566
  20        2.2459
  21        2.2467
  22        2.4980
  23        6.8645
  24        7.0263
  25        8.2609
  26        8.4218
  27       12.2338
  28       12.4158
  29       12.7019
  30       12.9225
  31       13.0877
  32       14.7742
 
  0.2777778E+00  0.2777778E-01  0.0000000E+00  0.5144033E-03
   1       -3.6367
   2       -1.7184
   3       -1.4408
   4       -1.4359
   5       -1.3952
   6       -1.2520
   7       -1.2457
   8       -0.3816
   9        0.2507
  10        0.2519
  11        0.7743
  12        0.9009
  13        0.9103
  14        1.2419
  15        1.4992
  16        1.5064
  17        1.6141
  18        1.7011
  19        1.8173
  20        2.1683
  21        2.2460
  22        2.2468
  23        7.1221
  24        7.3139
  25        8.2013
  26        8.3919
  27       12.0079
  28       12.1647
  29       12.8358
  30       12.9783
  31       13.3348
  32       15.0281
 
  0.3055556E+00  0.2777778E-01  0.0000000E+00  0.5144033E-03
   1       -3.4842
   2       -1.7128
   3       -1.3634
   4       -1.3579
   5       -1.3451
   6       -1.1692
   7       -1.1628
   8       -0.4413
   9        0.3129
  10        0.3161
  11        0.7217
  12        0.7240
  13        0.7334
  14        1.2715
  15        1.4161
  16        1.4229
  17        1.4862
  18        1.6047
  19        1.7705
  20        1.8895
  21        2.2462
  22        2.2469
  23        7.3679
  24        7.6099
  25        8.1438
  26        8.3842
  27       11.7675
  28       11.8994
  29       12.7587
  30       12.8784
  31       13.9783
  32       15.3015
 
  0.3333333E+00  0.2777778E-01  0.0000000E+00  0.5144033E-03
   1       -3.3210
   2       -1.7204
   3       -1.2914
   4       -1.2854
   5       -1.2797
   6       -1.0786
   7       -1.0727
   8       -0.5040
   9        0.3785
  10        0.3857
  11        0.5503
  12        0.5595
  13        0.6717
  14        1.3031
  15        1.3209
  16        1.3329
  17        1.3391
  18        1.5053
  19        1.6330
  20        1.7635
  21        2.2463
  22        2.2469
  23        7.5821
  24        7.9128
  25        8.0901
  26        8.4186
  27       11.5134
  28       11.6220
  29       12.6922
  30       12.7902
  31       14.6267
  32       15.5931
 
  0.3611111E+00  0.2777778E-01  0.0000000E+00  0.5144033E-03
   1       -3.1489
   2       -1.7460
   3       -1.2343
   4       -1.2093
   5       -1.2041
   6       -0.9805
   7       -0.9757
   8       -0.5691
   9        0.3806
  10        0.3896
  11        0.4439
  12        0.4604
  13        0.6302
  14        1.1251
  15        1.2524
  16        1.2579
  17        1.3366
  18        1.4040
  19        1.4751
  20        1.7195
  21        2.2465
  22        2.2470
  23        7.7369
  24        8.0414
  25        8.2210
  26        8.5228
  27       11.2470
  28       11.3344
  29       12.6367
  30       12.7147
  31       15.2671
  32       15.9003
 
  0.3888889E+00  0.2777778E-01  0.0000000E+00  0.5144033E-03
   1       -2.9700
   2       -1.7946
   3       -1.1742
   4       -1.1386
   5       -1.1342
   6       -0.8748
   7       -0.8716
   8       -0.6362
   9        0.2158
  10        0.2244
  11        0.4927
  12        0.5400
  13        0.6159
  14        0.9332
  15        1.1783
  16        1.1830
  17        1.3017
  18        1.3461
  19        1.3716
  20        1.6800
  21        2.2466
  22        2.2470
  23        7.8221
  24        7.9988
  25        8.5332
  26        8.7068
  27       10.9702
  28       11.0384
  29       12.5923
  30       12.6523
  31       15.8624
  32       16.2220
 
  0.4166667E+00  0.2777778E-01  0.0000000E+00  0.5144033E-03
   1       -2.7870
   2       -1.8700
   3       -1.1115
   4       -1.0771
   5       -1.0739
   6       -0.7616
   7       -0.7604
   8       -0.7045
   9        0.0566
  10        0.0644
  11        0.4976
  12        0.6240
  13        0.6591
  14        0.7696
  15        1.1144
  16        1.1181
  17        1.1993
  18        1.2308
  19        1.4079
  20        1.6407
  21        2.2467
  22        2.2470
  23        7.8598
  24        7.9629
  25        8.8483
  26        8.9482
  27       10.6851
  28       10.7355
  29       12.5592
  30       12.6027
  31       16.3530
  32       16.5566
 
  0.4444444E+00  0.2777778E-01  0.0000000E+00  0.5144033E-03
   1       -2.6039
   2       -1.9735
   3       -1.0465
   4       -1.0291
   5       -1.0270
   6       -0.7736
   7       -0.6420
   8       -0.6412
   9       -0.0967
  10       -0.0897
  11        0.4863
  12        0.6441
  13        0.7123
  14        0.7360
  15        1.0649
  16        1.0675
  17        1.0976
  18        1.1223
  19        1.4454
  20        1.6014
  21        2.2468
  22        2.2470
  23        7.8762
  24        7.9342
  25        9.1651
  26        9.2205
  27       10.3938
  28       10.4272
  29       12.5375
  30       12.5658
  31       16.7582
  32       16.9020
 
  0.4722222E+00  0.2777778E-01  0.0000000E+00  0.5144033E-03
   1       -2.4250
   2       -2.1037
   3       -0.9982
   4       -0.9972
   5       -0.9798
   6       -0.8428
   7       -0.5164
   8       -0.5136
   9       -0.2434
  10       -0.2376
  11        0.4857
  12        0.5577
  13        0.8042
  14        0.8245
  15        0.9975
  16        1.0186
  17        1.0336
  18        1.0350
  19        1.4838
  20        1.5620
  21        2.2469
  22        2.2470
  23        7.8861
  24        7.9125
  25        9.4825
  26        9.5080
  27       10.0987
  28       10.1147
  29       12.5271
  30       12.5410
  31       17.1327
  32       17.2562
 
  0.5000000E+00  0.2777778E-01  0.0000000E+00  0.2572016E-03
   1       -2.2562
   2       -2.2562
   3       -0.9872
   4       -0.9872
   5       -0.9118
   6       -0.9118
   7       -0.3834
   8       -0.3834
   9       -0.3790
  10       -0.3790
  11        0.5070
  12        0.5070
  13        0.8995
  14        0.8995
  15        0.9192
  16        0.9192
  17        1.0233
  18        1.0233
  19        1.5227
  20        1.5227
  21        2.2469
  22        2.2469
  23        7.8971
  24        7.8971
  25        9.7994
  26        9.7994
  27        9.8023
  28        9.8023
  29       12.5282
  30       12.5282
  31       17.4974
  32       17.5023
 
  0.5555556E-01  0.5555556E-01  0.0000000E+00  0.2572016E-03
   1       -4.3452
   2       -1.8537
   3       -1.8537
   4       -1.8451
   5       -1.6247
   6       -1.6247
   7       -1.6183
   8       -0.0821
   9       -0.0446
  10       -0.0371
  11        1.0749
  12        1.0962
  13        1.9321
  14        1.9410
  15        1.9410
  16        2.1005
  17        2.1419
  18        2.1419
  19        2.2271
  20        2.2271
  21        2.2357
  22        5.1708
  23        5.1708
  24        5.5888
  25        8.5751
  26        8.9658
  27        8.9658
  28       13.2799
  29       13.6215
  30       13.6215
  31       13.6307
  32       13.6307
 
  0.8333333E-01  0.5555556E-01  0.0000000E+00  0.5144033E-03
   1       -4.3060
   2       -1.8417
   3       -1.8291
   4       -1.8221
   5       -1.6118
   6       -1.6049
   7       -1.5973
   8       -0.0965
   9       -0.0314
  10       -0.0217
  11        1.0601
  12        1.1013
  13        1.9059
  14        1.9070
  15        1.9263
  16        2.0109
  17        2.0488
  18        2.1134
  19        2.1955
  20        2.2271
  21        2.2296
  22        4.8537
  23        5.2966
  24        5.7146
  25        8.5474
  26        8.9441
  27        9.3535
  28       13.1108
  29       13.5369
  30       13.5621
  31       13.6965
  32       13.7068
 
  0.1111111E+00  0.5555556E-01  0.0000000E+00  0.5144033E-03
   1       -4.2513
   2       -1.8255
   3       -1.7949
   4       -1.7904
   5       -1.5937
   6       -1.5772
   7       -1.5679
   8       -0.1191
   9       -0.0103
  10       -0.0002
  11        1.0364
  12        1.1117
  13        1.8383
  14        1.8723
  15        1.8905
  16        1.9040
  17        1.9502
  18        2.0756
  19        2.1522
  20        2.2267
  21        2.2271
  22        4.4895
  23        5.4590
  24        5.8799
  25        8.5099
  26        8.9155
  27        9.8171
  28       12.9307
  29       13.4211
  30       13.4756
  31       13.7902
  32       13.8006
 
  0.1388889E+00  0.5555556E-01  0.0000000E+00  0.5144033E-03
   1       -4.1814
   2       -1.8058
   3       -1.7518
   4       -1.7502
   5       -1.5706
   6       -1.5416
   7       -1.5301
   8       -0.1486
   9        0.0178
  10        0.0272
  11        1.0057
  12        1.1259
  13        1.7167
  14        1.7481
  15        1.8282
  16        1.8716
  17        1.8763
  18        2.0318
  19        2.0980
  20        2.2253
  21        2.2271
  22        4.1053
  23        5.6492
  24        6.0775
  25        8.4637
  26        8.8818
  27       10.3304
  28       12.7435
  29       13.2761
  30       13.3779
  31       13.7627
  32       13.9326
 
  0.1666667E+00  0.5555556E-01  0.0000000E+00  0.5144033E-03
   1       -4.0965
   2       -1.7836
   3       -1.7022
   4       -1.7002
   5       -1.5426
   6       -1.4981
   7       -1.4840
   8       -0.1843
   9        0.0523
  10        0.0606
  11        0.9691
  12        1.1433
  13        1.5618
  14        1.5907
  15        1.7751
  16        1.8132
  17        1.8253
  18        1.9859
  19        2.0339
  20        2.2246
  21        2.2271
  22        3.7174
  23        5.8594
  24        6.3010
  25        8.4102
  26        8.8453
  27       10.8778
  28       12.5515
  29       13.1046
  30       13.2753
  31       13.7062
  32       14.0915
 
  0.1944444E+00  0.5555556E-01  0.0000000E+00  0.5144033E-03
   1       -3.9969
   2       -1.7602
   3       -1.6469
   4       -1.6408
   5       -1.5099
   6       -1.4468
   7       -1.4299
   8       -0.2258
   9        0.0931
  10        0.0996
  11        0.9274
  12        1.1638
  13        1.3931
  14        1.4235
  15        1.7139
  16        1.7475
  17        1.7615
  18        1.9418
  19        1.9609
  20        2.2243
  21        2.2271
  22        3.3368
  23        6.0830
  24        6.5453
  25        8.3510
  26        8.8092
  27       11.4501
  28       12.3562
  29       12.9092
  30       13.1730
  31       13.6258
  32       14.2758
 
  0.2222222E+00  0.5555556E-01  0.0000000E+00  0.5144033E-03
   1       -3.8832
   2       -1.7372
   3       -1.5849
   4       -1.5747
   5       -1.4725
   6       -1.3876
   7       -1.3679
   8       -0.2724
   9        0.1400
  10        0.1440
  11        0.8815
  12        1.1871
  13        1.2182
  14        1.2507
  15        1.6453
  16        1.6762
  17        1.6789
  18        1.8802
  19        1.9000
  20        2.2242
  21        2.2271
  22        2.9721
  23        6.3139
  24        6.8062
  25        8.2881
  26        8.7771
  27       12.0409
  28       12.1576
  29       12.6926
  30       13.0752
  31       13.5279
  32       14.4842
 
  0.2500000E+00  0.5555556E-01  0.0000000E+00  0.5144033E-03
   1       -3.7559
   2       -1.7169
   3       -1.5172
   4       -1.5028
   5       -1.4308
   6       -1.3206
   7       -1.2984
   8       -0.3238
   9        0.1928
  10        0.1934
  11        0.8329