       N       E                     dE             d eps       ncg     rms          rms(c)
DAV:   1     0.587572630923E+03    0.58757E+03   -0.31043E+04 85120   0.227E+03
DAV:   2     0.701694210404E+01   -0.58056E+03   -0.53577E+03 85152   0.494E+02
DAV:   3    -0.135882128642E+02   -0.20605E+02   -0.20132E+02100192   0.111E+02
DAV:   4    -0.137992075245E+02   -0.21099E+00   -0.21081E+00 92560   0.973E+00
DAV:   5    -0.138010127602E+02   -0.18052E-02   -0.18050E-02101896   0.849E-01    0.546E+00
DAV:   6    -0.129148050937E+02    0.88621E+00   -0.21324E+00 96376   0.133E+01    0.135E+00
DAV:   7    -0.128767432879E+02    0.38062E-01   -0.10630E-01 98040   0.229E+00    0.621E-01
DAV:   8    -0.128693989548E+02    0.73443E-02   -0.67988E-03 91840   0.749E-01    0.470E-02
DAV:   9    -0.128694933651E+02   -0.94410E-04   -0.33803E-04101568   0.143E-01    0.292E-02
DAV:  10    -0.128694882416E+02    0.51234E-05   -0.33640E-05 94536   0.392E-02    0.234E-03
DAV:  11    -0.128694893202E+02   -0.10786E-05   -0.78513E-07100104   0.588E-03    0.810E-04
DAV:  12    -0.128694888888E+02    0.43145E-06   -0.48845E-08 94648   0.192E-03    0.104E-04
DAV:  13    -0.128694888374E+02    0.51382E-07   -0.76841E-10 62368   0.202E-04    0.276E-05
DAV:  14    -0.128694888445E+02   -0.71309E-08   -0.85886E-11 55696   0.906E-05
   1 F= -.12869489E+02 E0= -.12869449E+02  d E =-.789248E-04
