   4   4   0   0
  0.1971248E+02  0.4288122E-09  0.4288122E-09  0.4288122E-09  0.5000000E-15
  1.000000000000000E-004
  CAR 
 unknown system                          
     13.32512940     -5.28384700  301      2.39305364      1.00000000
     -5.284  0.0000E+00  0.0000E+00
     -5.222  0.0000E+00  0.0000E+00
     -5.160  0.0000E+00  0.0000E+00
     -5.098  0.0000E+00  0.0000E+00
     -5.036  0.0000E+00  0.0000E+00
     -4.974  0.0000E+00  0.0000E+00
     -4.912  0.0000E+00  0.0000E+00
     -4.850  0.0000E+00  0.0000E+00
     -4.788  0.0000E+00  0.0000E+00
     -4.726  0.0000E+00  0.0000E+00
     -4.664  0.0000E+00  0.0000E+00
     -4.602  0.0000E+00  0.0000E+00
     -4.539  0.0000E+00  0.0000E+00
     -4.477  0.2213E-09  0.1373E-10
     -4.415  0.1865E-01  0.1157E-02
     -4.353  0.1117E+00  0.8084E-02
     -4.291  0.2226E+00  0.2191E-01
     -4.229  0.1493E+00  0.3117E-01
     -4.167  0.1110E+00  0.3805E-01
     -4.105  0.4431E+00  0.6554E-01
     -4.043  0.4520E+00  0.9358E-01
     -3.981  0.2741E-02  0.9375E-01
     -3.919  0.2236E+00  0.1076E+00
     -3.857  0.5594E+00  0.1423E+00
     -3.795  0.4477E+00  0.1701E+00
     -3.733  0.5026E+00  0.2013E+00
     -3.671  0.9978E-01  0.2075E+00
     -3.609  0.1057E+01  0.2731E+00
     -3.547  0.2814E+00  0.2905E+00
     -3.485  0.4600E+00  0.3190E+00
     -3.423  0.5427E+00  0.3527E+00
     -3.361  0.1119E+01  0.4221E+00
     -3.299  0.6316E+00  0.4613E+00
     -3.237  0.2094E+01  0.5913E+00
     -3.175  0.3471E+01  0.8066E+00
     -3.113  0.8692E+01  0.1346E+01
     -3.051  0.9856E+01  0.1957E+01
     -2.989  0.1149E+02  0.2670E+01
     -2.927  0.1546E+02  0.3629E+01
     -2.865  0.1480E+02  0.4548E+01
     -2.803  0.2204E+02  0.5915E+01
     -2.741  0.1311E+02  0.6728E+01
     -2.679  0.1866E+02  0.7886E+01
     -2.617  0.1220E+02  0.8643E+01
     -2.555  0.1329E+02  0.9467E+01
     -2.493  0.8798E+01  0.1001E+02
     -2.430  0.1007E+02  0.1064E+02
     -2.368  0.1315E+02  0.1145E+02
     -2.306  0.1303E+02  0.1226E+02
     -2.244  0.1308E+02  0.1307E+02
     -2.182  0.1724E+02  0.1414E+02
     -2.120  0.1408E+02  0.1502E+02
     -2.058  0.9877E+01  0.1563E+02
     -1.996  0.1395E+02  0.1649E+02
     -1.934  0.1686E+02  0.1754E+02
     -1.872  0.1981E+02  0.1877E+02
     -1.810  0.2637E+02  0.2041E+02
     -1.748  0.1683E+02  0.2145E+02
     -1.686  0.1893E+02  0.2263E+02
     -1.624  0.1293E+02  0.2343E+02
     -1.562  0.9814E+01  0.2404E+02
     -1.500  0.1894E+02  0.2521E+02
     -1.438  0.1108E+02  0.2590E+02
     -1.376  0.1371E+02  0.2675E+02
     -1.314  0.1681E+02  0.2779E+02
     -1.252  0.1698E+02  0.2885E+02
     -1.190  0.1814E+02  0.2997E+02
     -1.128  0.1808E+02  0.3109E+02
     -1.066  0.1239E+02  0.3186E+02
     -1.004  0.1492E+02  0.3279E+02
     -0.942  0.1183E+02  0.3352E+02
     -0.880  0.1429E+02  0.3441E+02
     -0.818  0.1585E+02  0.3539E+02
     -0.756  0.1403E+02  0.3626E+02
     -0.694  0.1965E+02  0.3748E+02
     -0.632  0.2019E+02  0.3873E+02
     -0.570  0.2313E+02  0.4017E+02
     -0.508  0.1054E+02  0.4082E+02
     -0.446  0.8031E+01  0.4132E+02
     -0.383  0.2341E+00  0.4134E+02
     -0.321  0.2731E-02  0.4134E+02
     -0.259  0.6857E+00  0.4138E+02
     -0.197  0.2072E+00  0.4139E+02
     -0.135  0.8041E+00  0.4144E+02
     -0.073  0.2779E+01  0.4161E+02
     -0.011  0.1343E+01  0.4170E+02
      0.051  0.8892E+00  0.4175E+02
      0.113  0.4109E+00  0.4178E+02
      0.175  0.4912E+00  0.4181E+02
      0.237  0.1048E+01  0.4187E+02
      0.299  0.2954E+00  0.4189E+02
      0.361  0.2805E-04  0.4189E+02
      0.423  0.1126E+01  0.4196E+02
      0.485  0.2370E+01  0.4211E+02
      0.547  0.8702E+00  0.4216E+02
      0.609  0.4706E+00  0.4219E+02
      0.671  0.2494E+01  0.4235E+02
      0.733  0.4561E+00  0.4238E+02
      0.795  0.1624E+00  0.4239E+02
      0.857  0.8952E+00  0.4244E+02
      0.919  0.2373E+00  0.4246E+02
      0.981  0.4700E+00  0.4248E+02
      1.043  0.1519E+01  0.4258E+02
      1.105  0.2214E+01  0.4272E+02
      1.167  0.4921E+00  0.4275E+02
      1.229  0.1934E+01  0.4287E+02
      1.291  0.1936E-02  0.4287E+02
      1.353  0.1244E+01  0.4294E+02
      1.415  0.9700E+00  0.4300E+02
      1.477  0.3202E+00  0.4302E+02
      1.539  0.1232E+01  0.4310E+02
      1.601  0.8467E+00  0.4315E+02
      1.664  0.4231E+00  0.4318E+02
      1.726  0.6646E+00  0.4322E+02
      1.788  0.2580E+01  0.4338E+02
      1.850  0.1247E+01  0.4346E+02
      1.912  0.1354E+01  0.4354E+02
      1.974  0.2414E+00  0.4356E+02
      2.036  0.4279E+00  0.4358E+02
      2.098  0.2962E+01  0.4377E+02
      2.160  0.1048E+01  0.4383E+02
      2.222  0.3235E+00  0.4385E+02
      2.284  0.1281E+01  0.4393E+02
      2.346  0.7089E+00  0.4398E+02
      2.408  0.4475E+00  0.4400E+02
      2.470  0.6376E-02  0.4400E+02
      2.532  0.2369E+01  0.4415E+02
      2.594  0.1799E+01  0.4426E+02
      2.656  0.1308E+01  0.4434E+02
      2.718  0.1063E+01  0.4441E+02
      2.780  0.1840E+01  0.4452E+02
      2.842  0.1944E+01  0.4464E+02
      2.904  0.1420E+01  0.4473E+02
      2.966  0.0000E+00  0.4473E+02
      3.028  0.2877E-09  0.4473E+02
      3.090  0.1749E+01  0.4484E+02
      3.152  0.5466E+00  0.4488E+02
      3.214  0.2176E+01  0.4501E+02
      3.276  0.8975E+00  0.4507E+02
      3.338  0.6292E+00  0.4511E+02
      3.400  0.9894E+00  0.4517E+02
      3.462  0.2443E+01  0.4532E+02
      3.524  0.6377E+00  0.4536E+02
      3.586  0.1023E+01  0.4542E+02
      3.648  0.7080E+00  0.4547E+02
      3.710  0.2419E+01  0.4562E+02
      3.773  0.8867E+00  0.4567E+02
      3.835  0.8955E+00  0.4573E+02
      3.897  0.4478E+00  0.4575E+02
      3.959  0.1472E+00  0.4576E+02
      4.021  0.2091E+01  0.4589E+02
      4.083  0.2191E+00  0.4591E+02
      4.145  0.1180E+01  0.4598E+02
      4.207  0.1119E+01  0.4605E+02
      4.269  0.2646E+01  0.4621E+02
      4.331  0.1293E+01  0.4629E+02
      4.393  0.1189E+01  0.4637E+02
      4.455  0.2266E+00  0.4638E+02
      4.517  0.1373E+01  0.4647E+02
      4.579  0.1161E+01  0.4654E+02
      4.641  0.9630E+00  0.4660E+02
      4.703  0.1000E+01  0.4666E+02
      4.765  0.6361E-02  0.4666E+02
      4.827  0.1337E+01  0.4674E+02
      4.889  0.1162E+01  0.4682E+02
      4.951  0.2580E+00  0.4683E+02
      5.013  0.9686E+00  0.4689E+02
      5.075  0.2983E+00  0.4691E+02
      5.137  0.1119E+01  0.4698E+02
      5.199  0.2159E+01  0.4711E+02
      5.261  0.1334E+01  0.4720E+02
      5.323  0.1326E+01  0.4728E+02
      5.385  0.1259E+01  0.4736E+02
      5.447  0.9035E+00  0.4741E+02
      5.509  0.1299E+01  0.4749E+02
      5.571  0.1850E+01  0.4761E+02
      5.633  0.9791E+00  0.4767E+02
      5.695  0.2083E+01  0.4780E+02
      5.757  0.1702E+01  0.4790E+02
      5.820  0.8964E+00  0.4796E+02
      5.882  0.1365E+01  0.4804E+02
      5.944  0.5800E+00  0.4808E+02
      6.006  0.2564E+00  0.4810E+02
      6.068  0.2029E+01  0.4822E+02
      6.130  0.2362E+01  0.4837E+02
      6.192  0.2970E+01  0.4855E+02
      6.254  0.1278E-01  0.4855E+02
      6.316  0.1119E+01  0.4862E+02
      6.378  0.1852E+01  0.4874E+02
      6.440  0.1745E+01  0.4885E+02
      6.502  0.2263E+01  0.4899E+02
      6.564  0.8564E+00  0.4904E+02
      6.626  0.0000E+00  0.4904E+02
      6.688  0.5400E-03  0.4904E+02
      6.750  0.1766E+01  0.4915E+02
      6.812  0.1818E+00  0.4916E+02
      6.874  0.4241E+01  0.4942E+02
      6.936  0.4546E+00  0.4945E+02
      6.998  0.1574E+01  0.4955E+02
      7.060  0.6934E+00  0.4959E+02
      7.122  0.1980E+01  0.4971E+02
      7.184  0.1340E+01  0.4980E+02
      7.246  0.4572E+00  0.4983E+02
      7.308  0.1224E+01  0.4990E+02
      7.370  0.1865E+01  0.5002E+02
      7.432  0.1042E+01  0.5008E+02
      7.494  0.3468E+00  0.5010E+02
      7.556  0.1202E+01  0.5018E+02
      7.618  0.2407E+01  0.5033E+02
      7.680  0.2032E+00  0.5034E+02
      7.742  0.1572E+01  0.5044E+02
      7.804  0.7264E+00  0.5048E+02
      7.866  0.1204E+01  0.5056E+02
      7.929  0.6233E+00  0.5060E+02
      7.991  0.3159E+01  0.5079E+02
      8.053  0.4938E+00  0.5082E+02
      8.115  0.2276E+01  0.5096E+02
      8.177  0.2530E+01  0.5112E+02
      8.239  0.8956E+00  0.5118E+02
      8.301  0.2236E+00  0.5119E+02
      8.363  0.1729E+01  0.5130E+02
      8.425  0.6749E+00  0.5134E+02
      8.487  0.2402E+01  0.5149E+02
      8.549  0.4549E+00  0.5152E+02
      8.611  0.6088E+00  0.5156E+02
      8.673  0.2465E+01  0.5171E+02
      8.735  0.4157E+01  0.5197E+02
      8.797  0.2290E+01  0.5211E+02
      8.859  0.2663E+01  0.5227E+02
      8.921  0.1412E+01  0.5236E+02
      8.983  0.1831E+01  0.5247E+02
      9.045  0.1029E+01  0.5254E+02
      9.107  0.1464E+01  0.5263E+02
      9.169  0.8551E+00  0.5268E+02
      9.231  0.1037E+01  0.5275E+02
      9.293  0.8963E+00  0.5280E+02
      9.355  0.4518E+00  0.5283E+02
      9.417  0.2676E+01  0.5300E+02
      9.479  0.3063E+01  0.5319E+02
      9.541  0.2498E+01  0.5334E+02
      9.603  0.1979E+01  0.5346E+02
      9.665  0.9206E+00  0.5352E+02
      9.727  0.3081E+01  0.5371E+02
      9.789  0.2262E+01  0.5385E+02
      9.851  0.8980E+00  0.5391E+02
      9.913  0.7813E+00  0.5396E+02
      9.976  0.1415E+01  0.5404E+02
     10.038  0.2277E+01  0.5419E+02
     10.100  0.3562E+01  0.5441E+02
     10.162  0.6309E+00  0.5445E+02
     10.224  0.2118E+01  0.5458E+02
     10.286  0.7329E-01  0.5458E+02
     10.348  0.1331E+01  0.5466E+02
     10.410  0.5099E-01  0.5467E+02
     10.472  0.1893E+01  0.5479E+02
     10.534  0.1683E+01  0.5489E+02
     10.596  0.2354E+01  0.5504E+02
     10.658  0.3205E+01  0.5523E+02
     10.720  0.1644E+01  0.5534E+02
     10.782  0.7641E-01  0.5534E+02
     10.844  0.1522E+01  0.5544E+02
     10.906  0.5897E+00  0.5547E+02
     10.968  0.5737E+00  0.5551E+02
     11.030  0.1668E+01  0.5561E+02
     11.092  0.1220E+00  0.5562E+02
     11.154  0.2798E+00  0.5564E+02
     11.216  0.2407E+01  0.5579E+02
     11.278  0.4468E+00  0.5581E+02
     11.340  0.1899E+00  0.5583E+02
     11.402  0.3403E-01  0.5583E+02
     11.464  0.5568E+00  0.5586E+02
     11.526  0.1022E+01  0.5593E+02
     11.588  0.6371E+00  0.5596E+02
     11.650  0.2844E+00  0.5598E+02
     11.712  0.0000E+00  0.5598E+02
     11.774  0.0000E+00  0.5598E+02
     11.836  0.0000E+00  0.5598E+02
     11.898  0.0000E+00  0.5598E+02
     11.960  0.0000E+00  0.5598E+02
     12.023  0.0000E+00  0.5598E+02
     12.085  0.1276E-13  0.5598E+02
     12.147  0.1036E+00  0.5599E+02
     12.209  0.8371E-02  0.5599E+02
     12.271  0.0000E+00  0.5599E+02
     12.333  0.0000E+00  0.5599E+02
     12.395  0.1201E-01  0.5599E+02
     12.457  0.6758E-02  0.5599E+02
     12.519  0.1492E+00  0.5600E+02
     12.581  0.0000E+00  0.5600E+02
     12.643  0.0000E+00  0.5600E+02
     12.705  0.0000E+00  0.5600E+02
     12.767  0.0000E+00  0.5600E+02
     12.829  0.0000E+00  0.5600E+02
     12.891  0.0000E+00  0.5600E+02
     12.953  0.0000E+00  0.5600E+02
     13.015  0.0000E+00  0.5600E+02
     13.077  0.0000E+00  0.5600E+02
     13.139  0.0000E+00  0.5600E+02
     13.201  0.0000E+00  0.5600E+02
     13.263  0.0000E+00  0.5600E+02
     13.325  0.0000E+00  0.5600E+02
