    4    4    1    1
  0.1971248E+02  0.4288122E-09  0.4288122E-09  0.4288122E-09  0.5000000E-15
  1.000000000000000E-004
  CAR 
 unknown system                          
   44   84   28
 
  0.0000000E+00  0.0000000E+00  0.0000000E+00  0.5787037E-03
   1       -4.4380
   2       -3.2855
   3       -3.2855
   4       -3.2855
   5       -3.1957
   6       -3.1957
   7       -3.1957
   8       -2.0355
   9       -2.0355
  10       -2.0355
  11       -1.2375
  12       -1.2375
  13       -0.6477
  14       -0.6477
  15       -0.6477
  16       -0.4616
  17       -0.4616
  18       -0.4616
  19       -0.4616
  20       -0.4616
  21       -0.4616
  22        4.0704
  23        4.0704
  24        4.0704
  25        8.0267
  26        8.0267
  27        8.0267
  28       12.3921
 
  0.8333333E-01  0.0000000E+00  0.0000000E+00  0.3472222E-02
   1       -4.3731
   2       -3.2613
   3       -3.2541
   4       -3.2541
   5       -3.1776
   6       -3.1678
   7       -3.1678
   8       -2.0572
   9       -2.0145
  10       -2.0145
  11       -1.2590
  12       -1.2278
  13       -0.6762
  14       -0.6762
  15       -0.6582
  16       -0.5579
  17       -0.5579
  18       -0.4968
  19       -0.4968
  20       -0.4616
  21       -0.4616
  22        3.5791
  23        4.2230
  24        4.2230
  25        8.0406
  26        8.0406
  27        8.6262
  28       12.1364
 
  0.1666667E+00  0.0000000E+00  0.0000000E+00  0.3472222E-02
   1       -4.1818
   2       -3.1918
   3       -3.1642
   4       -3.1642
   5       -3.1242
   6       -3.0844
   7       -3.0844
   8       -2.1203
   9       -1.9521
  10       -1.9521
  11       -1.3190
  12       -1.1995
  13       -0.8115
  14       -0.8115
  15       -0.7587
  16       -0.7587
  17       -0.6888
  18       -0.5975
  19       -0.5975
  20       -0.4614
  21       -0.4614
  22        2.5664
  23        4.6450
  24        4.6450
  25        8.0836
  26        8.0836
  27        9.9640
  28       11.4769
 
  0.2500000E+00  0.0000000E+00  0.0000000E+00  0.3472222E-02
   1       -3.8762
   2       -3.0869
   3       -3.0385
   4       -3.0288
   5       -3.0288
   6       -2.9458
   7       -2.9458
   8       -2.2194
   9       -1.8501
  10       -1.8501
  11       -1.4014
  12       -1.1541
  13       -1.1525
  14       -1.1525
  15       -0.8844
  16       -0.8844
  17       -0.7508
  18       -0.7508
  19       -0.7373
  20       -0.4613
  21       -0.4613
  22        1.4696
  23        5.2641
  24        5.2641
  25        8.1574
  26        8.1574
  27       10.6193
  28       10.6193
 
  0.3333333E+00  0.0000000E+00  0.0000000E+00  0.3472222E-02
   1       -3.4886
   2       -2.9663
   3       -2.9249
   4       -2.8729
   5       -2.8729
   6       -2.7534
   7       -2.7534
   8       -2.3462
   9       -1.7120
  10       -1.7120
  11       -1.5222
  12       -1.5222
  13       -1.4674
  14       -1.0946
  15       -1.0310
  16       -1.0310
  17       -0.9392
  18       -0.9392
  19       -0.7999
  20       -0.4611
  21       -0.4611
  22        0.4390
  23        6.0177
  24        6.0177
  25        8.2600
  26        8.2600
  27        9.6795
  28        9.6795
 
  0.4166667E+00  0.0000000E+00  0.0000000E+00  0.3472222E-02
   1       -3.1043
   2       -2.8697
   3       -2.7901
   4       -2.7392
   5       -2.7392
   6       -2.5092
   7       -2.5092
   8       -2.4908
   9       -1.8842
  10       -1.8842
  11       -1.5428
  12       -1.5428
  13       -1.4237
  14       -1.1584
  15       -1.1584
  16       -1.1445
  17       -1.1445
  18       -1.0247
  19       -0.8721
  20       -0.4609
  21       -0.4609
  22       -0.4493
  23        6.8634
  24        6.8634
  25        8.3697
  26        8.3697
  27        8.7187
  28        8.7187
 
  0.5000000E+00  0.0000000E+00  0.0000000E+00  0.1736111E-02
   1       -2.8805
   2       -2.8805
   3       -2.6842
   4       -2.6842
   5       -2.6422
   6       -2.6422
   7       -2.2172
   8       -2.2172
   9       -2.2172
  10       -2.2172
  11       -1.3502
  12       -1.3502
  13       -1.3502
  14       -1.3502
  15       -1.2112
  16       -1.2112
  17       -1.1045
  18       -1.1045
  19       -0.9488
  20       -0.9488
  21       -0.4609
  22       -0.4609
  23        7.7716
  24        7.7716
  25        7.7716
  26        7.7716
  27        8.4238
  28        8.4238
 
  0.8333333E-01  0.8333333E-01  0.0000000E+00  0.6944444E-02
   1       -4.3091
   2       -3.2298
   3       -3.2298
   4       -3.2296
   5       -3.1501
   6       -3.1501
   7       -3.1343
   8       -2.0647
   9       -2.0071
  10       -1.9948
  11       -1.2646
  12       -1.2321
  13       -0.7036
  14       -0.7008
  15       -0.7008
  16       -0.6242
  17       -0.5792
  18       -0.5792
  19       -0.4968
  20       -0.4968
  21       -0.4861
  22        3.7230
  23        3.7230
  24        4.3705
  25        8.0542
  26        8.6483
  27        8.6483
  28       11.3329
 
  0.1666667E+00  0.8333333E-01  0.0000000E+00  0.1388889E-01
   1       -4.1205
   2       -3.1597
   3       -3.1563
   4       -3.1393
   5       -3.0979
   6       -3.0678
   7       -3.0377
   8       -2.1196
   9       -1.9513
  10       -1.9371
  11       -1.3163
  12       -1.2056
  13       -0.8902
  14       -0.8532
  15       -0.7829
  16       -0.7816
  17       -0.7246
  18       -0.6312
  19       -0.5979
  20       -0.4983
  21       -0.4970
  22        2.7049
  23        4.1157
  24        4.7806
  25        8.0938
  26        8.7153
  27        9.9895
  28       10.4248
 
  0.2500000E+00  0.8333333E-01  0.0000000E+00  0.1388889E-01
   1       -3.8197
   2       -3.0536
   3       -3.0369
   4       -3.0139
   5       -3.0028
   6       -2.9312
   7       -2.8889
   8       -2.2147
   9       -1.8509
  10       -1.8469
  11       -1.3895
  12       -1.2138
  13       -1.1782
  14       -1.1545
  15       -0.9220
  16       -0.9041
  17       -0.8631
  18       -0.7515
  19       -0.6972
  20       -0.5006
  21       -0.4974
  22        1.6128
  23        4.6798
  24        5.3869
  25        8.1482
  26        8.8248
  27        9.5418
  28       10.7131
 
  0.3333333E+00  0.8333333E-01  0.0000000E+00  0.1388889E-01
   1       -3.4391
   2       -2.9310
   3       -2.9028
   4       -2.8834
   5       -2.8458
   6       -2.7416
   7       -2.7023
   8       -2.3379
   9       -1.7486
  10       -1.7133
  11       -1.5705
  12       -1.5358
  13       -1.4210
  14       -1.1080
  15       -1.0852
  16       -1.0455
  17       -1.0155
  18       -0.9403
  19       -0.7746
  20       -0.5007
  21       -0.4979
  22        0.5970
  23        5.3490
  24        6.1297
  25        8.1053
  26        8.8425
  27        8.9530
  28        9.7722
 
  0.4166667E+00  0.8333333E-01  0.0000000E+00  0.1388889E-01
   1       -3.0615
   2       -2.8317
   3       -2.7710
   4       -2.7335
   5       -2.7118
   6       -2.5014
   7       -2.4856
   8       -2.4787
   9       -1.9160
  10       -1.8886
  11       -1.6760
  12       -1.5443
  13       -1.3232
  14       -1.2949
  15       -1.1669
  16       -1.1499
  17       -1.1459
  18       -0.9978
  19       -0.8653
  20       -0.5002
  21       -0.4986
  22       -0.2601
  23        6.0778
  24        6.9671
  25        7.5811
  26        8.7177
  27        8.8128
  28        9.0023
 
  0.5000000E+00  0.8333333E-01  0.0000000E+00  0.6944444E-02
   1       -2.8401
   2       -2.8401
   3       -2.6618
   4       -2.6618
   5       -2.6264
   6       -2.6264
   7       -2.2256
   8       -2.2256
   9       -2.2146
  10       -2.2146
  11       -1.5389
  12       -1.5389
  13       -1.3517
  14       -1.3517
  15       -1.2117
  16       -1.2117
  17       -1.0122
  18       -1.0122
  19       -0.8321
  20       -0.8321
  21       -0.4994
  22       -0.4994
  23        6.8348
  24        6.8348
  25        7.8695
  26        7.8695
  27        8.8768
  28        8.8768
 
  0.1666667E+00  0.1666667E+00  0.0000000E+00  0.6944444E-02
   1       -3.9404
   2       -3.1113
   3       -3.0673
   4       -3.0673
   5       -3.0189
   6       -3.0189
   7       -2.9232
   8       -2.1415
   9       -1.9239
  10       -1.8937
  11       -1.3364
  12       -1.1905
  13       -1.0299
  14       -1.0299
  15       -1.0048
  16       -0.8535
  17       -0.7153
  18       -0.7153
  19       -0.5989
  20       -0.5989
  21       -0.5585
  22        3.0754
  23        3.0754
  24        5.1627
  25        8.1067
  26        9.3924
  27       10.0565
  28       10.0565
 
  0.2500000E+00  0.1666667E+00  0.0000000E+00  0.1388889E-01
   1       -3.6551
   2       -3.0180
   3       -2.9576
   4       -2.9404
   5       -2.9278
   6       -2.8881
   7       -2.7653
   8       -2.2117
   9       -1.8412
  10       -1.8331
  11       -1.3872
  12       -1.3533
  13       -1.2663
  14       -1.2047
  15       -1.1217
  16       -0.9623
  17       -0.8415
  18       -0.7537
  19       -0.7464
  20       -0.6006
  21       -0.5908
  22        1.9831
  23        3.5966
  24        5.7376
  25        7.9251
  26        8.6683
  27       10.1049
  28       10.9879
 
  0.3333333E+00  0.1666667E+00  0.0000000E+00  0.1388889E-01
   1       -3.2971
   2       -2.8803
   3       -2.8368
   4       -2.8291
   5       -2.7668
   6       -2.7071
   7       -2.5862
   8       -2.3181
   9       -1.7977
  10       -1.7112
  11       -1.6892
  12       -1.5813
  13       -1.4040
  14       -1.3863
  15       -1.0896
  16       -1.0070
  17       -0.9939
  18       -0.9434
  19       -0.8149
  20       -0.6030
  21       -0.6027
  22        0.9798
  23        4.2100
  24        6.4528
  25        7.2056
  26        8.6226
  27        9.9375
  28       10.0435
 
  0.4166667E+00  0.1666667E+00  0.0000000E+00  0.1388889E-01
   1       -2.9412
   2       -2.7217
   3       -2.7178
   4       -2.7144
   5       -2.6317
   6       -2.4788
   7       -2.4452
   8       -2.4134
   9       -1.9970
  10       -1.9041
  11       -1.8138
  12       -1.6109
  13       -1.5458
  14       -1.2567
  15       -1.1952
  16       -1.1493
  17       -1.1386
  18       -0.9199
  19       -0.8236
  20       -0.6066
  21       -0.6049
  22        0.1373
  23        4.8851
  24        6.3879
  25        7.2683
  26        8.8271
  27        9.0880
  28        9.5404
 
  0.5000000E+00  0.1666667E+00  0.0000000E+00  0.6944444E-02
   1       -2.7254
   2       -2.7254
   3       -2.6020
   4       -2.6020
   5       -2.5807
   6       -2.5807
   7       -2.2397
   8       -2.2397
   9       -2.2082
  10       -2.2082
  11       -1.7729
  12       -1.7729
  13       -1.3547
  14       -1.3547
  15       -1.2201
  16       -1.2201
  17       -1.0693
  18       -1.0693
  19       -0.6066
  20       -0.6066
  21       -0.4745
  22       -0.4745
  23        5.6114
  24        5.6114
  25        8.1548
  26        8.1548
  27        9.1423
  28        9.1423
 
  0.2500000E+00  0.2500000E+00  0.0000000E+00  0.6944444E-02
   1       -3.3983
   2       -2.9532
   3       -2.8192
   4       -2.8192
   5       -2.8120
   6       -2.8120
   7       -2.6056
   8       -2.2369
   9       -1.8089
  10       -1.7922
  11       -1.5271
  12       -1.5271
  13       -1.4345
  14       -1.4277
  15       -1.0538
  16       -1.0071
  17       -0.8559
  18       -0.8559
  19       -0.7568
  20       -0.7568
  21       -0.6756
  22        2.4892
  23        2.4892
  24        6.2751
  25        7.0680
  26        8.5772
  27       11.1702
  28       11.1702
 
  0.3333333E+00  0.2500000E+00  0.0000000E+00  0.1388889E-01
   1       -3.0832
   2       -2.8423
   3       -2.7289
   4       -2.6733
   5       -2.6526
   6       -2.6428
   7       -2.4354
   8       -2.3030
   9       -1.8395
  10       -1.8142
  11       -1.7132
  12       -1.6882
  13       -1.6706
  14       -1.4386
  15       -1.1627
  16       -1.0015
  17       -0.9471
  18       -0.9166
  19       -0.8106
  20       -0.7601
  21       -0.7269
  22        1.4783
  23        3.0796
  24        6.1227
  25        6.9554
  26        8.7447
  27       10.4752
  28       10.5158
 
  0.4166667E+00  0.2500000E+00  0.0000000E+00  0.1388889E-01
   1       -2.7709
   2       -2.6911
   3       -2.6233
   4       -2.5531
   5       -2.5061
   6       -2.4445
   7       -2.3992
   8       -2.2965
   9       -2.0994
  10       -1.9373
  11       -1.8920
  12       -1.8833
  13       -1.5374
  14       -1.3386
  15       -1.2494
  16       -1.1521
  17       -1.1512
  18       -1.0254
  19       -0.7621
  20       -0.7512
  21       -0.5110
  22        0.6184
  23        3.7352
  24        5.2488
  25        7.7420
  26        9.0239
  27        9.5253
  28        9.9100
 
  0.5000000E+00  0.2500000E+00  0.0000000E+00  0.6944444E-02
   1       -2.5603
   2       -2.5603
   3       -2.5314
   4       -2.5314
   5       -2.5101
   6       -2.5101
   7       -2.2252
   8       -2.2252
   9       -2.2021
  10       -2.2021
  11       -1.9569
  12       -1.9569
  13       -1.3540
  14       -1.3540
  15       -1.2516
  16       -1.2516
  17       -1.1765
  18       -1.1765
  19       -0.7605
  20       -0.7605
  21       -0.0492
  22       -0.0492
  23        4.4556
  24        4.4556
  25        8.6064
  26        8.6064
  27        9.4106
  28        9.4106
 
  0.3333333E+00  0.3333333E+00  0.0000000E+00  0.6944444E-02
   1       -2.8355
   2       -2.7647
   3       -2.5825
   4       -2.5825
   5       -2.4882
   6       -2.4882
   7       -2.3130
   8       -2.2748
   9       -1.9958
  10       -1.9958
  11       -1.8136
  12       -1.8125
  13       -1.6221
  14       -1.5065
  15       -1.2551
  16       -1.0568
  17       -1.0568
  18       -0.9494
  19       -0.9494
  20       -0.8311
  21       -0.5157
  22        2.0516
  23        2.0516
  24        5.1173
  25        7.6011
  26        8.9780
  27       11.0257
  28       11.0258
 
  0.4166667E+00  0.3333333E+00  0.0000000E+00  0.1388889E-01
   1       -2.6460
   2       -2.6009
   3       -2.5034
   4       -2.4038
   5       -2.3561
   6       -2.3530
   7       -2.3510
   8       -2.1939
   9       -2.1523
  10       -2.1163
  11       -1.9982
  12       -1.8917
  13       -1.5032
  14       -1.4613
  15       -1.3310
  16       -1.2081
  17       -1.1651
  18       -1.1495
  19       -0.9465
  20       -0.8979
  21       -0.1106
  22        1.1641
  23        2.6926
  24        4.2135
  25        8.3573
  26        9.3140
  27       10.0999
  28       10.3316
 
  0.5000000E+00  0.3333333E+00  0.0000000E+00  0.6944444E-02
   1       -2.4884
   2       -2.4884
   3       -2.4240
   4       -2.4240
   5       -2.4128
   6       -2.4128
   7       -2.2034
   8       -2.2034
   9       -2.1406
  10       -2.1406
  11       -2.0425
  12       -2.0425
  13       -1.3402
  14       -1.3402
  15       -1.3206
  16       -1.3206
  17       -1.3152
  18       -1.3152
  19       -0.9325
  20       -0.9325
  21        0.4415
  22        0.4415
  23        3.4090
  24        3.4090
  25        9.1976
  26        9.1976
  27        9.7621
  28        9.7621
 
  0.4166667E+00  0.4166667E+00  0.0000000E+00  0.6944444E-02
   1       -2.5734
   2       -2.4779
   3       -2.3645
   4       -2.3645
   5       -2.3326
   6       -2.3198
   7       -2.3198
   8       -2.1365
   9       -2.1365
  10       -2.0943
  11       -2.0235
  12       -1.8626
  13       -1.5428
  14       -1.4263
  15       -1.4172
  16       -1.3163
  17       -1.3163
  18       -1.1336
  19       -1.1336
  20       -1.0163
  21        0.3894
  22        1.7816
  23        1.7816
  24        3.2931
  25        9.0854
  26        9.7081
  27       10.8027
  28       10.8459
 
  0.5000000E+00  0.4166667E+00  0.0000000E+00  0.6944444E-02
   1       -2.4656
   2       -2.4656
   3       -2.3936
   4       -2.3936
   5       -2.3371
   6       -2.3371
   7       -2.2217
   8       -2.2217
   9       -2.0043
  10       -2.0043
  11       -1.9650
  12       -1.9650
  13       -1.4580
  14       -1.4580
  15       -1.4264
  16       -1.4264
  17       -1.3000
  18       -1.3000
  19       -1.0933
  20       -1.0933
  21        1.0144
  22        1.0144
  23        2.4861
  24        2.4861
  25        9.9019
  26        9.9019
  27       10.2167
  28       10.2167
 
  0.5000000E+00  0.5000000E+00  0.0000000E+00  0.1736111E-02
   1       -2.4343
   2       -2.4343
   3       -2.4343
   4       -2.4343
   5       -2.2660
   6       -2.2660
   7       -2.2660
   8       -2.2660
   9       -1.9035
  10       -1.9035
  11       -1.9035
  12       -1.9035
  13       -1.5156
  14       -1.5156
  15       -1.5156
  16       -1.5156
  17       -1.2194
  18       -1.2194
  19       -1.2194
  20       -1.2194
  21        1.6903
  22        1.6903
  23        1.6903
  24        1.6903
  25       10.6965
  26       10.6965
  27       10.6965
  28       10.6965
 
  0.8333333E-01  0.8333333E-01  0.8333333E-01  0.4629630E-02
   1       -4.2462
   2       -3.2061
   3       -3.2061
   4       -3.2061
   5       -3.1160
   6       -3.1160
   7       -3.1160
   8       -2.0691
   9       -1.9893
  10       -1.9893
  11       -1.2524
  12       -1.2524
  13       -0.7283
  14       -0.7283
  15       -0.7283
  16       -0.6621
  17       -0.6621
  18       -0.6621
  19       -0.5044
  20       -0.5044
  21       -0.5044
  22        3.8609
  23        3.8609
  24        3.8609
  25        8.6689
  26        8.6689
  27        8.6689
  28       11.4326
 
  0.1666667E+00  0.8333333E-01  0.8333333E-01  0.1388889E-01
   1       -4.0610
   2       -3.1392
   3       -3.1343
   4       -3.1343
   5       -3.0612
   6       -3.0187
   7       -3.0187
   8       -2.1149
   9       -1.9398
  10       -1.9365
  11       -1.3071
  12       -1.2165
  13       -0.9148
  14       -0.9148
  15       -0.8026
  16       -0.7829
  17       -0.7829
  18       -0.7712
  19       -0.5543
  20       -0.5155
  21       -0.5155
  22        2.8354
  23        4.2401
  24        4.2401
  25        8.7253
  26        8.7253
  27       10.0060
  28       10.5315
 
  0.2500000E+00  0.8333333E-01  0.8333333E-01  0.1388889E-01
   1       -3.7665
   2       -3.0411
   3       -3.0161
   4       -3.0161
   5       -2.9702
   6       -2.8701
   7       -2.8701
   8       -2.2039
   9       -1.8500
  10       -1.8493
  11       -1.3716
  12       -1.2332
  13       -1.2332
  14       -1.1594
  15       -0.9399
  16       -0.9227
  17       -0.8996
  18       -0.8996
  19       -0.6256
  20       -0.5235
  21       -0.5235
  22        1.7432
  23        4.7898
  24        4.7898
  25        8.7638
  26        8.7638
  27        9.7119
  28        9.7119
 
  0.3333333E+00  0.8333333E-01  0.8333333E-01  0.1388889E-01
   1       -3.3959
   2       -2.9298
   3       -2.8622
   4       -2.8622
   5       -2.8488
   6       -2.6869
   7       -2.6869
   8       -2.3208
   9       -1.7655
  10       -1.7325
  11       -1.5794
  12       -1.5794
  13       -1.3698
  14       -1.1531
  15       -1.0845
  16       -1.0770
  17       -1.0398
  18       -1.0398
  19       -0.7106
  20       -0.5280
  21       -0.5280
  22        0.7306
  23        5.4468
  24        5.4468
  25        8.4272
  26        8.4272
  27        9.3772
  28        9.3772
 
  0.4166667E+00  0.8333333E-01  0.8333333E-01  0.1388889E-01
   1       -3.0313
   2       -2.8304
   3       -2.7176
   4       -2.7089
   5       -2.7089
   6       -2.4811
   7       -2.4811
   8       -2.4533
   9       -1.9123
  10       -1.9123
  11       -1.7257
  12       -1.5883
  13       -1.3926
  14       -1.2494
  15       -1.1821
  16       -1.1654
  17       -1.1654
  18       -0.9967
  19       -0.8042
  20       -0.5302
  21       -0.5302
  22       -0.1299
  23        6.1671
  24        6.1671
  25        7.6974
  26        7.6974
  27        9.5334
  28        9.5334
 
  0.5000000E+00  0.8333333E-01  0.8333333E-01  0.6944444E-02
   1       -2.8239
   2       -2.8239
   3       -2.6396
   4       -2.6396
   5       -2.5884
   6       -2.5884
   7       -2.2905
   8       -2.2905
   9       -2.1536
  10       -2.1536
  11       -1.6132
  12       -1.6132
  13       -1.4240
  14       -1.4240
  15       -1.2185
  16       -1.2185
  17       -0.9014
  18       -0.9014
  19       -0.7756
  20       -0.7756
  21       -0.5308
  22       -0.5308
  23        6.8884
  24        6.8884
  25        6.9602
  26        6.9602
  27        9.6772
  28        9.6772
 
  0.1666667E+00  0.1666667E+00  0.8333333E-01  0.1388889E-01
   1       -3.8866
   2       -3.0927
   3       -3.0731
   4       -3.0731
   5       -2.9605
   6       -2.9605
   7       -2.9024
   8       -2.1252
   9       -1.9177
  10       -1.8987
  11       -1.3147
  12       -1.2084
  13       -1.0462
  14       -1.0462
  15       -1.0426
  16       -0.8967
  17       -0.8357
  18       -0.8357
  19       -0.5588
  20       -0.5588
  21       -0.5514
  22        3.1891
  23        3.1891
  24        4.5874
  25        8.6852
  26        9.5821
  27        9.9955
  28        9.9955
 
  0.2500000E+00  0.1666667E+00  0.8333333E-01  0.2777778E-01
   1       -3.6125
   2       -3.0022
   3       -2.9856
   4       -2.9596
   5       -2.8621
   6       -2.8116
   7       -2.7447
   8       -2.1823
   9       -1.8476
  10       -1.8395
  11       -1.3643
  12       -1.3549
  13       -1.3053
  14       -1.2190
  15       -1.1373
  16       -0.9957
  17       -0.9544
  18       -0.9223
  19       -0.6194
  20       -0.5835
  21       -0.5820
  22        2.0896
  23        3.6938
  24        5.1010
  25        8.1551
  26        9.2609
  27        9.5588
  28       10.5697
 
  0.3333333E+00  0.1666667E+00  0.8333333E-01  0.2777778E-01
   1       -3.2745
   2       -2.8874
   3       -2.8665
   4       -2.8058
   5       -2.7309
   6       -2.6368
   7       -2.5705
   8       -2.2735
   9       -1.8058
  10       -1.7441
  11       -1.6876
  12       -1.6110
  13       -1.4204
  14       -1.3186
  15       -1.1155
  16       -1.1101
  17       -1.0462
  18       -1.0246
  19       -0.6996
  20       -0.6044
  21       -0.6013
  22        1.0758
  23        4.2943
  24        5.7255
  25        7.3004
  26        8.7598
  27        9.4331
  28       10.6834
 
  0.4166667E+00  0.1666667E+00  0.8333333E-01  0.2777778E-01
   1       -2.9520
   2       -2.7988
   3       -2.7023
   4       -2.6409
   5       -2.5913
   6       -2.4677
   7       -2.4194
   8       -2.3766
   9       -1.9689
  10       -1.9036
  11       -1.8292
  12       -1.6311
  13       -1.6155
  14       -1.2918
  15       -1.2131
  16       -1.1737
  17       -1.1341
  18       -0.8429
  19       -0.8030
  20       -0.6146
  21       -0.6125
  22        0.2099
  23        4.9608
  24        6.3911
  25        6.4947
  26        7.9473
  27        9.7653
  28       10.6340
 
  0.5000000E+00  0.1666667E+00  0.8333333E-01  0.1388889E-01
   1       -2.7813
   2       -2.7813
   3       -2.5804
   4       -2.5804
   5       -2.4758
   6       -2.4758
   7       -2.3563
   8       -2.3563
   9       -2.0910
  10       -2.0910
  11       -1.7937
  12       -1.7937
  13       -1.4627
  14       -1.4627
  15       -1.2444
  16       -1.2444
  17       -0.9377
  18       -0.9377
  19       -0.6168
  20       -0.6168
  21       -0.4513
  22       -0.4513
  23        5.6823
  24        5.6823
  25        7.1679
  26        7.1679
  27       10.2033
  28       10.2033
 
  0.2500000E+00  0.2500000E+00  0.8333333E-01  0.1388889E-01
   1       -3.3771
   2       -2.9423
   3       -2.8823
   4       -2.8823
   5       -2.7096
   6       -2.7096
   7       -2.5870
   8       -2.1800
   9       -1.8151
  10       -1.8143
  11       -1.5313
  12       -1.5313
  13       -1.4587
  14       -1.3814
  15       -1.1081
  16       -1.0270
  17       -1.0086
  18       -1.0086
  19       -0.6575
  20       -0.6575
  21       -0.6476
  22        2.5752
  23        2.5752
  24        5.5692
  25        7.1582
  26        9.3721
  27       10.0687
  28       10.0687
 
  0.3333333E+00  0.2500000E+00  0.8333333E-01  0.2777778E-01
   1       -3.1003
   2       -2.8365
   3       -2.8003
   4       -2.7361
   5       -2.5694
   6       -2.5412
   7       -2.4265
   8       -2.2132
   9       -1.8233
  10       -1.8169
  11       -1.7398
  12       -1.7111
  13       -1.6773
  14       -1.3593
  15       -1.2117
  16       -1.1511
  17       -1.1008
  18       -0.8320
  19       -0.7484
  20       -0.7010
  21       -0.6983
  22        1.5489
  23        3.1510
  24        6.0678
  25        6.2815
  26        9.1720
  27        9.6445
  28       10.6316
 
  0.4166667E+00  0.2500000E+00  0.8333333E-01  0.2777778E-01
   1       -2.8521
   2       -2.7323
   3       -2.6899
   4       -2.5596
   5       -2.4336
   6       -2.4155
   7       -2.3258
   8       -2.2582
   9       -2.0253
  10       -1.8968
  11       -1.8936
  12       -1.8771
  13       -1.6291
  14       -1.3194
  15       -1.2928
  16       -1.2163
  17       -1.2122
  18       -0.8675
  19       -0.7289
  20       -0.7285
  21       -0.5250
  22        0.6648
  23        3.7973
  24        5.3012
  25        6.8349
  26        8.3344
  27       10.0419
  28       11.1859
 
  0.5000000E+00  0.2500000E+00  0.8333333E-01  0.1388889E-01
   1       -2.7243
   2       -2.7243
   3       -2.5240
   4       -2.5240
   5       -2.3829
   6       -2.3829
   7       -2.3029
   8       -2.3029
   9       -2.0261
  10       -2.0261
  11       -1.9595
  12       -1.9595
  13       -1.4854
  14       -1.4854
  15       -1.3003
  16       -1.3003
  17       -1.0249
  18       -1.0249
  19       -0.7380
  20       -0.7380
  21       -0.0359
  22       -0.0359
  23        4.5121
  24        4.5121
  25        7.5561
  26        7.5561
  27       10.5611
  28       10.5611
 
  0.3333333E+00  0.3333333E+00  0.8333333E-01  0.1388889E-01
   1       -2.9144
   2       -2.7688
   3       -2.6765
   4       -2.6765
   5       -2.3972
   6       -2.3972
   7       -2.2891
   8       -2.1728
   9       -1.9588
  10       -1.9588
  11       -1.7985
  12       -1.7807
  13       -1.7158
  14       -1.3936
  15       -1.3165
  16       -1.2131
  17       -1.2131
  18       -0.8154
  19       -0.8154
  20       -0.7854
  21       -0.5353
  22        2.1071
  23        2.1071
  24        5.1612
  25        6.7231
  26        9.6988
  27        9.6988
  28        9.9730
 
  0.4166667E+00  0.3333333E+00  0.8333333E-01  0.2777778E-01
   1       -2.7597
   2       -2.6640
   3       -2.6447
   4       -2.5382
   5       -2.3375
   6       -2.2368
   7       -2.2217
   8       -2.1608
   9       -2.0696
  10       -2.0441
  11       -1.8757
  12       -1.8698
  13       -1.6405
  14       -1.3932
  15       -1.3610
  16       -1.3054
  17       -1.2979
  18       -0.9530
  19       -0.8639
  20       -0.8482
  21       -0.1204
  22        1.1989
  23        2.7398
  24        4.2569
  25        7.3566
  26        8.8442
  27       10.3307
  28       10.4226
 
  0.5000000E+00  0.3333333E+00  0.8333333E-01  0.1388889E-01
   1       -2.6663
   2       -2.6663
   3       -2.5370
   4       -2.5370
   5       -2.3199
   6       -2.3199
   7       -2.1415
   8       -2.1415
   9       -2.0305
  10       -2.0305
  11       -1.9485
  12       -1.9485
  13       -1.5125
  14       -1.5125
  15       -1.3901
  16       -1.3901
  17       -1.1217
  18       -1.1217
  19       -0.8756
  20       -0.8756
  21        0.4521
  22        0.4521
  23        3.4527
  24        3.4527
  25        8.0650
  26        8.0650
  27       10.9948
  28       10.9948
 
  0.4166667E+00  0.4166667E+00  0.8333333E-01  0.1388889E-01
   1       -2.6845
   2       -2.6195
   3       -2.5698
   4       -2.5698
   5       -2.2312
   6       -2.2312
   7       -2.2123
   8       -2.1443
   9       -1.9898
  10       -1.9898
  11       -1.8340
  12       -1.7831
  13       -1.6592
  14       -1.4861
  15       -1.4292
  16       -1.4292
  17       -1.2972
  18       -1.0146
  19       -1.0146
  20       -0.9525
  21        0.3884
  22        1.8123
  23        1.8123
  24        3.3294
  25        7.9744
  26        9.4608
  27        9.4608
  28       10.9205
 
  0.5000000E+00  0.4166667E+00  0.8333333E-01  0.1388889E-01
   1       -2.6220
   2       -2.6220
   3       -2.5687
   4       -2.5687
   5       -2.2460
   6       -2.2460
   7       -2.1705
   8       -2.1705
   9       -1.8670
  10       -1.8670
  11       -1.8484
  12       -1.8484
  13       -1.5623
  14       -1.5623
  15       -1.5023
  16       -1.5023
  17       -1.1751
  18       -1.1751
  19       -1.0155
  20       -1.0155
  21        1.0278
  22        1.0278
  23        2.5177
  24        2.5177
  25        8.6764
  26        8.6764
  27       10.1732
  28       10.1732
 
  0.5000000E+00  0.5000000E+00  0.8333333E-01  0.3472222E-02
   1       -2.5939
   2       -2.5939
   3       -2.5939
   4       -2.5939
   5       -2.2028
   6       -2.2028
   7       -2.2028
   8       -2.2028
   9       -1.7660
  10       -1.7660
  11       -1.7660
  12       -1.7660
  13       -1.5984
  14       -1.5984
  15       -1.5984
  16       -1.5984
  17       -1.1322
  18       -1.1322
  19       -1.1322
  20       -1.1322
  21        1.7113
  22        1.7113
  23        1.7113
  24        1.7113
  25        9.3802
  26        9.3802
  27        9.3802
  28        9.3802
 
  0.1666667E+00  0.1666667E+00  0.1666667E+00  0.4629630E-02
   1       -3.7307
   2       -3.0416
   3       -3.0416
   4       -3.0416
   5       -2.8387
   6       -2.8387
   7       -2.8387
   8       -2.0941
   9       -1.8967
  10       -1.8967
  11       -1.2534
  12       -1.2534
  13       -1.1506
  14       -1.1506
  15       -1.1506
  16       -1.0038
  17       -1.0038
  18       -1.0038
  19       -0.5488
  20       -0.5488
  21       -0.5488
  22        3.5046
  23        3.5046
  24        3.5046
  25        9.4154
  26        9.4154
  27        9.4154
  28       10.5068
 
  0.2500000E+00  0.1666667E+00  0.1666667E+00  0.1388889E-01