 vasp.4.6.28 25Jul05 complex 
 executed on             LinuxIFC date 2017.01.06  05:41:51
 running on    4 nodes
 distr:  one band on    1 nodes,    4 groups


--------------------------------------------------------------------------------------------------------


 INCAR:
 POTCAR:   PAW_PBE Ag 06Sep2000                   
 POTCAR:   PAW_PBE Ag 06Sep2000                   
   VRHFIN =Ag : s1 d10                                                          
   LEXCH  = PE                                                                  
   EATOM  =  1037.4134 eV,   76.2477 Ry                                         
                                                                                
   TITEL  = PAW_PBE Ag 06Sep2000                                                
   LULTRA =        F    use ultrasoft PP ?                                      
   IUNSCR =        1    unscreen: 0-lin 1-nonlin 2-no                           
   RPACOR =    2.000    partial core radius                                     
   POMASS =  107.868; ZVAL   =   11.000    mass and valenz                      
   RCORE  =    2.400    outmost cutoff radius                                   
   RWIGS  =    2.840; RWIGS  =    1.503    wigner-seitz radius (au A)           
   ENMAX  =  249.846; ENMIN  =  187.385 eV                                      
   RCLOC  =    1.962    cutoff for local pot                                    
   LCOR   =        T    correct aug charges                                     
   LPAW   =        T    paw PP                                                  
   EAUG   =  412.496                                                            
   DEXC   =    -.047                                                            
   RMAX   =    2.917    core radius for proj-oper                               
   RAUG   =    1.300    factor for augmentation sphere                          
   RDEP   =    2.416    radius for radial grids                                 
   QCUT   =   -4.285; QGAM   =    8.570    optimization parameters              
                                                                                
   Description                                                                  
     l     E      TYP  RCUT    TYP  RCUT                                        
     2   .000     23  2.400                                                     
     2   .000     23  2.400                                                     
     0   .000     23  2.400                                                     
     0   .000     23  2.400                                                     
     1  -.200     23  2.400                                                     
     1  1.500     23  2.400                                                     
     3   .000      7   .000                                                     
  local pseudopotential read in
  partial core-charges read in
  atomic valenz-charges read in
  non local Contribution for L=           2  read in
    real space projection operators read in
  non local Contribution for L=           2  read in
    real space projection operators read in
  non local Contribution for L=           0  read in
    real space projection operators read in
  non local Contribution for L=           0  read in
    real space projection operators read in
  non local Contribution for L=           1  read in
    real space projection operators read in
  non local Contribution for L=           1  read in
    real space projection operators read in
    PAW grid and wavefunctions read in
 
   number of l-projection  operators is LMAX  =           6
   number of lm-projection operators is LMMAX =          18
 
 PAW_PBE Ag 06Sep2000                   :
 energy of atom  1       EATOM=-1037.4134
 kinetic energy error for atom=    0.0010 (will be added to EATOM!!)
 
 EXHCAR: internal setup
 exchange correlation table for  LEXCH =        8
   RHO(1)=    0.500       N(1)  =     2000
   RHO(2)=  100.500       N(2)  =     4000
 
 POSCAR: Ag                                      
  positions in direct lattice
  velocities in cartesian coordinates
 


--------------------------------------------------------------------------------------------------------


 ion  position               nearest neighbor table
   1  0.000  0.000  0.000-   2 3.03   3 3.03   4 3.03   3 3.03   4 3.03   2 3.03   4 3.03   4 3.03
                             2 3.03   3 3.03   3 3.03   2 3.03
   2  0.500  0.500  0.000-   1 3.03   3 3.03   4 3.03   3 3.03   4 3.03   1 3.03   3 3.03   3 3.03
                             1 3.03   4 3.03   4 3.03   1 3.03
   3  0.500  0.000  0.500-   1 3.03   2 3.03   4 3.03   1 3.03   2 3.03   2 3.03   4 3.03   2 3.03
                             1 3.03   4 3.03   1 3.03   4 3.03
   4  0.000  0.500  0.500-   1 3.03   2 3.03   3 3.03   1 3.03   2 3.03   1 3.03   3 3.03   1 3.03
                             2 3.03   3 3.03   2 3.03   3 3.03
 
  LATTYP: Found a simple cubic cell.
 ALAT       =     4.2881215251
  
  Lattice vectors:
  
 A1 = (   4.2881215251,   0.0000000000,   0.0000000000)
 A2 = (   0.0000000000,   4.2881215251,   0.0000000000)
 A3 = (   0.0000000000,   0.0000000000,   4.2881215251)
 Subroutine PRICEL returns following result:
 
  LATTYP: Found a face centered cubic cell.
 ALAT       =     4.2881215251
  
  Lattice vectors:
  
 A1 = (   2.1440607625,   2.1440607625,  -0.0000000000)
 A2 = (   2.1440607625,   0.0000000000,  -2.1440607625)
 A3 = (   0.0000000000,   2.1440607625,  -2.1440607625)
 
   4 primitive cells build up your supercell.
 

Analysis of symmetry for initial positions (statically):

 Routine SETGRP: Setting up the symmetry group for a 
 simple cubic supercell.


 Subroutine GETGRP returns: Found 48 space group operations
 (whereof 48 operations were pure point group operations)
 out of a pool of 48 trial point group operations.


The static configuration has the point symmetry O_h .

Analysis of symmetry for dynamics (positions and initial velocities):

 Subroutine DYNSYM returns: Found 48 space group operations
 (whereof 48 operations were pure point group operations)
 out of a pool of 48 trial space group operations
 (whereof 48 operations were pure point group operations)
 and found also     4 'primitive' translations


The dynamic configuration has the point symmetry O_h .
 
 
 KPOINTS: Automatic mesh                          

Automatic generation of k-mesh.
 
 Subroutine IBZKPT returns following result:
 ===========================================
 
 Found     84 irreducible k-points:
 
 Following reciprocal coordinates:
            Coordinates               Weight
  0.000000  0.000000  0.000000      1.000000
  0.083333  0.000000  0.000000      6.000000
  0.166667  0.000000  0.000000      6.000000
  0.250000  0.000000  0.000000      6.000000
  0.333333  0.000000  0.000000      6.000000
  0.416667  0.000000  0.000000      6.000000
  0.500000  0.000000  0.000000      3.000000
  0.083333  0.083333  0.000000     12.000000
  0.166667  0.083333  0.000000     24.000000
  0.250000  0.083333  0.000000     24.000000
  0.333333  0.083333  0.000000     24.000000
  0.416667  0.083333  0.000000     24.000000
  0.500000  0.083333  0.000000     12.000000
  0.166667  0.166667  0.000000     12.000000
  0.250000  0.166667  0.000000     24.000000
  0.333333  0.166667  0.000000     24.000000
  0.416667  0.166667  0.000000     24.000000
  0.500000  0.166667  0.000000     12.000000
  0.250000  0.250000  0.000000     12.000000
  0.333333  0.250000  0.000000     24.000000
  0.416667  0.250000  0.000000     24.000000
  0.500000  0.250000  0.000000     12.000000
  0.333333  0.333333  0.000000     12.000000
  0.416667  0.333333  0.000000     24.000000
  0.500000  0.333333  0.000000     12.000000
  0.416667  0.416667  0.000000     12.000000
  0.500000  0.416667  0.000000     12.000000
  0.500000  0.500000  0.000000      3.000000
  0.083333  0.083333  0.083333      8.000000
  0.166667  0.083333  0.083333     24.000000
  0.250000  0.083333  0.083333     24.000000
  0.333333  0.083333  0.083333     24.000000
  0.416667  0.083333  0.083333     24.000000
  0.500000  0.083333  0.083333     12.000000
  0.166667  0.166667  0.083333     24.000000
  0.250000  0.166667  0.083333     48.000000
  0.333333  0.166667  0.083333     48.000000
  0.416667  0.166667  0.083333     48.000000
  0.500000  0.166667  0.083333     24.000000
  0.250000  0.250000  0.083333     24.000000
  0.333333  0.250000  0.083333     48.000000
  0.416667  0.250000  0.083333     48.000000
  0.500000  0.250000  0.083333     24.000000
  0.333333  0.333333  0.083333     24.000000
  0.416667  0.333333  0.083333     48.000000
  0.500000  0.333333  0.083333     24.000000
  0.416667  0.416667  0.083333     24.000000
  0.500000  0.416667  0.083333     24.000000
  0.500000  0.500000  0.083333      6.000000
  0.166667  0.166667  0.166667      8.000000
  0.250000  0.166667  0.166667     24.000000
  0.333333  0.166667  0.166667     24.000000
  0.416667  0.166667  0.166667     24.000000
  0.500000  0.166667  0.166667     12.000000
  0.250000  0.250000  0.166667     24.000000
  0.333333  0.250000  0.166667     48.000000
  0.416667  0.250000  0.166667     48.000000
  0.500000  0.250000  0.166667     24.000000
  0.333333  0.333333  0.166667     24.000000
  0.416667  0.333333  0.166667     48.000000
  0.500000  0.333333  0.166667     24.000000
  0.416667  0.416667  0.166667     24.000000
  0.500000  0.416667  0.166667     24.000000
  0.500000  0.500000  0.166667      6.000000
  0.250000  0.250000  0.250000      8.000000
  0.333333  0.250000  0.250000     24.000000
  0.416667  0.250000  0.250000     24.000000
  0.500000  0.250000  0.250000     12.000000
  0.333333  0.333333  0.250000     24.000000
  0.416667  0.333333  0.250000     48.000000
  0.500000  0.333333  0.250000     24.000000
  0.416667  0.416667  0.250000     24.000000
  0.500000  0.416667  0.250000     24.000000
  0.500000  0.500000  0.250000      6.000000
  0.333333  0.333333  0.333333      8.000000
  0.416667  0.333333  0.333333     24.000000
  0.500000  0.333333  0.333333     12.000000
  0.416667  0.416667  0.333333     24.000000
  0.500000  0.416667  0.333333     24.000000
  0.500000  0.500000  0.333333      6.000000
  0.416667  0.416667  0.416667      8.000000
  0.500000  0.416667  0.416667     12.000000
  0.500000  0.500000  0.416667      6.000000
  0.500000  0.500000  0.500000      1.000000
 
 Following cartesian coordinates:
            Coordinates               Weight
  0.000000  0.000000  0.000000      1.000000
  0.020017  0.000000  0.000000      6.000000
  0.040033  0.000000  0.000000      6.000000
  0.060050  0.000000  0.000000      6.000000
  0.080066  0.000000  0.000000      6.000000
  0.100083  0.000000  0.000000      6.000000
  0.120099  0.000000  0.000000      3.000000
  0.020017  0.020017  0.000000     12.000000
  0.040033  0.020017  0.000000     24.000000
  0.060050  0.020017  0.000000     24.000000
  0.080066  0.020017  0.000000     24.000000
  0.100083  0.020017  0.000000     24.000000
  0.120099  0.020017  0.000000     12.000000
  0.040033  0.040033  0.000000     12.000000
  0.060050  0.040033  0.000000     24.000000
  0.080066  0.040033  0.000000     24.000000
  0.100083  0.040033  0.000000     24.000000
  0.120099  0.040033  0.000000     12.000000
  0.060050  0.060050  0.000000     12.000000
  0.080066  0.060050  0.000000     24.000000
  0.100083  0.060050  0.000000     24.000000
  0.120099  0.060050  0.000000     12.000000
  0.080066  0.080066  0.000000     12.000000
  0.100083  0.080066  0.000000     24.000000
  0.120099  0.080066  0.000000     12.000000
  0.100083  0.100083  0.000000     12.000000
  0.120099  0.100083  0.000000     12.000000
  0.120099  0.120099  0.000000      3.000000
  0.020017  0.020017  0.020017      8.000000
  0.040033  0.020017  0.020017     24.000000
  0.060050  0.020017  0.020017     24.000000
  0.080066  0.020017  0.020017     24.000000
  0.100083  0.020017  0.020017     24.000000
  0.120099  0.020017  0.020017     12.000000
  0.040033  0.040033  0.020017     24.000000
  0.060050  0.040033  0.020017     48.000000
  0.080066  0.040033  0.020017     48.000000
  0.100083  0.040033  0.020017     48.000000
  0.120099  0.040033  0.020017     24.000000
  0.060050  0.060050  0.020017     24.000000
  0.080066  0.060050  0.020017     48.000000
  0.100083  0.060050  0.020017     48.000000
  0.120099  0.060050  0.020017     24.000000
  0.080066  0.080066  0.020017     24.000000
  0.100083  0.080066  0.020017     48.000000
  0.120099  0.080066  0.020017     24.000000
  0.100083  0.100083  0.020017     24.000000
  0.120099  0.100083  0.020017     24.000000
  0.120099  0.120099  0.020017      6.000000
  0.040033  0.040033  0.040033      8.000000
  0.060050  0.040033  0.040033     24.000000
  0.080066  0.040033  0.040033     24.000000
  0.100083  0.040033  0.040033     24.000000
  0.120099  0.040033  0.040033     12.000000
  0.060050  0.060050  0.040033     24.000000
  0.080066  0.060050  0.040033     48.000000
  0.100083  0.060050  0.040033     48.000000
  0.120099  0.060050  0.040033     24.000000
  0.080066  0.080066  0.040033     24.000000
  0.100083  0.080066  0.040033     48.000000
  0.120099  0.080066  0.040033     24.000000
  0.100083  0.100083  0.040033     24.000000
  0.120099  0.100083  0.040033     24.000000
  0.120099  0.120099  0.040033      6.000000
  0.060050  0.060050  0.060050      8.000000
  0.080066  0.060050  0.060050     24.000000
  0.100083  0.060050  0.060050     24.000000
  0.120099  0.060050  0.060050     12.000000
  0.080066  0.080066  0.060050     24.000000
  0.100083  0.080066  0.060050     48.000000
  0.120099  0.080066  0.060050     24.000000
  0.100083  0.100083  0.060050     24.000000
  0.120099  0.100083  0.060050     24.000000
  0.120099  0.120099  0.060050      6.000000
  0.080066  0.080066  0.080066      8.000000
  0.100083  0.080066  0.080066     24.000000
  0.120099  0.080066  0.080066     12.000000
  0.100083  0.100083  0.080066     24.000000
  0.120099  0.100083  0.080066     24.000000
  0.120099  0.120099  0.080066      6.000000
  0.100083  0.100083  0.100083      8.000000
  0.120099  0.100083  0.100083     12.000000
  0.120099  0.120099  0.100083      6.000000
  0.120099  0.120099  0.120099      1.000000
 


--------------------------------------------------------------------------------------------------------




 Dimension of arrays:
   k-Points           NKPTS =     84   number of bands    NBANDS=     28
   number of dos      NEDOS =    301   number of ions     NIONS =      4
   non local maximal  LDIM  =      6   non local SUM 2l+1 LMDIM =     18
   total plane-waves  NPLWV =  64000
   max r-space proj   IRMAX =      1   max aug-charges    IRDMAX= 319432
   dimension x,y,z NGX =    40 NGY =   40 NGZ =   40
   dimension x,y,z NGXF=    80 NGYF=   80 NGZF=   80
   support grid    NGXF=   160 NGYF=  160 NGZF=  160
   ions per type =               4
 NGX,Y,Z   is equivalent  to a cutoff of  15.51, 15.51, 15.51 a.u.
 NGXF,Y,Z  is equivalent  to a cutoff of  31.02, 31.02, 31.02 a.u.


 I would recommend the setting:
   dimension x,y,z NGX =    38 NGY =   38 NGZ =   38
 SYSTEM =  unknown system                          
 POSCAR =  Ag                                      

 Startparameter for this run:
   NWRITE =      2    write-flag & timer
   PREC   = accura    medium, high low
   ISTART =      0    job   : 0-new  1-cont  2-samecut
   ICHARG =      2    charge: 1-file 2-atom 10-const
   ISPIN  =      1    spin polarized calculation?
   LNONCOLLINEAR =      F non collinear calculations
   LSORBIT =      F    spin-orbit coupling
   INIWAV =      1    electr: 0-lowe 1-rand  2-diag
   LASPH  =      F    aspherical Exc in radial PAW
   METAGGA=      F    non-selfconsistent MetaGGA calc.

 Electronic Relaxation 1
   ENCUT  =  750.0 eV  55.12 Ry    7.42 a.u.   9.58  9.58  9.58*2*pi/ulx,y,z
   ENINI  =  750.0     initial cutoff
   ENAUG  =  412.5 eV  augmentation charge cutoff
   NELM   =     60;   NELMIN=  2; NELMDL= -5     # of ELM steps 
   EDIFF  = 0.1E-07   stopping-criterion for ELM
   LREAL  =      F    real-space projection
   LCOMPAT=      F    compatible to vasp.4.4
   LREAL_COMPAT= F    compatible to vasp.4.5.1-3
   GGA_COMPAT  = T    GGA compatible to vasp.4.4-vasp.4.6
   LMAXPAW     = -100 max onsite density
   LMAXMIX     =    2 max onsite mixed and CHGCAR
   VOSKOWN=      0    Vosko Wilk Nusair interpolation
   ROPT   =    0.00000
 Ionic relaxation
   EDIFFG = 0.1E-06   stopping-criterion for IOM
   NSW    =      0    number of steps for IOM
   NBLOCK =      1;   KBLOCK =      1    inner block; outer block 
   IBRION =     -1    ionic relax: 0-MD 1-quasi-New 2-CG
   NFREE  =      0    steps in history (QN), initial steepest desc. (CG)
   ISIF   =      2    stress and relaxation
   IWAVPR =     10    prediction:  0-non 1-charg 2-wave 3-comb
   ISYM   =      2    0-nonsym 1-usesym 2-fastsym
   LCORR  =      T    Harris-Foulkes like correction to forces

   POTIM  =   0.50    time-step for ionic-motion
   TEIN   =    0.0    initial temperature
   TEBEG  =    0.0;   TEEND  =   0.0 temperature during run
   SMASS  =  -3.00    Nose mass-parameter (am)
   estimated Nose-frequenzy (Omega)   =  0.10E-29 period in steps =****** mass=  -0.420E-27a.u.
   NPACO  =    256;   APACO  = 16.0  distance and # of slots for P.C.
   PSTRESS=    0.0 pullay stress

  Mass of Ions in am
   POMASS = 107.87
  Ionic Valenz
   ZVAL   =  11.00
  Atomic Wigner-Seitz radii
   RWIGS  =  -1.00
   NELECT =      44.0000    total number of electrons
   NUPDOWN=      -1.0000    fix difference up-down

 DOS related values:
   EMIN   =  10.00;   EMAX   =-10.00  energy-range for DOS
   ISMEAR =     0;   SIGMA  =   0.01  broadening in eV -4-tet -1-fermi 0-gaus

 Electronic relaxation 2 (details)
   IALGO  =     38    algorithm
   LDIAG  =      T    sub-space diagonalisation
   IMIX   =      4    mixing-type and parameters
     AMIX     =   0.40;   BMIX     =  1.00
     AMIX_MAG =   1.60;   BMIX_MAG =  1.00
     AMIN     =   0.10
     WC   =   100.;   INIMIX=   1;  MIXPRE=   1

 Intra band minimization:
   WEIMIN = 0.0000     energy-eigenvalue tresh-hold
   EBREAK =  0.96E-10  absolut break condition
   DEPER  =   0.30     relativ break condition  

   TIME   =   0.10     timestep for ELM

  volume/ion in A,a.u.               =      19.71       133.03
  Fermi-wavevector in a.u.,eV,Ry     =   1.347800 24.715848  1.816564

 Second variation
   LSECVAR=     F    do a second variation
 
 Write flags
   LWAVE  =      F    write WAVECAR
   LCHARG =      F    write CHGCAR
   LVTOT  =      F    write LOCPOT, local potential
   LELF   =      F    write electronic localiz. function (ELF)
   LORBIT =      0    0 simple, 1 ext, 2 COOP (PROOUT)


 Dipole corrections
   IDIPOL =      0    1-x, 2-y, 3-z
   LDIPOL =      F    correct potential



--------------------------------------------------------------------------------------------------------


 Static calculation
 charge density will be updated during run
 non-spin polarized calculation
 Variant of blocked Davidson
 Davidson routine will perform the subspace rotation
 performe sub-space diagonalisation
    after iterative eigenvector-optimisation
 modified Broyden-mixing scheme, WC =      100.0
 initial mixing is a Kerker type mixing with AMIX =  0.4000 and BMIX =      1.0000
 Hartree-type preconditioning will be used
 using additional bands            6
 reciprocal scheme for non local part
 use partial core corrections
 calculate Harris-corrections to forces 
   (improved forces if not selfconsistent)
 use gradient corrections 
 use of overlap-Matrix (Vanderbilt PP)
 Gauss-broadening in eV      SIGMA  =   0.01


--------------------------------------------------------------------------------------------------------


  energy-cutoff  :      750.00
  volume of cell :       78.85
      direct lattice vectors                 reciprocal lattice vectors
     4.288121525  0.000000000  0.000000000     0.233202346  0.000000000  0.000000000
     0.000000000  4.288121525  0.000000000     0.000000000  0.233202346  0.000000000
     0.000000000  0.000000000  4.288121525     0.000000000  0.000000000  0.233202346

  length of vectors
     4.288121525  4.288121525  4.288121525     0.233202346  0.233202346  0.233202346


 
 k-points in units of 2pi/SCALE and weight: Automatic mesh                          
   0.00000000  0.00000000  0.00000000       0.001
   0.02001653  0.00000000  0.00000000       0.003
   0.04003307  0.00000000  0.00000000       0.003
   0.06004960  0.00000000  0.00000000       0.003
   0.08006614  0.00000000  0.00000000       0.003
   0.10008267  0.00000000  0.00000000       0.003
   0.12009921  0.00000000  0.00000000       0.002
   0.02001653  0.02001653  0.00000000       0.007
   0.04003307  0.02001653  0.00000000       0.014
   0.06004960  0.02001653  0.00000000       0.014
   0.08006614  0.02001653  0.00000000       0.014
   0.10008267  0.02001653  0.00000000       0.014
   0.12009921  0.02001653  0.00000000       0.007
   0.04003307  0.04003307  0.00000000       0.007
   0.06004960  0.04003307  0.00000000       0.014
   0.08006614  0.04003307  0.00000000       0.014
   0.10008267  0.04003307  0.00000000       0.014
   0.12009921  0.04003307  0.00000000       0.007
   0.06004960  0.06004960  0.00000000       0.007
   0.08006614  0.06004960  0.00000000       0.014
   0.10008267  0.06004960  0.00000000       0.014
   0.12009921  0.06004960  0.00000000       0.007
   0.08006614  0.08006614  0.00000000       0.007
   0.10008267  0.08006614  0.00000000       0.014
   0.12009921  0.08006614  0.00000000       0.007
   0.10008267  0.10008267  0.00000000       0.007
   0.12009921  0.10008267  0.00000000       0.007
   0.12009921  0.12009921  0.00000000       0.002
   0.02001653  0.02001653  0.02001653       0.005
   0.04003307  0.02001653  0.02001653       0.014
   0.06004960  0.02001653  0.02001653       0.014
   0.08006614  0.02001653  0.02001653       0.014
   0.10008267  0.02001653  0.02001653       0.014
   0.12009921  0.02001653  0.02001653       0.007
   0.04003307  0.04003307  0.02001653       0.014
   0.06004960  0.04003307  0.02001653       0.028
   0.08006614  0.04003307  0.02001653       0.028
   0.10008267  0.04003307  0.02001653       0.028
   0.12009921  0.04003307  0.02001653       0.014
   0.06004960  0.06004960  0.02001653       0.014
   0.08006614  0.06004960  0.02001653       0.028
   0.10008267  0.06004960  0.02001653       0.028
   0.12009921  0.06004960  0.02001653       0.014
   0.08006614  0.08006614  0.02001653       0.014
   0.10008267  0.08006614  0.02001653       0.028
   0.12009921  0.08006614  0.02001653       0.014
   0.10008267  0.10008267  0.02001653       0.014
   0.12009921  0.10008267  0.02001653       0.014
   0.12009921  0.12009921  0.02001653       0.003
   0.04003307  0.04003307  0.04003307       0.005
   0.06004960  0.04003307  0.04003307       0.014
   0.08006614  0.04003307  0.04003307       0.014
   0.10008267  0.04003307  0.04003307       0.014
   0.12009921  0.04003307  0.04003307       0.007
   0.06004960  0.06004960  0.04003307       0.014
   0.08006614  0.06004960  0.04003307       0.028
   0.10008267  0.06004960  0.04003307       0.028
   0.12009921  0.06004960  0.04003307       0.014
   0.08006614  0.08006614  0.04003307       0.014
   0.10008267  0.08006614  0.04003307       0.028
   0.12009921  0.08006614  0.04003307       0.014
   0.10008267  0.10008267  0.04003307       0.014
   0.12009921  0.10008267  0.04003307       0.014
   0.12009921  0.12009921  0.04003307       0.003
   0.06004960  0.06004960  0.06004960       0.005
   0.08006614  0.06004960  0.06004960       0.014
   0.10008267  0.06004960  0.06004960       0.014
   0.12009921  0.06004960  0.06004960       0.007
   0.08006614  0.08006614  0.06004960       0.014
   0.10008267  0.08006614  0.06004960       0.028
   0.12009921  0.08006614  0.06004960       0.014
   0.10008267  0.10008267  0.06004960       0.014
   0.12009921  0.10008267  0.06004960       0.014
   0.12009921  0.12009921  0.06004960       0.003
   0.08006614  0.08006614  0.08006614       0.005
   0.10008267  0.08006614  0.08006614       0.014
   0.12009921  0.08006614  0.08006614       0.007
   0.10008267  0.10008267  0.08006614       0.014
   0.12009921  0.10008267  0.08006614       0.014
   0.12009921  0.12009921  0.08006614       0.003
   0.10008267  0.10008267  0.10008267       0.005
   0.12009921  0.10008267  0.10008267       0.007
   0.12009921  0.12009921  0.10008267       0.003
   0.12009921  0.12009921  0.12009921       0.001
 
 k-points in reciprocal lattice and weights: Automatic mesh                          
   0.00000000  0.00000000  0.00000000       0.001
   0.08333333  0.00000000  0.00000000       0.003
   0.16666667  0.00000000  0.00000000       0.003
   0.25000000  0.00000000  0.00000000       0.003
   0.33333333  0.00000000  0.00000000       0.003
   0.41666667  0.00000000  0.00000000       0.003
   0.50000000  0.00000000  0.00000000       0.002
   0.08333333  0.08333333  0.00000000       0.007
   0.16666667  0.08333333  0.00000000       0.014
   0.25000000  0.08333333  0.00000000       0.014
   0.33333333  0.08333333  0.00000000       0.014
   0.41666667  0.08333333  0.00000000       0.014
   0.50000000  0.08333333  0.00000000       0.007
   0.16666667  0.16666667  0.00000000       0.007
   0.25000000  0.16666667  0.00000000       0.014
   0.33333333  0.16666667  0.00000000       0.014
   0.41666667  0.16666667  0.00000000       0.014
   0.50000000  0.16666667  0.00000000       0.007
   0.25000000  0.25000000  0.00000000       0.007
   0.33333333  0.25000000  0.00000000       0.014
   0.41666667  0.25000000  0.00000000       0.014
   0.50000000  0.25000000  0.00000000       0.007
   0.33333333  0.33333333  0.00000000       0.007
   0.41666667  0.33333333  0.00000000       0.014
   0.50000000  0.33333333  0.00000000       0.007
   0.41666667  0.41666667  0.00000000       0.007
   0.50000000  0.41666667  0.00000000       0.007
   0.50000000  0.50000000  0.00000000       0.002
   0.08333333  0.08333333  0.08333333       0.005
   0.16666667  0.08333333  0.08333333       0.014
   0.25000000  0.08333333  0.08333333       0.014
   0.33333333  0.08333333  0.08333333       0.014
   0.41666667  0.08333333  0.08333333       0.014
   0.50000000  0.08333333  0.08333333       0.007
   0.16666667  0.16666667  0.08333333       0.014
   0.25000000  0.16666667  0.08333333       0.028
   0.33333333  0.16666667  0.08333333       0.028
   0.41666667  0.16666667  0.08333333       0.028
   0.50000000  0.16666667  0.08333333       0.014
   0.25000000  0.25000000  0.08333333       0.014
   0.33333333  0.25000000  0.08333333       0.028
   0.41666667  0.25000000  0.08333333       0.028
   0.50000000  0.25000000  0.08333333       0.014
   0.33333333  0.33333333  0.08333333       0.014
   0.41666667  0.33333333  0.08333333       0.028
   0.50000000  0.33333333  0.08333333       0.014
   0.41666667  0.41666667  0.08333333       0.014
   0.50000000  0.41666667  0.08333333       0.014
   0.50000000  0.50000000  0.08333333       0.003
   0.16666667  0.16666667  0.16666667       0.005
   0.25000000  0.16666667  0.16666667       0.014
   0.33333333  0.16666667  0.16666667       0.014
   0.41666667  0.16666667  0.16666667       0.014
   0.50000000  0.16666667  0.16666667       0.007
   0.25000000  0.25000000  0.16666667       0.014
   0.33333333  0.25000000  0.16666667       0.028
   0.41666667  0.25000000  0.16666667       0.028
   0.50000000  0.25000000  0.16666667       0.014
   0.33333333  0.33333333  0.16666667       0.014
   0.41666667  0.33333333  0.16666667       0.028
   0.50000000  0.33333333  0.16666667       0.014
   0.41666667  0.41666667  0.16666667       0.014
   0.50000000  0.41666667  0.16666667       0.014
   0.50000000  0.50000000  0.16666667       0.003
   0.25000000  0.25000000  0.25000000       0.005
   0.33333333  0.25000000  0.25000000       0.014
   0.41666667  0.25000000  0.25000000       0.014
   0.50000000  0.25000000  0.25000000       0.007
   0.33333333  0.33333333  0.25000000       0.014
   0.41666667  0.33333333  0.25000000       0.028
   0.50000000  0.33333333  0.25000000       0.014
   0.41666667  0.41666667  0.25000000       0.014
   0.50000000  0.41666667  0.25000000       0.014
   0.50000000  0.50000000  0.25000000       0.003
   0.33333333  0.33333333  0.33333333       0.005
   0.41666667  0.33333333  0.33333333       0.014
   0.50000000  0.33333333  0.33333333       0.007
   0.41666667  0.41666667  0.33333333       0.014
   0.50000000  0.41666667  0.33333333       0.014
   0.50000000  0.50000000  0.33333333       0.003
   0.41666667  0.41666667  0.41666667       0.005
   0.50000000  0.41666667  0.41666667       0.007
   0.50000000  0.50000000  0.41666667       0.003
   0.50000000  0.50000000  0.50000000       0.001
 
 position of ions in fractional coordinates (direct lattice) 
   0.00000000  0.00000000  0.00000000
   0.50000000  0.50000000  0.00000000
   0.50000000  0.00000000  0.50000000
   0.00000000  0.50000000  0.50000000
 
 position of ions in cartesian coordinates  (Angst):
   0.00000000  0.00000000  0.00000000
   2.14406076  2.14406076  0.00000000
   2.14406076  0.00000000  2.14406076
   0.00000000  2.14406076  2.14406076
 


--------------------------------------------------------------------------------------------------------


 k-point  1 :  0.00000.00000.0000  plane waves:   3743
 k-point  2 :  0.08330.00000.0000  plane waves:   3743
 k-point  3 :  0.16670.00000.0000  plane waves:   3699
 k-point  4 :  0.25000.00000.0000  plane waves:   3691
 k-point  5 :  0.33330.00000.0000  plane waves:   3659
 k-point  6 :  0.41670.00000.0000  plane waves:   3691
 k-point  7 :  0.50000.00000.0000  plane waves:   3668
 k-point  8 :  0.08330.08330.0000  plane waves:   3721
 k-point  9 :  0.16670.08330.0000  plane waves:   3704
 k-point 10 :  0.25000.08330.0000  plane waves:   3697
 k-point 11 :  0.33330.08330.0000  plane waves:   3676
 k-point 12 :  0.41670.08330.0000  plane waves:   3668
 k-point 13 :  0.50000.08330.0000  plane waves:   3664
 k-point 14 :  0.16670.16670.0000  plane waves:   3687
 k-point 15 :  0.25000.16670.0000  plane waves:   3681
 k-point 16 :  0.33330.16670.0000  plane waves:   3672
 k-point 17 :  0.41670.16670.0000  plane waves:   3670
 k-point 18 :  0.50000.16670.0000  plane waves:   3676
 k-point 19 :  0.25000.25000.0000  plane waves:   3708
 k-point 20 :  0.33330.25000.0000  plane waves:   3686
 k-point 21 :  0.41670.25000.0000  plane waves:   3673
 k-point 22 :  0.50000.25000.0000  plane waves:   3656
 k-point 23 :  0.33330.33330.0000  plane waves:   3682
 k-point 24 :  0.41670.33330.0000  plane waves:   3677
 k-point 25 :  0.50000.33330.0000  plane waves:   3672
 k-point 26 :  0.41670.41670.0000  plane waves:   3672
 k-point 27 :  0.50000.41670.0000  plane waves:   3662
 k-point 28 :  0.50000.50000.0000  plane waves:   3676
 k-point 29 :  0.08330.08330.0833  plane waves:   3713
 k-point 30 :  0.16670.08330.0833  plane waves:   3692
 k-point 31 :  0.25000.08330.0833  plane waves:   3685
 k-point 32 :  0.33330.08330.0833  plane waves:   3682
 k-point 33 :  0.41670.08330.0833  plane waves:   3671
 k-point 34 :  0.50000.08330.0833  plane waves:   3676
 k-point 35 :  0.16670.16670.0833  plane waves:   3683
 k-point 36 :  0.25000.16670.0833  plane waves:   3693
 k-point 37 :  0.33330.16670.0833  plane waves:   3678
 k-point 38 :  0.41670.16670.0833  plane waves:   3668
 k-point 39 :  0.50000.16670.0833  plane waves:   3680
 k-point 40 :  0.25000.25000.0833  plane waves:   3684
 k-point 41 :  0.33330.25000.0833  plane waves:   3677
 k-point 42 :  0.41670.25000.0833  plane waves:   3666
 k-point 43 :  0.50000.25000.0833  plane waves:   3678
 k-point 44 :  0.33330.33330.0833  plane waves:   3675
 k-point 45 :  0.41670.33330.0833  plane waves:   3681
 k-point 46 :  0.50000.33330.0833  plane waves:   3672
 k-point 47 :  0.41670.41670.0833  plane waves:   3667
 k-point 48 :  0.50000.41670.0833  plane waves:   3664
 k-point 49 :  0.50000.50000.0833  plane waves:   3660
 k-point 50 :  0.16670.16670.1667  plane waves:   3689
 k-point 51 :  0.25000.16670.1667  plane waves:   3683
 k-point 52 :  0.33330.16670.1667  plane waves:   3673
 k-point 53 :  0.41670.16670.1667  plane waves:   3679
 k-point 54 :  0.50000.16670.1667  plane waves:   3712
 k-point 55 :  0.25000.25000.1667  plane waves:   3680
 k-point 56 :  0.33330.25000.1667  plane waves:   3674
 k-point 57 :  0.41670.25000.1667  plane waves:   3679
 k-point 58 :  0.50000.25000.1667  plane waves:   3686
 k-point 59 :  0.33330.33330.1667  plane waves:   3678
 k-point 60 :  0.41670.33330.1667  plane waves:   3676
 k-point 61 :  0.50000.33330.1667  plane waves:   3662
 k-point 62 :  0.41670.41670.1667  plane waves:   3663
 k-point 63 :  0.50000.41670.1667  plane waves:   3662
 k-point 64 :  0.50000.50000.1667  plane waves:   3652
 k-point 65 :  0.25000.25000.2500  plane waves:   3668
 k-point 66 :  0.33330.25000.2500  plane waves:   3675
 k-point 67 :  0.41670.25000.2500  plane waves:   3675
 k-point 68 :  0.50000.25000.2500  plane waves:   3672
 k-point 69 :  0.33330.33330.2500  plane waves:   3672
 k-point 70 :  0.41670.33330.2500  plane waves:   3671
 k-point 71 :  0.50000.33330.2500  plane waves:   3670
 k-point 72 :  0.41670.41670.2500  plane waves:   3670
 k-point 73 :  0.50000.41670.2500  plane waves:   3678
 k-point 74 :  0.50000.50000.2500  plane waves:   3672
 k-point 75 :  0.33330.33330.3333  plane waves:   3710
 k-point 76 :  0.41670.33330.3333  plane waves:   3668
 k-point 77 :  0.50000.33330.3333  plane waves:   3672
 k-point 78 :  0.41670.41670.3333  plane waves:   3678
 k-point 79 :  0.50000.41670.3333  plane waves:   3672
 k-point 80 :  0.50000.50000.3333  plane waves:   3684
 k-point 81 :  0.41670.41670.4167  plane waves:   3668
 k-point 82 :  0.50000.41670.4167  plane waves:   3668
 k-point 83 :  0.50000.50000.4167  plane waves:   3660
 k-point 84 :  0.50000.50000.5000  plane waves:   3648

 maximum and minimum number of plane-waves per node :   3743  3648

 maximum number of plane-waves:   3743
 maximal index in each direction: 
   IXMAX=  9   IYMAX=  9   IZMAX=  9
   IXMIN=-10   IYMIN=-10   IZMIN=-10

 NGX is ok and might be reduce to  40
 NGY is ok and might be reduce to  40
 NGZ is ok and might be reduce to  40

 parallel 3dFFT wavefunction:
    minimum data exchange during FFTs selected (reduces bandwidth)
 parallel 3dFFT charge:
    minimum data exchange during FFTs selected (reduces bandwidth)

 For storing wavefunctions  138.44 MBYTES are necessary
 For predicting wavefunctions    4.71 MBYTES are necessary
Broyden mixing: mesh for mixing (old mesh)
   NGX = 19   NGY = 19   NGZ = 19
  (NGX  = 80   NGY  = 80   NGZ  = 80)
 gives a total of   6859 points
 initial charge density was supplied:
 charge density of overlapping atoms calculated
 number of electron   44.0000000 magnetization 
 keeping initial charge density in first step


--------------------------------------------------------------------------------------------------------


 Maximum index for augmentation-charges        77469 (set IRDMAX)


--------------------------------------------------------------------------------------------------------


 First call to EWALD:  gamma=   0.413
 Maximum number of real-space cells 3x 3x 3
 Maximum number of reciprocal cells 3x 3x 3

    FEWALD:  VPU time    0.00: CPU time    0.00


----------------------------------------- Iteration    1(   1)  ---------------------------------------


    POTLOK:  VPU time    0.15: CPU time    0.16
    SETDIJ:  VPU time    0.34: CPU time    0.34
    EDDAV :  VPU time   12.57: CPU time   12.60
    DOS   :  VPU time    0.00: CPU time   -0.00
    ------------------------------------------
      LOOP:  VPU time   13.07: CPU time   13.10

 eigenvalue-minimisations  :  4704
 total energy-change (2. order) : 0.4647794E+03  (-0.2726602E+04)
 number of electron   44.0000000 magnetization 
 augmentation part    44.0000000 magnetization 

 Free energy of the ion-electron system (eV)
  ---------------------------------------------------
  alpha Z        PSCENC =       360.33560294
  Ewald energy   TEWEN  =     -3725.89519346
  -1/2 Hartree   DENC   =      -900.94782261
  -V(xc)+E(xc)   XCENC  =       -44.26514104
  PAW double counting   =      3482.67677651    -3297.07979946
  entropy T*S    EENTRO =        -0.00018226
  eigenvalues    EBANDS =       440.30557031
  atomic energy  EATOM  =      4149.64961272
  ---------------------------------------------------
  free energy    TOTEN  =       464.77942364 eV

  energy without entropy =      464.77960590  energy(sigma->0) =      464.77951477


--------------------------------------------------------------------------------------------------------




----------------------------------------- Iteration    1(   2)  ---------------------------------------


    EDDAV :  VPU time   12.59: CPU time   12.60
    DOS   :  VPU time    0.00: CPU time   -0.00
    ------------------------------------------
      LOOP:  VPU time   12.60: CPU time   12.61

 eigenvalue-minimisations  :  4744
 total energy-change (2. order) :-0.4609963E+03  (-0.4387019E+03)
 number of electron   44.0000000 magnetization 
 augmentation part    44.0000000 magnetization 

 Free energy of the ion-electron system (eV)
  ---------------------------------------------------
  alpha Z        PSCENC =       360.33560294
  Ewald energy   TEWEN  =     -3725.89519346
  -1/2 Hartree   DENC   =      -900.94782261
  -V(xc)+E(xc)   XCENC  =       -44.26514104
  PAW double counting   =      3482.67677651    -3297.07979946
  entropy T*S    EENTRO =        -0.00004054
  eigenvalues    EBANDS =       -20.69082393
  atomic energy  EATOM  =      4149.64961272
  ---------------------------------------------------
  free energy    TOTEN  =         3.78317112 eV

  energy without entropy =        3.78321166  energy(sigma->0) =        3.78319139


--------------------------------------------------------------------------------------------------------




----------------------------------------- Iteration    1(   3)  ---------------------------------------


    EDDAV :  VPU time   13.29: CPU time   13.31
    DOS   :  VPU time    0.00: CPU time   -0.00
    ------------------------------------------
      LOOP:  VPU time   13.30: CPU time   13.32

 eigenvalue-minimisations  :  5152
 total energy-change (2. order) :-0.1561506E+02  (-0.1542932E+02)
 number of electron   44.0000000 magnetization 
 augmentation part    44.0000000 magnetization 

 Free energy of the ion-electron system (eV)
  ---------------------------------------------------
  alpha Z        PSCENC =       360.33560294
  Ewald energy   TEWEN  =     -3725.89519346
  -1/2 Hartree   DENC   =      -900.94782261
  -V(xc)+E(xc)   XCENC  =       -44.26514104
  PAW double counting   =      3482.67677651    -3297.07979946
  entropy T*S    EENTRO =        -0.00004059
  eigenvalues    EBANDS =       -36.30588067
  atomic energy  EATOM  =      4149.64961272
  ---------------------------------------------------
  free energy    TOTEN  =       -11.83188567 eV

  energy without entropy =      -11.83184508  energy(sigma->0) =      -11.83186538


--------------------------------------------------------------------------------------------------------




----------------------------------------- Iteration    1(   4)  ---------------------------------------


    EDDAV :  VPU time   13.02: CPU time   13.04
    DOS   :  VPU time    0.00: CPU time   -0.00
    ------------------------------------------
      LOOP:  VPU time   13.03: CPU time   13.04

 eigenvalue-minimisations  :  4944
 total energy-change (2. order) :-0.1165982E+00  (-0.1165244E+00)
 number of electron   44.0000000 magnetization 
 augmentation part    44.0000000 magnetization 

 Free energy of the ion-electron system (eV)
  ---------------------------------------------------
  alpha Z        PSCENC =       360.33560294
  Ewald energy   TEWEN  =     -3725.89519346
  -1/2 Hartree   DENC   =      -900.94782261
  -V(xc)+E(xc)   XCENC  =       -44.26514104
  PAW double counting   =      3482.67677651    -3297.07979946
  entropy T*S    EENTRO =        -0.00004047
  eigenvalues    EBANDS =       -36.42247899
  atomic energy  EATOM  =      4149.64961272
  ---------------------------------------------------
  free energy    TOTEN  =       -11.94848387 eV

  energy without entropy =      -11.94844340  energy(sigma->0) =      -11.94846363


--------------------------------------------------------------------------------------------------------




----------------------------------------- Iteration    1(   5)  ---------------------------------------


    EDDAV :  VPU time   12.69: CPU time   12.70
    DOS   :  VPU time   -0.00: CPU time   -0.00
    CHARGE:  VPU time    1.41: CPU time    1.41
    MIXING:  VPU time    0.00: CPU time    0.00
    ------------------------------------------
      LOOP:  VPU time   14.11: CPU time   14.13

 eigenvalue-minimisations  :  5012
 total energy-change (2. order) :-0.4524547E-03  (-0.4524345E-03)
 number of electron   44.0000001 magnetization 
 augmentation part    20.4965582 magnetization 

 Broyden mixing:
  rms(total) = 0.51096E+00    rms(broyden)= 0.51096E+00
  rms(prec ) = 0.12595E+01
  weight for this iteration     100.00

 Free energy of the ion-electron system (eV)
  ---------------------------------------------------
  alpha Z        PSCENC =       360.33560294
  Ewald energy   TEWEN  =     -3725.89519346
  -1/2 Hartree   DENC   =      -900.94782261
  -V(xc)+E(xc)   XCENC  =       -44.26514104
  PAW double counting   =      3482.67677651    -3297.07979946
  entropy T*S    EENTRO =        -0.00004047
  eigenvalues    EBANDS =       -36.42293144
  atomic energy  EATOM  =      4149.64961272
  ---------------------------------------------------
  free energy    TOTEN  =       -11.94893632 eV

  energy without entropy =      -11.94889585  energy(sigma->0) =      -11.94891609


--------------------------------------------------------------------------------------------------------




----------------------------------------- Iteration    1(   6)  ---------------------------------------


    POTLOK:  VPU time    0.17: CPU time    0.17
    SETDIJ:  VPU time    0.37: CPU time    0.37
    EDDAV :  VPU time    9.05: CPU time    9.06
    DOS   :  VPU time    0.00: CPU time   -0.00
    CHARGE:  VPU time    0.81: CPU time    0.81
    MIXING:  VPU time    0.00: CPU time    0.00
    ------------------------------------------
      LOOP:  VPU time   10.40: CPU time   10.42

 eigenvalue-minimisations  :  4876
 total energy-change (2. order) : 0.7512036E+00  (-0.2871342E+00)
 number of electron   44.0000001 magnetization 
 augmentation part    21.1471637 magnetization 

 Broyden mixing:
  rms(total) = 0.94901E-01    rms(broyden)= 0.94900E-01
  rms(prec ) = 0.19183E+00
  weight for this iteration     100.00

 eigenvalues of (default mixing * dielectric matrix)
  average eigenvalue GAMMA=   1.0254
  1.0254

 Free energy of the ion-electron system (eV)
  ---------------------------------------------------
  alpha Z        PSCENC =       360.33560294
  Ewald energy   TEWEN  =     -3725.89519346
  -1/2 Hartree   DENC   =      -865.14887158
  -V(xc)+E(xc)   XCENC  =       -45.56932690
  PAW double counting   =      3427.13683327    -3243.88821606
  entropy T*S    EENTRO =        -0.00004043
  eigenvalues    EBANDS =       -67.81813321
  atomic energy  EATOM  =      4149.64961272
  ---------------------------------------------------
  free energy    TOTEN  =       -11.19773271 eV

  energy without entropy =      -11.19769228  energy(sigma->0) =      -11.19771249


--------------------------------------------------------------------------------------------------------




----------------------------------------- Iteration    1(   7)  ---------------------------------------


    POTLOK:  VPU time    0.11: CPU time    0.11
    SETDIJ:  VPU time    0.20: CPU time    0.20
    EDDAV :  VPU time   11.83: CPU time   11.83
    DOS   :  VPU time    0.00: CPU time   -0.00
    CHARGE:  VPU time    1.23: CPU time    1.23
    MIXING:  VPU time    0.00: CPU time    0.00
    ------------------------------------------
      LOOP:  VPU time   13.39: CPU time   13.40

 eigenvalue-minimisations  :  4832
 total energy-change (2. order) : 0.1389946E-01  (-0.4587571E-02)
 number of electron   44.0000001 magnetization 
 augmentation part    21.1687986 magnetization 

 Broyden mixing:
  rms(total) = 0.52911E-01    rms(broyden)= 0.52911E-01
  rms(prec ) = 0.10202E+00
  weight for this iteration     100.00

 eigenvalues of (default mixing * dielectric matrix)
  average eigenvalue GAMMA=   1.7282
  1.0220  2.4345

 Free energy of the ion-electron system (eV)
  ---------------------------------------------------
  alpha Z        PSCENC =       360.33560294
  Ewald energy   TEWEN  =     -3725.89519346
  -1/2 Hartree   DENC   =      -861.04731756
  -V(xc)+E(xc)   XCENC  =       -45.73535628
  PAW double counting   =      3433.39111000    -3252.16319022
  entropy T*S    EENTRO =        -0.00004043
  eigenvalues    EBANDS =       -69.71906096
  atomic energy  EATOM  =      4149.64961272
  ---------------------------------------------------
  free energy    TOTEN  =       -11.18383325 eV

  energy without entropy =      -11.18379282  energy(sigma->0) =      -11.18381303


--------------------------------------------------------------------------------------------------------




----------------------------------------- Iteration    1(   8)  ---------------------------------------


    POTLOK:  VPU time    0.14: CPU time    0.14
    SETDIJ:  VPU time    0.30: CPU time    0.30
    EDDAV :  VPU time   12.95: CPU time   12.96
    DOS   :  VPU time    0.00: CPU time   -0.00
    CHARGE:  VPU time    1.24: CPU time    1.24
    MIXING:  VPU time    0.00: CPU time    0.00
    ------------------------------------------
      LOOP:  VPU time   14.64: CPU time   14.66

 eigenvalue-minimisations  :  4892
 total energy-change (2. order) : 0.6848119E-02  (-0.4668725E-03)
 number of electron   44.0000001 magnetization 
 augmentation part    21.1716509 magnetization 

 Broyden mixing:
  rms(total) = 0.36596E-02    rms(broyden)= 0.36592E-02
  rms(prec ) = 0.68081E-02
  weight for this iteration     100.00

 eigenvalues of (default mixing * dielectric matrix)
  average eigenvalue GAMMA=   1.7171
  2.7004  1.0269  1.4239

 Free energy of the ion-electron system (eV)
  ---------------------------------------------------
  alpha Z        PSCENC =       360.33560294
  Ewald energy   TEWEN  =     -3725.89519346
  -1/2 Hartree   DENC   =      -856.74651355
  -V(xc)+E(xc)   XCENC  =       -45.91274062
  PAW double counting   =      3446.76864432    -3268.06186703
  entropy T*S    EENTRO =        -0.00004043
  eigenvalues    EBANDS =       -71.31449001
  atomic energy  EATOM  =      4149.64961272
  ---------------------------------------------------
  free energy    TOTEN  =       -11.17698513 eV

  energy without entropy =      -11.17694470  energy(sigma->0) =      -11.17696491


--------------------------------------------------------------------------------------------------------




----------------------------------------- Iteration    1(   9)  ---------------------------------------


    POTLOK:  VPU time    0.15: CPU time    0.15
    SETDIJ:  VPU time    0.31: CPU time    0.31
    EDDAV :  VPU time   13.05: CPU time   13.06
    DOS   :  VPU time    0.00: CPU time   -0.00
    CHARGE:  VPU time    1.25: CPU time    1.25
    MIXING:  VPU time    0.01: CPU time    0.01
    ------------------------------------------
      LOOP:  VPU time   14.76: CPU time   14.78

 eigenvalue-minimisations  :  4964
 total energy-change (2. order) :-0.1184218E-03  (-0.1946898E-04)
 number of electron   44.0000001 magnetization 
 augmentation part    21.1762534 magnetization 

 Broyden mixing:
  rms(total) = 0.25028E-02    rms(broyden)= 0.25027E-02
  rms(prec ) = 0.50377E-02
  weight for this iteration     100.00

 eigenvalues of (default mixing * dielectric matrix)
  average eigenvalue GAMMA=   1.7713
  0.9894  0.9894  2.3932  2.7133

 Free energy of the ion-electron system (eV)
  ---------------------------------------------------
  alpha Z        PSCENC =       360.33560294
  Ewald energy   TEWEN  =     -3725.89519346
  -1/2 Hartree   DENC   =      -856.43014710
  -V(xc)+E(xc)   XCENC  =       -45.92584535
  PAW double counting   =      3448.21196686    -3269.50590581
  entropy T*S    EENTRO =        -0.00004043
  eigenvalues    EBANDS =       -71.61715391
  atomic energy  EATOM  =      4149.64961272
  ---------------------------------------------------
  free energy    TOTEN  =       -11.17710355 eV

  energy without entropy =      -11.17706312  energy(sigma->0) =      -11.17708334


--------------------------------------------------------------------------------------------------------




----------------------------------------- Iteration    1(  10)  ---------------------------------------


    POTLOK:  VPU time    0.15: CPU time    0.15
    SETDIJ:  VPU time    0.41: CPU time    0.41
    EDDAV :  VPU time   12.88: CPU time   12.90
    DOS   :  VPU time    0.00: CPU time   -0.00
    CHARGE:  VPU time    1.22: CPU time    1.22
    MIXING:  VPU time    0.00: CPU time    0.00
    ------------------------------------------
      LOOP:  VPU time   14.66: CPU time   14.69

 eigenvalue-minimisations  :  4876
 total energy-change (2. order) : 0.1142568E-04  (-0.1588172E-05)
 number of electron   44.0000001 magnetization 
 augmentation part    21.1752470 magnetization 

 Broyden mixing:
  rms(total) = 0.37906E-03    rms(broyden)= 0.37905E-03
  rms(prec ) = 0.82496E-03
  weight for this iteration     100.00

 eigenvalues of (default mixing * dielectric matrix)
  average eigenvalue GAMMA=   1.7605
  2.8360  2.4321  1.0097  1.0097  1.5150

 Free energy of the ion-electron system (eV)
  ---------------------------------------------------
  alpha Z        PSCENC =       360.33560294
  Ewald energy   TEWEN  =     -3725.89519346
  -1/2 Hartree   DENC   =      -856.63774179
  -V(xc)+E(xc)   XCENC  =       -45.91868818
  PAW double counting   =      3448.96707278    -3270.12828314
  entropy T*S    EENTRO =        -0.00004043
  eigenvalues    EBANDS =       -71.54943356
  atomic energy  EATOM  =      4149.64961272
  ---------------------------------------------------
  free energy    TOTEN  =       -11.17709213 eV

  energy without entropy =      -11.17705169  energy(sigma->0) =      -11.17707191


--------------------------------------------------------------------------------------------------------




----------------------------------------- Iteration    1(  11)  ---------------------------------------


    POTLOK:  VPU time    0.15: CPU time    0.15
    SETDIJ:  VPU time    0.34: CPU time    0.34
    EDDAV :  VPU time   12.41: CPU time   12.42
    DOS   :  VPU time    0.00: CPU time   -0.00
    CHARGE:  VPU time    1.39: CPU time    1.39
    MIXING:  VPU time    0.01: CPU time    0.01
    ------------------------------------------
      LOOP:  VPU time   14.31: CPU time   14.33

 eigenvalue-minimisations  :  4988
 total energy-change (2. order) : 0.1278483E-05  (-0.9605845E-07)
 number of electron   44.0000001 magnetization 
 augmentation part    21.1749608 magnetization 

 Broyden mixing:
  rms(total) = 0.58796E-04    rms(broyden)= 0.58796E-04
  rms(prec ) = 0.11312E-03
  weight for this iteration     100.00

 eigenvalues of (default mixing * dielectric matrix)
  average eigenvalue GAMMA=   1.8742
  3.1214  2.6386  2.4974  0.9818  1.0029  1.0029

 Free energy of the ion-electron system (eV)
  ---------------------------------------------------
  alpha Z        PSCENC =       360.33560294
  Ewald energy   TEWEN  =     -3725.89519346
  -1/2 Hartree   DENC   =      -856.66741934
  -V(xc)+E(xc)   XCENC  =       -45.91771029
  PAW double counting   =      3449.03205283    -3270.17921914
  entropy T*S    EENTRO =        -0.00004043
  eigenvalues    EBANDS =       -71.53477668
  atomic energy  EATOM  =      4149.64961272
  ---------------------------------------------------
  free energy    TOTEN  =       -11.17709085 eV

  energy without entropy =      -11.17705041  energy(sigma->0) =      -11.17707063


--------------------------------------------------------------------------------------------------------




----------------------------------------- Iteration    1(  12)  ---------------------------------------


    POTLOK:  VPU time    0.18: CPU time    0.18
    SETDIJ:  VPU time    0.41: CPU time    0.41
    EDDAV :  VPU time    9.01: CPU time    9.02
    DOS   :  VPU time    0.00: CPU time   -0.00
    CHARGE:  VPU time    1.00: CPU time    1.00
    MIXING:  VPU time    0.01: CPU time    0.01
    ------------------------------------------
      LOOP:  VPU time   10.60: CPU time   10.62

 eigenvalue-minimisations  :  4268
 total energy-change (2. order) : 0.5252996E-06  (-0.3263298E-08)
 number of electron   44.0000001 magnetization 
 augmentation part    21.1749477 magnetization 

 Broyden mixing:
  rms(total) = 0.10670E-04    rms(broyden)= 0.10670E-04
  rms(prec ) = 0.18339E-04
  weight for this iteration     100.00

 eigenvalues of (default mixing * dielectric matrix)
  average eigenvalue GAMMA=   1.7737
  2.9087  2.6217  2.4668  1.0142  1.0142  1.0573  1.3333

 Free energy of the ion-electron system (eV)
  ---------------------------------------------------
  alpha Z        PSCENC =       360.33560294
  Ewald energy   TEWEN  =     -3725.89519346
  -1/2 Hartree   DENC   =      -856.67071432
  -V(xc)+E(xc)   XCENC  =       -45.91760552
  PAW double counting   =      3448.95230548    -3270.09828190
  entropy T*S    EENTRO =        -0.00004043
  eigenvalues    EBANDS =       -71.53277583
  atomic energy  EATOM  =      4149.64961272
  ---------------------------------------------------
  free energy    TOTEN  =       -11.17709032 eV

  energy without entropy =      -11.17704989  energy(sigma->0) =      -11.17707011


--------------------------------------------------------------------------------------------------------




----------------------------------------- Iteration    1(  13)  ---------------------------------------


    POTLOK:  VPU time    0.15: CPU time    0.15
    SETDIJ:  VPU time    0.33: CPU time    0.33
    EDDAV :  VPU time    8.78: CPU time    8.81
    DOS   :  VPU time    0.00: CPU time   -0.00
    CHARGE:  VPU time    1.26: CPU time    1.26
    MIXING:  VPU time    0.00: CPU time    0.00
    ------------------------------------------
      LOOP:  VPU time   10.53: CPU time   10.56

 eigenvalue-minimisations  :  2560
 total energy-change (2. order) : 0.4712365E-07  (-0.8668365E-10)
 number of electron   44.0000001 magnetization 
 augmentation part    21.1749484 magnetization 

 Broyden mixing:
  rms(total) = 0.61804E-05    rms(broyden)= 0.61804E-05
  rms(prec ) = 0.12527E-04
  weight for this iteration     100.00

 eigenvalues of (default mixing * dielectric matrix)
  average eigenvalue GAMMA=   1.8199
  2.8195  2.6168  2.6168  2.5018  1.0098  1.0098  0.9696  1.0153

 Free energy of the ion-electron system (eV)
  ---------------------------------------------------
  alpha Z        PSCENC =       360.33560294
  Ewald energy   TEWEN  =     -3725.89519346
  -1/2 Hartree   DENC   =      -856.67084996
  -V(xc)+E(xc)   XCENC  =       -45.91759705
  PAW double counting   =      3448.95121984    -3270.09712244
  entropy T*S    EENTRO =        -0.00004043
  eigenvalues    EBANDS =       -71.53272243
  atomic energy  EATOM  =      4149.64961272
  ---------------------------------------------------
  free energy    TOTEN  =       -11.17709028 eV

  energy without entropy =      -11.17704984  energy(sigma->0) =      -11.17707006


--------------------------------------------------------------------------------------------------------




----------------------------------------- Iteration    1(  14)  ---------------------------------------


    POTLOK:  VPU time    0.15: CPU time    0.15
    SETDIJ:  VPU time    0.35: CPU time    0.35
    EDDAV :  VPU time    8.56: CPU time    8.58
    DOS   :  VPU time    0.00: CPU time   -0.00
    ------------------------------------------
      LOOP:  VPU time    9.07: CPU time    9.09

 eigenvalue-minimisations  :  2508
 total energy-change (2. order) :-0.2788511E-08  (-0.2603701E-10)
 number of electron   44.0000001 magnetization 
 augmentation part    21.1749484 magnetization 

 Free energy of the ion-electron system (eV)
  ---------------------------------------------------
  alpha Z        PSCENC =       360.33560294
  Ewald energy   TEWEN  =     -3725.89519346
  -1/2 Hartree   DENC   =      -856.67031732
  -V(xc)+E(xc)   XCENC  =       -45.91761422
  PAW double counting   =      3448.95487048    -3270.10093183
  entropy T*S    EENTRO =        -0.00004043
  eigenvalues    EBANDS =       -71.53307915
  atomic energy  EATOM  =      4149.64961272
  ---------------------------------------------------
  free energy    TOTEN  =       -11.17709028 eV

  energy without entropy =      -11.17704984  energy(sigma->0) =      -11.17707006


--------------------------------------------------------------------------------------------------------




 average (electrostatic) potential at core
  the test charge radii are     1.1249
  (the norm of the test charge is              1.0000)
       1 -42.1412       2 -42.1412       3 -42.1412       4 -42.1412
 
 
 
 E-fermi :   2.3931     XC(G=0): -11.3662     alpha+bet : -7.3866
   add alpha+bet to get absolut eigen values

 k-point   1 :       0.0000    0.0000    0.0000
  band No.  band energies     occupation 
      1      -4.4380      2.00000
      2      -3.2855      2.00000
      3      -3.2855      2.00000
      4      -3.2855      2.00000
      5      -3.1957      2.00000
      6      -3.1957      2.00000
      7      -3.1957      2.00000
      8      -2.0355      2.00000
      9      -2.0355      2.00000
     10      -2.0355      2.00000
     11      -1.2375      2.00000
     12      -1.2375      2.00000
     13      -0.6477      2.00000
     14      -0.6477      2.00000
     15      -0.6477      2.00000
     16      -0.4616      2.00000
     17      -0.4616      2.00000
     18      -0.4616      2.00000
     19      -0.4616      2.00000
     20      -0.4616      2.00000
     21      -0.4616      2.00000
     22       4.0704      0.00000
     23       4.0704      0.00000
     24       4.0704      0.00000
     25       8.0267      0.00000
     26       8.0267      0.00000
     27       8.0267      0.00000
     28      12.3921      0.00000

 k-point   2 :       0.0833    0.0000    0.0000
  band No.  band energies     occupation 
      1      -4.3731      2.00000
      2      -3.2613      2.00000
      3      -3.2541      2.00000
      4      -3.2541      2.00000
      5      -3.1776      2.00000
      6      -3.1678      2.00000
      7      -3.1678      2.00000
      8      -2.0572      2.00000
      9      -2.0145      2.00000
     10      -2.0145      2.00000
     11      -1.2590      2.00000
     12      -1.2278      2.00000
     13      -0.6762      2.00000
     14      -0.6762      2.00000
     15      -0.6582      2.00000
     16      -0.5579      2.00000
     17      -0.5579      2.00000
     18      -0.4968      2.00000
     19      -0.4968      2.00000
     20      -0.4616      2.00000
     21      -0.4616      2.00000
     22       3.5791      0.00000
     23       4.2230      0.00000
     24       4.2230      0.00000
     25       8.0406      0.00000
     26       8.0406      0.00000
     27       8.6262      0.00000
     28      12.1364      0.00000

 k-point   3 :       0.1667    0.0000    0.0000
  band No.  band energies     occupation 
      1      -4.1818      2.00000
      2      -3.1918      2.00000
      3      -3.1642      2.00000
      4      -3.1642      2.00000
      5      -3.1242      2.00000
      6      -3.0844      2.00000
      7      -3.0844      2.00000
      8      -2.1203      2.00000
      9      -1.9521      2.00000
     10      -1.9521      2.00000
     11      -1.3190      2.00000
     12      -1.1995      2.00000
     13      -0.8115      2.00000
     14      -0.8115      2.00000
     15      -0.7587      2.00000
     16      -0.7587      2.00000
     17      -0.6888      2.00000
     18      -0.5975      2.00000
     19      -0.5975      2.00000
     20      -0.4614      2.00000
     21      -0.4614      2.00000
     22       2.5664      0.00000
     23       4.6450      0.00000
     24       4.6450      0.00000
     25       8.0836      0.00000
     26       8.0836      0.00000
     27       9.9640      0.00000
     28      11.4769      0.00000

 k-point   4 :       0.2500    0.0000    0.0000
  band No.  band energies     occupation 
      1      -3.8762      2.00000
      2      -3.0869      2.00000
      3      -3.0385      2.00000
      4      -3.0288      2.00000
      5      -3.0288      2.00000
      6      -2.9458      2.00000
      7      -2.9458      2.00000
      8      -2.2194      2.00000
      9      -1.8501      2.00000
     10      -1.8501      2.00000
     11      -1.4014      2.00000
     12      -1.1541      2.00000
     13      -1.1525      2.00000
     14      -1.1525      2.00000
     15      -0.8844      2.00000
     16      -0.8844      2.00000
     17      -0.7508      2.00000
     18      -0.7508      2.00000
     19      -0.7373      2.00000
     20      -0.4613      2.00000
     21      -0.4613      2.00000
     22       1.4696      2.00000
     23       5.2641      0.00000
     24       5.2641      0.00000
     25       8.1574      0.00000
     26       8.1574      0.00000
     27      10.6193      0.00000
     28      10.6193      0.00000

 k-point   5 :       0.3333    0.0000    0.0000
  band No.  band energies     occupation 
      1      -3.4886      2.00000
      2      -2.9663      2.00000
      3      -2.9249      2.00000
      4      -2.8729      2.00000
      5      -2.8729      2.00000
      6      -2.7534      2.00000
      7      -2.7534      2.00000
      8      -2.3462      2.00000
      9      -1.7120      2.00000
     10      -1.7120      2.00000
     11      -1.5222      2.00000
     12      -1.5222      2.00000
     13      -1.4674      2.00000
     14      -1.0946      2.00000
     15      -1.0310      2.00000
     16      -1.0310      2.00000
     17      -0.9392      2.00000
     18      -0.9392      2.00000
     19      -0.7999      2.00000
     20      -0.4611      2.00000
     21      -0.4611      2.00000
     22       0.4390      2.00000
     23       6.0177      0.00000
     24       6.0177      0.00000
     25       8.2600      0.00000
     26       8.2600      0.00000
     27       9.6795      0.00000
     28       9.6795      0.00000

 k-point   6 :       0.4167    0.0000    0.0000
  band No.  band energies     occupation 
      1      -3.1043      2.00000
      2      -2.8697      2.00000
      3      -2.7901      2.00000
      4      -2.7392      2.00000
      5      -2.7392      2.00000
      6      -2.5092      2.00000
      7      -2.5092      2.00000
      8      -2.4908      2.00000
      9      -1.8842      2.00000
     10      -1.8842      2.00000
     11      -1.5428      2.00000
     12      -1.5428      2.00000
     13      -1.4237      2.00000
     14      -1.1584      2.00000
     15      -1.1584      2.00000
     16      -1.1445      2.00000
     17      -1.1445      2.00000
     18      -1.0247      2.00000
     19      -0.8721      2.00000
     20      -0.4609      2.00000
     21      -0.4609      2.00000
     22      -0.4493      2.00000
     23       6.8634      0.00000
     24       6.8634      0.00000
     25       8.3697      0.00000
     26       8.3697      0.00000
     27       8.7187      0.00000
     28       8.7187      0.00000

 k-point   7 :       0.5000    0.0000    0.0000
  band No.  band energies     occupation 
      1      -2.8805      2.00000
      2      -2.8805      2.00000
      3      -2.6842      2.00000
      4      -2.6842      2.00000
      5      -2.6422      2.00000
      6      -2.6422      2.00000
      7      -2.2172      2.00000
      8      -2.2172      2.00000
      9      -2.2172      2.00000
     10      -2.2172      2.00000
     11      -1.3502      2.00000
     12      -1.3502      2.00000
     13      -1.3502      2.00000
     14      -1.3502      2.00000
     15      -1.2112      2.00000
     16      -1.2112      2.00000
     17      -1.1045      2.00000
     18      -1.1045      2.00000
     19      -0.9488      2.00000
     20      -0.9488      2.00000
     21      -0.4609      2.00000
     22      -0.4609      2.00000
     23       7.7716      0.00000
     24       7.7716      0.00000
     25       7.7716      0.00000
     26       7.7716      0.00000
     27       8.4238      0.00000
     28       8.4238      0.00000

 k-point   8 :       0.0833    0.0833    0.0000
  band No.  band energies     occupation 
      1      -4.3091      2.00000
      2      -3.2298      2.00000
      3      -3.2298      2.00000
      4      -3.2296      2.00000
      5      -3.1501      2.00000
      6      -3.1501      2.00000
      7      -3.1343      2.00000
      8      -2.0647      2.00000
      9      -2.0071      2.00000
     10      -1.9948      2.00000
     11      -1.2646      2.00000
     12      -1.2321      2.00000
     13      -0.7036      2.00000
     14      -0.7008      2.00000
     15      -0.7008      2.00000
     16      -0.6242      2.00000
     17      -0.5792      2.00000
     18      -0.5792      2.00000
     19      -0.4968      2.00000
     20      -0.4968      2.00000
     21      -0.4861      2.00000
     22       3.7230      0.00000
     23       3.7230      0.00000
     24       4.3705      0.00000
     25       8.0542      0.00000
     26       8.6483      0.00000
     27       8.6483      0.00000
     28      11.3329      0.00000

 k-point   9 :       0.1667    0.0833    0.0000
  band No.  band energies     occupation 
      1      -4.1205      2.00000
      2      -3.1597      2.00000
      3      -3.1563      2.00000
      4      -3.1393      2.00000
      5      -3.0979      2.00000
      6      -3.0678      2.00000
      7      -3.0377      2.00000
      8      -2.1196      2.00000
      9      -1.9513      2.00000
     10      -1.9371      2.00000
     11      -1.3163      2.00000
     12      -1.2056      2.00000
     13      -0.8902      2.00000
     14      -0.8532      2.00000
     15      -0.7829      2.00000
     16      -0.7816      2.00000
     17      -0.7246      2.00000
     18      -0.6312      2.00000
     19      -0.5979      2.00000
     20      -0.4983      2.00000
     21      -0.4970      2.00000
     22       2.7049      0.00000
     23       4.1157      0.00000
     24       4.7806      0.00000
     25       8.0938      0.00000
     26       8.7153      0.00000
     27       9.9895      0.00000
     28      10.4248      0.00000

 k-point  10 :       0.2500    0.0833    0.0000
  band No.  band energies     occupation 
      1      -3.8197      2.00000
      2      -3.0536      2.00000
      3      -3.0369      2.00000
      4      -3.0139      2.00000
      5      -3.0028      2.00000
      6      -2.9312      2.00000
      7      -2.8889      2.00000
      8      -2.2147      2.00000
      9      -1.8509      2.00000
     10      -1.8469      2.00000
     11      -1.3895      2.00000
     12      -1.2138      2.00000
     13      -1.1782      2.00000
     14      -1.1545      2.00000
     15      -0.9220      2.00000
     16      -0.9041      2.00000
     17      -0.8631      2.00000
     18      -0.7515      2.00000
     19      -0.6972      2.00000
     20      -0.5006      2.00000
     21      -0.4974      2.00000
     22       1.6128      2.00000
     23       4.6798      0.00000
     24       5.3869      0.00000
     25       8.1482      0.00000
     26       8.8248      0.00000
     27       9.5418      0.00000
     28      10.7131      0.00000

 k-point  11 :       0.3333    0.0833    0.0000
  band No.  band energies     occupation 
      1      -3.4391      2.00000
      2      -2.9310      2.00000
      3      -2.9028      2.00000
      4      -2.8834      2.00000
      5      -2.8458      2.00000
      6      -2.7416      2.00000
      7      -2.7023      2.00000
      8      -2.3379      2.00000
      9      -1.7486      2.00000
     10      -1.7133      2.00000
     11      -1.5705      2.00000
     12      -1.5358      2.00000
     13      -1.4210      2.00000
     14      -1.1080      2.00000
     15      -1.0852      2.00000
     16      -1.0455      2.00000
     17      -1.0155      2.00000
     18      -0.9403      2.00000
     19      -0.7746      2.00000
     20      -0.5007      2.00000
     21      -0.4979      2.00000
     22       0.5970      2.00000
     23       5.3490      0.00000
     24       6.1297      0.00000
     25       8.1053      0.00000
     26       8.8425      0.00000
     27       8.9530      0.00000
     28       9.7722      0.00000

 k-point  12 :       0.4167    0.0833    0.0000
  band No.  band energies     occupation 
      1      -3.0615      2.00000
      2      -2.8317      2.00000
      3      -2.7710      2.00000
      4      -2.7335      2.00000
      5      -2.7118      2.00000
      6      -2.5014      2.00000
      7      -2.4856      2.00000
      8      -2.4787      2.00000
      9      -1.9160      2.00000
     10      -1.8886      2.00000
     11      -1.6760      2.00000
     12      -1.5443      2.00000
     13      -1.3232      2.00000
     14      -1.2949      2.00000
     15      -1.1669      2.00000
     16      -1.1499      2.00000
     17      -1.1459      2.00000
     18      -0.9978      2.00000
     19      -0.8653      2.00000
     20      -0.5002      2.00000
     21      -0.4986      2.00000
     22      -0.2601      2.00000
     23       6.0778      0.00000
     24       6.9671      0.00000
     25       7.5811      0.00000
     26       8.7177      0.00000
     27       8.8128      0.00000
     28       9.0023      0.00000

 k-point  13 :       0.5000    0.0833    0.0000
  band No.  band energies     occupation 
      1      -2.8401      2.00000
      2      -2.8401      2.00000
      3      -2.6618      2.00000
      4      -2.6618      2.00000
      5      -2.6264      2.00000
      6      -2.6264      2.00000
      7      -2.2256      2.00000
      8      -2.2256      2.00000
      9      -2.2146      2.00000
     10      -2.2146      2.00000
     11      -1.5389      2.00000
     12      -1.5389      2.00000
     13      -1.3517      2.00000
     14      -1.3517      2.00000
     15      -1.2117      2.00000
     16      -1.2117      2.00000
     17      -1.0122      2.00000
     18      -1.0122      2.00000
     19      -0.8321      2.00000
     20      -0.8321      2.00000
     21      -0.4994      2.00000
     22      -0.4994      2.00000
     23       6.8348      0.00000
     24       6.8348      0.00000
     25       7.8695      0.00000
     26       7.8695      0.00000
     27       8.8768      0.00000
     28       8.8768      0.00000

 k-point  14 :       0.1667    0.1667    0.0000
  band No.  band energies     occupation 
      1      -3.9404      2.00000
      2      -3.1113      2.00000
      3      -3.0673      2.00000
      4      -3.0673      2.00000
      5      -3.0189      2.00000
      6      -3.0189      2.00000
      7      -2.9232      2.00000
      8      -2.1415      2.00000
      9      -1.9239      2.00000
     10      -1.8937      2.00000
     11      -1.3364      2.00000
     12      -1.1905      2.00000
     13      -1.0299      2.00000
     14      -1.0299      2.00000
     15      -1.0048      2.00000
     16      -0.8535      2.00000
     17      -0.7153      2.00000
     18      -0.7153      2.00000
     19      -0.5989      2.00000
     20      -0.5989      2.00000
     21      -0.5585      2.00000
     22       3.0754      0.00000
     23       3.0754      0.00000
     24       5.1627      0.00000
     25       8.1067      0.00000
     26       9.3924      0.00000
     27      10.0565      0.00000
     28      10.0565      0.00000

 k-point  15 :       0.2500    0.1667    0.0000
  band No.  band energies     occupation 
      1      -3.6551      2.00000
      2      -3.0180      2.00000
      3      -2.9576      2.00000
      4      -2.9404      2.00000
      5      -2.9278      2.00000
      6      -2.8881      2.00000
      7      -2.7653      2.00000
      8      -2.2117      2.00000
      9      -1.8412      2.00000
     10      -1.8331      2.00000
     11      -1.3872      2.00000
     12      -1.3533      2.00000
     13      -1.2663      2.00000
     14      -1.2047      2.00000
     15      -1.1217      2.00000
     16      -0.9623      2.00000
     17      -0.8415      2.00000
     18      -0.7537      2.00000
     19      -0.7464      2.00000
     20      -0.6006      2.00000
     21      -0.5908      2.00000
     22       1.9831      2.00000
     23       3.5966      0.00000
     24       5.7376      0.00000
     25       7.9251      0.00000
     26       8.6683      0.00000
     27      10.1049      0.00000
     28      10.9879      0.00000

 k-point  16 :       0.3333    0.1667    0.0000
  band No.  band energies     occupation 
      1      -3.2971      2.00000
      2      -2.8803      2.00000
      3      -2.8368      2.00000
      4      -2.8291      2.00000
      5      -2.7668      2.00000
      6      -2.7071      2.00000
      7      -2.5862      2.00000
      8      -2.3181      2.00000
      9      -1.7977      2.00000
     10      -1.7112      2.00000
     11      -1.6892      2.00000
     12      -1.5813      2.00000
     13      -1.4040      2.00000
     14      -1.3863      2.00000
     15      -1.0896      2.00000
     16      -1.0070      2.00000
     17      -0.9939      2.00000
     18      -0.9434      2.00000
     19      -0.8149      2.00000
     20      -0.6030      2.00000
     21      -0.6027      2.00000
     22       0.9798      2.00000
     23       4.2100      0.00000
     24       6.4528      0.00000
     25       7.2056      0.00000
     26       8.6226      0.00000
     27       9.9375      0.00000
     28      10.0435      0.00000

 k-point  17 :       0.4167    0.1667    0.0000
  band No.  band energies     occupation 
      1      -2.9412      2.00000
      2      -2.7217      2.00000
      3      -2.7178      2.00000
      4      -2.7144      2.00000
      5      -2.6317      2.00000
      6      -2.4788      2.00000
      7      -2.4452      2.00000
      8      -2.4134      2.00000
      9      -1.9970      2.00000
     10      -1.9041      2.00000
     11      -1.8138      2.00000
     12      -1.6109      2.00000
     13      -1.5458      2.00000
     14      -1.2567      2.00000
     15      -1.1952      2.00000
     16      -1.1493      2.00000
     17      -1.1386      2.00000
     18      -0.9199      2.00000
     19      -0.8236      2.00000
     20      -0.6066      2.00000
     21      -0.6049      2.00000
     22       0.1373      2.00000
     23       4.8851      0.00000
     24       6.3879      0.00000
     25       7.2683      0.00000
     26       8.8271      0.00000
     27       9.0880      0.00000
     28       9.5404      0.00000

 k-point  18 :       0.5000    0.1667    0.0000
  band No.  band energies     occupation 
      1      -2.7254      2.00000
      2      -2.7254      2.00000
      3      -2.6020      2.00000
      4      -2.6020      2.00000
      5      -2.5807      2.00000
      6      -2.5807      2.00000
      7      -2.2397      2.00000
      8      -2.2397      2.00000
      9      -2.2082      2.00000
     10      -2.2082      2.00000
     11      -1.7729      2.00000
     12      -1.7729      2.00000
     13      -1.3547      2.00000
     14      -1.3547      2.00000
     15      -1.2201      2.00000
     16      -1.2201      2.00000
     17      -1.0693      2.00000
     18      -1.0693      2.00000
     19      -0.6066      2.00000
     20      -0.6066      2.00000
     21      -0.4745      2.00000
     22      -0.4745      2.00000
     23       5.6114      0.00000
     24       5.6114      0.00000
     25       8.1548      0.00000
     26       8.1548      0.00000
     27       9.1423      0.00000
     28       9.1423      0.00000

 k-point  19 :       0.2500    0.2500    0.0000
  band No.  band energies     occupation 
      1      -3.3983      2.00000
      2      -2.9532      2.00000
      3      -2.8192      2.00000
      4      -2.8192      2.00000
      5      -2.8120      2.00000
      6      -2.8120      2.00000
      7      -2.6056      2.00000
      8      -2.2369      2.00000
      9      -1.8089      2.00000
     10      -1.7922      2.00000
     11      -1.5271      2.00000
     12      -1.5271      2.00000
     13      -1.4345      2.00000
     14      -1.4277      2.00000
     15      -1.0538      2.00000
     16      -1.0071      2.00000
     17      -0.8559      2.00000
     18      -0.8559      2.00000
     19      -0.7568      2.00000
     20      -0.7568      2.00000
     21      -0.6756      2.00000
     22       2.4892      0.00000
     23       2.4892      0.00000
     24       6.2751      0.00000
     25       7.0680      0.00000
     26       8.5772      0.00000
     27      11.1702      0.00000
     28      11.1702      0.00000

 k-point  20 :       0.3333    0.2500    0.0000
  band No.  band energies     occupation 
      1      -3.0832      2.00000
      2      -2.8423      2.00000
      3      -2.7289      2.00000
      4      -2.6733      2.00000
      5      -2.6526      2.00000
      6      -2.6428      2.00000
      7      -2.4354      2.00000
      8      -2.3030      2.00000
      9      -1.8395      2.00000
     10      -1.8142      2.00000
     11      -1.7132      2.00000
     12      -1.6882      2.00000
     13      -1.6706      2.00000
     14      -1.4386      2.00000
     15      -1.1627      2.00000
     16      -1.0015      2.00000
     17      -0.9471      2.00000
     18      -0.9166      2.00000
     19      -0.8106      2.00000
     20      -0.7601      2.00000
     21      -0.7269      2.00000
     22       1.4783      2.00000
     23       3.0796      0.00000
     24       6.1227      0.00000
     25       6.9554      0.00000
     26       8.7447      0.00000
     27      10.4752      0.00000
     28      10.5158      0.00000

 k-point  21 :       0.4167    0.2500    0.0000
  band No.  band energies     occupation 
      1      -2.7709      2.00000
      2      -2.6911      2.00000
      3      -2.6233      2.00000
      4      -2.5531      2.00000
      5      -2.5061      2.00000
      6      -2.4445      2.00000
      7      -2.3992      2.00000
      8      -2.2965      2.00000
      9      -2.0994      2.00000
     10      -1.9373      2.00000
     11      -1.8920      2.00000
     12      -1.8833      2.00000
     13      -1.5374      2.00000
     14      -1.3386      2.00000
     15      -1.2494      2.00000
     16      -1.1521      2.00000
     17      -1.1512      2.00000
     18      -1.0254      2.00000
     19      -0.7621      2.00000
     20      -0.7512      2.00000
     21      -0.5110      2.00000
     22       0.6184      2.00000
     23       3.7352      0.00000
     24       5.2488      0.00000
     25       7.7420      0.00000
     26       9.0239      0.00000
     27       9.5253      0.00000
     28       9.9100      0.00000

 k-point  22 :       0.5000    0.2500    0.0000
  band No.  band energies     occupation 
      1      -2.5603      2.00000
      2      -2.5603      2.00000
      3      -2.5314      2.00000
      4      -2.5314      2.00000
      5      -2.5101      2.00000
      6      -2.5101      2.00000
      7      -2.2252      2.00000
      8      -2.2252      2.00000
[...]
     14      -1.1611      2.00000
     15      -1.1611      2.00000
     16      -1.1611      2.00000
     17      -0.8369      2.00000
     18      -0.8369      2.00000
     19      -0.8369      2.00000
     20      -0.8369      2.00000
     21       1.8895      2.00000
     22       1.8895      2.00000
     23       1.8895      2.00000
     24       1.8895      2.00000
     25       7.0244      0.00000
     26       7.0244      0.00000
     27       7.0244      0.00000
     28       7.0244      0.00000

 k-point  75 :       0.3333    0.3333    0.3333
  band No.  band energies     occupation 
      1      -3.1618      2.00000
      2      -2.9447      2.00000
      3      -2.9447      2.00000
      4      -2.9447      2.00000
      5      -2.2116      2.00000
      6      -2.2116      2.00000
      7      -2.2116      2.00000
      8      -1.9445      2.00000
      9      -1.9445      2.00000
     10      -1.7247      2.00000
     11      -1.7247      2.00000
     12      -1.7247      2.00000
     13      -1.4627      2.00000
     14      -1.4627      2.00000
     15      -1.4627      2.00000
     16      -0.9056      2.00000
     17      -0.9056      2.00000
     18      -0.6004      2.00000
     19      -0.6004      2.00000
     20      -0.6004      2.00000
     21      -0.5551      2.00000
     22       2.8842      0.00000
     23       2.8842      0.00000
     24       2.8842      0.00000
     25       6.4024      0.00000
     26       6.4024      0.00000
     27       6.4024      0.00000
     28       9.4332      0.00000

 k-point  76 :       0.4167    0.3333    0.3333
  band No.  band energies     occupation 
      1      -3.1565      2.00000
      2      -3.0369      2.00000
      3      -2.9823      2.00000
      4      -2.9823      2.00000
      5      -2.2035      2.00000
      6      -2.2035      2.00000
      7      -2.1299      2.00000
      8      -1.9885      2.00000
      9      -1.9465      2.00000
     10      -1.8330      2.00000
     11      -1.7935      2.00000
     12      -1.7935      2.00000
     13      -1.3169      2.00000
     14      -1.3022      2.00000
     15      -1.3022      2.00000
     16      -1.0068      2.00000
     17      -0.7724      2.00000
     18      -0.6306      2.00000
     19      -0.6306      2.00000
     20      -0.6136      2.00000
     21       0.1036      2.00000
     22       1.8491      2.00000
     23       3.2446      0.00000
     24       3.2446      0.00000
     25       5.6743      0.00000
     26       5.6743      0.00000
     27       6.9978      0.00000
     28       8.5189      0.00000

 k-point  77 :       0.5000    0.3333    0.3333
  band No.  band energies     occupation 
      1      -3.1119      2.00000
      2      -3.1119      2.00000
      3      -2.9946      2.00000
      4      -2.9946      2.00000
      5      -2.2034      2.00000
      6      -2.2034      2.00000
      7      -2.0519      2.00000
      8      -2.0519      2.00000
      9      -1.9086      2.00000
     10      -1.9086      2.00000
     11      -1.8155      2.00000
     12      -1.8155      2.00000
     13      -1.2328      2.00000
     14      -1.2328      2.00000
     15      -1.1604      2.00000
     16      -1.1604      2.00000
     17      -0.6724      2.00000
     18      -0.6724      2.00000
     19      -0.6539      2.00000
     20      -0.6539      2.00000
     21       0.9186      2.00000
     22       0.9186      2.00000
     23       3.4291      0.00000
     24       3.4291      0.00000
     25       5.3667      0.00000
     26       5.3667      0.00000
     27       7.7060      0.00000
     28       7.7060      0.00000

 k-point  78 :       0.4167    0.4167    0.3333
  band No.  band energies     occupation 
      1      -3.1813      2.00000
      2      -3.0872      2.00000
      3      -3.0872      2.00000
      4      -3.0593      2.00000
      5      -2.1603      2.00000
      6      -2.1276      2.00000
      7      -2.1276      2.00000
      8      -2.0042      2.00000
      9      -1.9832      2.00000
     10      -1.8938      2.00000
     11      -1.8938      2.00000
     12      -1.8772      2.00000
     13      -1.1158      2.00000
     14      -1.1158      2.00000
     15      -1.1147      2.00000
     16      -0.8131      2.00000
     17      -0.8118      2.00000
     18      -0.6470      2.00000
     19      -0.6353      2.00000
     20      -0.6353      2.00000
     21       0.6471      2.00000
     22       2.2868      2.00000
     23       2.2868      2.00000
     24       3.1818      0.00000
     25       5.3216      0.00000
     26       6.1724      0.00000
     27       6.1724      0.00000
     28       7.6172      0.00000

 k-point  79 :       0.5000    0.4167    0.3333
  band No.  band energies     occupation 
      1      -3.1563      2.00000
      2      -3.1563      2.00000
      3      -3.0947      2.00000
      4      -3.0947      2.00000
      5      -2.1352      2.00000
      6      -2.1352      2.00000
      7      -2.0575      2.00000
      8      -2.0575      2.00000
      9      -1.9593      2.00000
     10      -1.9593      2.00000
     11      -1.9112      2.00000
     12      -1.9112      2.00000
     13      -1.0283      2.00000
     14      -1.0283      2.00000
     15      -0.9453      2.00000
     16      -0.9453      2.00000
     17      -0.6939      2.00000
     18      -0.6939      2.00000
     19      -0.6673      2.00000
     20      -0.6673      2.00000
     21       1.4016      2.00000
     22       1.4016      2.00000
     23       2.7850      0.00000
     24       2.7850      0.00000
     25       5.5614      0.00000
     26       5.5614      0.00000
     27       6.8317      0.00000
     28       6.8317      0.00000

 k-point  80 :       0.5000    0.5000    0.3333
  band No.  band energies     occupation 
      1      -3.1499      2.00000
      2      -3.1499      2.00000
      3      -3.1499      2.00000
      4      -3.1499      2.00000
      5      -2.0812      2.00000
      6      -2.0812      2.00000
      7      -2.0812      2.00000
      8      -2.0812      2.00000
      9      -1.9643      2.00000
     10      -1.9643      2.00000
     11      -1.9643      2.00000
     12      -1.9643      2.00000
     13      -0.8825      2.00000
     14      -0.8825      2.00000
     15      -0.8825      2.00000
     16      -0.8825      2.00000
     17      -0.7213      2.00000
     18      -0.7213      2.00000
     19      -0.7213      2.00000
     20      -0.7213      2.00000
     21       2.0486      2.00000
     22       2.0486      2.00000
     23       2.0486      2.00000
     24       2.0486      2.00000
     25       6.1022      0.00000
     26       6.1022      0.00000
     27       6.1022      0.00000
     28       6.1022      0.00000

 k-point  81 :       0.4167    0.4167    0.4167
  band No.  band energies     occupation 
      1      -3.2318      2.00000
      2      -3.1663      2.00000
      3      -3.1663      2.00000
      4      -3.1663      2.00000
      5      -2.1007      2.00000
      6      -2.1007      2.00000
      7      -2.1007      2.00000
      8      -2.0183      2.00000
      9      -2.0183      2.00000
     10      -1.9633      2.00000
     11      -1.9633      2.00000
     12      -1.9633      2.00000
     13      -0.9117      2.00000
     14      -0.9117      2.00000
     15      -0.9117      2.00000
     16      -0.7014      2.00000
     17      -0.7014      2.00000
     18      -0.6158      2.00000
     19      -0.6158      2.00000
     20      -0.6158      2.00000
     21       1.0964      2.00000
     22       2.5160      0.00000
     23       2.5160      0.00000
     24       2.5160      0.00000
     25       5.5003      0.00000
     26       5.5003      0.00000
     27       5.5003      0.00000
     28       6.7454      0.00000

 k-point  82 :       0.5000    0.4167    0.4167
  band No.  band energies     occupation 
      1      -3.2257      2.00000
      2      -3.2257      2.00000
      3      -3.1929      2.00000
      4      -3.1929      2.00000
      5      -2.0894      2.00000
      6      -2.0894      2.00000
      7      -2.0511      2.00000
      8      -2.0511      2.00000
      9      -2.0114      2.00000
     10      -2.0114      2.00000
     11      -1.9888      2.00000
     12      -1.9888      2.00000
     13      -0.8191      2.00000
     14      -0.8191      2.00000
     15      -0.7595      2.00000
     16      -0.7595      2.00000
     17      -0.6343      2.00000
     18      -0.6343      2.00000
     19      -0.6302      2.00000
     20      -0.6302      2.00000
     21       1.7583      2.00000
     22       1.7583      2.00000
     23       2.6261      0.00000
     24       2.6261      0.00000
     25       5.2399      0.00000
     26       5.2399      0.00000
     27       6.0244      0.00000
     28       6.0244      0.00000

 k-point  83 :       0.5000    0.5000    0.4167
  band No.  band energies     occupation 
      1      -3.2375      2.00000
      2      -3.2375      2.00000
      3      -3.2375      2.00000
      4      -3.2375      2.00000
      5      -2.0566      2.00000
      6      -2.0566      2.00000
      7      -2.0566      2.00000
      8      -2.0566      2.00000
      9      -2.0265      2.00000
     10      -2.0265      2.00000
     11      -2.0265      2.00000
     12      -2.0265      2.00000
     13      -0.6901      2.00000
     14      -0.6901      2.00000
     15      -0.6901      2.00000
     16      -0.6901      2.00000
     17      -0.6469      2.00000
     18      -0.6469      2.00000
     19      -0.6469      2.00000
     20      -0.6469      2.00000
     21       2.2176      2.00000
     22       2.2176      2.00000
     23       2.2176      2.00000
     24       2.2176      2.00000
     25       5.4497      0.00000
     26       5.4497      0.00000
     27       5.4497      0.00000
     28       5.4497      0.00000

 k-point  84 :       0.5000    0.5000    0.5000
  band No.  band energies     occupation 
      1      -3.2671      2.00000
      2      -3.2671      2.00000
      3      -3.2671      2.00000
      4      -3.2671      2.00000
      5      -2.0477      2.00000
      6      -2.0477      2.00000
      7      -2.0477      2.00000
      8      -2.0477      2.00000
      9      -2.0477      2.00000
     10      -2.0477      2.00000
     11      -2.0477      2.00000
     12      -2.0477      2.00000
     13      -0.6213      2.00000
     14      -0.6213      2.00000
     15      -0.6213      2.00000
     16      -0.6213      2.00000
     17      -0.6213      2.00000
     18      -0.6213      2.00000
     19      -0.6213      2.00000
     20      -0.6213      2.00000
     21       2.2985      2.00000
     22       2.2985      2.00000
     23       2.2985      2.00000
     24       2.2985      2.00000
     25       5.2028      0.00000
     26       5.2028      0.00000
     27       5.2028      0.00000
     28       5.2028      0.00000


--------------------------------------------------------------------------------------------------------


 soft charge-density along one line, spin component           1
         0         1         2         3         4         5         6         7         8         9
 total charge-density along one line
 
 pseudopotential strength for first ion, spin component:           1
-12.462  -0.000   0.000  -0.000  -0.000   0.186   0.000  -0.000
 -0.000 -12.462   0.000  -0.000   0.000   0.000   0.186  -0.000
  0.000   0.000 -12.454   0.000   0.000  -0.000  -0.000   0.185
 -0.000  -0.000   0.000 -12.462  -0.000   0.000   0.000  -0.000
 -0.000   0.000   0.000  -0.000 -12.454   0.000  -0.000  -0.000
  0.186   0.000  -0.000   0.000   0.000   0.447  -0.000   0.000
  0.000   0.186  -0.000   0.000  -0.000  -0.000   0.447   0.000
 -0.000  -0.000   0.185  -0.000  -0.000   0.000   0.000   0.447
  0.000   0.000  -0.000   0.186   0.000  -0.000  -0.000   0.000
  0.000  -0.000  -0.000   0.000   0.185  -0.000   0.000   0.000
  0.000   0.000  -0.000   0.000   0.000  -0.000  -0.000   0.000
 -0.000  -0.000   0.000  -0.000  -0.000   0.000   0.000  -0.000
  0.000  -0.000   0.000   0.000   0.000  -0.000   0.000  -0.000
  0.000  -0.000  -0.000   0.000  -0.000  -0.000   0.000   0.000
 -0.000   0.000  -0.000  -0.000   0.000   0.000  -0.000   0.000
 -0.000   0.000  -0.000  -0.000  -0.000   0.000  -0.000   0.000
 -0.000   0.000   0.000  -0.000   0.000   0.000  -0.000  -0.000
  0.000  -0.000   0.000   0.000  -0.000  -0.000   0.000  -0.000
 total augmentation occupancy for first ion, spin component:           1
  1.916  -0.005  -0.001   0.002  -0.009  -0.024   0.003  -0.010  -0.004   0.009   0.014  -0.013  -0.000  -0.000  -0.000   0.000
 -0.005   1.967  -0.002  -0.007  -0.000   0.003  -0.051   0.004   0.006  -0.005   0.042  -0.003   0.000   0.000  -0.000   0.000
 -0.001  -0.002   1.943   0.003  -0.018  -0.010   0.004  -0.038  -0.002   0.018  -0.047  -0.035   0.000   0.000  -0.000   0.000
  0.002  -0.007   0.003   1.947  -0.002  -0.004   0.006  -0.002  -0.026   0.006   0.016  -0.005   0.000   0.000   0.000   0.000
 -0.009  -0.000  -0.018  -0.002   1.983   0.009  -0.005   0.018   0.006  -0.073   0.070   0.017   0.000   0.000   0.000   0.000
 -0.024   0.003  -0.010  -0.004   0.009   0.075  -0.001   0.017   0.005  -0.008   0.020   0.018  -0.000   0.000   0.000   0.000
  0.003  -0.051   0.004   0.006  -0.005  -0.001   0.057  -0.004  -0.004   0.008  -0.019   0.011  -0.000   0.000   0.000   0.000
 -0.010   0.004  -0.038  -0.002   0.018   0.017  -0.004   0.055   0.001  -0.005   0.092  -0.009   0.000   0.000   0.000   0.000
 -0.004   0.006  -0.002  -0.026   0.006   0.005  -0.004   0.001   0.043  -0.009   0.001   0.009  -0.000   0.000   0.000  -0.000
  0.009  -0.005   0.018   0.006  -0.073  -0.008   0.008  -0.005  -0.009   0.042  -0.072   0.014   0.000   0.000   0.000  -0.000
  0.014   0.042  -0.047   0.016   0.070   0.020  -0.019   0.092   0.001  -0.072   0.974  -0.303   0.000   0.000  -0.000   0.000
 -0.013  -0.003  -0.035  -0.005   0.017   0.018   0.011  -0.009   0.009   0.014  -0.303   0.144   0.000   0.000  -0.000  -0.000
 -0.000   0.000   0.000   0.000   0.000  -0.000  -0.000   0.000  -0.000   0.000   0.000   0.000   0.077   0.016  -0.008  -0.004
 -0.000   0.000   0.000   0.000   0.000   0.000   0.000   0.000   0.000   0.000   0.000   0.000   0.016   0.053  -0.000  -0.001
 -0.000  -0.000  -0.000   0.000   0.000   0.000   0.000   0.000   0.000   0.000  -0.000  -0.000  -0.008  -0.000   0.137  -0.000
  0.000   0.000   0.000   0.000   0.000   0.000   0.000   0.000  -0.000  -0.000   0.000  -0.000  -0.004  -0.001  -0.000   0.000
 -0.000  -0.000  -0.000   0.000   0.000   0.000   0.000   0.000   0.000  -0.000  -0.000   0.000  -0.001  -0.003  -0.000   0.000
 -0.000  -0.000  -0.000   0.000   0.000   0.000   0.000  -0.000   0.000   0.000  -0.000   0.000  -0.000  -0.000  -0.007   0.000


------------------------ aborting loop because EDIFF is reached ----------------------------------------




--------------------------------------------------------------------------------------------------------


    CHARGE:  VPU time    1.25: CPU time    1.25
    FORLOC:  VPU time    0.00: CPU time    0.00
    FORNL :  VPU time    3.01: CPU time    3.02
    STRESS:  VPU time    7.75: CPU time    7.77
    FORCOR:  VPU time    0.15: CPU time    0.15
    FORHAR:  VPU time    0.03: CPU time    0.04
    MIXING:  VPU time    0.01: CPU time    0.01


--------------------------------------------------------------------------------------------------------



  FREE ENERGIE OF THE ION-ELECTRON SYSTEM (eV)
  ---------------------------------------------------
  free  energy   TOTEN  =       -11.177090 eV

  energy  without entropy=      -11.177050  energy(sigma->0) =      -11.177070
 

  FORCE on cell =-STRESS in cart. coord.  units (eV/reduce length):
  Direction    X        Y        Z        XY       YZ       ZX
  --------------------------------------------------------------------------------------
  Alpha Z    360.34    360.34    360.34
  Ewald    -1241.97  -1241.97  -1241.97     -0.00      0.00      0.00
  Hartree    285.56    285.56    285.56     -0.00     -0.00     -0.00
  E(xc)     -231.80   -231.80   -231.80      0.00     -0.00     -0.00
  Local      382.59    382.59    382.59      0.00     -0.00      0.00
  n-local   -262.87   -270.12   -272.18      0.16      2.15      0.60
  augment    167.25    167.25    167.25     -0.00     -0.00     -0.00
  Kinetic    550.70    542.08    537.43     -2.71      0.80     -0.94
  -------------------------------------------------------------------------------------
  Total       -3.02     -3.02     -3.02      0.00      0.00     -0.00
  in kB      -61.28    -61.28    -61.28      0.00      0.00     -0.00
  external pressure =      -61.28 kB  Pullay stress =        0.00 kB


 VOLUME and BASIS-vectors are now :
 -----------------------------------------------------------------------------
  energy-cutoff  :      750.00
  volume of cell :       78.85
      direct lattice vectors                 reciprocal lattice vectors
     4.288121525  0.000000000  0.000000000     0.233202346  0.000000000  0.000000000
     0.000000000  4.288121525  0.000000000     0.000000000  0.233202346  0.000000000
     0.000000000  0.000000000  4.288121525     0.000000000  0.000000000  0.233202346

  length of vectors
     4.288121525  4.288121525  4.288121525     0.233202346  0.233202346  0.233202346


 FORCES acting on ions
    electron-ion (+dipol)            ewald-force                    non-local-force                 convergence-correction
 -----------------------------------------------------------------------------------------------
   0.877E-14 0.542E-14 0.186E-14   -.990E-14 -.181E-14 -.109E-13   0.129E-25 -.242E-25 0.186E-25   -.516E-13 -.832E-13 -.875E-13
   -.766E-13 -.722E-12 -.276E-11   0.581E-14 0.110E-13 -.110E-13   0.517E-25 -.517E-25 0.291E-25   0.392E-13 0.472E-13 -.891E-13
   -.747E-13 0.219E-14 -.342E-11   0.250E-14 -.906E-14 0.117E-13   0.129E-25 0.582E-25 0.420E-25   0.329E-13 -.842E-13 0.522E-13
   0.973E-14 -.795E-13 -.847E-13   0.220E-14 0.375E-14 0.115E-13   0.905E-25 0.000E+00 0.969E-26   -.471E-13 0.360E-13 0.408E-13
 -----------------------------------------------------------------------------------------------
   -.133E-12 -.794E-12 -.627E-11   0.610E-15 0.389E-14 0.134E-14   0.168E-24 -.178E-25 0.994E-25   -.266E-13 -.842E-13 -.836E-13
 
 
 POSITION                                       TOTAL-FORCE (eV/Angst)
 -----------------------------------------------------------------------------------
      0.00000      0.00000      0.00000         0.000000      0.000000     -0.000000
      2.14406      2.14406      0.00000        -0.000000     -0.000000      0.000000
      2.14406      0.00000      2.14406         0.000000     -0.000000      0.000000
      0.00000      2.14406      2.14406         0.000000      0.000000      0.000000
 -----------------------------------------------------------------------------------
    total drift:                               -0.000000     -0.000000     -0.000000


--------------------------------------------------------------------------------------------------------



 mean value of Nose-termostat <S>:     1.000 mean value of <T> :     0.000
 mean temperature <T/S>/<1/S>  :     0.000

     LOOP+:  VPU time  190.71: CPU time  191.01
  
  
 General timing and accounting informations for this job:
 ========================================================
  
                  Total CPU time used (sec):      193.683
                            User time (sec):      177.280
                          System time (sec):       16.403
                         Elapsed time (sec):      193.990
  
                   Maximum memory used (kb):      492612.
                   Average memory used (kb):           0.
  
                          Minor page faults:       186947
                          Major page faults:            0
                 Voluntary context switches:          876
