<?xml version="1.0" encoding="ISO-8859-1"?>
<modeling>
 <generator>
  <i name="program" type="string">vasp</i>
  <i name="version" type="string">4.6.28 </i>
  <i name="subversion" type="string">25Jul05 complex  parallel</i>
  <i name="platform" type="string">LinuxIFC</i>
  <i name="date" type="string">2017 01 06</i>
  <i name="time" type="string">05:41:51</i>
 </generator>
 <incar>
  <i type="string" name="PREC">accurate</i>
  <i type="int" name="IALGO">    38</i>
  <i type="logical" name="ADDGRID"> T  </i>
  <i name="EDIFF">      0.00000001</i>
  <i type="int" name="IBRION">    -1</i>
  <i name="ENCUT">    750.00000000</i>
  <i type="logical" name="LREAL"> F  </i>
  <i type="int" name="ISMEAR">     0</i>
  <i name="SIGMA">      0.01000000</i>
  <i type="logical" name="LWAVE"> F  </i>
  <i type="logical" name="LCHARG"> F  </i>
 </incar>
 <kpoints>
  <generation param="Gamma">
   <v type="int" name="divisions">      12      12      12</v>
   <v name="usershift">      0.00000000      0.00000000      0.00000000</v>
   <v name="genvec1">      0.08333333      0.00000000      0.00000000</v>
   <v name="genvec2">      0.00000000      0.08333333      0.00000000</v>
   <v name="genvec3">      0.00000000      0.00000000      0.08333333</v>
   <v name="shift">      0.00000000      0.00000000      0.00000000</v>
  </generation>
  <varray name="kpointlist" >
   <v>       0.00000000      0.00000000      0.00000000</v>
   <v>       0.08333333      0.00000000      0.00000000</v>
   <v>       0.16666667      0.00000000      0.00000000</v>
   <v>       0.25000000      0.00000000      0.00000000</v>
   <v>       0.33333333      0.00000000      0.00000000</v>
   <v>       0.41666667      0.00000000      0.00000000</v>
   <v>       0.50000000      0.00000000      0.00000000</v>
   <v>       0.08333333      0.08333333      0.00000000</v>
   <v>       0.16666667      0.08333333      0.00000000</v>
   <v>       0.25000000      0.08333333      0.00000000</v>
   <v>       0.33333333      0.08333333      0.00000000</v>
   <v>       0.41666667      0.08333333      0.00000000</v>
   <v>       0.50000000      0.08333333      0.00000000</v>
   <v>       0.16666667      0.16666667      0.00000000</v>
   <v>       0.25000000      0.16666667      0.00000000</v>
   <v>       0.33333333      0.16666667      0.00000000</v>
   <v>       0.41666667      0.16666667      0.00000000</v>
   <v>       0.50000000      0.16666667      0.00000000</v>
   <v>       0.25000000      0.25000000      0.00000000</v>
   <v>       0.33333333      0.25000000      0.00000000</v>
   <v>       0.41666667      0.25000000      0.00000000</v>
   <v>       0.50000000      0.25000000      0.00000000</v>
   <v>       0.33333333      0.33333333      0.00000000</v>
   <v>       0.41666667      0.33333333      0.00000000</v>
   <v>       0.50000000      0.33333333      0.00000000</v>
   <v>       0.41666667      0.41666667      0.00000000</v>
   <v>       0.50000000      0.41666667      0.00000000</v>
   <v>       0.50000000      0.50000000      0.00000000</v>
   <v>       0.08333333      0.08333333      0.08333333</v>
   <v>       0.16666667      0.08333333      0.08333333</v>
   <v>       0.25000000      0.08333333      0.08333333</v>
   <v>       0.33333333      0.08333333      0.08333333</v>
   <v>       0.41666667      0.08333333      0.08333333</v>
   <v>       0.50000000      0.08333333      0.08333333</v>
   <v>       0.16666667      0.16666667      0.08333333</v>
   <v>       0.25000000      0.16666667      0.08333333</v>
   <v>       0.33333333      0.16666667      0.08333333</v>
   <v>       0.41666667      0.16666667      0.08333333</v>
   <v>       0.50000000      0.16666667      0.08333333</v>
   <v>       0.25000000      0.25000000      0.08333333</v>
   <v>       0.33333333      0.25000000      0.08333333</v>
   <v>       0.41666667      0.25000000      0.08333333</v>
   <v>       0.50000000      0.25000000      0.08333333</v>
   <v>       0.33333333      0.33333333      0.08333333</v>
   <v>       0.41666667      0.33333333      0.08333333</v>
   <v>       0.50000000      0.33333333      0.08333333</v>
   <v>       0.41666667      0.41666667      0.08333333</v>
   <v>       0.50000000      0.41666667      0.08333333</v>
   <v>       0.50000000      0.50000000      0.08333333</v>
   <v>       0.16666667      0.16666667      0.16666667</v>
   <v>       0.25000000      0.16666667      0.16666667</v>
   <v>       0.33333333      0.16666667      0.16666667</v>
   <v>       0.41666667      0.16666667      0.16666667</v>
   <v>       0.50000000      0.16666667      0.16666667</v>
   <v>       0.25000000      0.25000000      0.16666667</v>
   <v>       0.33333333      0.25000000      0.16666667</v>
   <v>       0.41666667      0.25000000      0.16666667</v>
   <v>       0.50000000      0.25000000      0.16666667</v>
   <v>       0.33333333      0.33333333      0.16666667</v>
   <v>       0.41666667      0.33333333      0.16666667</v>
   <v>       0.50000000      0.33333333      0.16666667</v>
   <v>       0.41666667      0.41666667      0.16666667</v>
   <v>       0.50000000      0.41666667      0.16666667</v>
   <v>       0.50000000      0.50000000      0.16666667</v>
   <v>       0.25000000      0.25000000      0.25000000</v>
   <v>       0.33333333      0.25000000      0.25000000</v>
   <v>       0.41666667      0.25000000      0.25000000</v>
   <v>       0.50000000      0.25000000      0.25000000</v>
   <v>       0.33333333      0.33333333      0.25000000</v>
   <v>       0.41666667      0.33333333      0.25000000</v>
   <v>       0.50000000      0.33333333      0.25000000</v>
   <v>       0.41666667      0.41666667      0.25000000</v>
   <v>       0.50000000      0.41666667      0.25000000</v>
   <v>       0.50000000      0.50000000      0.25000000</v>
   <v>       0.33333333      0.33333333      0.33333333</v>
   <v>       0.41666667      0.33333333      0.33333333</v>
   <v>       0.50000000      0.33333333      0.33333333</v>
   <v>       0.41666667      0.41666667      0.33333333</v>
   <v>       0.50000000      0.41666667      0.33333333</v>
   <v>       0.50000000      0.50000000      0.33333333</v>
   <v>       0.41666667      0.41666667      0.41666667</v>
   <v>       0.50000000      0.41666667      0.41666667</v>
   <v>       0.50000000      0.50000000      0.41666667</v>
   <v>       0.50000000      0.50000000      0.50000000</v>
  </varray>
  <varray name="weights" >
   <v>       0.00057870</v>
   <v>       0.00347222</v>
   <v>       0.00347222</v>
   <v>       0.00347222</v>
   <v>       0.00347222</v>
   <v>       0.00347222</v>
   <v>       0.00173611</v>
   <v>       0.00694444</v>
   <v>       0.01388889</v>
   <v>       0.01388889</v>
   <v>       0.01388889</v>
   <v>       0.01388889</v>
   <v>       0.00694444</v>
   <v>       0.00694444</v>
   <v>       0.01388889</v>
   <v>       0.01388889</v>
   <v>       0.01388889</v>
   <v>       0.00694444</v>
   <v>       0.00694444</v>
   <v>       0.01388889</v>
   <v>       0.01388889</v>
   <v>       0.00694444</v>
   <v>       0.00694444</v>
   <v>       0.01388889</v>
   <v>       0.00694444</v>
   <v>       0.00694444</v>
   <v>       0.00694444</v>
   <v>       0.00173611</v>
   <v>       0.00462963</v>
   <v>       0.01388889</v>
   <v>       0.01388889</v>
   <v>       0.01388889</v>
   <v>       0.01388889</v>
   <v>       0.00694444</v>
   <v>       0.01388889</v>
   <v>       0.02777778</v>
   <v>       0.02777778</v>
   <v>       0.02777778</v>
   <v>       0.01388889</v>
   <v>       0.01388889</v>
   <v>       0.02777778</v>
   <v>       0.02777778</v>
   <v>       0.01388889</v>
   <v>       0.01388889</v>
   <v>       0.02777778</v>
   <v>       0.01388889</v>
   <v>       0.01388889</v>
   <v>       0.01388889</v>
   <v>       0.00347222</v>
   <v>       0.00462963</v>
   <v>       0.01388889</v>
   <v>       0.01388889</v>
   <v>       0.01388889</v>
   <v>       0.00694444</v>
   <v>       0.01388889</v>
   <v>       0.02777778</v>
   <v>       0.02777778</v>
   <v>       0.01388889</v>
   <v>       0.01388889</v>
   <v>       0.02777778</v>
   <v>       0.01388889</v>
   <v>       0.01388889</v>
   <v>       0.01388889</v>
   <v>       0.00347222</v>
   <v>       0.00462963</v>
   <v>       0.01388889</v>
   <v>       0.01388889</v>
   <v>       0.00694444</v>
   <v>       0.01388889</v>
   <v>       0.02777778</v>
   <v>       0.01388889</v>
   <v>       0.01388889</v>
   <v>       0.01388889</v>
   <v>       0.00347222</v>
   <v>       0.00462963</v>
   <v>       0.01388889</v>
   <v>       0.00694444</v>
   <v>       0.01388889</v>
   <v>       0.01388889</v>
   <v>       0.00347222</v>
   <v>       0.00462963</v>
   <v>       0.00694444</v>
   <v>       0.00347222</v>
   <v>       0.00057870</v>
  </varray>
 </kpoints>
 <parameters>
  <separator name="general" >
   <i type="string" name="SYSTEM">unknown system</i>
   <i type="logical" name="LCOMPAT"> F  </i>
  </separator>
  <separator name="electronic" >
   <i type="string" name="PREC">accura</i>
   <i name="ENMAX">    750.00000000</i>
   <i name="ENAUG">    412.49600000</i>
   <i name="EDIFF">      0.00000001</i>
   <i type="int" name="IALGO">    38</i>
   <i type="int" name="IWAVPR">    10</i>
   <i type="int" name="NBANDS">    26</i>
   <i name="NELECT">     44.00000000</i>
   <separator name="electronic smearing" >
    <i type="int" name="ISMEAR">     0</i>
    <i name="SIGMA">      0.01000000</i>
   </separator>
   <separator name="electronic projectors" >
    <i type="logical" name="LREAL"> F  </i>
    <v name="ROPT">      0.00000000</v>
    <i type="int" name="LMAXPAW">  -100</i>
    <i type="int" name="LMAXMIX">     2</i>
   </separator>
   <separator name="electronic startup" >
    <i type="int" name="ISTART">     0</i>
    <i type="int" name="ICHARG">     2</i>
    <i type="int" name="INIWAV">     1</i>
   </separator>
   <separator name="electronic spin" >
    <i type="int" name="ISPIN">     1</i>
    <i type="logical" name="LNONCOLLINEAR"> F  </i>
    <v name="MAGMOM">      1.00000000      1.00000000      1.00000000      1.00000000</v>
    <i name="NUPDOWN">     -1.00000000</i>
    <i type="logical" name="LSORBIT"> F  </i>
    <v name="SAXIS">      0.00000000      0.00000000      1.00000000</v>
    <i type="logical" name="LSPIRAL"> F  </i>
    <v name="QSPIRAL">      0.00000000      0.00000000      0.00000000</v>
    <i type="logical" name="LZEROZ"> F  </i>
   </separator>
   <separator name="electronic exchange-correlation" >
    <i type="string" name="GGA">--</i>
    <i type="int" name="VOSKOWN">     0</i>
    <i type="logical" name="LASPH"> F  </i>
    <i type="logical" name="LMETAGGA"> F  </i>
    <i type="string" name="GGA2">--</i>
   </separator>
   <separator name="electronic convergence" >
    <i type="int" name="NELM">    60</i>
    <i type="int" name="NELMDL">    -5</i>
    <i type="int" name="NELMIN">     2</i>
    <i name="ENINI">    750.00000000</i>
    <separator name="electronic convergence detail" >
     <i type="logical" name="LDIAG"> T  </i>
     <i name="WEIMIN">      0.00000000</i>
     <i name="EBREAK">      0.00000000</i>
     <i name="DEPER">      0.30000000</i>
     <i type="int" name="NRMM">     4</i>
     <i name="TIME">      0.10000000</i>
    </separator>
   </separator>
   <separator name="electronic mixer" >
    <i name="AMIX">      0.40000000</i>
    <i name="BMIX">      1.00000000</i>
    <i name="AMIN">      0.10000000</i>
    <i name="AMIX_MAG">      1.60000000</i>
    <i name="BMIX_MAG">      1.00000000</i>
    <separator name="electronic mixer details" >
     <i type="int" name="IMIX">     4</i>
     <i type="int" name="MAXMIX">   -45</i>
     <i name="WC">    100.00000000</i>
     <i type="int" name="INIMIX">     1</i>
     <i type="int" name="MIXPRE">     1</i>
     <i type="int" name="MREMOVE">     5</i>
    </separator>
   </separator>
   <separator name="electronic dipolcorrection" >
    <i type="int" name="IDIPOL">     0</i>
    <i type="logical" name="LDIPOL"> F  </i>
    <v name="DIPOL">   -100.00000000</v>
    <i name="EFIELD">      0.00000000</i>
   </separator>
  </separator>
  <separator name="grids" >
   <i type="int" name="NGX">    40</i>
   <i type="int" name="NGY">    40</i>
   <i type="int" name="NGZ">    40</i>
   <i type="int" name="NGXF">    80</i>
   <i type="int" name="NGYF">    80</i>
   <i type="int" name="NGZF">    80</i>
   <i type="logical" name="ADDGRID"> T  </i>
  </separator>
  <separator name="ionic" >
   <i type="int" name="NSW">     0</i>
   <i type="int" name="IBRION">    -1</i>
   <i type="int" name="ISIF">     2</i>
   <i name="PSTRESS">      0.00000000</i>
   <i name="EDIFFG">      0.00000010</i>
   <i type="int" name="NFREE">     0</i>
   <i name="POTIM">      0.50000000</i>
   <i name="SMASS">     -3.00000000</i>
  </separator>
  <separator name="ionic md" >
   <i name="TEBEG">      0.00010000</i>
   <i name="TEEND">      0.00010000</i>
   <i type="int" name="NBLOCK">     1</i>
   <i type="int" name="KBLOCK">     1</i>
   <i type="int" name="NPACO">   256</i>
   <i name="APACO">     16.00000000</i>
  </separator>
  <separator name="symmetry" >
   <i type="int" name="ISYM">     2</i>
   <i name="SYMPREC">      0.00001000</i>
  </separator>
  <separator name="dos" >
   <i type="logical" name="LORBIT"> F  </i>
   <v name="RWIGS">     -1.00000000</v>
   <i type="int" name="NEDOS">   301</i>
   <i name="EMIN">     10.00000000</i>
   <i name="EMAX">    -10.00000000</i>
  </separator>
  <separator name="writing" >
   <i type="int" name="NWRITE">     2</i>
   <i type="logical" name="LWAVE"> F  </i>
   <i type="logical" name="LCHARG"> F  </i>
   <i type="logical" name="LPARD"> F  </i>
   <i type="logical" name="LVTOT"> F  </i>
   <i type="logical" name="LELF"> F  </i>
   <i type="logical" name="LOPTICS"> F  </i>
   <i name="STM">      0.00000000</i>
  </separator>
  <separator name="performance" >
   <i type="int" name="NPAR">     4</i>
   <i type="int" name="NSIM">     4</i>
   <i type="int" name="NBLK">   256</i>
   <i type="logical" name="LPLANE"> T  </i>
   <i type="logical" name="LCRITICAL_MEM"> F  </i>
   <i type="logical" name="LSCALAPACK"> F  </i>
   <i type="logical" name="LSCALU"> F  </i>
   <i type="logical" name="LASYNC"> F  </i>
  </separator>
  <separator name="miscellaneous" >
   <i type="int" name="IDIOT">     3</i>
   <i type="logical" name="LMUSIC"> F  </i>
   <v name="POMASS">    107.86800000</v>
   <i type="logical" name="LCORR"> T  </i>
  </separator>
  <i type="logical" name="LREAL_COMPAT"> F  </i>
  <i type="logical" name="GGA_COMPAT"> T  </i>
  <i type="logical" name="LBERRY"> F  </i>
  <i type="int" name="ICORELEVEL">     0</i>
  <i type="logical" name="LDAU"> F  </i>
  <i type="int" name="I_CONSTRAINED_M">     0</i>
 </parameters>
 <atominfo>
  <atoms>       4</atoms>
  <types>       1</types>
  <array name="atoms" >
   <dimension dim="1">ion</dimension>
   <field type="string">element</field>
   <field type="int">atomtype</field>
   <set>
    <rc><c>Ag</c><c>   1</c></rc>
    <rc><c>Ag</c><c>   1</c></rc>
    <rc><c>Ag</c><c>   1</c></rc>
    <rc><c>Ag</c><c>   1</c></rc>
   </set>
  </array>
  <array name="atomtypes" >
   <dimension dim="1">type</dimension>
   <field type="int">atomspertype</field>
   <field type="string">element</field>
   <field>mass</field>
   <field>valence</field>
   <field type="string">pseudopotential</field>
   <set>
    <rc><c>   4</c><c>Ag</c><c>    107.86800000</c><c>     11.00000000</c><c> PAW_PBE Ag 06Sep2000                   </c></rc>
   </set>
  </array>
 </atominfo>
 <structure name="initialpos" >
  <crystal>
   <varray name="basis" >
    <v>       4.28812153      0.00000000      0.00000000</v>
    <v>       0.00000000      4.28812153      0.00000000</v>
    <v>       0.00000000      0.00000000      4.28812153</v>
   </varray>
   <i name="volume">     78.84991949</i>
   <varray name="rec_basis" >
    <v>       0.23320235      0.00000000      0.00000000</v>
    <v>       0.00000000      0.23320235      0.00000000</v>
    <v>       0.00000000      0.00000000      0.23320235</v>
   </varray>
  </crystal>
  <varray name="positions" >
   <v>       0.00000000      0.00000000      0.00000000</v>
   <v>       0.50000000      0.50000000      0.00000000</v>
   <v>       0.50000000      0.00000000      0.50000000</v>
   <v>       0.00000000      0.50000000      0.50000000</v>
  </varray>
 </structure>
 <calculation>
  <scstep>
   <time name="dav">   12.57   12.60</time>
   <time name="total">   13.07   13.10</time>
   <energy>
    <i name="alphaZ">    360.33560294</i>
    <i name="ewald">  -3725.89519346</i>
    <i name="hartreedc">   -900.94782261</i>
    <i name="XCdc">    -44.26514104</i>
    <i name="pawpsdc">   3482.67677651</i>
    <i name="pawaedc">  -3297.07979946</i>
    <i name="eentropy">     -0.00018226</i>
    <i name="bandstr">    440.30557031</i>
    <i name="atom">   4149.64961272</i>
    <i name="e_fr_energy">    464.77942364</i>
    <i name="e_wo_entrp">    464.77960590</i>
    <i name="e_0_energy">    464.77951477</i>
   </energy>
  </scstep>
  <scstep>
   <time name="dav">   12.59   12.60</time>
   <time name="total">   12.60   12.61</time>
   <energy>
    <i name="e_fr_energy">      3.78317112</i>
    <i name="e_wo_entrp">      3.78321166</i>
    <i name="e_0_energy">      3.78319139</i>
   </energy>
  </scstep>
  <scstep>
   <time name="dav">   13.29   13.31</time>
   <time name="total">   13.30   13.32</time>
   <energy>
    <i name="e_fr_energy">    -11.83188567</i>
    <i name="e_wo_entrp">    -11.83184508</i>
    <i name="e_0_energy">    -11.83186538</i>
   </energy>
  </scstep>
  <scstep>
   <time name="dav">   13.02   13.04</time>
   <time name="total">   13.03   13.04</time>
   <energy>
    <i name="e_fr_energy">    -11.94848387</i>
    <i name="e_wo_entrp">    -11.94844340</i>
    <i name="e_0_energy">    -11.94846363</i>
   </energy>
  </scstep>
  <scstep>
   <time name="dav">   12.69   12.70</time>
   <time name="total">   14.11   14.13</time>
   <energy>
    <i name="e_fr_energy">    -11.94893632</i>
    <i name="e_wo_entrp">    -11.94889585</i>
    <i name="e_0_energy">    -11.94891609</i>
   </energy>
  </scstep>
  <scstep>
   <time name="dav">    9.05    9.06</time>
   <time name="total">   10.40   10.42</time>
   <energy>
    <i name="e_fr_energy">    -11.19773271</i>
    <i name="e_wo_entrp">    -11.19769228</i>
    <i name="e_0_energy">    -11.19771249</i>
   </energy>
  </scstep>
  <scstep>
   <time name="dav">   11.83   11.83</time>
   <time name="total">   13.39   13.40</time>
   <energy>
    <i name="e_fr_energy">    -11.18383325</i>
    <i name="e_wo_entrp">    -11.18379282</i>
    <i name="e_0_energy">    -11.18381303</i>
   </energy>
  </scstep>
  <scstep>
   <time name="dav">   12.95   12.96</time>
   <time name="total">   14.64   14.66</time>
   <energy>
    <i name="e_fr_energy">    -11.17698513</i>
    <i name="e_wo_entrp">    -11.17694470</i>
    <i name="e_0_energy">    -11.17696491</i>
   </energy>
  </scstep>
  <scstep>
   <time name="dav">   13.05   13.06</time>
   <time name="total">   14.76   14.78</time>
   <energy>
    <i name="e_fr_energy">    -11.17710355</i>
    <i name="e_wo_entrp">    -11.17706312</i>
    <i name="e_0_energy">    -11.17708334</i>
   </energy>
  </scstep>
  <scstep>
   <time name="dav">   12.88   12.90</time>
   <time name="total">   14.66   14.69</time>
   <energy>
    <i name="e_fr_energy">    -11.17709213</i>
    <i name="e_wo_entrp">    -11.17705169</i>
    <i name="e_0_energy">    -11.17707191</i>
   </energy>
  </scstep>
  <scstep>
   <time name="dav">   12.41   12.42</time>
   <time name="total">   14.31   14.33</time>
   <energy>
    <i name="e_fr_energy">    -11.17709085</i>
    <i name="e_wo_entrp">    -11.17705041</i>
    <i name="e_0_energy">    -11.17707063</i>
   </energy>
  </scstep>
  <scstep>
   <time name="dav">    9.01    9.02</time>
   <time name="total">   10.60   10.62</time>
   <energy>
    <i name="e_fr_energy">    -11.17709032</i>
    <i name="e_wo_entrp">    -11.17704989</i>
    <i name="e_0_energy">    -11.17707011</i>
   </energy>
  </scstep>
  <scstep>
   <time name="dav">    8.78    8.81</time>
   <time name="total">   10.53   10.56</time>
   <energy>
    <i name="e_fr_energy">    -11.17709028</i>
    <i name="e_wo_entrp">    -11.17704984</i>
    <i name="e_0_energy">    -11.17707006</i>
   </energy>
  </scstep>
  <scstep>
   <time name="dav">    8.56    8.58</time>
   <time name="total">    9.07    9.09</time>
   <energy>
    <i name="alphaZ">    360.33560294</i>
    <i name="ewald">  -3725.89519346</i>
    <i name="hartreedc">   -856.67031732</i>
    <i name="XCdc">    -45.91761422</i>
    <i name="pawpsdc">   3448.95487048</i>
    <i name="pawaedc">  -3270.10093183</i>
    <i name="eentropy">     -0.00004043</i>
    <i name="bandstr">    -71.53307915</i>
    <i name="atom">   4149.64961272</i>
    <i name="e_fr_energy">    -11.17709028</i>
    <i name="e_wo_entrp">    -11.17704984</i>
    <i name="e_0_energy">    -11.17707006</i>
   </energy>
  </scstep>
  <structure>
   <crystal>
    <varray name="basis" >
     <v>       4.28812153      0.00000000      0.00000000</v>
     <v>       0.00000000      4.28812153      0.00000000</v>
     <v>       0.00000000      0.00000000      4.28812153</v>
    </varray>
    <i name="volume">     78.84991949</i>
    <varray name="rec_basis" >
     <v>       0.23320235      0.00000000      0.00000000</v>
     <v>       0.00000000      0.23320235      0.00000000</v>
     <v>       0.00000000      0.00000000      0.23320235</v>
    </varray>
   </crystal>
   <varray name="positions" >
    <v>       0.00000000      0.00000000      0.00000000</v>
    <v>       0.50000000      0.50000000      0.00000000</v>
    <v>       0.50000000      0.00000000      0.50000000</v>
    <v>       0.00000000      0.50000000      0.50000000</v>
   </varray>
  </structure>
  <varray name="forces" >
   <v>       0.00000000      0.00000000     -0.00000000</v>
   <v>      -0.00000000     -0.00000000      0.00000000</v>
   <v>       0.00000000     -0.00000000      0.00000000</v>
   <v>       0.00000000      0.00000000      0.00000000</v>
  </varray>
  <varray name="stress" >
   <v>     -61.28496778     -0.00000000     -0.00000000</v>
   <v>       0.00000000    -61.28496778      0.00000000</v>
   <v>      -0.00000000      0.00000000    -61.28496778</v>
  </varray>
  <energy>
   <i name="e_fr_energy">    -11.17709028</i>
   <i name="e_wo_entrp">    -11.17707006</i>
   <i name="e_0_energy">     -0.00004043</i>
  </energy>
  <eigenvalues>
   <array>
    <dimension dim="1">band</dimension>
    <dimension dim="2">kpoint</dimension>
    <dimension dim="3">spin</dimension>
    <field>eigene</field>
    <field>occ</field>
    <set>
     <set comment="spin 1">
      <set comment="kpoint 1">
       <r>  -4.4380  1.0000</r>
       <r>  -3.2855  1.0000</r>
       <r>  -3.2855  1.0000</r>
       <r>  -3.2855  1.0000</r>
       <r>  -3.1957  1.0000</r>
       <r>  -3.1957  1.0000</r>
       <r>  -3.1957  1.0000</r>
       <r>  -2.0355  1.0000</r>
       <r>  -2.0355  1.0000</r>
       <r>  -2.0355  1.0000</r>
       <r>  -1.2375  1.0000</r>
       <r>  -1.2375  1.0000</r>
       <r>  -0.6477  1.0000</r>
       <r>  -0.6477  1.0000</r>
       <r>  -0.6477  1.0000</r>
       <r>  -0.4616  1.0000</r>
       <r>  -0.4616  1.0000</r>
       <r>  -0.4616  1.0000</r>
       <r>  -0.4616  1.0000</r>
       <r>  -0.4616  1.0000</r>
       <r>  -0.4616  1.0000</r>
       <r>   4.0704  0.0000</r>
       <r>   4.0704  0.0000</r>
       <r>   4.0704  0.0000</r>
       <r>   8.0267  0.0000</r>
       <r>   8.0267  0.0000</r>
       <r>   8.0267  0.0000</r>
       <r>  12.3921  0.0000</r>
      </set>
      <set comment="kpoint 2">
       <r>  -4.3731  1.0000</r>
       <r>  -3.2613  1.0000</r>
       <r>  -3.2541  1.0000</r>
       <r>  -3.2541  1.0000</r>
       <r>  -3.1776  1.0000</r>
       <r>  -3.1678  1.0000</r>
       <r>  -3.1678  1.0000</r>
       <r>  -2.0572  1.0000</r>
       <r>  -2.0145  1.0000</r>
       <r>  -2.0145  1.0000</r>
       <r>  -1.2590  1.0000</r>
       <r>  -1.2278  1.0000</r>
       <r>  -0.6762  1.0000</r>
       <r>  -0.6762  1.0000</r>
       <r>  -0.6582  1.0000</r>
       <r>  -0.5579  1.0000</r>
       <r>  -0.5579  1.0000</r>
       <r>  -0.4968  1.0000</r>
       <r>  -0.4968  1.0000</r>
       <r>  -0.4616  1.0000</r>
       <r>  -0.4616  1.0000</r>
       <r>   3.5791  0.0000</r>
       <r>   4.2230  0.0000</r>
       <r>   4.2230  0.0000</r>
       <r>   8.0406  0.0000</r>
       <r>   8.0406  0.0000</r>
       <r>   8.6262  0.0000</r>
       <r>  12.1364  0.0000</r>
      </set>
      <set comment="kpoint 3">
       <r>  -4.1818  1.0000</r>
       <r>  -3.1918  1.0000</r>
       <r>  -3.1642  1.0000</r>
       <r>  -3.1642  1.0000</r>
       <r>  -3.1242  1.0000</r>
       <r>  -3.0844  1.0000</r>
       <r>  -3.0844  1.0000</r>
       <r>  -2.1203  1.0000</r>
       <r>  -1.9521  1.0000</r>
       <r>  -1.9521  1.0000</r>
       <r>  -1.3190  1.0000</r>
       <r>  -1.1995  1.0000</r>
       <r>  -0.8115  1.0000</r>
       <r>  -0.8115  1.0000</r>
       <r>  -0.7587  1.0000</r>
       <r>  -0.7587  1.0000</r>
       <r>  -0.6888  1.0000</r>
       <r>  -0.5975  1.0000</r>
       <r>  -0.5975  1.0000</r>
       <r>  -0.4614  1.0000</r>
       <r>  -0.4614  1.0000</r>
       <r>   2.5664  0.0000</r>
       <r>   4.6450  0.0000</r>
       <r>   4.6450  0.0000</r>
       <r>   8.0836  0.0000</r>
       <r>   8.0836  0.0000</r>
       <r>   9.9640  0.0000</r>
       <r>  11.4769  0.0000</r>
      </set>
      <set comment="kpoint 4">
       <r>  -3.8762  1.0000</r>
       <r>  -3.0869  1.0000</r>
       <r>  -3.0385  1.0000</r>
       <r>  -3.0288  1.0000</r>
       <r>  -3.0288  1.0000</r>
       <r>  -2.9458  1.0000</r>
       <r>  -2.9458  1.0000</r>
       <r>  -2.2194  1.0000</r>
       <r>  -1.8501  1.0000</r>
       <r>  -1.8501  1.0000</r>
       <r>  -1.4014  1.0000</r>
       <r>  -1.1541  1.0000</r>
       <r>  -1.1525  1.0000</r>
       <r>  -1.1525  1.0000</r>
       <r>  -0.8844  1.0000</r>
       <r>  -0.8844  1.0000</r>
       <r>  -0.7508  1.0000</r>
       <r>  -0.7508  1.0000</r>
       <r>  -0.7373  1.0000</r>
       <r>  -0.4613  1.0000</r>
       <r>  -0.4613  1.0000</r>
       <r>   1.4696  1.0000</r>
       <r>   5.2641  0.0000</r>
       <r>   5.2641  0.0000</r>
       <r>   8.1574  0.0000</r>
       <r>   8.1574  0.0000</r>
       <r>  10.6193  0.0000</r>
       <r>  10.6193  0.0000</r>
      </set>
      <set comment="kpoint 5">
       <r>  -3.4886  1.0000</r>
       <r>  -2.9663  1.0000</r>
       <r>  -2.9249  1.0000</r>
       <r>  -2.8729  1.0000</r>
       <r>  -2.8729  1.0000</r>
       <r>  -2.7534  1.0000</r>
       <r>  -2.7534  1.0000</r>
       <r>  -2.3462  1.0000</r>
       <r>  -1.7120  1.0000</r>
       <r>  -1.7120  1.0000</r>
       <r>  -1.5222  1.0000</r>
       <r>  -1.5222  1.0000</r>
       <r>  -1.4674  1.0000</r>
       <r>  -1.0946  1.0000</r>
       <r>  -1.0310  1.0000</r>
       <r>  -1.0310  1.0000</r>
       <r>  -0.9392  1.0000</r>
       <r>  -0.9392  1.0000</r>
       <r>  -0.7999  1.0000</r>
       <r>  -0.4611  1.0000</r>
       <r>  -0.4611  1.0000</r>
       <r>   0.4390  1.0000</r>
       <r>   6.0177  0.0000</r>
       <r>   6.0177  0.0000</r>
       <r>   8.2600  0.0000</r>
       <r>   8.2600  0.0000</r>
       <r>   9.6795  0.0000</r>
       <r>   9.6795  0.0000</r>
      </set>
      <set comment="kpoint 6">
       <r>  -3.1043  1.0000</r>
       <r>  -2.8697  1.0000</r>
       <r>  -2.7901  1.0000</r>
       <r>  -2.7392  1.0000</r>
       <r>  -2.7392  1.0000</r>
       <r>  -2.5092  1.0000</r>
       <r>  -2.5092  1.0000</r>
       <r>  -2.4908  1.0000</r>
       <r>  -1.8842  1.0000</r>
       <r>  -1.8842  1.0000</r>
       <r>  -1.5428  1.0000</r>
       <r>  -1.5428  1.0000</r>
       <r>  -1.4237  1.0000</r>
       <r>  -1.1584  1.0000</r>
       <r>  -1.1584  1.0000</r>
       <r>  -1.1445  1.0000</r>
       <r>  -1.1445  1.0000</r>
       <r>  -1.0247  1.0000</r>
       <r>  -0.8721  1.0000</r>
       <r>  -0.4609  1.0000</r>
       <r>  -0.4609  1.0000</r>
       <r>  -0.4493  1.0000</r>
       <r>   6.8634  0.0000</r>
       <r>   6.8634  0.0000</r>
       <r>   8.3697  0.0000</r>
       <r>   8.3697  0.0000</r>
       <r>   8.7187  0.0000</r>
       <r>   8.7187  0.0000</r>
      </set>
      <set comment="kpoint 7">
       <r>  -2.8805  1.0000</r>
       <r>  -2.8805  1.0000</r>
       <r>  -2.6842  1.0000</r>
       <r>  -2.6842  1.0000</r>
       <r>  -2.6422  1.0000</r>
       <r>  -2.6422  1.0000</r>
       <r>  -2.2172  1.0000</r>
       <r>  -2.2172  1.0000</r>
       <r>  -2.2172  1.0000</r>
       <r>  -2.2172  1.0000</r>
       <r>  -1.3502  1.0000</r>
       <r>  -1.3502  1.0000</r>
       <r>  -1.3502  1.0000</r>
       <r>  -1.3502  1.0000</r>
       <r>  -1.2112  1.0000</r>
       <r>  -1.2112  1.0000</r>
       <r>  -1.1045  1.0000</r>
       <r>  -1.1045  1.0000</r>
       <r>  -0.9488  1.0000</r>
       <r>  -0.9488  1.0000</r>
       <r>  -0.4609  1.0000</r>
       <r>  -0.4609  1.0000</r>
       <r>   7.7716  0.0000</r>
       <r>   7.7716  0.0000</r>
       <r>   7.7716  0.0000</r>
       <r>   7.7716  0.0000</r>
       <r>   8.4238  0.0000</r>
       <r>   8.4238  0.0000</r>
      </set>
      <set comment="kpoint 8">
       <r>  -4.3091  1.0000</r>
       <r>  -3.2298  1.0000</r>
       <r>  -3.2298  1.0000</r>
       <r>  -3.2296  1.0000</r>
       <r>  -3.1501  1.0000</r>
       <r>  -3.1501  1.0000</r>
       <r>  -3.1343  1.0000</r>
       <r>  -2.0647  1.0000</r>
       <r>  -2.0071  1.0000</r>
       <r>  -1.9948  1.0000</r>
       <r>  -1.2646  1.0000</r>
       <r>  -1.2321  1.0000</r>
       <r>  -0.7036  1.0000</r>
       <r>  -0.7008  1.0000</r>
       <r>  -0.7008  1.0000</r>
       <r>  -0.6242  1.0000</r>
       <r>  -0.5792  1.0000</r>
       <r>  -0.5792  1.0000</r>
       <r>  -0.4968  1.0000</r>
       <r>  -0.4968  1.0000</r>
       <r>  -0.4861  1.0000</r>
       <r>   3.7230  0.0000</r>
       <r>   3.7230  0.0000</r>
       <r>   4.3705  0.0000</r>
       <r>   8.0542  0.0000</r>
       <r>   8.6483  0.0000</r>
       <r>   8.6483  0.0000</r>
       <r>  11.3329  0.0000</r>
      </set>
      <set comment="kpoint 9">
       <r>  -4.1205  1.0000</r>
       <r>  -3.1597  1.0000</r>
       <r>  -3.1563  1.0000</r>
       <r>  -3.1393  1.0000</r>
       <r>  -3.0979  1.0000</r>
       <r>  -3.0678  1.0000</r>
       <r>  -3.0377  1.0000</r>
       <r>  -2.1196  1.0000</r>
       <r>  -1.9513  1.0000</r>
       <r>  -1.9371  1.0000</r>
       <r>  -1.3163  1.0000</r>
       <r>  -1.2056  1.0000</r>
       <r>  -0.8902  1.0000</r>
       <r>  -0.8532  1.0000</r>
       <r>  -0.7829  1.0000</r>
       <r>  -0.7816  1.0000</r>
       <r>  -0.7246  1.0000</r>
       <r>  -0.6312  1.0000</r>
       <r>  -0.5979  1.0000</r>
       <r>  -0.4983  1.0000</r>
       <r>  -0.4970  1.0000</r>
       <r>   2.7049  0.0000</r>
       <r>   4.1157  0.0000</r>
       <r>   4.7806  0.0000</r>
       <r>   8.0938  0.0000</r>
       <r>   8.7153  0.0000</r>
       <r>   9.9895  0.0000</r>
       <r>  10.4248  0.0000</r>
      </set>
      <set comment="kpoint 10">
       <r>  -3.8197  1.0000</r>
       <r>  -3.0536  1.0000</r>
       <r>  -3.0369  1.0000</r>
       <r>  -3.0139  1.0000</r>
       <r>  -3.0028  1.0000</r>
       <r>  -2.9312  1.0000</r>
       <r>  -2.8889  1.0000</r>
       <r>  -2.2147  1.0000</r>
       <r>  -1.8509  1.0000</r>
       <r>  -1.8469  1.0000</r>
       <r>  -1.3895  1.0000</r>
       <r>  -1.2138  1.0000</r>
       <r>  -1.1782  1.0000</r>
       <r>  -1.1545  1.0000</r>
       <r>  -0.9220  1.0000</r>
       <r>  -0.9041  1.0000</r>
       <r>  -0.8631  1.0000</r>
       <r>  -0.7515  1.0000</r>
       <r>  -0.6972  1.0000</r>
       <r>  -0.5006  1.0000</r>
       <r>  -0.4974  1.0000</r>
       <r>   1.6128  1.0000</r>
       <r>   4.6798  0.0000</r>
       <r>   5.3869  0.0000</r>
       <r>   8.1482  0.0000</r>
       <r>   8.8248  0.0000</r>
       <r>   9.5418  0.0000</r>
       <r>  10.7131  0.0000</r>
      </set>
      <set comment="kpoint 11">
       <r>  -3.4391  1.0000</r>
       <r>  -2.9310  1.0000</r>
       <r>  -2.9028  1.0000</r>
       <r>  -2.8834  1.0000</r>
       <r>  -2.8458  1.0000</r>
       <r>  -2.7416  1.0000</r>
       <r>  -2.7023  1.0000</r>
       <r>  -2.3379  1.0000</r>
       <r>  -1.7486  1.0000</r>
       <r>  -1.7133  1.0000</r>
       <r>  -1.5705  1.0000</r>
       <r>  -1.5358  1.0000</r>
       <r>  -1.4210  1.0000</r>
       <r>  -1.1080  1.0000</r>
       <r>  -1.0852  1.0000</r>
       <r>  -1.0455  1.0000</r>
       <r>  -1.0155  1.0000</r>
       <r>  -0.9403  1.0000</r>
       <r>  -0.7746  1.0000</r>
       <r>  -0.5007  1.0000</r>
       <r>  -0.4979  1.0000</r>
       <r>   0.5970  1.0000</r>
       <r>   5.3490  0.0000</r>
       <r>   6.1297  0.0000</r>
       <r>   8.1053  0.0000</r>
       <r>   8.8425  0.0000</r>
       <r>   8.9530  0.0000</r>
       <r>   9.7722  0.0000</r>
      </set>
      <set comment="kpoint 12">
       <r>  -3.0615  1.0000</r>
       <r>  -2.8317  1.0000</r>
       <r>  -2.7710  1.0000</r>
       <r>  -2.7335  1.0000</r>
       <r>  -2.7118  1.0000</r>
       <r>  -2.5014  1.0000</r>
       <r>  -2.4856  1.0000</r>
       <r>  -2.4787  1.0000</r>
       <r>  -1.9160  1.0000</r>
       <r>  -1.8886  1.0000</r>
       <r>  -1.6760  1.0000</r>
       <r>  -1.5443  1.0000</r>
       <r>  -1.3232  1.0000</r>
       <r>  -1.2949  1.0000</r>
       <r>  -1.1669  1.0000</r>
       <r>  -1.1499  1.0000</r>
       <r>  -1.1459  1.0000</r>
       <r>  -0.9978  1.0000</r>
       <r>  -0.8653  1.0000</r>
       <r>  -0.5002  1.0000</r>
       <r>  -0.4986  1.0000</r>
       <r>  -0.2601  1.0000</r>
       <r>   6.0778  0.0000</r>
       <r>   6.9671  0.0000</r>
       <r>   7.5811  0.0000</r>
       <r>   8.7177  0.0000</r>
       <r>   8.8128  0.0000</r>
       <r>   9.0023  0.0000</r>
      </set>
      <set comment="kpoint 13">
       <r>  -2.8401  1.0000</r>
       <r>  -2.8401  1.0000</r>
       <r>  -2.6618  1.0000</r>
       <r>  -2.6618  1.0000</r>
       <r>  -2.6264  1.0000</r>
       <r>  -2.6264  1.0000</r>
       <r>  -2.2256  1.0000</r>
       <r>  -2.2256  1.0000</r>
       <r>  -2.2146  1.0000</r>
       <r>  -2.2146  1.0000</r>
       <r>  -1.5389  1.0000</r>
       <r>  -1.5389  1.0000</r>
       <r>  -1.3517  1.0000</r>
       <r>  -1.3517  1.0000</r>
       <r>  -1.2117  1.0000</r>
       <r>  -1.2117  1.0000</r>
       <r>  -1.0122  1.0000</r>
       <r>  -1.0122  1.0000</r>
       <r>  -0.8321  1.0000</r>
       <r>  -0.8321  1.0000</r>
       <r>  -0.4994  1.0000</r>
       <r>  -0.4994  1.0000</r>
       <r>   6.8348  0.0000</r>
       <r>   6.8348  0.0000</r>
       <r>   7.8695  0.0000</r>
       <r>   7.8695  0.0000</r>
       <r>   8.8768  0.0000</r>
       <r>   8.8768  0.0000</r>
      </set>
      <set comment="kpoint 14">
       <r>  -3.9404  1.0000</r>
       <r>  -3.1113  1.0000</r>
       <r>  -3.0673  1.0000</r>
       <r>  -3.0673  1.0000</r>
       <r>  -3.0189  1.0000</r>
       <r>  -3.0189  1.0000</r>
       <r>  -2.9232  1.0000</r>
       <r>  -2.1415  1.0000</r>
       <r>  -1.9239  1.0000</r>
       <r>  -1.8937  1.0000</r>
       <r>  -1.3364  1.0000</r>
       <r>  -1.1905  1.0000</r>
       <r>  -1.0299  1.0000</r>
       <r>  -1.0299  1.0000</r>
       <r>  -1.0048  1.0000</r>
       <r>  -0.8535  1.0000</r>
       <r>  -0.7153  1.0000</r>
       <r>  -0.7153  1.0000</r>
       <r>  -0.5989  1.0000</r>
       <r>  -0.5989  1.0000</r>
       <r>  -0.5585  1.0000</r>
       <r>   3.0754  0.0000</r>
       <r>   3.0754  0.0000</r>
       <r>   5.1627  0.0000</r>
       <r>   8.1067  0.0000</r>
       <r>   9.3924  0.0000</r>
       <r>  10.0565  0.0000</r>
       <r>  10.0565  0.0000</r>
      </set>
      <set comment="kpoint 15">
       <r>  -3.6551  1.0000</r>
       <r>  -3.0180  1.0000</r>
       <r>  -2.9576  1.0000</r>
       <r>  -2.9404  1.0000</r>
       <r>  -2.9278  1.0000</r>
       <r>  -2.8881  1.0000</r>
       <r>  -2.7653  1.0000</r>
       <r>  -2.2117  1.0000</r>
       <r>  -1.8412  1.0000</r>
       <r>  -1.8331  1.0000</r>
       <r>  -1.3872  1.0000</r>
       <r>  -1.3533  1.0000</r>
       <r>  -1.2663  1.0000</r>
       <r>  -1.2047  1.0000</r>
       <r>  -1.1217  1.0000</r>
       <r>  -0.9623  1.0000</r>
       <r>  -0.8415  1.0000</r>
       <r>  -0.7537  1.0000</r>
       <r>  -0.7464  1.0000</r>
       <r>  -0.6006  1.0000</r>
       <r>  -0.5908  1.0000</r>
       <r>   1.9831  1.0000</r>
       <r>   3.5966  0.0000</r>
       <r>   5.7376  0.0000</r>
       <r>   7.9251  0.0000</r>
       <r>   8.6683  0.0000</r>
       <r>  10.1049  0.0000</r>
       <r>  10.9879  0.0000</r>
      </set>
      <set comment="kpoint 16">
       <r>  -3.2971  1.0000</r>
       <r>  -2.8803  1.0000</r>
       <r>  -2.8368  1.0000</r>
       <r>  -2.8291  1.0000</r>
       <r>  -2.7668  1.0000</r>
       <r>  -2.7071  1.0000</r>
       <r>  -2.5862  1.0000</r>
       <r>  -2.3181  1.0000</r>
       <r>  -1.7977  1.0000</r>
       <r>  -1.7112  1.0000</r>
       <r>  -1.6892  1.0000</r>
       <r>  -1.5813  1.0000</r>
       <r>  -1.4040  1.0000</r>
       <r>  -1.3863  1.0000</r>
       <r>  -1.0896  1.0000</r>
       <r>  -1.0070  1.0000</r>
       <r>  -0.9939  1.0000</r>
       <r>  -0.9434  1.0000</r>
       <r>  -0.8149  1.0000</r>
       <r>  -0.6030  1.0000</r>
       <r>  -0.6027  1.0000</r>
       <r>   0.9798  1.0000</r>
       <r>   4.2100  0.0000</r>
       <r>   6.4528  0.0000</r>
       <r>   7.2056  0.0000</r>
       <r>   8.6226  0.0000</r>
       <r>   9.9375  0.0000</r>
       <r>  10.0435  0.0000</r>
      </set>
      <set comment="kpoint 17">
       <r>  -2.9412  1.0000</r>
       <r>  -2.7217  1.0000</r>
       <r>  -2.7178  1.0000</r>
       <r>  -2.7144  1.0000</r>
       <r>  -2.6317  1.0000</r>
       <r>  -2.4788  1.0000</r>
       <r>  -2.4452  1.0000</r>
       <r>  -2.4134  1.0000</r>
       <r>  -1.9970  1.0000</r>
       <r>  -1.9041  1.0000</r>
       <r>  -1.8138  1.0000</r>
       <r>  -1.6109  1.0000</r>
       <r>  -1.5458  1.0000</r>
       <r>  -1.2567  1.0000</r>
       <r>  -1.1952  1.0000</r>
       <r>  -1.1493  1.0000</r>
       <r>  -1.1386  1.0000</r>
       <r>  -0.9199  1.0000</r>
       <r>  -0.8236  1.0000</r>
       <r>  -0.6066  1.0000</r>
       <r>  -0.6049  1.0000</r>
       <r>   0.1373  1.0000</r>
       <r>   4.8851  0.0000</r>
       <r>   6.3879  0.0000</r>
       <r>   7.2683  0.0000</r>
       <r>   8.8271  0.0000</r>
       <r>   9.0880  0.0000</r>
       <r>   9.5404  0.0000</r>
      </set>
      <set comment="kpoint 18">
       <r>  -2.7254  1.0000</r>
       <r>  -2.7254  1.0000</r>
       <r>  -2.6020  1.0000</r>
       <r>  -2.6020  1.0000</r>
       <r>  -2.5807  1.0000</r>
       <r>  -2.5807  1.0000</r>
       <r>  -2.2397  1.0000</r>
       <r>  -2.2397  1.0000</r>
       <r>  -2.2082  1.0000</r>
       <r>  -2.2082  1.0000</r>
       <r>  -1.7729  1.0000</r>
       <r>  -1.7729  1.0000</r>
       <r>  -1.3547  1.0000</r>
       <r>  -1.3547  1.0000</r>
       <r>  -1.2201  1.0000</r>
       <r>  -1.2201  1.0000</r>
       <r>  -1.0693  1.0000</r>
       <r>  -1.0693  1.0000</r>
       <r>  -0.6066  1.0000</r>
       <r>  -0.6066  1.0000</r>
       <r>  -0.4745  1.0000</r>
       <r>  -0.4745  1.0000</r>
       <r>   5.6114  0.0000</r>
       <r>   5.6114  0.0000</r>
       <r>   8.1548  0.0000</r>
       <r>   8.1548  0.0000</r>
       <r>   9.1423  0.0000</r>
       <r>   9.1423  0.0000</r>
      </set>
      <set comment="kpoint 19">
       <r>  -3.3983  1.0000</r>
       <r>  -2.9532  1.0000</r>
       <r>  -2.8192  1.0000</r>
       <r>  -2.8192  1.0000</r>
       <r>  -2.8120  1.0000</r>
       <r>  -2.8120  1.0000</r>
       <r>  -2.6056  1.0000</r>
       <r>  -2.2369  1.0000</r>
       <r>  -1.8089  1.0000</r>
       <r>  -1.7922  1.0000</r>
       <r>  -1.5271  1.0000</r>
       <r>  -1.5271  1.0000</r>
       <r>  -1.4345  1.0000</r>
       <r>  -1.4277  1.0000</r>
       <r>  -1.0538  1.0000</r>
       <r>  -1.0071  1.0000</r>
       <r>  -0.8559  1.0000</r>
       <r>  -0.8559  1.0000</r>
       <r>  -0.7568  1.0000</r>
       <r>  -0.7568  1.0000</r>
       <r>  -0.6756  1.0000</r>
       <r>   2.4892  0.0000</r>
       <r>   2.4892  0.0000</r>
       <r>   6.2751  0.0000</r>
       <r>   7.0680  0.0000</r>
       <r>   8.5772  0.0000</r>
       <r>  11.1702  0.0000</r>
       <r>  11.1702  0.0000</r>
      </set>
      <set comment="kpoint 20">
       <r>  -3.0832  1.0000</r>
       <r>  -2.8423  1.0000</r>
       <r>  -2.7289  1.0000</r>
       <r>  -2.6733  1.0000</r>
       <r>  -2.6526  1.0000</r>
       <r>  -2.6428  1.0000</r>
       <r>  -2.4354  1.0000</r>
       <r>  -2.3030  1.0000</r>
       <r>  -1.8395  1.0000</r>
       <r>  -1.8142  1.0000</r>
       <r>  -1.7132  1.0000</r>
       <r>  -1.6882  1.0000</r>
       <r>  -1.6706  1.0000</r>
       <r>  -1.4386  1.0000</r>
       <r>  -1.1627  1.0000</r>
       <r>  -1.0015  1.0000</r>
       <r>  -0.9471  1.0000</r>
       <r>  -0.9166  1.0000</r>
       <r>  -0.8106  1.0000</r>
       <r>  -0.7601  1.0000</r>
       <r>  -0.7269  1.0000</r>
       <r>   1.4783  1.0000</r>
       <r>   3.0796  0.0000</r>
       <r>   6.1227  0.0000</r>
       <r>   6.9554  0.0000</r>
       <r>   8.7447  0.0000</r>
       <r>  10.4752  0.0000</r>
       <r>  10.5158  0.0000</r>
      </set>
      <set comment="kpoint 21">
       <r>  -2.7709  1.0000</r>
       <r>  -2.6911  1.0000</r>
       <r>  -2.6233  1.0000</r>
       <r>  -2.5531  1.0000</r>
       <r>  -2.5061  1.0000</r>
       <r>  -2.4445  1.0000</r>
       <r>  -2.3992  1.0000</r>
       <r>  -2.2965  1.0000</r>
       <r>  -2.0994  1.0000</r>
       <r>  -1.9373  1.0000</r>
       <r>  -1.8920  1.0000</r>
       <r>  -1.8833  1.0000</r>
       <r>  -1.5374  1.0000</r>
       <r>  -1.3386  1.0000</r>
       <r>  -1.2494  1.0000</r>
       <r>  -1.1521  1.0000</r>
       <r>  -1.1512  1.0000</r>
       <r>  -1.0254  1.0000</r>
       <r>  -0.7621  1.0000</r>
       <r>  -0.7512  1.0000</r>
       <r>  -0.5110  1.0000</r>
       <r>   0.6184  1.0000</r>
       <r>   3.7352  0.0000</r>
       <r>   5.2488  0.0000</r>
       <r>   7.7420  0.0000</r>
       <r>   9.0239  0.0000</r>
       <r>   9.5253  0.0000</r>
       <r>   9.9100  0.0000</r>
      </set>
      <set comment="kpoint 22">
       <r>  -2.5603  1.0000</r>
       <r>  -2.5603  1.0000</r>
       <r>  -2.5314  1.0000</r>
       <r>  -2.5314  1.0000</r>
       <r>  -2.5101  1.0000</r>
       <r>  -2.5101  1.0000</r>
       <r>  -2.2252  1.0000</r>
       <r>  -2.2252  1.0000</r>
       <r>  -2.2021  1.0000</r>
       <r>  -2.2021  1.0000</r>
       <r>  -1.9569  1.0000</r>
       <r>  -1.9569  1.0000</r>
       <r>  -1.3540  1.0000</r>
       <r>  -1.3540  1.0000</r>
       <r>  -1.2516  1.0000</r>
       <r>  -1.2516  1.0000</r>
       <r>  -1.1765  1.0000</r>
       <r>  -1.1765  1.0000</r>
       <r>  -0.7605  1.0000</r>
       <r>  -0.7605  1.0000</r>
       <r>  -0.0492  1.0000</r>
       <r>  -0.0492  1.0000</r>
       <r>   4.4556  0.0000</r>
       <r>   4.4556  0.0000</r>
       <r>   8.6064  0.0000</r>
       <r>   8.6064  0.0000</r>
       <r>   9.4106  0.0000</r>
       <r>   9.4106  0.0000</r>
      </set>
      <set comment="kpoint 23">
       <r>  -2.8355  1.0000</r>
       <r>  -2.7647  1.0000</r>
       <r>  -2.5825  1.0000</r>
       <r>  -2.5825  1.0000</r>
       <r>  -2.4882  1.0000</r>
       <r>  -2.4882  1.0000</r>
       <r>  -2.3130  1.0000</r>
       <r>  -2.2748  1.0000</r>
       <r>  -1.9958  1.0000</r>
       <r>  -1.9958  1.0000</r>
       <r>  -1.8136  1.0000</r>
       <r>  -1.8125  1.0000</r>
       <r>  -1.6221  1.0000</r>
       <r>  -1.5065  1.0000</r>
       <r>  -1.2551  1.0000</r>
       <r>  -1.0568  1.0000</r>
       <r>  -1.0568  1.0000</r>
       <r>  -0.9494  1.0000</r>
       <r>  -0.9494  1.0000</r>
       <r>  -0.8311  1.0000</r>
       <r>  -0.5157  1.0000</r>
       <r>   2.0516  1.0000</r>
       <r>   2.0516  1.0000</r>
       <r>   5.1173  0.0000</r>
       <r>   7.6011  0.0000</r>
       <r>   8.9780  0.0000</r>
       <r>  11.0257  0.0000</r>
       <r>  11.0258  0.0000</r>
      </set>
      <set comment="kpoint 24">
       <r>  -2.6460  1.0000</r>
       <r>  -2.6009  1.0000</r>
       <r>  -2.5034  1.0000</r>
       <r>  -2.4038  1.0000</r>
       <r>  -2.3561  1.0000</r>
       <r>  -2.3530  1.0000</r>
       <r>  -2.3510  1.0000</r>
       <r>  -2.1939  1.0000</r>
       <r>  -2.1523  1.0000</r>
       <r>  -2.1163  1.0000</r>
       <r>  -1.9982  1.0000</r>
       <r>  -1.8917  1.0000</r>
       <r>  -1.5032  1.0000</r>
       <r>  -1.4613  1.0000</r>
       <r>  -1.3310  1.0000</r>
       <r>  -1.2081  1.0000</r>
       <r>  -1.1651  1.0000</r>
       <r>  -1.1495  1.0000</r>
       <r>  -0.9465  1.0000</r>
       <r>  -0.8979  1.0000</r>
       <r>  -0.1106  1.0000</r>
       <r>   1.1641  1.0000</r>
       <r>   2.6926  0.0000</r>
       <r>   4.2135  0.0000</r>
       <r>   8.3573  0.0000</r>
       <r>   9.3140  0.0000</r>
       <r>  10.0999  0.0000</r>
       <r>  10.3316  0.0000</r>
      </set>
      <set comment="kpoint 25">
       <r>  -2.4884  1.0000</r>
       <r>  -2.4884  1.0000</r>
       <r>  -2.4240  1.0000</r>
       <r>  -2.4240  1.0000</r>
       <r>  -2.4128  1.0000</r>
       <r>  -2.4128  1.0000</r>
       <r>  -2.2034  1.0000</r>
       <r>  -2.2034  1.0000</r>
       <r>  -2.1406  1.0000</r>
       <r>  -2.1406  1.0000</r>
       <r>  -2.0425  1.0000</r>
       <r>  -2.0425  1.0000</r>
       <r>  -1.3402  1.0000</r>
       <r>  -1.3402  1.0000</r>
       <r>  -1.3206  1.0000</r>
       <r>  -1.3206  1.0000</r>
       <r>  -1.3152  1.0000</r>
       <r>  -1.3152  1.0000</r>
       <r>  -0.9325  1.0000</r>
       <r>  -0.9325  1.0000</r>
       <r>   0.4415  1.0000</r>
       <r>   0.4415  1.0000</r>
       <r>   3.4090  0.0000</r>
       <r>   3.4090  0.0000</r>
       <r>   9.1976  0.0000</r>
       <r>   9.1976  0.0000</r>
       <r>   9.7621  0.0000</r>
       <r>   9.7621  0.0000</r>
      </set>
      <set comment="kpoint 26">
       <r>  -2.5734  1.0000</r>
       <r>  -2.4779  1.0000</r>
       <r>  -2.3645  1.0000</r>
       <r>  -2.3645  1.0000</r>
       <r>  -2.3326  1.0000</r>
       <r>  -2.3198  1.0000</r>
       <r>  -2.3198  1.0000</r>
       <r>  -2.1365  1.0000</r>
       <r>  -2.1365  1.0000</r>
       <r>  -2.0943  1.0000</r>
       <r>  -2.0235  1.0000</r>
       <r>  -1.8626  1.0000</r>
       <r>  -1.5428  1.0000</r>
       <r>  -1.4263  1.0000</r>
       <r>  -1.4172  1.0000</r>
       <r>  -1.3163  1.0000</r>
       <r>  -1.3163  1.0000</r>
       <r>  -1.1336  1.0000</r>
       <r>  -1.1336  1.0000</r>
       <r>  -1.0163  1.0000</r>
       <r>   0.3894  1.0000</r>
       <r>   1.7816  1.0000</r>
       <r>   1.7816  1.0000</r>
       <r>   3.2931  0.0000</r>
       <r>   9.0854  0.0000</r>
       <r>   9.7081  0.0000</r>
       <r>  10.8027  0.0000</r>
       <r>  10.8459  0.0000</r>
      </set>
      <set comment="kpoint 27">
       <r>  -2.4656  1.0000</r>
       <r>  -2.4656  1.0000</r>
       <r>  -2.3936  1.0000</r>
       <r>  -2.3936  1.0000</r>
       <r>  -2.3371  1.0000</r>
       <r>  -2.3371  1.0000</r>
       <r>  -2.2217  1.0000</r>
       <r>  -2.2217  1.0000</r>
       <r>  -2.0043  1.0000</r>
       <r>  -2.0043  1.0000</r>
       <r>  -1.9650  1.0000</r>
       <r>  -1.9650  1.0000</r>
       <r>  -1.4580  1.0000</r>
       <r>  -1.4580  1.0000</r>
       <r>  -1.4264  1.0000</r>
       <r>  -1.4264  1.0000</r>
       <r>  -1.3000  1.0000</r>
       <r>  -1.3000  1.0000</r>
       <r>  -1.0933  1.0000</r>
       <r>  -1.0933  1.0000</r>
       <r>   1.0144  1.0000</r>
       <r>   1.0144  1.0000</r>
       <r>   2.4861  0.0000</r>
       <r>   2.4861  0.0000</r>
       <r>   9.9019  0.0000</r>
       <r>   9.9019  0.0000</r>
       <r>  10.2167  0.0000</r>
       <r>  10.2167  0.0000</r>
      </set>
      <set comment="kpoint 28">
       <r>  -2.4343  1.0000</r>
       <r>  -2.4343  1.0000</r>
       <r>  -2.4343  1.0000</r>
       <r>  -2.4343  1.0000</r>
       <r>  -2.2660  1.0000</r>
       <r>  -2.2660  1.0000</r>
       <r>  -2.2660  1.0000</r>
       <r>  -2.2660  1.0000</r>
       <r>  -1.9035  1.0000</r>
       <r>  -1.9035  1.0000</r>
       <r>  -1.9035  1.0000</r>
       <r>  -1.9035  1.0000</r>
       <r>  -1.5156  1.0000</r>
       <r>  -1.5156  1.0000</r>
       <r>  -1.5156  1.0000</r>
       <r>  -1.5156  1.0000</r>
       <r>  -1.2194  1.0000</r>
       <r>  -1.2194  1.0000</r>
       <r>  -1.2194  1.0000</r>
       <r>  -1.2194  1.0000</r>
       <r>   1.6903  1.0000</r>
       <r>   1.6903  1.0000</r>
       <r>   1.6903  1.0000</r>
       <r>   1.6903  1.0000</r>
       <r>  10.6965  0.0000</r>
       <r>  10.6965  0.0000</r>
       <r>  10.6965  0.0000</r>
       <r>  10.6965  0.0000</r>
      </set>
      <set comment="kpoint 29">
       <r>  -4.2462  1.0000</r>
       <r>  -3.2061  1.0000</r>
       <r>  -3.2061  1.0000</r>
       <r>  -3.2061  1.0000</r>
       <r>  -3.1160  1.0000</r>
       <r>  -3.1160  1.0000</r>
       <r>  -3.1160  1.0000</r>
       <r>  -2.0691  1.0000</r>
       <r>  -1.9893  1.0000</r>
       <r>  -1.9893  1.0000</r>
       <r>  -1.2524  1.0000</r>
       <r>  -1.2524  1.0000</r>
       <r>  -0.7283  1.0000</r>
       <r>  -0.7283  1.0000</r>
       <r>  -0.7283  1.0000</r>
       <r>  -0.6621  1.0000</r>
       <r>  -0.6621  1.0000</r>
       <r>  -0.6621  1.0000</r>
       <r>  -0.5044  1.0000</r>
       <r>  -0.5044  1.0000</r>
       <r>  -0.5044  1.0000</r>
       <r>   3.8609  0.0000</r>
       <r>   3.8609  0.0000</r>
       <r>   3.8609  0.0000</r>
       <r>   8.6689  0.0000</r>
       <r>   8.6689  0.0000</r>
       <r>   8.6689  0.0000</r>
       <r>  11.4326  0.0000</r>
      </set>
      <set comment="kpoint 30">
       <r>  -4.0610  1.0000</r>
       <r>  -3.1392  1.0000</r>
       <r>  -3.1343  1.0000</r>
       <r>  -3.1343  1.0000</r>
       <r>  -3.0612  1.0000</r>
       <r>  -3.0187  1.0000</r>
       <r>  -3.0187  1.0000</r>
       <r>  -2.1149  1.0000</r>
       <r>  -1.9398  1.0000</r>
       <r>  -1.9365  1.0000</r>
       <r>  -1.3071  1.0000</r>
       <r>  -1.2165  1.0000</r>
       <r>  -0.9148  1.0000</r>
       <r>  -0.9148  1.0000</r>
       <r>  -0.8026  1.0000</r>
       <r>  -0.7829  1.0000</r>
       <r>  -0.7829  1.0000</r>
       <r>  -0.7712  1.0000</r>
       <r>  -0.5543  1.0000</r>
       <r>  -0.5155  1.0000</r>
       <r>  -0.5155  1.0000</r>
       <r>   2.8354  0.0000</r>
       <r>   4.2401  0.0000</r>
       <r>   4.2401  0.0000</r>
       <r>   8.7253  0.0000</r>
       <r>   8.7253  0.0000</r>
       <r>  10.0060  0.0000</r>
       <r>  10.5315  0.0000</r>
      </set>
      <set comment="kpoint 31">
       <r>  -3.7665  1.0000</r>
       <r>  -3.0411  1.0000</r>
       <r>  -3.0161  1.0000</r>
       <r>  -3.0161  1.0000</r>
       <r>  -2.9702  1.0000</r>
       <r>  -2.8701  1.0000</r>
       <r>  -2.8701  1.0000</r>
       <r>  -2.2039  1.0000</r>
       <r>  -1.8500  1.0000</r>
       <r>  -1.8493  1.0000</r>
       <r>  -1.3716  1.0000</r>
       <r>  -1.2332  1.0000</r>
       <r>  -1.2332  1.0000</r>
       <r>  -1.1594  1.0000</r>
       <r>  -0.9399  1.0000</r>
       <r>  -0.9227  1.0000</r>
       <r>  -0.8996  1.0000</r>
       <r>  -0.8996  1.0000</r>
       <r>  -0.6256  1.0000</r>
       <r>  -0.5235  1.0000</r>
       <r>  -0.5235  1.0000</r>
       <r>   1.7432  1.0000</r>
       <r>   4.7898  0.0000</r>
       <r>   4.7898  0.0000</r>
       <r>   8.7638  0.0000</r>
       <r>   8.7638  0.0000</r>
       <r>   9.7119  0.0000</r>
       <r>   9.7119  0.0000</r>
      </set>
      <set comment="kpoint 32">
       <r>  -3.3959  1.0000</r>
       <r>  -2.9298  1.0000</r>
       <r>  -2.8622  1.0000</r>
       <r>  -2.8622  1.0000</r>
       <r>  -2.8488  1.0000</r>
       <r>  -2.6869  1.0000</r>
       <r>  -2.6869  1.0000</r>
       <r>  -2.3208  1.0000</r>
       <r>  -1.7655  1.0000</r>
       <r>  -1.7325  1.0000</r>
       <r>  -1.5794  1.0000</r>
       <r>  -1.5794  1.0000</r>
       <r>  -1.3698  1.0000</r>
       <r>  -1.1531  1.0000</r>
       <r>  -1.0845  1.0000</r>
       <r>  -1.0770  1.0000</r>
       <r>  -1.0398  1.0000</r>
       <r>  -1.0398  1.0000</r>
       <r>  -0.7106  1.0000</r>
       <r>  -0.5280  1.0000</r>
       <r>  -0.5280  1.0000</r>
       <r>   0.7306  1.0000</r>
       <r>   5.4468  0.0000</r>
       <r>   5.4468  0.0000</r>
       <r>   8.4272  0.0000</r>
       <r>   8.4272  0.0000</r>
       <r>   9.3772  0.0000</r>
       <r>   9.3772  0.0000</r>
      </set>
      <set comment="kpoint 33">
       <r>  -3.0313  1.0000</r>
       <r>  -2.8304  1.0000</r>
       <r>  -2.7176  1.0000</r>
       <r>  -2.7089  1.0000</r>
       <r>  -2.7089  1.0000</r>
       <r>  -2.4811  1.0000</r>
       <r>  -2.4811  1.0000</r>
       <r>  -2.4533  1.0000</r>
       <r>  -1.9123  1.0000</r>
       <r>  -1.9123  1.0000</r>
       <r>  -1.7257  1.0000</r>
       <r>  -1.5883  1.0000</r>
       <r>  -1.3926  1.0000</r>
       <r>  -1.2494  1.0000</r>
       <r>  -1.1821  1.0000</r>
       <r>  -1.1654  1.0000</r>
       <r>  -1.1654  1.0000</r>
       <r>  -0.9967  1.0000</r>
       <r>  -0.8042  1.0000</r>
       <r>  -0.5302  1.0000</r>
       <r>  -0.5302  1.0000</r>
       <r>  -0.1299  1.0000</r>
       <r>   6.1671  0.0000</r>
       <r>   6.1671  0.0000</r>
       <r>   7.6974  0.0000</r>
       <r>   7.6974  0.0000</r>
       <r>   9.5334  0.0000</r>
       <r>   9.5334  0.0000</r>
      </set>
      <set comment="kpoint 34">
       <r>  -2.8239  1.0000</r>
       <r>  -2.8239  1.0000</r>
       <r>  -2.6396  1.0000</r>
       <r>  -2.6396  1.0000</r>
       <r>  -2.5884  1.0000</r>
       <r>  -2.5884  1.0000</r>
       <r>  -2.2905  1.0000</r>
       <r>  -2.2905  1.0000</r>
       <r>  -2.1536  1.0000</r>
       <r>  -2.1536  1.0000</r>
       <r>  -1.6132  1.0000</r>
       <r>  -1.6132  1.0000</r>
       <r>  -1.4240  1.0000</r>
       <r>  -1.4240  1.0000</r>
       <r>  -1.2185  1.0000</r>
       <r>  -1.2185  1.0000</r>
       <r>  -0.9014  1.0000</r>
       <r>  -0.9014  1.0000</r>
       <r>  -0.7756  1.0000</r>
       <r>  -0.7756  1.0000</r>
       <r>  -0.5308  1.0000</r>
       <r>  -0.5308  1.0000</r>
       <r>   6.8884  0.0000</r>
       <r>   6.8884  0.0000</r>
       <r>   6.9602  0.0000</r>
       <r>   6.9602  0.0000</r>
       <r>   9.6772  0.0000</r>
       <r>   9.6772  0.0000</r>
      </set>
      <set comment="kpoint 35">
       <r>  -3.8866  1.0000</r>
       <r>  -3.0927  1.0000</r>
       <r>  -3.0731  1.0000</r>
       <r>  -3.0731  1.0000</r>
       <r>  -2.9605  1.0000</r>
       <r>  -2.9605  1.0000</r>
       <r>  -2.9024  1.0000</r>
       <r>  -2.1252  1.0000</r>
       <r>  -1.9177  1.0000</r>
       <r>  -1.8987  1.0000</r>
       <r>  -1.3147  1.0000</r>
       <r>  -1.2084  1.0000</r>
       <r>  -1.0462  1.0000</r>
       <r>  -1.0462  1.0000</r>
       <r>  -1.0426  1.0000</r>
       <r>  -0.8967  1.0000</r>
       <r>  -0.8357  1.0000</r>
       <r>  -0.8357  1.0000</r>
       <r>  -0.5588  1.0000</r>
       <r>  -0.5588  1.0000</r>
       <r>  -0.5514  1.0000</r>
       <r>   3.1891  0.0000</r>
       <r>   3.1891  0.0000</r>
       <r>   4.5874  0.0000</r>
       <r>   8.6852  0.0000</r>
       <r>   9.5821  0.0000</r>
       <r>   9.9955  0.0000</r>
       <r>   9.9955  0.0000</r>
      </set>
      <set comment="kpoint 36">
       <r>  -3.6125  1.0000</r>
       <r>  -3.0022  1.0000</r>
       <r>  -2.9856  1.0000</r>
       <r>  -2.9596  1.0000</r>
       <r>  -2.8621  1.0000</r>
       <r>  -2.8116  1.0000</r>
       <r>  -2.7447  1.0000</r>
       <r>  -2.1823  1.0000</r>
       <r>  -1.8476  1.0000</r>
       <r>  -1.8395  1.0000</r>
       <r>  -1.3643  1.0000</r>
       <r>  -1.3549  1.0000</r>
       <r>  -1.3053  1.0000</r>
       <r>  -1.2190  1.0000</r>
       <r>  -1.1373  1.0000</r>
       <r>  -0.9957  1.0000</r>
       <r>  -0.9544  1.0000</r>
       <r>  -0.9223  1.0000</r>
       <r>  -0.6194  1.0000</r>
       <r>  -0.5835  1.0000</r>
       <r>  -0.5820  1.0000</r>
       <r>   2.0896  1.0000</r>
       <r>   3.6938  0.0000</r>
       <r>   5.1010  0.0000</r>
       <r>   8.1551  0.0000</r>
       <r>   9.2609  0.0000</r>
       <r>   9.5588  0.0000</r>
       <r>  10.5697  0.0000</r>
      </set>
      <set comment="kpoint 37">
       <r>  -3.2745  1.0000</r>
       <r>  -2.8874  1.0000</r>
       <r>  -2.8665  1.0000</r>
       <r>  -2.8058  1.0000</r>
       <r>  -2.7309  1.0000</r>
       <r>  -2.6368  1.0000</r>
       <r>  -2.5705  1.0000</r>
       <r>  -2.2735  1.0000</r>
       <r>  -1.8058  1.0000</r>
       <r>  -1.7441  1.0000</r>
       <r>  -1.6876  1.0000</r>
       <r>  -1.6110  1.0000</r>
       <r>  -1.4204  1.0000</r>
       <r>  -1.3186  1.0000</r>
       <r>  -1.1155  1.0000</r>
       <r>  -1.1101  1.0000</r>
       <r>  -1.0462  1.0000</r>
       <r>  -1.0246  1.0000</r>
       <r>  -0.6996  1.0000</r>
       <r>  -0.6044  1.0000</r>
       <r>  -0.6013  1.0000</r>
       <r>   1.0758  1.0000</r>
       <r>   4.2943  0.0000</r>
       <r>   5.7255  0.0000</r>
       <r>   7.3004  0.0000</r>
       <r>   8.7598  0.0000</r>
       <r>   9.4331  0.0000</r>
       <r>  10.6834  0.0000</r>
      </set>
      <set comment="kpoint 38">
       <r>  -2.9520  1.0000</r>
       <r>  -2.7988  1.0000</r>
       <r>  -2.7023  1.0000</r>
       <r>  -2.6409  1.0000</r>
       <r>  -2.5913  1.0000</r>
       <r>  -2.4677  1.0000</r>
       <r>  -2.4194  1.0000</r>
       <r>  -2.3766  1.0000</r>
       <r>  -1.9689  1.0000</r>
       <r>  -1.9036  1.0000</r>
       <r>  -1.8292  1.0000</r>
       <r>  -1.6311  1.0000</r>
       <r>  -1.6155  1.0000</r>
       <r>  -1.2918  1.0000</r>
       <r>  -1.2131  1.0000</r>
       <r>  -1.1737  1.0000</r>
       <r>  -1.1341  1.0000</r>
       <r>  -0.8429  1.0000</r>
       <r>  -0.8030  1.0000</r>
       <r>  -0.6146  1.0000</r>
       <r>  -0.6125  1.0000</r>
       <r>   0.2099  1.0000</r>
       <r>   4.9608  0.0000</r>
       <r>   6.3911  0.0000</r>
       <r>   6.4947  0.0000</r>
       <r>   7.9473  0.0000</r>
       <r>   9.7653  0.0000</r>
       <r>  10.6340  0.0000</r>
      </set>
      <set comment="kpoint 39">
       <r>  -2.7813  1.0000</r>
       <r>  -2.7813  1.0000</r>
       <r>  -2.5804  1.0000</r>
       <r>  -2.5804  1.0000</r>
       <r>  -2.4758  1.0000</r>
       <r>  -2.4758  1.0000</r>
       <r>  -2.3563  1.0000</r>
       <r>  -2.3563  1.0000</r>
       <r>  -2.0910  1.0000</r>
       <r>  -2.0910  1.0000</r>
       <r>  -1.7937  1.0000</r>
       <r>  -1.7937  1.0000</r>
       <r>  -1.4627  1.0000</r>
       <r>  -1.4627  1.0000</r>
       <r>  -1.2444  1.0000</r>
       <r>  -1.2444  1.0000</r>
       <r>  -0.9377  1.0000</r>
       <r>  -0.9377  1.0000</r>
       <r>  -0.6168  1.0000</r>
       <r>  -0.6168  1.0000</r>
       <r>  -0.4513  1.0000</r>
       <r>  -0.4513  1.0000</r>
       <r>   5.6823  0.0000</r>
       <r>   5.6823  0.0000</r>
       <r>   7.1679  0.0000</r>
       <r>   7.1679  0.0000</r>
       <r>  10.2033  0.0000</r>
       <r>  10.2033  0.0000</r>
      </set>
      <set comment="kpoint 40">
       <r>  -3.3771  1.0000</r>
       <r>  -2.9423  1.0000</r>
       <r>  -2.8823  1.0000</r>
       <r>  -2.8823  1.0000</r>
       <r>  -2.7096  1.0000</r>
       <r>  -2.7096  1.0000</r>
       <r>  -2.5870  1.0000</r>
       <r>  -2.1800  1.0000</r>
       <r>  -1.8151  1.0000</r>
       <r>  -1.8143  1.0000</r>
       <r>  -1.5313  1.0000</r>
       <r>  -1.5313  1.0000</r>
       <r>  -1.4587  1.0000</r>
       <r>  -1.3814  1.0000</r>
       <r>  -1.1081  1.0000</r>
       <r>  -1.0270  1.0000</r>
       <r>  -1.0086  1.0000</r>
       <r>  -1.0086  1.0000</r>
       <r>  -0.6575  1.0000</r>
       <r>  -0.6575  1.0000</r>
       <r>  -0.6476  1.0000</r>
       <r>   2.5752  0.0000</r>
       <r>   2.5752  0.0000</r>
       <r>   5.5692  0.0000</r>
       <r>   7.1582  0.0000</r>
       <r>   9.3721  0.0000</r>
       <r>  10.0687  0.0000</r>
       <r>  10.0687  0.0000</r>
      </set>
      <set comment="kpoint 41">
       <r>  -3.1003  1.0000</r>
       <r>  -2.8365  1.0000</r>
       <r>  -2.8003  1.0000</r>
       <r>  -2.7361  1.0000</r>
       <r>  -2.5694  1.0000</r>
       <r>  -2.5412  1.0000</r>
       <r>  -2.4265  1.0000</r>
       <r>  -2.2132  1.0000</r>
       <r>  -1.8233  1.0000</r>
       <r>  -1.8169  1.0000</r>
       <r>  -1.7398  1.0000</r>
       <r>  -1.7111  1.0000</r>
       <r>  -1.6773  1.0000</r>
       <r>  -1.3593  1.0000</r>
       <r>  -1.2117  1.0000</r>
       <r>  -1.1511  1.0000</r>
       <r>  -1.1008  1.0000</r>
       <r>  -0.8320  1.0000</r>
       <r>  -0.7484  1.0000</r>
       <r>  -0.7010  1.0000</r>
       <r>  -0.6983  1.0000</r>
       <r>   1.5489  1.0000</r>
       <r>   3.1510  0.0000</r>
       <r>   6.0678  0.0000</r>
       <r>   6.2815  0.0000</r>
       <r>   9.1720  0.0000</r>
       <r>   9.6445  0.0000</r>
       <r>  10.6316  0.0000</r>
      </set>
      <set comment="kpoint 42">
       <r>  -2.8521  1.0000</r>
       <r>  -2.7323  1.0000</r>
       <r>  -2.6899  1.0000</r>
       <r>  -2.5596  1.0000</r>
       <r>  -2.4336  1.0000</r>
       <r>  -2.4155  1.0000</r>
       <r>  -2.3258  1.0000</r>
       <r>  -2.2582  1.0000</r>
       <r>  -2.0253  1.0000</r>
       <r>  -1.8968  1.0000</r>
       <r>  -1.8936  1.0000</r>
       <r>  -1.8771  1.0000</r>
       <r>  -1.6291  1.0000</r>
       <r>  -1.3194  1.0000</r>
       <r>  -1.2928  1.0000</r>
       <r>  -1.2163  1.0000</r>
       <r>  -1.2122  1.0000</r>
       <r>  -0.8675  1.0000</r>
       <r>  -0.7289  1.0000</r>
       <r>  -0.7285  1.0000</r>
       <r>  -0.5250  1.0000</r>
       <r>   0.6648  1.0000</r>
       <r>   3.7973  0.0000</r>
       <r>   5.3012  0.0000</r>
       <r>   6.8349  0.0000</r>
       <r>   8.3344  0.0000</r>
       <r>  10.0419  0.0000</r>
       <r>  11.1859  0.0000</r>
      </set>
      <set comment="kpoint 43">
       <r>  -2.7243  1.0000</r>
       <r>  -2.7243  1.0000</r>
       <r>  -2.5240  1.0000</r>
       <r>  -2.5240  1.0000</r>
       <r>  -2.3829  1.0000</r>
       <r>  -2.3829  1.0000</r>
       <r>  -2.3029  1.0000</r>
       <r>  -2.3029  1.0000</r>
       <r>  -2.0261  1.0000</r>
       <r>  -2.0261  1.0000</r>
       <r>  -1.9595  1.0000</r>
       <r>  -1.9595  1.0000</r>
       <r>  -1.4854  1.0000</r>
       <r>  -1.4854  1.0000</r>
       <r>  -1.3003  1.0000</r>
       <r>  -1.3003  1.0000</r>
       <r>  -1.0249  1.0000</r>
       <r>  -1.0249  1.0000</r>
       <r>  -0.7380  1.0000</r>
       <r>  -0.7380  1.0000</r>
       <r>  -0.0359  1.0000</r>
       <r>  -0.0359  1.0000</r>
       <r>   4.5121  0.0000</r>
       <r>   4.5121  0.0000</r>
       <r>   7.5561  0.0000</r>
       <r>   7.5561  0.0000</r>
       <r>  10.5611  0.0000</r>
       <r>  10.5611  0.0000</r>
      </set>
      <set comment="kpoint 44">
       <r>  -2.9144  1.0000</r>
       <r>  -2.7688  1.0000</r>
       <r>  -2.6765  1.0000</r>
       <r>  -2.6765  1.0000</r>
       <r>  -2.3972  1.0000</r>
       <r>  -2.3972  1.0000</r>
       <r>  -2.2891  1.0000</r>
       <r>  -2.1728  1.0000</r>
       <r>  -1.9588  1.0000</r>
       <r>  -1.9588  1.0000</r>
       <r>  -1.7985  1.0000</r>
       <r>  -1.7807  1.0000</r>
       <r>  -1.7158  1.0000</r>
       <r>  -1.3936  1.0000</r>
       <r>  -1.3165  1.0000</r>
       <r>  -1.2131  1.0000</r>
       <r>  -1.2131  1.0000</r>
       <r>  -0.8154  1.0000</r>
       <r>  -0.8154  1.0000</r>
       <r>  -0.7854  1.0000</r>
       <r>  -0.5353  1.0000</r>
       <r>   2.1071  1.0000</r>
       <r>   2.1071  1.0000</r>
       <r>   5.1612  0.0000</r>
       <r>   6.7231  0.0000</r>
       <r>   9.6988  0.0000</r>
       <r>   9.6988  0.0000</r>
       <r>   9.9730  0.0000</r>
      </set>
      <set comment="kpoint 45">
       <r>  -2.7597  1.0000</r>
       <r>  -2.6640  1.0000</r>
       <r>  -2.6447  1.0000</r>
       <r>  -2.5382  1.0000</r>
       <r>  -2.3375  1.0000</r>
       <r>  -2.2368  1.0000</r>
       <r>  -2.2217  1.0000</r>
       <r>  -2.1608  1.0000</r>
       <r>  -2.0696  1.0000</r>
       <r>  -2.0441  1.0000</r>
       <r>  -1.8757  1.0000</r>
       <r>  -1.8698  1.0000</r>
       <r>  -1.6405  1.0000</r>
       <r>  -1.3932  1.0000</r>
       <r>  -1.3610  1.0000</r>
       <r>  -1.3054  1.0000</r>
       <r>  -1.2979  1.0000</r>
       <r>  -0.9530  1.0000</r>
       <r>  -0.8639  1.0000</r>
       <r>  -0.8482  1.0000</r>
       <r>  -0.1204  1.0000</r>
       <r>   1.1989  1.0000</r>
       <r>   2.7398  0.0000</r>
       <r>   4.2569  0.0000</r>
       <r>   7.3566  0.0000</r>
       <r>   8.8442  0.0000</r>
       <r>  10.3307  0.0000</r>
       <r>  10.4226  0.0000</r>
      </set>
      <set comment="kpoint 46">
       <r>  -2.6663  1.0000</r>
       <r>  -2.6663  1.0000</r>
       <r>  -2.5370  1.0000</r>
       <r>  -2.5370  1.0000</r>
       <r>  -2.3199  1.0000</r>
       <r>  -2.3199  1.0000</r>
       <r>  -2.1415  1.0000</r>
       <r>  -2.1415  1.0000</r>
       <r>  -2.0305  1.0000</r>
       <r>  -2.0305  1.0000</r>
       <r>  -1.9485  1.0000</r>
       <r>  -1.9485  1.0000</r>
       <r>  -1.5125  1.0000</r>
       <r>  -1.5125  1.0000</r>
       <r>  -1.3901  1.0000</r>
       <r>  -1.3901  1.0000</r>
       <r>  -1.1217  1.0000</r>
       <r>  -1.1217  1.0000</r>
       <r>  -0.8756  1.0000</r>
       <r>  -0.8756  1.0000</r>
       <r>   0.4521  1.0000</r>
       <r>   0.4521  1.0000</r>
       <r>   3.4527  0.0000</r>
       <r>   3.4527  0.0000</r>
       <r>   8.0650  0.0000</r>
       <r>   8.0650  0.0000</r>
       <r>  10.9948  0.0000</r>
       <r>  10.9948  0.0000</r>
      </set>
      <set comment="kpoint 47">
       <r>  -2.6845  1.0000</r>
       <r>  -2.6195  1.0000</r>
       <r>  -2.5698  1.0000</r>
       <r>  -2.5698  1.0000</r>
       <r>  -2.2312  1.0000</r>
       <r>  -2.2312  1.0000</r>
       <r>  -2.2123  1.0000</r>
       <r>  -2.1443  1.0000</r>
       <r>  -1.9898  1.0000</r>
       <r>  -1.9898  1.0000</r>
       <r>  -1.8340  1.0000</r>
       <r>  -1.7831  1.0000</r>
       <r>  -1.6592  1.0000</r>
       <r>  -1.4861  1.0000</r>
       <r>  -1.4292  1.0000</r>
       <r>  -1.4292  1.0000</r>
       <r>  -1.2972  1.0000</r>
       <r>  -1.0146  1.0000</r>
       <r>  -1.0146  1.0000</r>
       <r>  -0.9525  1.0000</r>
       <r>   0.3884  1.0000</r>
       <r>   1.8123  1.0000</r>
       <r>   1.8123  1.0000</r>
       <r>   3.3294  0.0000</r>
       <r>   7.9744  0.0000</r>
       <r>   9.4608  0.0000</r>
       <r>   9.4608  0.0000</r>
       <r>  10.9205  0.0000</r>
      </set>
      <set comment="kpoint 48">
       <r>  -2.6220  1.0000</r>
       <r>  -2.6220  1.0000</r>
       <r>  -2.5687  1.0000</r>
       <r>  -2.5687  1.0000</r>
       <r>  -2.2460  1.0000</r>
       <r>  -2.2460  1.0000</r>
       <r>  -2.1705  1.0000</r>
       <r>  -2.1705  1.0000</r>
       <r>  -1.8670  1.0000</r>
       <r>  -1.8670  1.0000</r>
       <r>  -1.8484  1.0000</r>
       <r>  -1.8484  1.0000</r>
       <r>  -1.5623  1.0000</r>
       <r>  -1.5623  1.0000</r>
       <r>  -1.5023  1.0000</r>
       <r>  -1.5023  1.0000</r>
       <r>  -1.1751  1.0000</r>
       <r>  -1.1751  1.0000</r>
       <r>  -1.0155  1.0000</r>
       <r>  -1.0155  1.0000</r>
       <r>   1.0278  1.0000</r>
       <r>   1.0278  1.0000</r>
       <r>   2.5177  0.0000</r>
       <r>   2.5177  0.0000</r>
       <r>   8.6764  0.0000</r>
       <r>   8.6764  0.0000</r>
       <r>  10.1732  0.0000</r>
       <r>  10.1732  0.0000</r>
      </set>
      <set comment="kpoint 49">
       <r>  -2.5939  1.0000</r>
       <r>  -2.5939  1.0000</r>
       <r>  -2.5939  1.0000</r>
       <r>  -2.5939  1.0000</r>
       <r>  -2.2028  1.0000</r>
       <r>  -2.2028  1.0000</r>
       <r>  -2.2028  1.0000</r>
       <r>  -2.2028  1.0000</r>
       <r>  -1.7660  1.0000</r>
       <r>  -1.7660  1.0000</r>
       <r>  -1.7660  1.0000</r>
       <r>  -1.7660  1.0000</r>
       <r>  -1.5984  1.0000</r>
       <r>  -1.5984  1.0000</r>
       <r>  -1.5984  1.0000</r>
       <r>  -1.5984  1.0000</r>
       <r>  -1.1322  1.0000</r>
       <r>  -1.1322  1.0000</r>
       <r>  -1.1322  1.0000</r>
       <r>  -1.1322  1.0000</r>
       <r>   1.7113  1.0000</r>
       <r>   1.7113  1.0000</r>
       <r>   1.7113  1.0000</r>
       <r>   1.7113  1.0000</r>
       <r>   9.3802  0.0000</r>
       <r>   9.3802  0.0000</r>
       <r>   9.3802  0.0000</r>
       <r>   9.3802  0.0000</r>
      </set>
      <set comment="kpoint 50">
       <r>  -3.7307  1.0000</r>
       <r>  -3.0416  1.0000</r>
       <r>  -3.0416  1.0000</r>
       <r>  -3.0416  1.0000</r>
       <r>  -2.8387  1.0000</r>
       <r>  -2.8387  1.0000</r>
       <r>  -2.8387  1.0000</r>
       <r>  -2.0941  1.0000</r>
       <r>  -1.8967  1.0000</r>
       <r>  -1.8967  1.0000</r>
       <r>  -1.2534  1.0000</r>
       <r>  -1.2534  1.0000</r>
       <r>  -1.1506  1.0000</r>
       <r>  -1.1506  1.0000</r>
       <r>  -1.1506  1.0000</r>
       <r>  -1.0038  1.0000</r>
       <r>  -1.0038  1.0000</r>
       <r>  -1.0038  1.0000</r>
       <r>  -0.5488  1.0000</r>
       <r>  -0.5488  1.0000</r>
       <r>  -0.5488  1.0000</r>
       <r>   3.5046  0.0000</r>
       <r>   3.5046  0.0000</r>
       <r>   3.5046  0.0000</r>
       <r>   9.4154  0.0000</r>
       <r>   9.4154  0.0000</r>
       <r>   9.4154  0.0000</r>
       <r>  10.5068  0.0000</r>
      </set>
      <set comment="kpoint 51">
       <r>  -3.4924  1.0000</r>
       <r>  -2.9703  1.0000</r>
       <r>  -2.9605  1.0000</r>
       <r>  -2.9605  1.0000</r>
       <r>  -2.7318  1.0000</r>
       <r>  -2.6815  1.0000</r>
       <r>  -2.6815  1.0000</r>
       <r>  -2.1002  1.0000</r>
       <r>  -1.8558  1.0000</r>
       <r>  -1.8515  1.0000</r>
       <r>  -1.4091  1.0000</r>
       <r>  -1.4091  1.0000</r>
       <r>  -1.3143  1.0000</r>
       <r>  -1.2848  1.0000</r>
       <r>  -1.1616  1.0000</r>
       <r>  -1.1435  1.0000</r>
       <r>  -1.0866  1.0000</r>
       <r>  -1.0866  1.0000</r>
       <r>  -0.5751  1.0000</r>
       <r>  -0.5751  1.0000</r>
       <r>  -0.5721  1.0000</r>
       <r>   2.3849  0.8750</r>
       <r>   3.9686  0.0000</r>
       <r>   3.9686  0.0000</r>
       <r>   8.4697  0.0000</r>
       <r>   8.4697  0.0000</r>
       <r>   9.9223  0.0000</r>
       <r>  10.6303  0.0000</r>
      </set>
      <set comment="kpoint 52">
       <r>  -3.2133  1.0000</r>
       <r>  -2.8941  1.0000</r>
       <r>  -2.8331  1.0000</r>
       <r>  -2.8331  1.0000</r>
       <r>  -2.5880  1.0000</r>
       <r>  -2.5200  1.0000</r>
       <r>  -2.5200  1.0000</r>
       <r>  -2.1454  1.0000</r>
       <r>  -1.8262  1.0000</r>
       <r>  -1.7904  1.0000</r>
       <r>  -1.6857  1.0000</r>
       <r>  -1.6857  1.0000</r>
       <r>  -1.5123  1.0000</r>
       <r>  -1.2953  1.0000</r>
       <r>  -1.1871  1.0000</r>
       <r>  -1.1746  1.0000</r>
       <r>  -1.1746  1.0000</r>
       <r>  -1.0504  1.0000</r>
       <r>  -0.6267  1.0000</r>
       <r>  -0.6111  1.0000</r>
       <r>  -0.6111  1.0000</r>
       <r>   1.3478  1.0000</r>
       <r>   4.5333  0.0000</r>
       <r>   4.5333  0.0000</r>
       <r>   7.5496  0.0000</r>
       <r>   7.5496  0.0000</r>
       <r>  10.4947  0.0000</r>
       <r>  10.9022  0.0000</r>
      </set>
      <set comment="kpoint 53">
       <r>  -2.9667  1.0000</r>
       <r>  -2.8352  1.0000</r>
       <r>  -2.6700  1.0000</r>
       <r>  -2.6700  1.0000</r>
       <r>  -2.4259  1.0000</r>
       <r>  -2.4259  1.0000</r>
       <r>  -2.4257  1.0000</r>
       <r>  -2.1979  1.0000</r>
       <r>  -1.8957  1.0000</r>
       <r>  -1.8957  1.0000</r>
       <r>  -1.8733  1.0000</r>
       <r>  -1.7143  1.0000</r>
       <r>  -1.6987  1.0000</r>
       <r>  -1.4451  1.0000</r>
       <r>  -1.2685  1.0000</r>
       <r>  -1.2685  1.0000</r>
       <r>  -0.9310  1.0000</r>
       <r>  -0.8557  1.0000</r>
       <r>  -0.7097  1.0000</r>
       <r>  -0.6376  1.0000</r>
       <r>  -0.6376  1.0000</r>
       <r>   0.4405  1.0000</r>
       <r>   5.1648  0.0000</r>
       <r>   5.1648  0.0000</r>
       <r>   6.7108  0.0000</r>
       <r>   6.7108  0.0000</r>
       <r>  11.1615  0.0000</r>
       <r>  11.2581  0.0000</r>
      </set>
      <set comment="kpoint 54">
       <r>  -2.8382  1.0000</r>
       <r>  -2.8382  1.0000</r>
       <r>  -2.5198  1.0000</r>
       <r>  -2.5198  1.0000</r>
       <r>  -2.4806  1.0000</r>
       <r>  -2.4806  1.0000</r>
       <r>  -2.2808  1.0000</r>
       <r>  -2.2808  1.0000</r>
       <r>  -1.9616  1.0000</r>
       <r>  -1.9616  1.0000</r>
       <r>  -1.8608  1.0000</r>
       <r>  -1.8608  1.0000</r>
       <r>  -1.5821  1.0000</r>
       <r>  -1.5821  1.0000</r>
       <r>  -1.3141  1.0000</r>
       <r>  -1.3141  1.0000</r>
       <r>  -0.8141  1.0000</r>
       <r>  -0.8141  1.0000</r>
       <r>  -0.6468  1.0000</r>
       <r>  -0.6468  1.0000</r>
       <r>  -0.3037  1.0000</r>
       <r>  -0.3037  1.0000</r>
       <r>   5.6979  0.0000</r>
       <r>   5.6979  0.0000</r>
       <r>   6.1101  0.0000</r>
       <r>   6.1101  0.0000</r>
       <r>  11.5111  0.0000</r>
       <r>  11.5111  0.0000</r>
      </set>
      <set comment="kpoint 55">
       <r>  -3.3186  1.0000</r>
       <r>  -2.9161  1.0000</r>
       <r>  -2.9066  1.0000</r>
       <r>  -2.9066  1.0000</r>
       <r>  -2.5736  1.0000</r>
       <r>  -2.5736  1.0000</r>
       <r>  -2.5294  1.0000</r>
       <r>  -2.0119  1.0000</r>
       <r>  -1.8530  1.0000</r>
       <r>  -1.8307  1.0000</r>
       <r>  -1.5511  1.0000</r>
       <r>  -1.5511  1.0000</r>
       <r>  -1.5245  1.0000</r>
       <r>  -1.2711  1.0000</r>
       <r>  -1.2314  1.0000</r>
       <r>  -1.2163  1.0000</r>
       <r>  -1.2163  1.0000</r>
       <r>  -1.0808  1.0000</r>
       <r>  -0.6014  1.0000</r>
       <r>  -0.5871  1.0000</r>
       <r>  -0.5871  1.0000</r>
       <r>   2.8203  0.0000</r>
       <r>   2.8203  0.0000</r>
       <r>   4.3811  0.0000</r>
       <r>   7.4091  0.0000</r>
       <r>   8.8910  0.0000</r>
       <r>   8.8910  0.0000</r>
       <r>  10.8400  0.0000</r>
      </set>
      <set comment="kpoint 56">
       <r>  -3.1287  1.0000</r>
       <r>  -2.8579  1.0000</r>
       <r>  -2.8287  1.0000</r>
       <r>  -2.8005  1.0000</r>
       <r>  -2.4289  1.0000</r>
       <r>  -2.4250  1.0000</r>
       <r>  -2.3950  1.0000</r>
       <r>  -1.9930  1.0000</r>
       <r>  -1.8224  1.0000</r>
       <r>  -1.7968  1.0000</r>
       <r>  -1.7748  1.0000</r>
       <r>  -1.7049  1.0000</r>
       <r>  -1.6906  1.0000</r>
       <r>  -1.3641  1.0000</r>
       <r>  -1.3248  1.0000</r>
       <r>  -1.2796  1.0000</r>
       <r>  -1.1979  1.0000</r>
       <r>  -0.8945  1.0000</r>
       <r>  -0.6459  1.0000</r>
       <r>  -0.6331  1.0000</r>
       <r>  -0.6320  1.0000</r>
       <r>   1.7577  1.0000</r>
       <r>   3.3557  0.0000</r>
       <r>   4.8779  0.0000</r>
       <r>   6.4630  0.0000</r>
       <r>   7.9435  0.0000</r>
       <r>   9.4331  0.0000</r>
       <r>  11.1592  0.0000</r>
      </set>
      <set comment="kpoint 57">
       <r>  -2.9658  1.0000</r>
       <r>  -2.8351  1.0000</r>
       <r>  -2.7068  1.0000</r>
       <r>  -2.6672  1.0000</r>
       <r>  -2.3922  1.0000</r>
       <r>  -2.3590  1.0000</r>
       <r>  -2.2485  1.0000</r>
       <r>  -1.9904  1.0000</r>
       <r>  -1.8956  1.0000</r>
       <r>  -1.8688  1.0000</r>
       <r>  -1.8446  1.0000</r>
       <r>  -1.7971  1.0000</r>
       <r>  -1.7423  1.0000</r>
       <r>  -1.5107  1.0000</r>
       <r>  -1.3966  1.0000</r>
       <r>  -1.3578  1.0000</r>
       <r>  -1.0012  1.0000</r>
       <r>  -0.7136  1.0000</r>
       <r>  -0.6847  1.0000</r>
       <r>  -0.6778  1.0000</r>
       <r>  -0.5525  1.0000</r>
       <r>   0.8186  1.0000</r>
       <r>   3.9683  0.0000</r>
       <r>   5.1968  0.0000</r>
       <r>   5.8801  0.0000</r>
       <r>   7.0911  0.0000</r>
       <r>  10.0823  0.0000</r>
       <r>  11.5849  0.0000</r>
      </set>
      <set comment="kpoint 58">
       <r>  -2.8648  1.0000</r>
       <r>  -2.8648  1.0000</r>
       <r>  -2.5949  1.0000</r>
       <r>  -2.5949  1.0000</r>
       <r>  -2.4279  1.0000</r>
       <r>  -2.4279  1.0000</r>
       <r>  -2.0649  1.0000</r>
       <r>  -2.0649  1.0000</r>
       <r>  -1.9421  1.0000</r>
       <r>  -1.9421  1.0000</r>
       <r>  -1.8351  1.0000</r>
       <r>  -1.8351  1.0000</r>
       <r>  -1.6404  1.0000</r>
       <r>  -1.6404  1.0000</r>
       <r>  -1.4165  1.0000</r>
       <r>  -1.4165  1.0000</r>
       <r>  -0.8337  1.0000</r>
       <r>  -0.8337  1.0000</r>
       <r>  -0.6977  1.0000</r>
       <r>  -0.6977  1.0000</r>
       <r>   0.0334  1.0000</r>
       <r>   0.0334  1.0000</r>
       <r>   4.6398  0.0000</r>
       <r>   4.6398  0.0000</r>
       <r>   6.3455  0.0000</r>
       <r>   6.3455  0.0000</r>
       <r>  10.8244  0.0000</r>
       <r>  10.8244  0.0000</r>
      </set>
      <set comment="kpoint 59">
       <r>  -3.0356  1.0000</r>
       <r>  -2.7933  1.0000</r>
       <r>  -2.7896  1.0000</r>
       <r>  -2.7896  1.0000</r>
       <r>  -2.3031  1.0000</r>
       <r>  -2.3007  1.0000</r>
       <r>  -2.3007  1.0000</r>
       <r>  -1.9641  1.0000</r>
       <r>  -1.8467  1.0000</r>
       <r>  -1.8467  1.0000</r>
       <r>  -1.8243  1.0000</r>
       <r>  -1.7003  1.0000</r>
       <r>  -1.6593  1.0000</r>
       <r>  -1.4473  1.0000</r>
       <r>  -1.4080  1.0000</r>
       <r>  -1.4080  1.0000</r>
       <r>  -1.2289  1.0000</r>
       <r>  -0.7009  1.0000</r>
       <r>  -0.6845  1.0000</r>
       <r>  -0.6845  1.0000</r>
       <r>  -0.5919  1.0000</r>
       <r>   2.2719  1.0000</r>
       <r>   2.2719  1.0000</r>
       <r>   5.0161  0.0000</r>
       <r>   5.8044  0.0000</r>
       <r>   8.4655  0.0000</r>
       <r>   8.4655  0.0000</r>
       <r>  11.5140  0.0000</r>
      </set>
      <set comment="kpoint 60">
       <r>  -2.9449  1.0000</r>
       <r>  -2.8117  1.0000</r>
       <r>  -2.7358  1.0000</r>
       <r>  -2.7147  1.0000</r>
       <r>  -2.3032  1.0000</r>
       <r>  -2.2922  1.0000</r>
       <r>  -2.1598  1.0000</r>
       <r>  -1.9947  1.0000</r>
       <r>  -1.8722  1.0000</r>
       <r>  -1.8187  1.0000</r>
       <r>  -1.8051  1.0000</r>
       <r>  -1.6889  1.0000</r>
       <r>  -1.6428  1.0000</r>
       <r>  -1.5362  1.0000</r>
       <r>  -1.5240  1.0000</r>
       <r>  -1.4623  1.0000</r>
       <r>  -1.0993  1.0000</r>
       <r>  -0.7769  1.0000</r>
       <r>  -0.7545  1.0000</r>
       <r>  -0.7451  1.0000</r>
       <r>  -0.1402  1.0000</r>
       <r>   1.3115  1.0000</r>
       <r>   2.8753  0.0000</r>
       <r>   4.3326  0.0000</r>
       <r>   6.1761  0.0000</r>
       <r>   7.5974  0.0000</r>
       <r>   9.0985  0.0000</r>
       <r>  10.6511  0.0000</r>
      </set>
      <set comment="kpoint 61">
       <r>  -2.8665  1.0000</r>
       <r>  -2.8665  1.0000</r>
       <r>  -2.6899  1.0000</r>
       <r>  -2.6899  1.0000</r>
       <r>  -2.3245  1.0000</r>
       <r>  -2.3245  1.0000</r>
       <r>  -2.0524  1.0000</r>
       <r>  -2.0524  1.0000</r>
       <r>  -1.8327  1.0000</r>
       <r>  -1.8327  1.0000</r>
       <r>  -1.7177  1.0000</r>
       <r>  -1.7177  1.0000</r>
       <r>  -1.6348  1.0000</r>
       <r>  -1.6348  1.0000</r>
       <r>  -1.5235  1.0000</r>
       <r>  -1.5235  1.0000</r>
       <r>  -0.9174  1.0000</r>
       <r>  -0.9174  1.0000</r>
       <r>  -0.7748  1.0000</r>
       <r>  -0.7748  1.0000</r>
       <r>   0.4984  1.0000</r>
[...]
       <r>   1.7763  1.0000</r>
       <r>   1.7763  1.0000</r>
       <r>   1.7763  1.0000</r>
       <r>   8.1323  0.0000</r>
       <r>   8.1323  0.0000</r>
       <r>   8.1323  0.0000</r>
       <r>   8.1323  0.0000</r>
      </set>
      <set comment="kpoint 65">
       <r>  -3.2349  1.0000</r>
       <r>  -2.8903  1.0000</r>
       <r>  -2.8903  1.0000</r>
       <r>  -2.8903  1.0000</r>
       <r>  -2.4307  1.0000</r>
       <r>  -2.4307  1.0000</r>
       <r>  -2.4307  1.0000</r>
       <r>  -1.8763  1.0000</r>
       <r>  -1.8763  1.0000</r>
       <r>  -1.7316  1.0000</r>
       <r>  -1.6124  1.0000</r>
       <r>  -1.6124  1.0000</r>
       <r>  -1.6124  1.0000</r>
       <r>  -1.3774  1.0000</r>
       <r>  -1.3774  1.0000</r>
       <r>  -1.3774  1.0000</r>
       <r>  -1.1334  1.0000</r>
       <r>  -1.1334  1.0000</r>
       <r>  -0.5776  1.0000</r>
       <r>  -0.5776  1.0000</r>
       <r>  -0.5776  1.0000</r>
       <r>   3.1949  0.0000</r>
       <r>   3.1949  0.0000</r>
       <r>   3.1949  0.0000</r>
       <r>   7.8079  0.0000</r>
       <r>   7.8079  0.0000</r>
       <r>   7.8079  0.0000</r>
       <r>  12.4793  0.0000</r>
      </set>
      <set comment="kpoint 66">
       <r>  -3.1392  1.0000</r>
       <r>  -2.8823  1.0000</r>
       <r>  -2.8395  1.0000</r>
       <r>  -2.8395  1.0000</r>
       <r>  -2.3323  1.0000</r>
       <r>  -2.3323  1.0000</r>
       <r>  -2.2971  1.0000</r>
       <r>  -1.9079  1.0000</r>
       <r>  -1.8703  1.0000</r>
       <r>  -1.6950  1.0000</r>
       <r>  -1.6948  1.0000</r>
       <r>  -1.6948  1.0000</r>
       <r>  -1.5578  1.0000</r>
       <r>  -1.5221  1.0000</r>
       <r>  -1.4563  1.0000</r>
       <r>  -1.4563  1.0000</r>
       <r>  -0.9912  1.0000</r>
       <r>  -0.9890  1.0000</r>
       <r>  -0.6106  1.0000</r>
       <r>  -0.6106  1.0000</r>
       <r>  -0.5910  1.0000</r>
       <r>   2.0935  1.0000</r>
       <r>   3.6637  0.0000</r>
       <r>   3.6637  0.0000</r>
       <r>   6.8445  0.0000</r>
       <r>   6.8445  0.0000</r>
       <r>   8.3364  0.0000</r>
       <r>  11.4551  0.0000</r>
      </set>
      <set comment="kpoint 67">
       <r>  -3.0436  1.0000</r>
       <r>  -2.9048  1.0000</r>
       <r>  -2.7718  1.0000</r>
       <r>  -2.7718  1.0000</r>
       <r>  -2.3319  1.0000</r>
       <r>  -2.3319  1.0000</r>
       <r>  -2.1491  1.0000</r>
       <r>  -1.9534  1.0000</r>
       <r>  -1.8304  1.0000</r>
       <r>  -1.7400  1.0000</r>
       <r>  -1.6910  1.0000</r>
       <r>  -1.6910  1.0000</r>
       <r>  -1.6517  1.0000</r>
       <r>  -1.6189  1.0000</r>
       <r>  -1.5119  1.0000</r>
       <r>  -1.5119  1.0000</r>
       <r>  -0.8519  1.0000</r>
       <r>  -0.6554  1.0000</r>
       <r>  -0.6554  1.0000</r>
       <r>  -0.6443  1.0000</r>
       <r>  -0.4780  1.0000</r>
       <r>   1.1031  1.0000</r>
       <r>   4.1737  0.0000</r>
       <r>   4.1737  0.0000</r>
       <r>   6.0423  0.0000</r>
       <r>   6.0423  0.0000</r>
       <r>   8.9766  0.0000</r>
       <r>  10.5422  0.0000</r>
      </set>
      <set comment="kpoint 68">
       <r>  -2.9610  1.0000</r>
       <r>  -2.9610  1.0000</r>
       <r>  -2.7341  1.0000</r>
       <r>  -2.7341  1.0000</r>
       <r>  -2.3601  1.0000</r>
       <r>  -2.3601  1.0000</r>
       <r>  -2.0258  1.0000</r>
       <r>  -2.0258  1.0000</r>
       <r>  -1.7565  1.0000</r>
       <r>  -1.7565  1.0000</r>
       <r>  -1.7139  1.0000</r>
       <r>  -1.7139  1.0000</r>
       <r>  -1.6448  1.0000</r>
       <r>  -1.6448  1.0000</r>
       <r>  -1.5561  1.0000</r>
       <r>  -1.5561  1.0000</r>
       <r>  -0.7337  1.0000</r>
       <r>  -0.7337  1.0000</r>
       <r>  -0.6762  1.0000</r>
       <r>  -0.6762  1.0000</r>
       <r>   0.2397  1.0000</r>
       <r>   0.2397  1.0000</r>
       <r>   4.4886  0.0000</r>
       <r>   4.4886  0.0000</r>
       <r>   5.6307  0.0000</r>
       <r>   5.6307  0.0000</r>
       <r>   9.7148  0.0000</r>
       <r>   9.7148  0.0000</r>
      </set>
      <set comment="kpoint 69">
       <r>  -3.1220  1.0000</r>
       <r>  -2.8804  1.0000</r>
       <r>  -2.8804  1.0000</r>
       <r>  -2.8553  1.0000</r>
       <r>  -2.2771  1.0000</r>
       <r>  -2.2410  1.0000</r>
       <r>  -2.2410  1.0000</r>
       <r>  -1.9246  1.0000</r>
       <r>  -1.9028  1.0000</r>
       <r>  -1.6903  1.0000</r>
       <r>  -1.6903  1.0000</r>
       <r>  -1.5917  1.0000</r>
       <r>  -1.5916  1.0000</r>
       <r>  -1.5631  1.0000</r>
       <r>  -1.5631  1.0000</r>
       <r>  -1.2477  1.0000</r>
       <r>  -1.0616  1.0000</r>
       <r>  -0.6724  1.0000</r>
       <r>  -0.6321  1.0000</r>
       <r>  -0.6120  1.0000</r>
       <r>  -0.6120  1.0000</r>
       <r>   2.5384  0.0000</r>
       <r>   2.5384  0.0000</r>
       <r>   4.0005  0.0000</r>
       <r>   5.9444  0.0000</r>
       <r>   7.3563  0.0000</r>
       <r>   7.3563  0.0000</r>
       <r>  10.4476  0.0000</r>
      </set>
      <set comment="kpoint 70">
       <r>  -3.0783  1.0000</r>
       <r>  -2.9443  1.0000</r>
       <r>  -2.8660  1.0000</r>
       <r>  -2.8559  1.0000</r>
       <r>  -2.2684  1.0000</r>
       <r>  -2.2550  1.0000</r>
       <r>  -2.1400  1.0000</r>
       <r>  -1.9762  1.0000</r>
       <r>  -1.8863  1.0000</r>
       <r>  -1.7495  1.0000</r>
       <r>  -1.6953  1.0000</r>
       <r>  -1.6661  1.0000</r>
       <r>  -1.5462  1.0000</r>
       <r>  -1.5016  1.0000</r>
       <r>  -1.4948  1.0000</r>
       <r>  -1.3054  1.0000</r>
       <r>  -0.8970  1.0000</r>
       <r>  -0.6741  1.0000</r>
       <r>  -0.6621  1.0000</r>
       <r>  -0.6578  1.0000</r>
       <r>  -0.1203  1.0000</r>
       <r>   1.5225  1.0000</r>
       <r>   3.0719  0.0000</r>
       <r>   4.0890  0.0000</r>
       <r>   5.5149  0.0000</r>
       <r>   6.5077  0.0000</r>
       <r>   7.9816  0.0000</r>
       <r>   9.5319  0.0000</r>
      </set>
      <set comment="kpoint 71">
       <r>  -3.0153  1.0000</r>
       <r>  -3.0153  1.0000</r>
       <r>  -2.8557  1.0000</r>
       <r>  -2.8557  1.0000</r>
       <r>  -2.2721  1.0000</r>
       <r>  -2.2721  1.0000</r>
       <r>  -2.0491  1.0000</r>
       <r>  -2.0491  1.0000</r>
       <r>  -1.8313  1.0000</r>
       <r>  -1.8313  1.0000</r>
       <r>  -1.6922  1.0000</r>
       <r>  -1.6922  1.0000</r>
       <r>  -1.4567  1.0000</r>
       <r>  -1.4567  1.0000</r>
       <r>  -1.4392  1.0000</r>
       <r>  -1.4392  1.0000</r>
       <r>  -0.7513  1.0000</r>
       <r>  -0.7513  1.0000</r>
       <r>  -0.6931  1.0000</r>
       <r>  -0.6931  1.0000</r>
       <r>   0.6296  1.0000</r>
       <r>   0.6296  1.0000</r>
       <r>   3.6523  0.0000</r>
       <r>   3.6523  0.0000</r>
       <r>   5.8304  0.0000</r>
       <r>   5.8304  0.0000</r>
       <r>   8.7090  0.0000</r>
       <r>   8.7090  0.0000</r>
      </set>
      <set comment="kpoint 72">
       <r>  -3.0724  1.0000</r>
       <r>  -2.9580  1.0000</r>
       <r>  -2.9580  1.0000</r>
       <r>  -2.9147  1.0000</r>
       <r>  -2.2173  1.0000</r>
       <r>  -2.1620  1.0000</r>
       <r>  -2.1620  1.0000</r>
       <r>  -2.0087  1.0000</r>
       <r>  -1.9082  1.0000</r>
       <r>  -1.7939  1.0000</r>
       <r>  -1.7939  1.0000</r>
       <r>  -1.7595  1.0000</r>
       <r>  -1.3673  1.0000</r>
       <r>  -1.3673  1.0000</r>
       <r>  -1.3458  1.0000</r>
       <r>  -1.1181  1.0000</r>
       <r>  -0.9562  1.0000</r>
       <r>  -0.7232  1.0000</r>
       <r>  -0.7169  1.0000</r>
       <r>  -0.7169  1.0000</r>
       <r>   0.4482  1.0000</r>
       <r>   2.0670  1.0000</r>
       <r>   2.0670  1.0000</r>
       <r>   3.4577  0.0000</r>
       <r>   5.7663  0.0000</r>
       <r>   7.1045  0.0000</r>
       <r>   7.1045  0.0000</r>
       <r>   8.6212  0.0000</r>
      </set>
      <set comment="kpoint 73">
       <r>  -3.0301  1.0000</r>
       <r>  -3.0301  1.0000</r>
       <r>  -2.9482  1.0000</r>
       <r>  -2.9482  1.0000</r>
       <r>  -2.1853  1.0000</r>
       <r>  -2.1853  1.0000</r>
       <r>  -2.0748  1.0000</r>
       <r>  -2.0748  1.0000</r>
       <r>  -1.8723  1.0000</r>
       <r>  -1.8723  1.0000</r>
       <r>  -1.8008  1.0000</r>
       <r>  -1.8008  1.0000</r>
       <r>  -1.2831  1.0000</r>
       <r>  -1.2831  1.0000</r>
       <r>  -1.2186  1.0000</r>
       <r>  -1.2186  1.0000</r>
       <r>  -0.8260  1.0000</r>
       <r>  -0.8260  1.0000</r>
       <r>  -0.7548  1.0000</r>
       <r>  -0.7548  1.0000</r>
       <r>   1.1856  1.0000</r>
       <r>   1.1856  1.0000</r>
       <r>   2.7239  0.0000</r>
       <r>   2.7239  0.0000</r>
       <r>   6.3549  0.0000</r>
       <r>   6.3549  0.0000</r>
       <r>   7.8113  0.0000</r>
       <r>   7.8113  0.0000</r>
      </set>
      <set comment="kpoint 74">
       <r>  -3.0072  1.0000</r>
       <r>  -3.0072  1.0000</r>
       <r>  -3.0072  1.0000</r>
       <r>  -3.0072  1.0000</r>
       <r>  -2.1161  1.0000</r>
       <r>  -2.1161  1.0000</r>
       <r>  -2.1161  1.0000</r>
       <r>  -2.1161  1.0000</r>
       <r>  -1.8652  1.0000</r>
       <r>  -1.8652  1.0000</r>
       <r>  -1.8652  1.0000</r>
       <r>  -1.8652  1.0000</r>
       <r>  -1.1611  1.0000</r>
       <r>  -1.1611  1.0000</r>
       <r>  -1.1611  1.0000</r>
       <r>  -1.1611  1.0000</r>
       <r>  -0.8369  1.0000</r>
       <r>  -0.8369  1.0000</r>
       <r>  -0.8369  1.0000</r>
       <r>  -0.8369  1.0000</r>
       <r>   1.8895  1.0000</r>
       <r>   1.8895  1.0000</r>
       <r>   1.8895  1.0000</r>
       <r>   1.8895  1.0000</r>
       <r>   7.0244  0.0000</r>
       <r>   7.0244  0.0000</r>
       <r>   7.0244  0.0000</r>
       <r>   7.0244  0.0000</r>
      </set>
      <set comment="kpoint 75">
       <r>  -3.1618  1.0000</r>
       <r>  -2.9447  1.0000</r>
       <r>  -2.9447  1.0000</r>
       <r>  -2.9447  1.0000</r>
       <r>  -2.2116  1.0000</r>
       <r>  -2.2116  1.0000</r>
       <r>  -2.2116  1.0000</r>
       <r>  -1.9445  1.0000</r>
       <r>  -1.9445  1.0000</r>
       <r>  -1.7247  1.0000</r>
       <r>  -1.7247  1.0000</r>
       <r>  -1.7247  1.0000</r>
       <r>  -1.4627  1.0000</r>
       <r>  -1.4627  1.0000</r>
       <r>  -1.4627  1.0000</r>
       <r>  -0.9056  1.0000</r>
       <r>  -0.9056  1.0000</r>
       <r>  -0.6004  1.0000</r>
       <r>  -0.6004  1.0000</r>
       <r>  -0.6004  1.0000</r>
       <r>  -0.5551  1.0000</r>
       <r>   2.8842  0.0000</r>
       <r>   2.8842  0.0000</r>
       <r>   2.8842  0.0000</r>
       <r>   6.4024  0.0000</r>
       <r>   6.4024  0.0000</r>
       <r>   6.4024  0.0000</r>
       <r>   9.4332  0.0000</r>
      </set>
      <set comment="kpoint 76">
       <r>  -3.1565  1.0000</r>
       <r>  -3.0369  1.0000</r>
       <r>  -2.9823  1.0000</r>
       <r>  -2.9823  1.0000</r>
       <r>  -2.2035  1.0000</r>
       <r>  -2.2035  1.0000</r>
       <r>  -2.1299  1.0000</r>
       <r>  -1.9885  1.0000</r>
       <r>  -1.9465  1.0000</r>
       <r>  -1.8330  1.0000</r>
       <r>  -1.7935  1.0000</r>
       <r>  -1.7935  1.0000</r>
       <r>  -1.3169  1.0000</r>
       <r>  -1.3022  1.0000</r>
       <r>  -1.3022  1.0000</r>
       <r>  -1.0068  1.0000</r>
       <r>  -0.7724  1.0000</r>
       <r>  -0.6306  1.0000</r>
       <r>  -0.6306  1.0000</r>
       <r>  -0.6136  1.0000</r>
       <r>   0.1036  1.0000</r>
       <r>   1.8491  1.0000</r>
       <r>   3.2446  0.0000</r>
       <r>   3.2446  0.0000</r>
       <r>   5.6743  0.0000</r>
       <r>   5.6743  0.0000</r>
       <r>   6.9978  0.0000</r>
       <r>   8.5189  0.0000</r>
      </set>
      <set comment="kpoint 77">
       <r>  -3.1119  1.0000</r>
       <r>  -3.1119  1.0000</r>
       <r>  -2.9946  1.0000</r>
       <r>  -2.9946  1.0000</r>
       <r>  -2.2034  1.0000</r>
       <r>  -2.2034  1.0000</r>
       <r>  -2.0519  1.0000</r>
       <r>  -2.0519  1.0000</r>
       <r>  -1.9086  1.0000</r>
       <r>  -1.9086  1.0000</r>
       <r>  -1.8155  1.0000</r>
       <r>  -1.8155  1.0000</r>
       <r>  -1.2328  1.0000</r>
       <r>  -1.2328  1.0000</r>
       <r>  -1.1604  1.0000</r>
       <r>  -1.1604  1.0000</r>
       <r>  -0.6724  1.0000</r>
       <r>  -0.6724  1.0000</r>
       <r>  -0.6539  1.0000</r>
       <r>  -0.6539  1.0000</r>
       <r>   0.9186  1.0000</r>
       <r>   0.9186  1.0000</r>
       <r>   3.4291  0.0000</r>
       <r>   3.4291  0.0000</r>
       <r>   5.3667  0.0000</r>
       <r>   5.3667  0.0000</r>
       <r>   7.7060  0.0000</r>
       <r>   7.7060  0.0000</r>
      </set>
      <set comment="kpoint 78">
       <r>  -3.1813  1.0000</r>
       <r>  -3.0872  1.0000</r>
       <r>  -3.0872  1.0000</r>
       <r>  -3.0593  1.0000</r>
       <r>  -2.1603  1.0000</r>
       <r>  -2.1276  1.0000</r>
       <r>  -2.1276  1.0000</r>
       <r>  -2.0042  1.0000</r>
       <r>  -1.9832  1.0000</r>
       <r>  -1.8938  1.0000</r>
       <r>  -1.8938  1.0000</r>
       <r>  -1.8772  1.0000</r>
       <r>  -1.1158  1.0000</r>
       <r>  -1.1158  1.0000</r>
       <r>  -1.1147  1.0000</r>
       <r>  -0.8131  1.0000</r>
       <r>  -0.8118  1.0000</r>
       <r>  -0.6470  1.0000</r>
       <r>  -0.6353  1.0000</r>
       <r>  -0.6353  1.0000</r>
       <r>   0.6471  1.0000</r>
       <r>   2.2868  1.0000</r>
       <r>   2.2868  1.0000</r>
       <r>   3.1818  0.0000</r>
       <r>   5.3216  0.0000</r>
       <r>   6.1724  0.0000</r>
       <r>   6.1724  0.0000</r>
       <r>   7.6172  0.0000</r>
      </set>
      <set comment="kpoint 79">
       <r>  -3.1563  1.0000</r>
       <r>  -3.1563  1.0000</r>
       <r>  -3.0947  1.0000</r>
       <r>  -3.0947  1.0000</r>
       <r>  -2.1352  1.0000</r>
       <r>  -2.1352  1.0000</r>
       <r>  -2.0575  1.0000</r>
       <r>  -2.0575  1.0000</r>
       <r>  -1.9593  1.0000</r>
       <r>  -1.9593  1.0000</r>
       <r>  -1.9112  1.0000</r>
       <r>  -1.9112  1.0000</r>
       <r>  -1.0283  1.0000</r>
       <r>  -1.0283  1.0000</r>
       <r>  -0.9453  1.0000</r>
       <r>  -0.9453  1.0000</r>
       <r>  -0.6939  1.0000</r>
       <r>  -0.6939  1.0000</r>
       <r>  -0.6673  1.0000</r>
       <r>  -0.6673  1.0000</r>
       <r>   1.4016  1.0000</r>
       <r>   1.4016  1.0000</r>
       <r>   2.7850  0.0000</r>
       <r>   2.7850  0.0000</r>
       <r>   5.5614  0.0000</r>
       <r>   5.5614  0.0000</r>
       <r>   6.8317  0.0000</r>
       <r>   6.8317  0.0000</r>
      </set>
      <set comment="kpoint 80">
       <r>  -3.1499  1.0000</r>
       <r>  -3.1499  1.0000</r>
       <r>  -3.1499  1.0000</r>
       <r>  -3.1499  1.0000</r>
       <r>  -2.0812  1.0000</r>
       <r>  -2.0812  1.0000</r>
       <r>  -2.0812  1.0000</r>
       <r>  -2.0812  1.0000</r>
       <r>  -1.9643  1.0000</r>
       <r>  -1.9643  1.0000</r>
       <r>  -1.9643  1.0000</r>
       <r>  -1.9643  1.0000</r>
       <r>  -0.8825  1.0000</r>
       <r>  -0.8825  1.0000</r>
       <r>  -0.8825  1.0000</r>
       <r>  -0.8825  1.0000</r>
       <r>  -0.7213  1.0000</r>
       <r>  -0.7213  1.0000</r>
       <r>  -0.7213  1.0000</r>
       <r>  -0.7213  1.0000</r>
       <r>   2.0486  1.0000</r>
       <r>   2.0486  1.0000</r>
       <r>   2.0486  1.0000</r>
       <r>   2.0486  1.0000</r>
       <r>   6.1022  0.0000</r>
       <r>   6.1022  0.0000</r>
       <r>   6.1022  0.0000</r>
       <r>   6.1022  0.0000</r>
      </set>
      <set comment="kpoint 81">
       <r>  -3.2318  1.0000</r>
       <r>  -3.1663  1.0000</r>
       <r>  -3.1663  1.0000</r>
       <r>  -3.1663  1.0000</r>
       <r>  -2.1007  1.0000</r>
       <r>  -2.1007  1.0000</r>
       <r>  -2.1007  1.0000</r>
       <r>  -2.0183  1.0000</r>
       <r>  -2.0183  1.0000</r>
       <r>  -1.9633  1.0000</r>
       <r>  -1.9633  1.0000</r>
       <r>  -1.9633  1.0000</r>
       <r>  -0.9117  1.0000</r>
       <r>  -0.9117  1.0000</r>
       <r>  -0.9117  1.0000</r>
       <r>  -0.7014  1.0000</r>
       <r>  -0.7014  1.0000</r>
       <r>  -0.6158  1.0000</r>
       <r>  -0.6158  1.0000</r>
       <r>  -0.6158  1.0000</r>
       <r>   1.0964  1.0000</r>
       <r>   2.5160  0.0000</r>
       <r>   2.5160  0.0000</r>
       <r>   2.5160  0.0000</r>
       <r>   5.5003  0.0000</r>
       <r>   5.5003  0.0000</r>
       <r>   5.5003  0.0000</r>
       <r>   6.7454  0.0000</r>
      </set>
      <set comment="kpoint 82">
       <r>  -3.2257  1.0000</r>
       <r>  -3.2257  1.0000</r>
       <r>  -3.1929  1.0000</r>
       <r>  -3.1929  1.0000</r>
       <r>  -2.0894  1.0000</r>
       <r>  -2.0894  1.0000</r>
       <r>  -2.0511  1.0000</r>
       <r>  -2.0511  1.0000</r>
       <r>  -2.0114  1.0000</r>
       <r>  -2.0114  1.0000</r>
       <r>  -1.9888  1.0000</r>
       <r>  -1.9888  1.0000</r>
       <r>  -0.8191  1.0000</r>
       <r>  -0.8191  1.0000</r>
       <r>  -0.7595  1.0000</r>
       <r>  -0.7595  1.0000</r>
       <r>  -0.6343  1.0000</r>
       <r>  -0.6343  1.0000</r>
       <r>  -0.6302  1.0000</r>
       <r>  -0.6302  1.0000</r>
       <r>   1.7583  1.0000</r>
       <r>   1.7583  1.0000</r>
       <r>   2.6261  0.0000</r>
       <r>   2.6261  0.0000</r>
       <r>   5.2399  0.0000</r>
       <r>   5.2399  0.0000</r>
       <r>   6.0244  0.0000</r>
       <r>   6.0244  0.0000</r>
      </set>
      <set comment="kpoint 83">
       <r>  -3.2375  1.0000</r>
       <r>  -3.2375  1.0000</r>
       <r>  -3.2375  1.0000</r>
       <r>  -3.2375  1.0000</r>
       <r>  -2.0566  1.0000</r>
       <r>  -2.0566  1.0000</r>
       <r>  -2.0566  1.0000</r>
       <r>  -2.0566  1.0000</r>
       <r>  -2.0265  1.0000</r>
       <r>  -2.0265  1.0000</r>
       <r>  -2.0265  1.0000</r>
       <r>  -2.0265  1.0000</r>
       <r>  -0.6901  1.0000</r>
       <r>  -0.6901  1.0000</r>
       <r>  -0.6901  1.0000</r>
       <r>  -0.6901  1.0000</r>
       <r>  -0.6469  1.0000</r>
       <r>  -0.6469  1.0000</r>
       <r>  -0.6469  1.0000</r>
       <r>  -0.6469  1.0000</r>
       <r>   2.2176  1.0000</r>
       <r>   2.2176  1.0000</r>
       <r>   2.2176  1.0000</r>
       <r>   2.2176  1.0000</r>
       <r>   5.4497  0.0000</r>
       <r>   5.4497  0.0000</r>
       <r>   5.4497  0.0000</r>
       <r>   5.4497  0.0000</r>
      </set>
      <set comment="kpoint 84">
       <r>  -3.2671  1.0000</r>
       <r>  -3.2671  1.0000</r>
       <r>  -3.2671  1.0000</r>
       <r>  -3.2671  1.0000</r>
       <r>  -2.0477  1.0000</r>
       <r>  -2.0477  1.0000</r>
       <r>  -2.0477  1.0000</r>
       <r>  -2.0477  1.0000</r>
       <r>  -2.0477  1.0000</r>
       <r>  -2.0477  1.0000</r>
       <r>  -2.0477  1.0000</r>
       <r>  -2.0477  1.0000</r>
       <r>  -0.6213  1.0000</r>
       <r>  -0.6213  1.0000</r>
       <r>  -0.6213  1.0000</r>
       <r>  -0.6213  1.0000</r>
       <r>  -0.6213  1.0000</r>
       <r>  -0.6213  1.0000</r>
       <r>  -0.6213  1.0000</r>
       <r>  -0.6213  1.0000</r>
       <r>   2.2985  1.0000</r>
       <r>   2.2985  1.0000</r>
       <r>   2.2985  1.0000</r>
       <r>   2.2985  1.0000</r>
       <r>   5.2028  0.0000</r>
       <r>   5.2028  0.0000</r>
       <r>   5.2028  0.0000</r>
       <r>   5.2028  0.0000</r>
      </set>
     </set>
    </set>
   </array>
  </eigenvalues>
 </calculation>
 <structure name="finalpos" >
  <crystal>
   <varray name="basis" >
    <v>       4.28812153      0.00000000      0.00000000</v>
    <v>       0.00000000      4.28812153      0.00000000</v>
    <v>       0.00000000      0.00000000      4.28812153</v>
   </varray>
   <i name="volume">     78.84991949</i>
   <varray name="rec_basis" >
    <v>       0.23320235      0.00000000      0.00000000</v>
    <v>       0.00000000      0.23320235      0.00000000</v>
    <v>       0.00000000      0.00000000      0.23320235</v>
   </varray>
  </crystal>
  <varray name="positions" >
   <v>       0.00000000      0.00000000      0.00000000</v>
   <v>       0.50000000      0.50000000      0.00000000</v>
   <v>       0.50000000      0.00000000      0.50000000</v>
   <v>       0.00000000      0.50000000      0.50000000</v>
  </varray>
 </structure>
</modeling>
