 running on    8 nodes
 distr:  one band on    1 nodes,    8 groups
 vasp.4.6.28 25Jul05 complex 
 POSCAR found :  1 types and    4 ions
 LDA part: xc-table for Pade appr. of Perdew
 POSCAR, INCAR and KPOINTS ok, starting setup
 WARNING: wrap around errors must be expected
 FFT: planning ...           1
 reading WAVECAR
 entering main loop
       N       E                     dE             d eps       ncg     rms          rms(c)
DAV:   1     0.354308063846E+03    0.35431E+03   -0.30833E+04 85960   0.312E+03
DAV:   2     0.948064002586E+01   -0.34483E+03   -0.32920E+03 85208   0.462E+02
DAV:   3    -0.168239256909E+02   -0.26305E+02   -0.25432E+02 93720   0.150E+02
DAV:   4    -0.171985310785E+02   -0.37461E+00   -0.37427E+00 95216   0.181E+01
DAV:   5    -0.171992915444E+02   -0.76047E-03   -0.76045E-03 95384   0.755E-01    0.131E+01
DAV:   6    -0.159923101094E+02    0.12070E+01   -0.27168E+01 93200   0.797E+01    0.802E+00
DAV:   7    -0.142045649626E+02    0.17877E+01   -0.59797E+00 96648   0.366E+01    0.737E-01
DAV:   8    -0.141949565084E+02    0.96085E-02   -0.93222E-02 99216   0.335E+00    0.865E-01
DAV:   9    -0.141807931253E+02    0.14163E-01   -0.43078E-02 97896   0.309E+00    0.108E-01
DAV:  10    -0.141806729589E+02    0.12017E-03   -0.11901E-03 98032   0.472E-01    0.112E-02
DAV:  11    -0.141806778071E+02   -0.48481E-05   -0.19016E-05 95696   0.378E-02    0.165E-03
DAV:  12    -0.141806798114E+02   -0.20043E-05   -0.12529E-06 98856   0.152E-02    0.189E-03
DAV:  13    -0.141806807541E+02   -0.94275E-06   -0.29307E-07 97696   0.771E-03    0.464E-04
DAV:  14    -0.141806807656E+02   -0.11452E-07   -0.12677E-08 57968   0.182E-03    0.127E-05
DAV:  15    -0.141806807589E+02    0.66930E-08   -0.11282E-09 53288   0.285E-04
   1 F= -.14180681E+02 E0= -.14180639E+02  d E =-.834989E-04
