   4   4   0   0
  0.1473188E+02  0.3891402E-09  0.3891402E-09  0.3891402E-09  0.5000000E-15
  1.000000000000000E-004
  CAR 
 unknown system                          
     22.36939062     -7.02644495  301      2.11274935      1.00000000
     -7.026  0.0000E+00  0.0000E+00
     -6.928  0.0000E+00  0.0000E+00
     -6.830  0.0000E+00  0.0000E+00
     -6.732  0.0000E+00  0.0000E+00
     -6.635  0.0000E+00  0.0000E+00
     -6.537  0.0000E+00  0.0000E+00
     -6.439  0.0000E+00  0.0000E+00
     -6.341  0.0000E+00  0.0000E+00
     -6.243  0.0000E+00  0.0000E+00
     -6.145  0.0000E+00  0.0000E+00
     -6.047  0.0000E+00  0.0000E+00
     -5.949  0.0000E+00  0.0000E+00
     -5.851  0.0000E+00  0.0000E+00
     -5.753  0.0000E+00  0.0000E+00
     -5.655  0.1661E-01  0.1627E-02
     -5.557  0.8509E-01  0.1181E-01
     -5.459  0.1395E+00  0.2829E-01
     -5.361  0.1653E+00  0.4788E-01
     -5.263  0.1991E+00  0.7151E-01
     -5.165  0.2045E+00  0.9681E-01
     -5.067  0.2460E+00  0.1258E+00
     -4.969  0.2852E+00  0.1593E+00
     -4.871  0.2809E+00  0.1900E+00
     -4.773  0.2922E+00  0.2269E+00
     -4.675  0.3148E+00  0.2644E+00
     -4.577  0.3298E+00  0.3047E+00
     -4.479  0.4524E+00  0.3510E+00
     -4.381  0.3594E+00  0.3906E+00
     -4.283  0.4020E+00  0.4408E+00
     -4.185  0.4161E+00  0.4884E+00
     -4.087  0.4268E+00  0.5415E+00
     -3.989  0.3790E+00  0.5929E+00
     -3.891  0.5164E+00  0.6527E+00
     -3.793  0.4802E+00  0.7101E+00
     -3.695  0.4660E+00  0.7672E+00
     -3.597  0.5490E+00  0.8332E+00
     -3.499  0.4771E+00  0.8950E+00
     -3.401  0.5587E+00  0.9666E+00
     -3.303  0.5772E+00  0.1036E+01
     -3.205  0.5746E+00  0.1110E+01
     -3.107  0.7343E+00  0.1191E+01
     -3.009  0.6312E+00  0.1268E+01
     -2.911  0.7591E+00  0.1361E+01
     -2.813  0.7665E+00  0.1449E+01
     -2.715  0.8615E+00  0.1548E+01
     -2.617  0.8898E+00  0.1646E+01
     -2.519  0.9383E+00  0.1752E+01
     -2.421  0.1010E+01  0.1869E+01
     -2.323  0.1070E+01  0.1995E+01
     -2.225  0.1142E+01  0.2135E+01
     -2.127  0.1360E+01  0.2296E+01
     -2.029  0.1406E+01  0.2469E+01
     -1.931  0.1880E+01  0.2695E+01
     -1.833  0.2697E+01  0.3006E+01
     -1.735  0.2943E+01  0.3357E+01
     -1.637  0.3771E+01  0.3797E+01
     -1.539  0.4781E+01  0.4367E+01
     -1.441  0.5070E+01  0.4981E+01
     -1.343  0.5310E+01  0.5609E+01
     -1.245  0.7252E+01  0.6461E+01
     -1.147  0.9111E+01  0.7541E+01
     -1.049  0.1063E+02  0.8796E+01
     -0.951  0.8887E+01  0.9898E+01
     -0.853  0.9865E+01  0.1105E+02
     -0.755  0.9500E+01  0.1219E+02
     -0.657  0.1102E+02  0.1346E+02
     -0.559  0.1363E+02  0.1504E+02
     -0.461  0.1504E+02  0.1680E+02
     -0.363  0.1717E+02  0.1881E+02
     -0.265  0.1923E+02  0.2109E+02
     -0.167  0.2082E+02  0.2359E+02
     -0.069  0.1355E+02  0.2524E+02
      0.029  0.1185E+02  0.2667E+02
      0.127  0.1515E+02  0.2842E+02
      0.225  0.1798E+02  0.3053E+02
      0.323  0.1616E+02  0.3250E+02
      0.421  0.1488E+02  0.3428E+02
      0.518  0.1611E+02  0.3619E+02
      0.616  0.2470E+02  0.3898E+02
      0.714  0.1847E+02  0.4147E+02
      0.812  0.2269E+01  0.4194E+02
      0.910  0.1641E+01  0.4215E+02
      1.008  0.1472E+01  0.4233E+02
      1.106  0.1407E+01  0.4251E+02
      1.204  0.1430E+01  0.4267E+02
      1.302  0.1392E+01  0.4284E+02
      1.400  0.1219E+01  0.4298E+02
      1.498  0.1067E+01  0.4312E+02
      1.596  0.1444E+01  0.4328E+02
      1.694  0.9315E+00  0.4340E+02
      1.792  0.1369E+01  0.4356E+02
      1.890  0.9879E+00  0.4369E+02
      1.988  0.1346E+01  0.4385E+02
      2.086  0.9850E+00  0.4396E+02
      2.184  0.1271E+01  0.4411E+02
      2.282  0.9944E+00  0.4423E+02
      2.380  0.1235E+01  0.4437E+02
      2.478  0.8793E+00  0.4449E+02
      2.576  0.1115E+01  0.4461E+02
      2.674  0.1116E+01  0.4474E+02
      2.772  0.8952E+00  0.4485E+02
      2.870  0.1055E+01  0.4498E+02
      2.968  0.9551E+00  0.4510E+02
      3.066  0.9269E+00  0.4521E+02
      3.164  0.1096E+01  0.4534E+02
      3.262  0.8279E+00  0.4544E+02
      3.360  0.1028E+01  0.4555E+02
      3.458  0.8951E+00  0.4567E+02
      3.556  0.7852E+00  0.4577E+02
      3.654  0.9608E+00  0.4588E+02
      3.752  0.9519E+00  0.4600E+02
      3.850  0.9411E+00  0.4609E+02
      3.948  0.1134E+01  0.4622E+02
      4.046  0.9074E+00  0.4632E+02
      4.144  0.7369E+00  0.4641E+02
      4.242  0.7945E+00  0.4651E+02
      4.340  0.9851E+00  0.4662E+02
      4.438  0.7076E+00  0.4670E+02
      4.536  0.8048E+00  0.4679E+02
      4.634  0.8037E+00  0.4688E+02
      4.732  0.7021E+00  0.4697E+02
      4.830  0.6102E+00  0.4705E+02
      4.928  0.9546E+00  0.4715E+02
      5.026  0.9920E+00  0.4726E+02
      5.124  0.9755E+00  0.4738E+02
      5.222  0.1098E+01  0.4751E+02
      5.320  0.1077E+01  0.4764E+02
      5.418  0.1121E+01  0.4777E+02
      5.516  0.1067E+01  0.4790E+02
      5.614  0.9988E+00  0.4802E+02
      5.712  0.1099E+01  0.4816E+02
      5.810  0.1103E+01  0.4829E+02
      5.908  0.8496E+00  0.4840E+02
      6.006  0.1141E+01  0.4854E+02
      6.104  0.9827E+00  0.4866E+02
      6.202  0.9200E+00  0.4877E+02
      6.300  0.9201E+00  0.4890E+02
      6.398  0.9288E+00  0.4903E+02
      6.496  0.9928E+00  0.4914E+02
      6.594  0.1035E+01  0.4927E+02
      6.692  0.9506E+00  0.4937E+02
      6.790  0.8511E+00  0.4949E+02
      6.888  0.9788E+00  0.4961E+02
      6.986  0.9023E+00  0.4972E+02
      7.084  0.8407E+00  0.4982E+02
      7.182  0.1052E+01  0.4994E+02
      7.280  0.8652E+00  0.5005E+02
      7.378  0.7648E+00  0.5014E+02
      7.476  0.9507E+00  0.5026E+02
      7.573  0.8517E+00  0.5036E+02
      7.671  0.8348E+00  0.5046E+02
      7.769  0.8289E+00  0.5056E+02
      7.867  0.8556E+00  0.5067E+02
      7.965  0.1080E+01  0.5080E+02
      8.063  0.1084E+01  0.5093E+02
      8.161  0.1246E+01  0.5107E+02
      8.259  0.1165E+01  0.5121E+02
      8.357  0.1208E+01  0.5135E+02
      8.455  0.1217E+01  0.5149E+02
      8.553  0.1178E+01  0.5163E+02
      8.651  0.1230E+01  0.5178E+02
      8.749  0.1210E+01  0.5192E+02
      8.847  0.1298E+01  0.5207E+02
      8.945  0.1377E+01  0.5222E+02
      9.043  0.1275E+01  0.5237E+02
      9.141  0.1309E+01  0.5252E+02
      9.239  0.1341E+01  0.5268E+02
      9.337  0.1159E+01  0.5282E+02
      9.435  0.1207E+01  0.5297E+02
      9.533  0.1303E+01  0.5312E+02
      9.631  0.1366E+01  0.5328E+02
      9.729  0.1274E+01  0.5344E+02
      9.827  0.1264E+01  0.5359E+02
      9.925  0.1219E+01  0.5374E+02
     10.023  0.1229E+01  0.5389E+02
     10.121  0.1306E+01  0.5405E+02
     10.219  0.1481E+01  0.5422E+02
     10.317  0.1309E+01  0.5438E+02
     10.415  0.1253E+01  0.5453E+02
     10.513  0.1182E+01  0.5467E+02
     10.611  0.1441E+01  0.5483E+02
     10.709  0.1381E+01  0.5500E+02
     10.807  0.1317E+01  0.5516E+02
     10.905  0.1424E+01  0.5533E+02
     11.003  0.1387E+01  0.5548E+02
     11.101  0.1290E+01  0.5563E+02
     11.199  0.1330E+01  0.5579E+02
     11.297  0.1454E+01  0.5596E+02
     11.395  0.1477E+01  0.5614E+02
     11.493  0.1268E+01  0.5629E+02
     11.591  0.1107E+01  0.5644E+02
     11.689  0.1429E+01  0.5662E+02
     11.787  0.1364E+01  0.5678E+02
     11.885  0.1445E+01  0.5695E+02
     11.983  0.1448E+01  0.5713E+02
     12.081  0.1304E+01  0.5728E+02
     12.179  0.1576E+01  0.5746E+02
     12.277  0.1449E+01  0.5764E+02
     12.375  0.1238E+01  0.5780E+02
     12.473  0.1354E+01  0.5796E+02
     12.571  0.1619E+01  0.5815E+02
     12.669  0.1304E+01  0.5832E+02
     12.767  0.1431E+01  0.5850E+02
     12.865  0.1543E+01  0.5868E+02
     12.963  0.1445E+01  0.5886E+02
     13.061  0.1650E+01  0.5904E+02
     13.159  0.1392E+01  0.5920E+02
     13.257  0.1589E+01  0.5939E+02
     13.355  0.1618E+01  0.5958E+02
     13.453  0.1564E+01  0.5977E+02
     13.551  0.1631E+01  0.5996E+02
     13.649  0.1630E+01  0.6015E+02
     13.747  0.1495E+01  0.6035E+02
     13.845  0.1476E+01  0.6052E+02
     13.943  0.1481E+01  0.6070E+02
     14.041  0.1418E+01  0.6088E+02
     14.139  0.1500E+01  0.6105E+02
     14.237  0.1371E+01  0.6121E+02
     14.335  0.1445E+01  0.6138E+02
     14.433  0.1081E+01  0.6151E+02
     14.531  0.1201E+01  0.6165E+02
     14.628  0.1162E+01  0.6179E+02
     14.726  0.1184E+01  0.6192E+02
     14.824  0.9477E+00  0.6204E+02
     14.922  0.8487E+00  0.6214E+02
     15.020  0.8913E+00  0.6225E+02
     15.118  0.7401E+00  0.6234E+02
     15.216  0.6721E+00  0.6242E+02
     15.314  0.6915E+00  0.6250E+02
     15.412  0.7438E+00  0.6259E+02
     15.510  0.7316E+00  0.6267E+02
     15.608  0.5797E+00  0.6274E+02
     15.706  0.5618E+00  0.6281E+02
     15.804  0.4402E+00  0.6286E+02
     15.902  0.5928E+00  0.6293E+02
     16.000  0.4953E+00  0.6299E+02
     16.098  0.5115E+00  0.6305E+02
     16.196  0.4404E+00  0.6310E+02
     16.294  0.4987E+00  0.6316E+02
     16.392  0.4342E+00  0.6321E+02
     16.490  0.3549E+00  0.6325E+02
     16.588  0.4432E+00  0.6330E+02
     16.686  0.2574E+00  0.6333E+02
     16.784  0.3523E+00  0.6337E+02
     16.882  0.3223E+00  0.6341E+02
     16.980  0.3135E+00  0.6344E+02
     17.078  0.2272E+00  0.6347E+02
     17.176  0.2620E+00  0.6350E+02
     17.274  0.2975E+00  0.6354E+02
     17.372  0.1735E+00  0.6356E+02
     17.470  0.2688E+00  0.6359E+02
     17.568  0.2040E+00  0.6362E+02
     17.666  0.2208E+00  0.6364E+02
     17.764  0.1500E+00  0.6366E+02
     17.862  0.1784E+00  0.6369E+02
     17.960  0.1429E+00  0.6371E+02
     18.058  0.2043E+00  0.6373E+02
     18.156  0.1934E+00  0.6375E+02
     18.254  0.8745E-01  0.6376E+02
     18.352  0.1734E+00  0.6379E+02
     18.450  0.9925E-01  0.6380E+02
     18.548  0.1718E+00  0.6382E+02
     18.646  0.3810E-01  0.6383E+02
     18.744  0.1637E+00  0.6385E+02
     18.842  0.5149E-01  0.6386E+02
     18.940  0.1470E+00  0.6388E+02
     19.038  0.9444E-01  0.6389E+02
     19.136  0.1281E+00  0.6390E+02
     19.234  0.5250E-01  0.6391E+02
     19.332  0.7725E-01  0.6391E+02
     19.430  0.6299E-01  0.6392E+02
     19.528  0.1131E+00  0.6394E+02
     19.626  0.3350E-01  0.6394E+02
     19.724  0.6245E-01  0.6395E+02
     19.822  0.5214E-01  0.6396E+02
     19.920  0.3925E-01  0.6396E+02
     20.018  0.6671E-01  0.6397E+02
     20.116  0.3207E-01  0.6397E+02
     20.214  0.2791E-03  0.6398E+02
     20.312  0.4193E-01  0.6398E+02
     20.410  0.2204E-01  0.6398E+02
     20.508  0.4199E-01  0.6399E+02
     20.606  0.2911E-01  0.6399E+02
     20.704  0.1050E-01  0.6399E+02
     20.802  0.3240E-01  0.6400E+02
     20.900  0.8225E-02  0.6400E+02
     20.998  0.1050E-01  0.6400E+02
     21.096  0.1750E-02  0.6400E+02
     21.194  0.0000E+00  0.6400E+02
     21.292  0.0000E+00  0.6400E+02
     21.390  0.0000E+00  0.6400E+02
     21.488  0.0000E+00  0.6400E+02
     21.586  0.0000E+00  0.6400E+02
     21.683  0.0000E+00  0.6400E+02
     21.781  0.0000E+00  0.6400E+02
     21.879  0.0000E+00  0.6400E+02
     21.977  0.0000E+00  0.6400E+02
     22.075  0.0000E+00  0.6400E+02
     22.173  0.0000E+00  0.6400E+02
     22.271  0.0000E+00  0.6400E+02
     22.369  0.0000E+00  0.6400E+02
