    4    4    1    1
  0.1473188E+02  0.3891402E-09  0.3891402E-09  0.3891402E-09  0.5000000E-15
  1.000000000000000E-004
  CAR 
 unknown system                          
   44 1330   32
 
  0.0000000E+00  0.0000000E+00  0.0000000E+00  0.2143347E-04
   1       -5.6903
   2       -1.6591
   3       -1.6591
   4       -1.6591
   5       -1.3326
   6       -1.3326
   7       -1.3326
   8       -0.3508
   9       -0.3508
  10       -0.3508
  11        0.2357
  12        0.2357
  13        0.6270
  14        0.6270
  15        0.6270
  16        0.7363
  17        0.7363
  18        0.7363
  19        0.7363
  20        0.7363
  21        0.7363
  22        3.7734
  23        3.7734
  24        3.7734
  25        7.7961
  26        7.7961
  27        7.7961
  28       13.6279
  29       13.6279
  30       13.6279
  31       13.6279
  32       13.6279
 
  0.2777778E-01  0.0000000E+00  0.0000000E+00  0.1286008E-03
   1       -5.6823
   2       -1.6594
   3       -1.6558
   4       -1.6558
   5       -1.3308
   6       -1.3307
   7       -1.3307
   8       -0.3527
   9       -0.3492
  10       -0.3492
  11        0.2339
  12        0.2364
  13        0.6248
  14        0.6248
  15        0.6263
  16        0.7255
  17        0.7255
  18        0.7336
  19        0.7336
  20        0.7363
  21        0.7363
  22        3.7048
  23        3.7916
  24        3.7916
  25        7.7997
  26        7.7997
  27        7.8815
  28       13.5643
  29       13.5643
  30       13.5832
  31       13.5832
  32       13.6391
 
  0.5555556E-01  0.0000000E+00  0.0000000E+00  0.1286008E-03
   1       -5.6582
   2       -1.6604
   3       -1.6457
   4       -1.6457
   5       -1.3254
   6       -1.3249
   7       -1.3249
   8       -0.3585
   9       -0.3443
  10       -0.3443
  11        0.2287
  12        0.2386
  13        0.6180
  14        0.6180
  15        0.6240
  16        0.6940
  17        0.6940
  18        0.7256
  19        0.7256
  20        0.7363
  21        0.7363
  22        3.5149
  23        3.8456
  24        3.8456
  25        7.8106
  26        7.8106
  27        8.1220
  28       13.3862
  29       13.3862
  30       13.4552
  31       13.4552
  32       13.6728
 
  0.8333333E-01  0.0000000E+00  0.0000000E+00  0.1286008E-03
   1       -5.6181
   2       -1.6627
   3       -1.6291
   4       -1.6291
   5       -1.3164
   6       -1.3153
   7       -1.3153
   8       -0.3680
   9       -0.3363
  10       -0.3363
  11        0.2200
  12        0.2422
  13        0.6069
  14        0.6069
  15        0.6203
  16        0.6438
  17        0.6438
  18        0.7123
  19        0.7123
  20        0.7364
  21        0.7364
  22        3.2386
  23        3.9331
  24        3.9331
  25        7.8288
  26        7.8288
  27        8.4831
  28       13.1219
  29       13.1219
  30       13.2590
  31       13.2590
  32       13.7288
 
  0.1111111E+00  0.0000000E+00  0.0000000E+00  0.1286008E-03
   1       -5.5621
   2       -1.6670
   3       -1.6062
   4       -1.6062
   5       -1.3039
   6       -1.3019
   7       -1.3019
   8       -0.3813
   9       -0.3251
  10       -0.3251
  11        0.2081
  12        0.2473
  13        0.5780
  14        0.5780
  15        0.5914
  16        0.5914
  17        0.6150
  18        0.6940
  19        0.6940
  20        0.7364
  21        0.7364
  22        2.9104
  23        4.0511
  24        4.0511
  25        7.8545
  26        7.8545
  27        8.9310
  28       12.8002
  29       12.8002
  30       13.0126
  31       13.0126
  32       13.8069
 
  0.1388889E+00  0.0000000E+00  0.0000000E+00  0.1286008E-03
   1       -5.4903
   2       -1.6747
   3       -1.5774
   4       -1.5774
   5       -1.2880
   6       -1.2845
   7       -1.2845
   8       -0.3982
   9       -0.3108
  10       -0.3108
  11        0.1930
  12        0.2537
  13        0.5000
  14        0.5000
  15        0.5717
  16        0.5717
  17        0.6084
  18        0.6708
  19        0.6708
  20        0.7364
  21        0.7364
  22        2.5562
  23        4.1963
  24        4.1963
  25        7.8879
  26        7.8879
  27        9.4411
  28       12.4431
  29       12.4431
  30       12.7330
  31       12.7330
  32       13.9068
 
  0.1666667E+00  0.0000000E+00  0.0000000E+00  0.1286008E-03
   1       -5.4028
   2       -1.6876
   3       -1.5432
   4       -1.5432
   5       -1.2689
   6       -1.2632
   7       -1.2632
   8       -0.4185
   9       -0.2934
  10       -0.2934
  11        0.1749
  12        0.2615
  13        0.4129
  14        0.4129
  15        0.5481
  16        0.5481
  17        0.6004
  18        0.6433
  19        0.6433
  20        0.7364
  21        0.7364
  22        2.1938
  23        4.3653
  24        4.3653
  25        7.9294
  26        7.9294
  27        9.9971
  28       12.0654
  29       12.0654
  30       12.4337
  31       12.4337
  32       14.0281
 
  0.1944444E+00  0.0000000E+00  0.0000000E+00  0.1286008E-03
   1       -5.2997
   2       -1.7083
   3       -1.5042
   4       -1.5042
   5       -1.2465
   6       -1.2380
   7       -1.2380
   8       -0.4422
   9       -0.2729
  10       -0.2729
  11        0.1542
  12        0.2705
  13        0.3197
  14        0.3197
  15        0.5209
  16        0.5209
  17        0.5911
  18        0.6117
  19        0.6117
  20        0.7365
  21        0.7365
  22        1.8358
  23        4.5553
  24        4.5553
  25        7.9791
  26        7.9791
  27       10.5888
  28       11.6766
  29       11.6766
  30       12.1251
  31       12.1251
  32       14.1703
 
  0.2222222E+00  0.0000000E+00  0.0000000E+00  0.1286008E-03
   1       -5.1815
   2       -1.7401
   3       -1.4612
   4       -1.4612
   5       -1.2211
   6       -1.2087
   7       -1.2087
   8       -0.4689
   9       -0.2494
  10       -0.2494
  11        0.1311
  12        0.2225
  13        0.2225
  14        0.2808
  15        0.4905
  16        0.4905
  17        0.5764
  18        0.5764
  19        0.5806
  20        0.7365
  21        0.7365
  22        1.4920
  23        4.7639
  24        4.7639
  25        8.0376
  26        8.0376
  27       11.2093
  28       11.2829
  29       11.2829
  30       11.8145
  31       11.8145
  32       14.3330
 
  0.2500000E+00  0.0000000E+00  0.0000000E+00  0.1286008E-03
   1       -5.0482
   2       -1.7872
   3       -1.4151
   4       -1.4151
   5       -1.1929
   6       -1.1754
   7       -1.1754
   8       -0.4986
   9       -0.2231
  10       -0.2231
  11        0.1061
  12        0.1235
  13        0.1235
  14        0.2922
  15        0.4573
  16        0.4573
  17        0.5379
  18        0.5379
  19        0.5689
  20        0.7366
  21        0.7366
  22        1.1708
  23        4.9890
  24        4.9890
  25        8.1051
  26        8.1051
  27       10.8884
  28       10.8884
  29       11.5074
  30       11.5074
  31       11.8542
  32       14.5157
 
  0.2777778E+00  0.0000000E+00  0.0000000E+00  0.1286008E-03
   1       -4.9004
   2       -1.8545
   3       -1.3669
   4       -1.3669
   5       -1.1620
   6       -1.1379
   7       -1.1379
   8       -0.5309
   9       -0.1939
  10       -0.1939
  11        0.0242
  12        0.0242
  13        0.0797
  14        0.3046
  15        0.4221
  16        0.4221
  17        0.4967
  18        0.4967
  19        0.5562
  20        0.7366
  21        0.7366
  22        0.8798
  23        5.2290
  24        5.2290
  25        8.1822
  26        8.1822
  27       10.4959
  28       10.4959
  29       11.2077
  30       11.2077
  31       12.5204
  32       14.7176
 
  0.3055556E+00  0.0000000E+00  0.0000000E+00  0.1286008E-03
   1       -4.7384
   2       -1.9470
   3       -1.3180
   4       -1.3180
   5       -1.1287
   6       -1.0962
   7       -1.0962
   8       -0.5655
   9       -0.1620
  10       -0.1620
  11       -0.0743
  12       -0.0743
  13        0.0524
  14        0.3181
  15        0.3859
  16        0.3859
  17        0.4532
  18        0.4532
  19        0.5425
  20        0.6256
  21        0.7367
  22        0.7367
  23        5.4826
  24        5.4826
  25        8.2692
  26        8.2692
  27       10.1073
  28       10.1073
  29       10.9183
  30       10.9183
  31       13.2057
  32       14.9384
 
  0.3333333E+00  0.0000000E+00  0.0000000E+00  0.1286008E-03
   1       -4.5628
   2       -2.0684
   3       -1.2698
   4       -1.2698
   5       -1.0932
   6       -1.0504
   7       -1.0504
   8       -0.6023
   9       -0.1711
  10       -0.1711
  11       -0.1276
  12       -0.1276
  13        0.0249
  14        0.3323
  15        0.3495
  16        0.3495
  17        0.4079
  18        0.4079
  19        0.4134
  20        0.5280
  21        0.7367
  22        0.7367
  23        5.7489
  24        5.7489
  25        8.3666
  26        8.3666
  27        9.7239
  28        9.7239
  29       10.6414
  30       10.6414
  31       13.9084
  32       15.1774
 
  0.3611111E+00  0.0000000E+00  0.0000000E+00  0.1286008E-03
   1       -4.3744
   2       -2.2202
   3       -1.2240
   4       -1.2240
   5       -1.0558
   6       -1.0002
   7       -1.0002
   8       -0.6408
   9       -0.2654
  10       -0.2654
  11       -0.0907
  12       -0.0907
  13       -0.0018
  14        0.2453
  15        0.3145
  16        0.3145
  17        0.3474
  18        0.3612
  19        0.3612
  20        0.5127
  21        0.7367
  22        0.7367
  23        6.0269
  24        6.0269
  25        8.4746
  26        8.4746
  27        9.3466
  28        9.3466
  29       10.3786
  30       10.3786
  31       14.6270
  32       15.4339
 
  0.3888889E+00  0.0000000E+00  0.0000000E+00  0.1286008E-03
   1       -4.1740
   2       -2.4000
   3       -1.1825
   4       -1.1825
   5       -1.0167
   6       -0.9458
   7       -0.9458
   8       -0.6809
   9       -0.3566
  10       -0.3566
  11       -0.0516
  12       -0.0516
  13       -0.0266
  14        0.1194
  15        0.2822
  16        0.2822
  17        0.3137
  18        0.3137
  19        0.3630
  20        0.4969
  21        0.7368
  22        0.7368
  23        6.3161
  24        6.3161
  25        8.5930
  26        8.5930
  27        8.9763
  28        8.9763
  29       10.1316
  30       10.1316
  31       15.3604
  32       15.7074
 
  0.4166667E+00  0.0000000E+00  0.0000000E+00  0.1286008E-03
   1       -3.9629
   2       -2.6028
   3       -1.1473
   4       -1.1473
   5       -0.9763
   6       -0.8870
   7       -0.8870
   8       -0.7222
   9       -0.4445
  10       -0.4445
  11       -0.0482
  12       -0.0104
  13       -0.0104
  14        0.0311
  15        0.2546
  16        0.2546
  17        0.2657
  18        0.2657
  19        0.3792
  20        0.4805
  21        0.7368
  22        0.7368
  23        6.6158
  24        6.6158
  25        8.6134
  26        8.6134
  27        8.7210
  28        8.7210
  29        9.9025
  30        9.9025
  31       15.9974
  32       16.0042
 
  0.4444444E+00  0.0000000E+00  0.0000000E+00  0.1286008E-03
   1       -3.7426
   2       -2.8219
   3       -1.1203
   4       -1.1203
   5       -0.9348
   6       -0.8239
   7       -0.8239
   8       -0.7643
   9       -0.5286
  10       -0.5286
  11       -0.0648
  12       -0.0263
  13        0.0326
  14        0.0326
  15        0.2177
  16        0.2177
  17        0.2331
  18        0.2331
  19        0.3959
  20        0.4638
  21        0.7368
  22        0.7368
  23        6.9257
  24        6.9257
  25        8.2585
  26        8.2585
  27        8.8552
  28        8.8552
  29        9.6955
  30        9.6955
  31       16.3031
  32       16.3031
 
  0.4722222E+00  0.0000000E+00  0.0000000E+00  0.1286008E-03
   1       -3.5151
   2       -3.0507
   3       -1.1033
   4       -1.1033
   5       -0.8925
   6       -0.8069
   7       -0.7564
   8       -0.7564
   9       -0.6087
  10       -0.6087
  11       -0.0743
  12       -0.0592
  13        0.0772
  14        0.0772
  15        0.1701
  16        0.1701
  17        0.2196
  18        0.2196
  19        0.4127
  20        0.4468
  21        0.7368
  22        0.7368
  23        7.2452
  24        7.2452
  25        7.9120
  26        7.9120
  27        8.9822
  28        8.9822
  29        9.5245
  30        9.5245
  31       16.6241
  32       16.6241
 
  0.5000000E+00  0.0000000E+00  0.0000000E+00  0.6430041E-04
   1       -3.2833
   2       -3.2833
   3       -1.0975
   4       -1.0975
   5       -0.8498
   6       -0.8498
   7       -0.6847
   8       -0.6847
   9       -0.6847
  10       -0.6847
  11       -0.0737
  12       -0.0737
  13        0.1231
  14        0.1231
  15        0.1231
  16        0.1231
  17        0.2149
  18        0.2149
  19        0.4298
  20        0.4298
  21        0.7368
  22        0.7368
  23        7.5741
  24        7.5741
  25        7.5741
  26        7.5741
  27        9.0479
  28        9.0479
  29        9.4442
  30        9.4442
  31       16.9598
  32       16.9598
 
  0.2777778E-01  0.2777778E-01  0.0000000E+00  0.2572016E-03
   1       -5.6742
   2       -1.6560
   3       -1.6560
   4       -1.6524
   5       -1.3289
   6       -1.3289
   7       -1.3288
   8       -0.3538
   9       -0.3484
  10       -0.3476
  11        0.2334
  12        0.2359
  13        0.6225
  14        0.6239
  15        0.6239
  16        0.7166
  17        0.7229
  18        0.7229
  19        0.7336
  20        0.7336
  21        0.7346
  22        3.7229
  23        3.7229
  24        3.8098
  25        7.8033
  26        7.8853
  27        7.8853
  28       13.3990
  29       13.5754
  30       13.5754
  31       13.5944
  32       13.5944
 
  0.5555556E-01  0.2777778E-01  0.0000000E+00  0.5144033E-03
   1       -5.6502
   2       -1.6570
   3       -1.6459
   4       -1.6424
   5       -1.3235
   6       -1.3231
   7       -1.3230
   8       -0.3591
   9       -0.3440
  10       -0.3428
  11        0.2287
  12        0.2376
  13        0.6158
  14        0.6168
  15        0.6214
  16        0.6864
  17        0.6916
  18        0.7149
  19        0.7256
  20        0.7336
  21        0.7336
  22        3.5328
  23        3.7765
  24        3.8634
  25        7.8142
  26        7.8967
  27        8.1262
  28       13.1463
  29       13.3971
  30       13.4662
  31       13.6090
  32       13.6194
 
  0.8333333E-01  0.2777778E-01  0.0000000E+00  0.5144033E-03
   1       -5.6101
   2       -1.6592
   3       -1.6293
   4       -1.6258
   5       -1.3145
   6       -1.3136
   7       -1.3135
   8       -0.3685
   9       -0.3361
  10       -0.3349
  11        0.2202
  12        0.2413
  13        0.6039
  14        0.6047
  15        0.6170
  16        0.6370
  17        0.6429
  18        0.7019
  19        0.7123
  20        0.7334
  21        0.7336
  22        3.2563
  23        3.8633
  24        3.9504
  25        7.8325
  26        7.9159
  27        8.4878
  28       12.8384
  29       13.1325
  30       13.2696
  31       13.4910
  32       13.6651
 
  0.1111111E+00  0.2777778E-01  0.0000000E+00  0.5144033E-03
   1       -5.5541
   2       -1.6634
   3       -1.6063
   4       -1.6030
   5       -1.3021
   6       -1.3001
   7       -1.3001
   8       -0.3817
   9       -0.3250
  10       -0.3238
  11        0.2083
  12        0.2464
  13        0.5683
  14        0.5719
  15        0.5893
  16        0.5970
  17        0.6108
  18        0.6841
  19        0.6939
  20        0.7333
  21        0.7337
  22        2.9282
  23        3.9801
  24        4.0678
  25        7.8583
  26        7.9430
  27        8.9362
  28       12.4947
  29       12.8105
  30       13.0229
  31       13.2872
  32       13.7421
 
  0.1388889E+00  0.2777778E-01  0.0000000E+00  0.5144033E-03
   1       -5.4823
   2       -1.6710
   3       -1.5774
   4       -1.5743
   5       -1.2862
   6       -1.2828
   7       -1.2828
   8       -0.3985
   9       -0.3107
  10       -0.3097
  11        0.1933
  12        0.2529
  13        0.4936
  14        0.4946
  15        0.5697
  16        0.5738
  17        0.6023
  18        0.6621
  19        0.6708
  20        0.7333
  21        0.7337
  22        2.5743
  23        4.1237
  24        4.2123
  25        7.8918
  26        7.9782
  27        9.4466
  28       12.1294
  29       12.4532
  30       12.7430
  31       13.0305
  32       13.8407
 
  0.1666667E+00  0.2777778E-01  0.0000000E+00  0.5144033E-03
   1       -5.3948
   2       -1.6838
   3       -1.5431
   4       -1.5402
   5       -1.2671
   6       -1.2616
   7       -1.2615
   8       -0.4188
   9       -0.2933
  10       -0.2924
  11        0.1753
  12        0.2608
  13        0.4070
  14        0.4082
  15        0.5463
  16        0.5495
  17        0.5904
  18        0.6372
  19        0.6433
  20        0.7333
  21        0.7337
  22        2.2127
  23        4.2906
  24        4.3807
  25        7.9333
  26        8.0218
  27       10.0029
  28       11.7523
  29       12.0753
  30       12.4434
  31       12.7407
  32       13.9649
 
  0.1944444E+00  0.2777778E-01  0.0000000E+00  0.5144033E-03
   1       -5.2919
   2       -1.7044
   3       -1.5040
   4       -1.5013
   5       -1.2448
   6       -1.2364
   7       -1.2364
   8       -0.4424
   9       -0.2728
  10       -0.2722
  11        0.1547
  12        0.2699
  13        0.3139
  14        0.3156
  15        0.5191
  16        0.5221
  17        0.5722
  18        0.6116
  19        0.6127
  20        0.7334
  21        0.7337
  22        1.8562
  23        4.4780
  24        4.5700
  25        7.9832
  26        8.0742
  27       10.5948
  28       11.3698
  29       11.6864
  30       12.1344
  31       12.4324
  32       14.1015
 
  0.2222222E+00  0.2777778E-01  0.0000000E+00  0.5144033E-03
   1       -5.1736
   2       -1.7360
   3       -1.4608
   4       -1.4585
   5       -1.2194
   6       -1.2072
   7       -1.2072
   8       -0.4691
   9       -0.2493
  10       -0.2491
  11        0.1319
  12        0.2169
  13        0.2191
  14        0.2803
  15        0.4888
  16        0.4915
  17        0.5438
  18        0.5764
  19        0.5927
  20        0.7334
  21        0.7338
  22        1.5149
  23        4.6833
  24        4.7780
  25        8.0417
  26        8.1358
  27       10.9864
  28       11.2154
  29       11.2926
  30       11.8236
  31       12.1161
  32       14.2643
 
  0.2500000E+00  0.2777778E-01  0.0000000E+00  0.5144033E-03
   1       -5.0405
   2       -1.7829
   3       -1.4145
   4       -1.4125
   5       -1.1913
   6       -1.1740
   7       -1.1739
   8       -0.4986
   9       -0.2232
  10       -0.2230
  11        0.1072
  12        0.1180
  13        0.1207
  14        0.2919
  15        0.4558
  16        0.4583
  17        0.5055
  18        0.5379
  19        0.5763
  20        0.7335
  21        0.7338
  22        1.1980
  23        4.9045
  24        5.0025
  25        8.1094
  26        8.2070
  27       10.6048
  28       10.8981
  29       11.5163
  30       11.7992
  31       11.8604
  32       14.4439
 
  0.2777778E+00  0.2777778E-01  0.0000000E+00  0.5144033E-03
   1       -4.8927
   2       -1.8499
   3       -1.3662
   4       -1.3644
   5       -1.1605
   6       -1.1368
   7       -1.1365
   8       -0.5308
   9       -0.1947
  10       -0.1938
  11        0.0188
  12        0.0218
  13        0.0812
  14        0.3045
  15        0.4208
  16        0.4231
  17        0.4586
  18        0.4966
  19        0.5608
  20        0.7335
  21        0.7338
  22        0.9152
  23        5.1400
  24        5.2420
  25        8.1866
  26        8.2884
  27       10.2269
  28       10.5056
  29       11.2165
  30       11.4870
  31       12.5266
  32       14.6441
 
  0.3055556E+00  0.2777778E-01  0.0000000E+00  0.5144033E-03
   1       -4.7308
   2       -1.9421
   3       -1.3171
   4       -1.3156
   5       -1.1272
   6       -1.0954
   7       -1.0949
   8       -0.5654
   9       -0.1638
  10       -0.1620
  11       -0.0796
  12       -0.0762
  13        0.0547
  14        0.3181
  15        0.3847
  16        0.3868
  17        0.3991
  18        0.4531
  19        0.5439
  20        0.6801
  21        0.7336
  22        0.7339
  23        5.3885
  24        5.4952
  25        8.2738
  26        8.3802
  27        9.8540
  28       10.1170
  29       10.9270
  30       11.1835
  31       13.2120
  32       14.8610
 
  0.3333333E+00  0.2777778E-01  0.0000000E+00  0.5144033E-03
   1       -4.5553
   2       -2.0633
   3       -1.2687
   4       -1.2674
   5       -1.0918
   6       -1.0499
   7       -1.0492
   8       -0.6021
   9       -0.1761
  10       -0.1726
  11       -0.1312
  12       -0.1275
  13        0.0288
  14        0.3132
  15        0.3326
  16        0.3485
  17        0.3504
  18        0.4078
  19        0.4961
  20        0.5416
  21        0.7336
  22        0.7339
  23        5.6488
  24        5.7611
  25        8.3711
  26        8.4830
  27        9.4869
  28        9.7336
  29       10.6500
  30       10.8914
  31       13.9146
  32       15.0972
 
  0.3611111E+00  0.2777778E-01  0.0000000E+00  0.5144033E-03
   1       -4.3669
   2       -2.2148
   3       -1.2226
   4       -1.2216
   5       -1.0545
   6       -1.0002
   7       -0.9991
   8       -0.6405
   9       -0.2701
  10       -0.2665
  11       -0.0983
  12       -0.0907
  13        0.0060
  14        0.1994
  15        0.3136
  16        0.3153
  17        0.3479
  18        0.3612
  19        0.4029
  20        0.5183
  21        0.7337
  22        0.7339
  23        5.9202
  24        6.0387
  25        8.4783
  26        8.5969
  27        9.1270
  28        9.3564
  29       10.3875
  30       10.6130
  31       14.6332
  32       15.3559
 
  0.3888889E+00  0.2777778E-01  0.0000000E+00  0.5144033E-03
   1       -4.1667
   2       -2.3943
   3       -1.1809
   4       -1.1800
   5       -1.0155
   6       -0.9463
   7       -0.9448
   8       -0.6805
   9       -0.3611
  10       -0.3574
  11       -0.0718
  12       -0.0516
  13       -0.0065
  14        0.0931
  15        0.2816
  16        0.2830
  17        0.3137
  18        0.3371
  19        0.3638
  20        0.5010
  21        0.7337
  22        0.7339
  23        6.2018
  24        6.3276
  25        8.5891
  26        8.7217
  27        8.7810
  28        8.9862
  29       10.1412
  30       10.3501
  31       15.3666
  32       15.6221
 
  0.4166667E+00  0.2777778E-01  0.0000000E+00  0.5144033E-03
   1       -3.9557
   2       -2.5968
   3       -1.1454
   4       -1.1447
   5       -0.9752
   6       -0.8881
   7       -0.8862
   8       -0.7217
   9       -0.4486
  10       -0.4449
  11       -0.0678
  12       -0.0104
  13        0.0088
  14        0.0132
  15        0.2540
  16        0.2552
  17        0.2657
  18        0.2814
  19        0.3803
  20        0.4838
  21        0.7338
  22        0.7339
  23        6.4930
  24        6.6270
  25        8.4139
  26        8.6235
  27        8.7383
  28        8.8559
  29        9.9138
  30       10.1047
  31       15.9043
  32       15.9324
 
  0.4444444E+00  0.2777778E-01  0.0000000E+00  0.5144033E-03
   1       -3.7355
   2       -2.8157
   3       -1.1182
   4       -1.1177
   5       -0.9338
   6       -0.8256
   7       -0.8232
   8       -0.7637
   9       -0.5323
  10       -0.5288
  11       -0.0775
  12       -0.0400
  13        0.0326
  14        0.0446
  15        0.2177
  16        0.2296
  17        0.2328
  18        0.2336
  19        0.3971
  20        0.4666
  21        0.7338
  22        0.7339
  23        6.7934
  24        6.9366
  25        8.0773
  26        8.2687
  27        8.8727
  28        8.9936
  29        9.7122
  30        9.8798
  31       16.2047
  32       16.2352
 
  0.4722222E+00  0.2777778E-01  0.0000000E+00  0.5144033E-03
   1       -3.5083
   2       -3.0442
   3       -1.1010
   4       -1.1007
   5       -0.8916
   6       -0.8062
   7       -0.7587
   8       -0.7560
   9       -0.6120
  10       -0.6086
  11       -0.0850
  12       -0.0707
  13        0.0772
  14        0.0870
  15        0.1700
  16        0.1801
  17        0.2195
  18        0.2199
  19        0.4143
  20        0.4492
  21        0.7339
  22        0.7339
  23        7.1025
  24        7.2559
  25        7.7450
  26        7.9223
  27        9.0115
  28        9.1099
  29        9.5618
  30        9.6834
  31       16.5195
  32       16.5529
 
  0.5000000E+00  0.2777778E-01  0.0000000E+00  0.2572016E-03
   1       -3.2766
   2       -3.2766
   3       -1.0950
   4       -1.0950
   5       -0.8490
   6       -0.8490
   7       -0.6875
   8       -0.6875
   9       -0.6844
  10       -0.6844
  11       -0.0842
  12       -0.0842
  13        0.1231
  14        0.1231
  15        0.1325
  16        0.1325
  17        0.2150
  18        0.2150
  19        0.4317
  20        0.4317
  21        0.7339
  22        0.7339
  23        7.4199
  24        7.4199
  25        7.5846
  26        7.5846
  27        9.1206
  28        9.1206
  29        9.5474
  30        9.5474
  31       16.8524
  32       16.8772
 
  0.5555556E-01  0.5555556E-01  0.0000000E+00  0.2572016E-03
   1       -5.6261
   2       -1.6468
   3       -1.6468
   4       -1.6324
   5       -1.3178
   6       -1.3178
   7       -1.3174
   8       -0.3627
   9       -0.3413
  10       -0.3382
  11        0.2267
  12        0.2368
  13        0.6092
  14        0.6129
  15        0.6129
  16        0.6604
  17        0.6844
  18        0.6844
  19        0.7256
  20        0.7256
  21        0.7294
  22        3.5855
  23        3.5855
  24        3.9161
  25        7.8252
  26        8.1390
  27        8.1390
  28       12.8229
  29       13.4297
  30       13.4297
  31       13.4990
  32       13.4990
 
  0.8333333E-01  0.5555556E-01  0.0000000E+00  0.5144033E-03
   1       -5.5861
   2       -1.6488
   3       -1.6300
   4       -1.6160
   5       -1.3089
   6       -1.3083
   7       -1.3079
   8       -0.3710
   9       -0.3345
  10       -0.3305
  11        0.2197
  12        0.2392
  13        0.5949
  14        0.5983
  15        0.6060
  16        0.6147
  17        0.6401
  18        0.6730
  19        0.7123
  20        0.7256
  21        0.7269
  22        3.3083
  23        3.6706
  24        4.0016
  25        7.8436
  26        8.1604
  27        8.5021
  28       12.4649
  29       13.1642
  30       13.3015
  31       13.4839
  32       13.5535
 
  0.1111111E+00  0.5555556E-01  0.0000000E+00  0.5144033E-03
   1       -5.5302
   2       -1.6528
   3       -1.6068
   4       -1.5934
   5       -1.2965
   6       -1.2949
   7       -1.2946
   8       -0.3835
   9       -0.3239
  10       -0.3198
  11        0.2084
  12        0.2440
  13        0.5498
  14        0.5526
  15        0.5831
  16        0.5952
  17        0.6029
  18        0.6583
  19        0.6939
  20        0.7256
  21        0.7256
  22        2.9802
  23        3.7850
  24        4.1173
  25        7.8695
  26        8.1907
  27        8.9518
  28       12.0871
  29       12.8415
  30       13.0537
  31       13.5595
  32       13.5961
 
  0.1388889E+00  0.5555556E-01  0.0000000E+00  0.5144033E-03
   1       -5.4585
   2       -1.6601
   3       -1.5776
   4       -1.5650
   5       -1.2808
   6       -1.2777
   7       -1.2775
   8       -0.4000
   9       -0.3099
  10       -0.3062
  11        0.1938
  12        0.2507
  13        0.4763
  14        0.4779
  15        0.5638
  16        0.5779
  17        0.5792
  18        0.6417
  19        0.6708
  20        0.7250
  21        0.7256
  22        2.6273
  23        3.9249
  24        4.2598
  25        7.9033
  26        8.2300
  27        9.4633
  28       11.6991
  29       12.4835
  30       12.7728
  31       13.4077
  32       13.6561
 
  0.1666667E+00  0.5555556E-01  0.0000000E+00  0.5144033E-03
   1       -5.3711
   2       -1.6726
   3       -1.5430
   4       -1.5313
   5       -1.2618
   6       -1.2566
   7       -1.2565
   8       -0.4199
   9       -0.2926
  10       -0.2896
  11        0.1762
  12        0.2588
  13        0.3902
  14        0.3938
  15        0.5406
  16        0.5528
  17        0.5561
  18        0.6251
  19        0.6432
  20        0.7247
  21        0.7256
  22        2.2677
  23        4.0870
  24        4.4263
  25        7.9451
  26        8.2788
  27       10.0203
  28       11.3076
  29       12.1051
  30       12.4723
  31       13.1641
  32       13.7733
 
  0.1944444E+00  0.5555556E-01  0.0000000E+00  0.5144033E-03
   1       -5.2682
   2       -1.6926
   3       -1.5035
   4       -1.4928
   5       -1.2396
   6       -1.2316
   7       -1.2316
   8       -0.4432
   9       -0.2723
  10       -0.2702
  11        0.1561
  12        0.2683
  13        0.2973
  14        0.3033
  15        0.5138
  16        0.5249
  17        0.5252
  18        0.6091
  19        0.6116
  20        0.7245
  21        0.7256
  22        1.9147
  23        4.2683
  24        4.6138
  25        7.9953
  26        8.3373
  27       10.6127
  28       10.9168
  29       11.7158
  30       12.1625
  31       12.8854
  32       13.9106
 
  0.2222222E+00  0.5555556E-01  0.0000000E+00  0.5144033E-03
   1       -5.1502
   2       -1.7237
   3       -1.4599
   4       -1.4503
   5       -1.2144
   6       -1.2027
   7       -1.2025
   8       -0.4697
   9       -0.2489
  10       -0.2482
  11        0.1339
  12        0.2004
  13        0.2087
  14        0.2791
  15        0.4839
  16        0.4860
  17        0.4942
  18        0.5762
  19        0.5936
  20        0.7245
  21        0.7256
  22        1.5790
  23        4.4663
  24        4.8199
  25        8.0542
  26        8.4059
  27       10.5299
  28       11.2337
  29       11.3218
  30       11.8509
  31       12.5869
  32       14.0675
 
  0.2500000E+00  0.5555556E-01  0.0000000E+00  0.5144033E-03
   1       -5.0172
   2       -1.7700
   3       -1.4131
   4       -1.4047
   5       -1.1864
   6       -1.1700
   7       -1.1695
   8       -0.4989
   9       -0.2236
  10       -0.2227
  11        0.1018