   32   32    1    1
  0.1030698E+02  0.6909190E-09  0.6909190E-09  0.6909190E-09  0.5000000E-15
  1.000000000000000E-004
  CAR 
 unknown system                          
  352   20  216
 
  0.0000000E+00  0.0000000E+00  0.0000000E+00  0.2915452E-02
   1       -5.3848
   2       -2.3851
   3       -2.3851
   4       -2.3851
   5       -2.3851
   6       -2.3851
   7       -2.3851
   8       -0.8684
   9       -0.8684
  10       -0.8684
  11       -0.8684
  12       -0.7187
  13       -0.7187
  14       -0.7187
  15       -0.3601
  16       -0.3601
  17       -0.3601
  18       -0.3601
  19       -0.3601
  20       -0.3601
  21       -0.3601
  22       -0.3601
  23       -0.3601
  24       -0.3601
  25       -0.3601
  26       -0.3601
  27       -0.1702
  28       -0.1702
  29       -0.1702
  30        0.1550
  31        0.1550
  32        0.1550
  33        0.1550
  34        0.1550
  35        0.1550
  36        0.6601
  37        0.6601
  38        0.6601
  39        0.6601
  40        0.6601
  41        0.6601
  42        0.9150
  43        0.9150
  44        0.9150
  45        0.9150
  46        0.9150
  47        0.9150
  48        0.9150
  49        0.9150
  50        0.9150
  51        0.9150
  52        0.9150
  53        0.9150
  54        0.9206
  55        0.9206
  56        0.9206
  57        0.9206
  58        0.9206
  59        0.9206
  60        0.9206
  61        0.9206
  62        0.9206
  63        0.9206
  64        0.9206
  65        0.9206
  66        1.1662
  67        1.1662
  68        1.1662
  69        1.1662
  70        1.1662
  71        1.1662
  72        1.1662
  73        1.1662
  74        1.1662
  75        1.1662
  76        1.1662
  77        1.1662
  78        1.5070
  79        1.5070
  80        1.5070
  81        1.5070
  82        1.5070
  83        1.5070
  84        1.5070
  85        1.5070
  86        1.5491
  87        1.5491
  88        1.5491
  89        2.0043
  90        2.0043
  91        2.0043
  92        2.0043
  93        2.0043
  94        2.0043
  95        2.1615
  96        2.1615
  97        2.1615
  98        2.1615
  99        2.1615
 100        2.1615
 101        2.1615
 102        2.1615
 103        2.1615
 104        2.1615
 105        2.1615
 106        2.1615
 107        2.3607
 108        2.3607
 109        2.3607
 110        2.3607
 111        2.3607
 112        2.3607
 113        2.3607
 114        2.3607
 115        2.3607
 116        2.3607
 117        2.3607
 118        2.3607
 119        2.5152
 120        2.5152
 121        2.5152
 122        2.5152
 123        2.5152
 124        2.5152
 125        2.5606
 126        2.5606
 127        2.5606
 128        2.5606
 129        2.5606
 130        2.5606
 131        2.5606
 132        2.5606
 133        2.5606
 134        2.5606
 135        2.5606
 136        2.5606
 137        2.5720
 138        2.5720
 139        2.9066
 140        2.9066
 141        2.9066
 142        2.9066
 143        2.9066
 144        2.9066
 145        3.2497
 146        3.2497
 147        3.2497
 148        3.2671
 149        3.2671
 150        3.2671
 151        3.2671
 152        3.2671
 153        3.2671
 154        3.2671
 155        3.2671
 156        3.4408
 157        3.4408
 158        3.4408
 159        3.4408
 160        3.4408
 161        3.4408
 162        3.4418
 163        3.4418
 164        3.4418
 165        3.4418
 166        3.4418
 167        3.4418
 168        3.6423
 169        3.6423
 170        3.6423
 171        3.6423
 172        4.8074
 173        4.8074
 174        4.8074
 175        4.8074
 176        4.8074
 177        4.8074
 178        4.8074
 179        4.8074
 180        4.8074
 181        4.8074
 182        4.8074
 183        4.8074
 184        6.4710
 185        6.4710
 186        6.4710
 187        9.5501
 188        9.5501
 189        9.5501
 190        9.5501
 191       11.8339
 192       11.8339
 193       11.8339
 194       11.8339
 195       11.8339
 196       11.8339
 197       11.8339
 198       11.8339
 199       11.8339
 200       11.8339
 201       11.8339
 202       11.8339
 203       13.1843
 204       13.1843
 205       13.1843
 206       14.0866
 207       14.0866
 208       14.0866
 209       14.0866
 210       14.0866
 211       14.0866
 212       15.2520
 213       15.2520
 214       15.2520
 215       15.2520
 216       15.2520
 
  0.1428571E+00  0.0000000E+00  0.0000000E+00  0.1749271E-01
   1       -5.3163
   2       -3.0863
   3       -2.3302
   4       -2.3302
   5       -2.3302
   6       -2.3302
   7       -1.7175
   8       -0.8502
   9       -0.8502
  10       -0.8502
  11       -0.8502
  12       -0.7527
  13       -0.7527
  14       -0.7527
  15       -0.7527
  16       -0.7160
  17       -0.6844
  18       -0.6844
  19       -0.3989
  20       -0.3989
  21       -0.3989
  22       -0.3989
  23       -0.1500
  24       -0.1487
  25       -0.1487
  26       -0.0259
  27       -0.0259
  28       -0.0259
  29       -0.0259
  30        0.0974
  31        0.0974
  32        0.1825
  33        0.1825
  34        0.1825
  35        0.1825
  36        0.4706
  37        0.6223
  38        0.6223
  39        0.6689
  40        0.6689
  41        0.6689
  42        0.6689
  43        0.8526
  44        0.8833
  45        0.8833
  46        0.8833
  47        0.8833
  48        0.8875
  49        0.8875
  50        0.8875
  51        0.8875
  52        0.9180
  53        0.9180
  54        0.9180
  55        0.9180
  56        0.9430
  57        0.9430
  58        0.9430
  59        0.9430
  60        0.9986
  61        0.9986
  62        0.9986
  63        0.9986
  64        1.0029
  65        1.0029
  66        1.0029
  67        1.0029
  68        1.1872
  69        1.1872
  70        1.1872
  71        1.1872
  72        1.2544
  73        1.2544
  74        1.2873
  75        1.2873
  76        1.2873
  77        1.2873
  78        1.4914
  79        1.4914
  80        1.4914
  81        1.4914
  82        1.5260
  83        1.5267
  84        1.5267
  85        1.5267
  86        1.5267
  87        1.5671
  88        1.5671
  89        1.9110
  90        1.9110
  91        1.9110
  92        1.9110
  93        2.0412
  94        2.0865
  95        2.0865
  96        2.0865
  97        2.0865
  98        2.1166
  99        2.1618
 100        2.1618
 101        2.1758
 102        2.1758
 103        2.1758
 104        2.1758
 105        2.2263
 106        2.2263
 107        2.2263
 108        2.2263
 109        2.3606
 110        2.3606
 111        2.3606
 112        2.3606
 113        2.4346
 114        2.4346
 115        2.4346
 116        2.4346
 117        2.4709
 118        2.4709
 119        2.4709
 120        2.4709
 121        2.5148
 122        2.5148
 123        2.5148
 124        2.5148
 125        2.5510
 126        2.5662
 127        2.5662
 128        2.5724
 129        2.5724
 130        2.5803
 131        2.6382
 132        2.6382
 133        2.6382
 134        2.6382
 135        2.6839
 136        2.6839
 137        2.6839
 138        2.6839
 139        2.8314
 140        2.9227
 141        2.9227
 142        2.9227
 143        2.9227
 144        2.9320
 145        2.9320
 146        2.9320
 147        2.9320
 148        2.9822
 149        3.2226
 150        3.2226
 151        3.2411
 152        3.2449
 153        3.2449
 154        3.2449
 155        3.2449
 156        3.2935
 157        3.2935
 158        3.4074
 159        3.4074
 160        3.4074
 161        3.4074
 162        3.4089
 163        3.4089
 164        3.4408
 165        3.4408
 166        3.4417
 167        3.4417
 168        3.9302
 169        3.9302
 170        3.9302
 171        3.9302
 172        4.3080
 173        4.3080
 174        4.3080
 175        4.3080
 176        4.7928
 177        4.7928
 178        4.7928
 179        4.7928
 180        5.4441
 181        5.4441
 182        5.4441
 183        5.4441
 184        6.0794
 185        6.6772
 186        6.6772
 187        9.7221
 188        9.7221
 189        9.7221
 190        9.7221
 191       10.7522
 192       10.7522
 193       11.0420
 194       11.0420
 195       11.0420
 196       11.0420
 197       11.9284
 198       11.9284
 199       11.9284
 200       11.9284
 201       12.9733
 202       12.9733
 203       13.2041
 204       13.2041
 205       13.7033
 206       13.9594
 207       13.9594
 208       14.5180
 209       14.5180
 210       14.5180
 211       14.5180
 212       14.7084
 213       14.7085
 214       14.7092
 215       14.7118
 216       14.7921
 
  0.2857143E+00  0.0000000E+00  0.0000000E+00  0.1749271E-01
   1       -5.1118
   2       -3.7441
   3       -2.1684
   4       -2.1684
   5       -2.1684
   6       -2.1684
   7       -1.1929
   8       -1.1692
   9       -1.1692
  10       -1.1692
  11       -1.1692
  12       -0.7970
  13       -0.7970
  14       -0.7970
  15       -0.7970
  16       -0.7168
  17       -0.5849
  18       -0.5849
  19       -0.4937
  20       -0.4937
  21       -0.4937
  22       -0.4937
  23       -0.0904
  24       -0.0841
  25       -0.0841
  26       -0.0516
  27       -0.0516
  28        0.2356
  29        0.2356
  30        0.2356
  31        0.2356
  32        0.2611
  33        0.2611
  34        0.2611
  35        0.2611
  36        0.2931
  37        0.3766
  38        0.3766
  39        0.6941
  40        0.6941
  41        0.6941
  42        0.6941
  43        0.8103
  44        0.8103
  45        0.8103
  46        0.8103
  47        0.8195
  48        0.8195
  49        0.8195
  50        0.8195
  51        0.8350
  52        0.8350
  53        0.8350
  54        0.8350
  55        0.9262
  56        0.9262
  57        0.9262
  58        0.9262
  59        0.9505
  60        0.9505
  61        0.9505
  62        0.9505
  63        1.0382
  64        1.1927
  65        1.1927
  66        1.1927
  67        1.1927
  68        1.2656
  69        1.2656
  70        1.2656
  71        1.2656
  72        1.3801
  73        1.3801
  74        1.3801
  75        1.3801
  76        1.4468
  77        1.4468
  78        1.4468
  79        1.4468
  80        1.4583
  81        1.5847
  82        1.5847
  83        1.5847
  84        1.5847
  85        1.6210
  86        1.6210
  87        1.6376
  88        1.6376
  89        1.7503
  90        1.7503
  91        1.7503
  92        1.7503
  93        1.9442
  94        1.9442
  95        1.9442
  96        1.9442
  97        1.9835
  98        1.9835
  99        2.1470
 100        2.2614
 101        2.2614
 102        2.2614
 103        2.2614
 104        2.3286
 105        2.3286
 106        2.3286
 107        2.3286
 108        2.3614
 109        2.3614
 110        2.3614
 111        2.3614
 112        2.4133
 113        2.4133
 114        2.4133
 115        2.4133
 116        2.4341
 117        2.4341
 118        2.4341
 119        2.4341
 120        2.4865
 121        2.4898
 122        2.5007
 123        2.5007
 124        2.5007
 125        2.5007
 126        2.5077
 127        2.5077
 128        2.5077
 129        2.5077
 130        2.6048
 131        2.6966
 132        2.6966
 133        2.7604
 134        2.7868
 135        2.7868
 136        2.7877
 137        2.7877
 138        2.7877
 139        2.7877
 140        2.8356
 141        2.8356
 142        2.8356
 143        2.8356
 144        2.9380
 145        2.9380
 146        3.0463
 147        3.0463
 148        3.0463
 149        3.0463
 150        3.0544
 151        3.1430
 152        3.1430
 153        3.1796
 154        3.1796
 155        3.1796
 156        3.1796
 157        3.2154
 158        3.3109
 159        3.3109
 160        3.3109
 161        3.3109
 162        3.3166
 163        3.3166
 164        3.4410
 165        3.4410
 166        3.4416
 167        3.4416
 168        3.9031
 169        3.9031
 170        3.9031
 171        3.9031
 172        4.2600
 173        4.2600
 174        4.2600
 175        4.2600
 176        4.7453
 177        4.7453
 178        4.7453
 179        4.7453
 180        5.1690
 181        6.2546
 182        6.2546
 183        6.2546
 184        6.2546
 185        7.2094
 186        7.2094
 187        9.7181
 188        9.7181
 189        9.7181
 190        9.7181
 191        9.7349
 192        9.7349
 193       10.2267
 194       10.2267
 195       10.2267
 196       10.2267
 197       12.2057
 198       12.2057
 199       12.2057
 200       12.2057
 201       13.2650
 202       13.2650
 203       13.3338
 204       13.3338
 205       13.3338
 206       13.3338
 207       13.7309
 208       13.7309
 209       13.9612
 210       13.9612
 211       13.9612
 212       13.9612
 213       14.1637
 214       14.1637
 215       14.8428
 216       14.8428
 
  0.4285714E+00  0.0000000E+00  0.0000000E+00  0.1749271E-01
   1       -4.7755
   2       -4.3150
   3       -1.9084
   4       -1.9084
   5       -1.9084
   6       -1.9084
   7       -1.5667
   8       -1.5667
   9       -1.5667
  10       -1.5667
  11       -0.8831
  12       -0.7522
  13       -0.7131
  14       -0.7131
  15       -0.7131
  16       -0.7131
  17       -0.6071
  18       -0.6071
  19       -0.6071
  20       -0.6071
  21       -0.4310
  22       -0.4310
  23       -0.2427
  24       -0.2427
  25        0.0063
  26        0.0244
  27        0.0244
  28        0.1360
  29        0.1776
  30        0.1776
  31        0.3716
  32        0.3716
  33        0.3716
  34        0.3716
  35        0.4034
  36        0.4034
  37        0.4034
  38        0.4034
  39        0.6733
  40        0.6733
  41        0.6733
  42        0.6733
  43        0.7040
  44        0.7040
  45        0.7040
  46        0.7040
  47        0.7335
  48        0.7335
  49        0.7335
  50        0.7335
  51        0.7826
  52        0.7826
  53        0.7826
  54        0.7826
  55        0.9371
  56        0.9371
  57        0.9371
  58        0.9371
  59        0.9468
  60        0.9468
  61        0.9468
  62        0.9468
  63        1.2071
  64        1.2999
  65        1.2999
  66        1.2999
  67        1.2999
  68        1.3498
  69        1.3797
  70        1.3797
  71        1.3797
  72        1.3797
  73        1.4777
  74        1.4777
  75        1.4777
  76        1.4777
  77        1.5589
  78        1.5589
  79        1.5589
  80        1.5589
  81        1.6003
  82        1.6003
  83        1.6003
  84        1.6003
  85        1.6780
  86        1.6780
  87        1.6780
  88        1.6780
  89        1.7096
  90        1.7096
  91        1.8011
  92        1.8011
  93        1.8011
  94        1.8011
  95        1.8314
  96        1.8314
  97        1.9663
  98        1.9663
  99        1.9663
 100        1.9663
 101        2.0583
 102        2.0583
 103        2.2740
 104        2.3663
 105        2.3663
 106        2.3663
 107        2.3663
 108        2.3735
 109        2.3735
 110        2.3735
 111        2.3735
 112        2.3811
 113        2.3811
 114        2.3811
 115        2.3811
 116        2.3940
 117        2.4211
 118        2.4211
 119        2.4211
 120        2.4211
 121        2.4677
 122        2.4677
 123        2.4677
 124        2.4677
 125        2.4806
 126        2.4806
 127        2.4806
 128        2.4806
 129        2.5024
 130        2.5024
 131        2.6443
 132        2.6970
 133        2.8603
 134        2.8603
 135        2.9413
 136        2.9413
 137        2.9413
 138        2.9413
 139        2.9917
 140        2.9917
 141        3.0033
 142        3.0033
 143        3.0033
 144        3.0033
 145        3.0176
 146        3.0176
 147        3.0759
 148        3.0759
 149        3.0759
 150        3.0759
 151        3.1196
 152        3.1689
 153        3.1689
 154        3.1689
 155        3.1689
 156        3.1731
 157        3.1731
 158        3.1741
 159        3.1764
 160        3.2695
 161        3.2695
 162        3.2695
 163        3.2695
 164        3.4412
 165        3.4412
 166        3.4414
 167        3.4414
 168        3.5609
 169        3.5609
 170        3.5609
 171        3.5609
 172        4.1222
 173        4.4989
 174        4.4989
 175        4.4989
 176        4.4989
 177        4.6536
 178        4.6536
 179        4.6536
 180        4.6536
 181        7.2510
 182        7.2510
 183        7.2510
 184        7.2510
 185        7.9383
 186        7.9383
 187        8.4189
 188        8.4189
 189        8.4189
 190        8.4189
 191        8.7914
 192        8.7914
 193       11.0302
 194       11.0302
 195       11.0302
 196       11.0302
 197       12.0837
 198       12.0837
 199       12.0837
 200       12.0837
 201       12.6503
 202       12.6503
 203       12.6503
 204       12.6503
 205       13.2419
 206       13.2419
 207       13.2419
 208       13.2419
 209       13.3708
 210       13.3708
 211       13.5261
 212       13.5261
 213       15.1298
 214       15.1298
 215       15.1299
 216       15.1300
 
  0.1428571E+00  0.1428571E+00  0.0000000E+00  0.3498542E-01
   1       -5.2479
   2       -3.0276
   3       -3.0276
   4       -2.2766
   5       -2.2766
   6       -1.6667
   7       -1.6667
   8       -1.2475
   9       -0.8851
  10       -0.8851
  11       -0.7822
  12       -0.7822
  13       -0.7645
  14       -0.7645
  15       -0.7645
  16       -0.7645
  17       -0.6811
  18       -0.6811
  19       -0.6506
  20       -0.3062
  21       -0.3062
  22       -0.1288
  23       -0.1288
  24       -0.1278
  25       -0.0878
  26       -0.0878
  27       -0.0878
  28       -0.0878
  29        0.1198
  30        0.1198
  31        0.1265
  32        0.1265
  33        0.1803
  34        0.2104
  35        0.2104
  36        0.4823
  37        0.4823
  38        0.6084
  39        0.6084
  40        0.6305
  41        0.6305
  42        0.6783
  43        0.6783
  44        0.8209
  45        0.8209
  46        0.8417
  47        0.8417
  48        0.8581
  49        0.8581
  50        0.8634
  51        0.9101
  52        0.9461
  53        0.9461
  54        0.9461
  55        0.9461
  56        0.9615
  57        0.9615
  58        0.9874
  59        0.9874
  60        0.9874
  61        0.9874
  62        1.0362
  63        1.0691
  64        1.0691
  65        1.0691
  66        1.0691
  67        1.1160
  68        1.1160
  69        1.2157
  70        1.2157
  71        1.2504
  72        1.2504
  73        1.3022
  74        1.3022
  75        1.3022
  76        1.3022
  77        1.4287
  78        1.4449
  79        1.4449
  80        1.4975
  81        1.4975
  82        1.5128
  83        1.5409
  84        1.5409
  85        1.5602
  86        1.5602
  87        1.5758
  88        1.5839
  89        1.8526
  90        1.8526
  91        1.9349
  92        1.9349
  93        1.9886
  94        1.9886
  95        2.0851
  96        2.0851
  97        2.0851
  98        2.0851
  99        2.1378
 100        2.1565
 101        2.1565
 102        2.1565
 103        2.1565
 104        2.1621
 105        2.1621
 106        2.2541
 107        2.2592
 108        2.2592
 109        2.2796
 110        2.2796
 111        2.2974
 112        2.2974
 113        2.3457
 114        2.5101
 115        2.5101
 116        2.5450
 117        2.5503
 118        2.5503
 119        2.5604
 120        2.5604
 121        2.5682
 122        2.5682
 123        2.5682
 124        2.5682
 125        2.5702
 126        2.5702
 127        2.5720
 128        2.5720
 129        2.5749
 130        2.6281
 131        2.6281
 132        2.6489
 133        2.6489
 134        2.6627
 135        2.6627
 136        2.7524
 137        2.7524
 138        2.7524
 139        2.7524
 140        2.7690
 141        2.7935
 142        2.7935
 143        2.8461
 144        2.8461
 145        2.9440
 146        2.9440
 147        3.0259
 148        3.0259
 149        3.1818
 150        3.1938
 151        3.1938
 152        3.1963
 153        3.2562
 154        3.2562
 155        3.2591
 156        3.2591
 157        3.2757
 158        3.2757
 159        3.3781
 160        3.3781
 161        3.4069
 162        3.4069
 163        3.4079
 164        3.4079
 165        3.4089
 166        3.4089
 167        3.4206
 168        3.7131
 169        3.7131
 170        3.8961
 171        4.2908
 172        4.2908
 173        4.2908
 174        4.2908
 175        4.4061
 176        4.4061
 177        4.8511
 178        4.8511
 179        5.4362
 180        5.4362
 181        5.4362
 182        5.4362
 183        6.1694
 184        6.2852
 185        6.2852
 186        6.8683
 187        9.5802
 188        9.5802
 189       10.0800
 190       10.0800
 191       10.1734
 192       10.1734
 193       10.8530
 194       10.8530
 195       10.8726
 196       10.8726
 197       11.4173
 198       11.4173
 199       12.0376
 200       12.0376
 201       13.0634
 202       13.0634
 203       13.2233
 204       13.7297
 205       13.7297
 206       13.8382
 207       13.8519
 208       13.8519
 209       13.8519
 210       13.8519
 211       14.2166
 212       14.2166
 213       14.6289
 214       14.6289
 215       15.2008
 216       15.2008
 
  0.2857143E+00  0.1428571E+00  0.0000000E+00  0.6997085E-01
   1       -5.0442
   2       -3.6821
   3       -2.8537
   4       -2.1189
   5       -2.1189
   6       -1.7421
   7       -1.5179
   8       -1.1571
   9       -1.1571
  10       -1.1462
  11       -0.8898
  12       -0.8898
  13       -0.7955
  14       -0.7955
  15       -0.6808
  16       -0.6808
  17       -0.6803
  18       -0.6385
  19       -0.5800
  20       -0.5527
  21       -0.2302
  22       -0.2302
  23       -0.0701
  24       -0.0651
  25       -0.0648
  26       -0.0352
  27       -0.0237
  28        0.0444
  29        0.1632
  30        0.1632
  31        0.1801
  32        0.2111
  33        0.2903
  34        0.2903
  35        0.3076
  36        0.3232
  37        0.3768
  38        0.3888
  39        0.5172
  40        0.5689
  41        0.6545
  42        0.6927
  43        0.7062
  44        0.7062
  45        0.7159
  46        0.7159
  47        0.7414
  48        0.7914
  49        0.8193
  50        0.8193
  51        0.8730
  52        0.8784
  53        0.8784
  54        0.9187
  55        0.9602
  56        1.0012
  57        1.0012
  58        1.0405
  59        1.0594
  60        1.0594
  61        1.0648
  62        1.0648
  63        1.1112
  64        1.1141
  65        1.1303
  66        1.1303
  67        1.2324
  68        1.2375
  69        1.2771
  70        1.2771
  71        1.3442
  72        1.3442
  73        1.3690
  74        1.3690
  75        1.3902
  76        1.3902
  77        1.4511
  78        1.4779
  79        1.4779
  80        1.5247
  81        1.5899
  82        1.5899
  83        1.5901
  84        1.6242
  85        1.6245
  86        1.6308
  87        1.6308
  88        1.6334
  89        1.7261
  90        1.7261
  91        1.7685
  92        1.8004
  93        1.9217
  94        1.9347
  95        1.9347
  96        1.9842
  97        2.0161
  98        2.0161
  99        2.1335
 100        2.1335
 101        2.1647
 102        2.1804
 103        2.2079
 104        2.2467
 105        2.2541
 106        2.2541
 107        2.2570
 108        2.2643
 109        2.2643
 110        2.2846
 111        2.2846
 112        2.3343
 113        2.3343
 114        2.3371
 115        2.3433
 116        2.3921
 117        2.4017
 118        2.4910
 119        2.4910
 120        2.4912
 121        2.5400
 122        2.5532
 123        2.5532
 124        2.5715
 125        2.5732
 126        2.5955
 127        2.5963
 128        2.6515
 129        2.6515
 130        2.6857
 131        2.7029
 132        2.7037
 133        2.7376
 134        2.7376
 135        2.7668
 136        2.7863
 137        2.8067
 138        2.8658
 139        2.8765
 140        2.8849
 141        2.8887
 142        2.8887
 143        2.8919
 144        2.8919
 145        2.9150
 146        2.9255
 147        3.0338
 148        3.0338
 149        3.0935
 150        3.1192
 151        3.1514
 152        3.1619
 153        3.1884
 154        3.1884
 155        3.2249
 156        3.2249
 157        3.2260
 158        3.2362
 159        3.2963
 160        3.2963
 161        3.3109
 162        3.3117
 163        3.3164
 164        3.4065
 165        3.4083
 166        3.4089
 167        3.4095
 168        3.5678
 169        3.8362
 170        3.8362
 171        3.8859
 172        3.8859
 173        4.2375
 174        4.2375
 175        4.3556
 176        4.8504
 177        4.8504
 178        5.3873
 179        5.4051
 180        5.4051
 181        5.5738
 182        6.2559
 183        6.2559
 184        6.8041
 185        7.0533
 186        7.3723
 187        8.8481
 188        9.1612
 189        9.7148
 190        9.7148
 191        9.7991
 192        9.7991
 193        9.8445
 194       10.6485
 195       10.8868
 196       10.8868
 197       11.1476
 198       11.5150
 199       11.5150
 200       12.5221
 201       12.5221
 202       12.9814
 203       13.0112
 204       13.0928
 205       13.0928
 206       13.2808
 207       13.3285
 208       13.8106
 209       14.0144
 210       14.2508
 211       14.2508
 212       14.2509
 213       14.4109
 214       14.4174
 215       15.0246
 216       15.0383
 
  0.4285714E+00  0.1428571E+00  0.0000000E+00  0.6997085E-01
   1       -4.7092
   2       -4.2506
   3       -2.5715
   4       -2.1939
   5       -1.8665
   6       -1.8665
   7       -1.5368
   8       -1.5368
   9       -1.2817
  10       -0.9780
  11       -0.8702
  12       -0.8702
  13       -0.8403
  14       -0.8350
  15       -0.8350
  16       -0.7130
  17       -0.5492
  18       -0.5492
  19       -0.4234
  20       -0.4011
  21       -0.3942
  22       -0.3942
  23       -0.2313
  24       -0.2148
  25        0.0252
  26        0.0404
  27        0.0419
  28        0.1529
  29        0.1879
  30        0.1928
  31        0.2394
  32        0.2490
  33        0.3434
  34        0.3551
  35        0.3551
  36        0.3970
  37        0.3970
  38        0.4261
  39        0.5081
  40        0.5120
  41        0.5740
  42        0.6023
  43        0.6023
  44        0.6438
  45        0.6438
  46        0.6501
  47        0.6920
  48        0.7393
  49        0.7512
  50        0.7512
  51        0.8103
  52        0.8103
  53        0.8930
  54        0.8960
  55        0.9109
  56        0.9765
  57        1.0304
  58        1.0304
  59        1.0503
  60        1.0503
  61        1.1642
  62        1.1642
  63        1.1728
  64        1.2062
  65        1.2129
  66        1.2713
  67        1.2713
  68        1.3459
  69        1.3669
  70        1.3669
  71        1.3768
  72        1.4366
  73        1.4366
  74        1.4629
  75        1.4629
  76        1.4814
  77        1.4814
  78        1.5572
  79        1.5684
  80        1.5684
  81        1.5938
  82        1.5938
  83        1.6005
  84        1.6702
  85        1.6702
  86        1.6880
  87        1.7117
  88        1.7140
  89        1.7329
  90        1.7329
  91        1.7944
  92        1.7944
  93        1.8192
  94        1.8326
  95        1.8603
  96        1.8603
  97        1.8695
  98        1.8695
  99        1.9164
 100        1.9164
 101        2.0037
 102        2.0319
 103        2.1754
 104        2.1857
 105        2.1857
 106        2.2028
 107        2.2230
 108        2.2230
 109        2.2657
 110        2.2919
 111        2.3372
 112        2.3692
 113        2.3692
 114        2.4005
 115        2.4279
 116        2.4430
 117        2.4466
 118        2.4466
 119        2.4574
 120        2.4976
 121        2.4997
 122        2.5225
 123        2.5555
 124        2.5728
 125        2.5792
 126        2.5885
 127        2.5885
 128        2.6160
 129        2.6370
 130        2.6389
 131        2.6415
 132        2.6415
 133        2.6968
 134        2.8446
 135        2.8671
 136        2.9081
 137        2.9088
 138        2.9088
 139        2.9912
 140        2.9922
 141        2.9975
 142        3.0242
 143        3.0254
 144        3.0278
 145        3.0278
 146        3.0380
 147        3.0380
 148        3.0630
 149        3.0630
 150        3.0701
 151        3.1003
 152        3.1444
 153        3.1444
 154        3.1670
 155        3.1728
 156        3.1751
 157        3.1773
 158        3.1773
 159        3.1814
 160        3.2528
 161        3.2528
 162        3.2943
 163        3.4063
 164        3.4068
 165        3.4086
 166        3.4088
 167        3.5444
 168        3.5444
 169        3.5479
 170        3.5787
 171        3.9268
 172        4.0079
 173        4.0079
 174        4.1444
 175        4.1444
 176        4.3902
 177        5.1570
 178        5.1570
 179        5.3263
 180        5.3263
 181        6.4981
 182        7.2606
 183        7.2606
 184        7.4984
 185        7.6075
 186        8.0774
 187        8.1043
 188        8.2951
 189        8.4306
 190        8.4306
 191        8.9133
 192        9.3121
 193       10.3985
 194       10.3985
 195       11.3341
 196       11.3341
 197       11.6162
 198       11.8251
 199       11.8251
 200       11.9043
 201       11.9043
 202       12.2349
 203       12.4388
 204       12.4388
 205       12.9568
 206       12.9568
 207       13.3730
 208       13.4501
 209       13.7554
 210       13.9505
 211       14.1536
 212       14.3267
 213       14.4692
 214       14.6509
 215       14.9651
 216       15.4812
 
  0.2857143E+00  0.2857143E+00  0.0000000E+00  0.3498542E-01
   1       -4.8427
   2       -3.4982
   3       -3.4982
   4       -2.2970
   5       -1.9740
   6       -1.9740
   7       -1.1243
   8       -1.1243
   9       -1.1243
  10       -1.1243
  11       -1.0096
  12       -1.0096
  13       -0.9639
  14       -0.9639
  15       -0.5744
  16       -0.5744
  17       -0.5394
  18       -0.5394
  19       -0.4594
  20       -0.2263
  21       -0.2263
  22       -0.0089
  23       -0.0089
  24       -0.0071
  25       -0.0011
  26       -0.0011
  27       -0.0011
  28       -0.0011
  29        0.0059
  30        0.0059