   4   4   0   0
  0.2102843E+02  0.4381495E-09  0.4381495E-09  0.4381495E-09  0.5000000E-15
  1.000000000000000E-004
  CAR 
 unknown system                          
     14.08153114     -5.38365126  301      3.32838142      1.00000000
     -5.384  0.0000E+00  0.0000E+00
     -5.319  0.0000E+00  0.0000E+00
     -5.254  0.0000E+00  0.0000E+00
     -5.189  0.0000E+00  0.0000E+00
     -5.124  0.0000E+00  0.0000E+00
     -5.059  0.0000E+00  0.0000E+00
     -4.994  0.0000E+00  0.0000E+00
     -4.929  0.0000E+00  0.0000E+00
     -4.865  0.0000E+00  0.0000E+00
     -4.800  0.0000E+00  0.0000E+00
     -4.735  0.0000E+00  0.0000E+00
     -4.670  0.0000E+00  0.0000E+00
     -4.605  0.0000E+00  0.0000E+00
     -4.540  0.4677E-10  0.3034E-11
     -4.475  0.1783E-01  0.1157E-02
     -4.410  0.1069E+00  0.8092E-02
     -4.346  0.2133E+00  0.2194E-01
     -4.281  0.1419E+00  0.3120E-01
     -4.216  0.1055E+00  0.3810E-01
     -4.151  0.4223E+00  0.6559E-01
     -4.086  0.4242E+00  0.9350E-01
     -4.021  0.3576E-11  0.9375E-01
     -3.956  0.2129E+00  0.1076E+00
     -3.891  0.5323E+00  0.1422E+00
     -3.826  0.4277E+00  0.1699E+00
     -3.762  0.4278E+00  0.1979E+00
     -3.697  0.1427E+00  0.2072E+00
     -3.632  0.4283E+00  0.2350E+00
     -3.567  0.8560E+00  0.2905E+00
     -3.502  0.2073E-06  0.2905E+00
     -3.437  0.4896E+00  0.3223E+00
     -3.372  0.5332E+00  0.3569E+00
     -3.307  0.1001E+01  0.4218E+00
     -3.242  0.2771E+00  0.4398E+00
     -3.178  0.1419E+01  0.5319E+00
     -3.113  0.2485E-01  0.5336E+00
     -3.048  0.4244E+00  0.5611E+00
     -2.983  0.1130E+00  0.5687E+00
     -2.918  0.1440E+01  0.6621E+00
     -2.853  0.1251E+01  0.7433E+00
     -2.788  0.4426E+00  0.7720E+00
     -2.723  0.8067E+00  0.8243E+00
     -2.659  0.9058E+00  0.8831E+00
     -2.594  0.1200E+01  0.9610E+00
     -2.529  0.7282E+00  0.1008E+01
     -2.464  0.2165E+01  0.1149E+01
     -2.399  0.8729E+00  0.1205E+01
     -2.334  0.1822E+01  0.1324E+01
     -2.269  0.2483E+01  0.1485E+01
     -2.204  0.4399E+01  0.1770E+01
     -2.139  0.1818E+01  0.1889E+01
     -2.075  0.4913E+01  0.2208E+01
     -2.010  0.3978E+01  0.2466E+01
     -1.945  0.2754E+01  0.2645E+01
     -1.880  0.8786E+01  0.3215E+01
     -1.815  0.6734E+01  0.3652E+01
     -1.750  0.5945E+01  0.4038E+01
     -1.685  0.1268E+02  0.4861E+01
     -1.620  0.9260E+01  0.5462E+01
     -1.555  0.7933E+01  0.5977E+01
     -1.491  0.1445E+02  0.6915E+01
     -1.426  0.6013E+01  0.7306E+01
     -1.361  0.7558E+01  0.7797E+01
     -1.296  0.1132E+02  0.8531E+01
     -1.231  0.7636E+01  0.9028E+01
     -1.166  0.6645E+01  0.9459E+01
     -1.101  0.7357E+01  0.9936E+01
     -1.036  0.6053E+01  0.1033E+02
     -0.972  0.5605E+01  0.1069E+02
     -0.907  0.1332E+02  0.1156E+02
     -0.842  0.5308E+01  0.1190E+02
     -0.777  0.1538E+02  0.1290E+02
     -0.712  0.1035E+02  0.1357E+02
     -0.647  0.1275E+02  0.1440E+02
     -0.582  0.1153E+02  0.1515E+02
     -0.517  0.1103E+02  0.1587E+02
     -0.452  0.9678E+01  0.1649E+02
     -0.388  0.1289E+02  0.1733E+02
     -0.323  0.1489E+02  0.1830E+02
     -0.258  0.1755E+02  0.1944E+02
     -0.193  0.1628E+02  0.2050E+02
     -0.128  0.1896E+02  0.2173E+02
     -0.063  0.1305E+02  0.2258E+02
      0.002  0.1282E+02  0.2341E+02
      0.067  0.1116E+02  0.2413E+02
      0.131  0.8491E+01  0.2468E+02
      0.196  0.7953E+01  0.2520E+02
      0.261  0.1159E+02  0.2595E+02
      0.326  0.8457E+01  0.2650E+02
      0.391  0.9024E+01  0.2709E+02
      0.456  0.1585E+02  0.2812E+02
      0.521  0.1190E+02  0.2889E+02
      0.586  0.1251E+02  0.2970E+02
      0.651  0.1209E+02  0.3049E+02
      0.715  0.9458E+01  0.3110E+02
      0.780  0.1360E+02  0.3198E+02
      0.845  0.1011E+02  0.3264E+02
      0.910  0.8356E+01  0.3318E+02
      0.975  0.9850E+01  0.3382E+02
      1.040  0.1073E+02  0.3452E+02
      1.105  0.9642E+01  0.3514E+02
      1.170  0.9855E+01  0.3578E+02
      1.235  0.9958E+01  0.3643E+02
      1.299  0.1549E+02  0.3744E+02
      1.364  0.1387E+02  0.3834E+02
      1.429  0.1517E+02  0.3932E+02
      1.494  0.1831E+02  0.4051E+02
      1.559  0.9925E+01  0.4116E+02
      1.624  0.1031E+02  0.4182E+02
      1.689  0.2152E+01  0.4196E+02
      1.754  0.7000E+00  0.4201E+02
      1.818  0.4270E+00  0.4204E+02
      1.883  0.4011E+00  0.4206E+02
      1.948  0.2989E+01  0.4226E+02
      2.013  0.2503E+01  0.4242E+02
      2.078  0.1420E+01  0.4251E+02
      2.143  0.8534E+00  0.4257E+02
      2.208  0.1164E-12  0.4257E+02
      2.273  0.4184E+00  0.4260E+02
      2.338  0.4393E+00  0.4262E+02
      2.402  0.3540E+01  0.4285E+02
      2.467  0.2011E+01  0.4298E+02
      2.532  0.1284E+01  0.4307E+02
      2.597  0.4285E+00  0.4310E+02
      2.662  0.1916E+01  0.4322E+02
      2.727  0.2238E+00  0.4323E+02
      2.792  0.3720E-01  0.4324E+02
      2.857  0.1251E+01  0.4332E+02
      2.921  0.1636E+01  0.4342E+02
      2.986  0.2430E+01  0.4358E+02
      3.051  0.9308E+00  0.4364E+02
      3.116  0.1015E+01  0.4371E+02
      3.181  0.2040E+01  0.4384E+02
      3.246  0.3985E+00  0.4387E+02
      3.311  0.1376E+01  0.4396E+02
      3.376  0.1572E+01  0.4406E+02
      3.441  0.1664E+00  0.4407E+02
      3.505  0.2101E+01  0.4421E+02
      3.570  0.1313E+01  0.4429E+02
      3.635  0.1673E+01  0.4440E+02
      3.700  0.8561E+00  0.4445E+02
      3.765  0.2138E+01  0.4459E+02
      3.830  0.1240E+01  0.4467E+02
      3.895  0.7054E+00  0.4472E+02
      3.960  0.1565E+01  0.4482E+02
      4.025  0.1199E+01  0.4490E+02
      4.089  0.1109E+01  0.4497E+02
      4.154  0.1146E+01  0.4505E+02
      4.219  0.8470E+00  0.4510E+02
      4.284  0.1497E+01  0.4520E+02
      4.349  0.4282E+00  0.4523E+02
      4.414  0.2133E+01  0.4536E+02
      4.479  0.1437E+01  0.4546E+02
      4.544  0.1944E+01  0.4558E+02
      4.608  0.8970E+00  0.4564E+02
      4.673  0.6090E+00  0.4568E+02
      4.738  0.1511E+01  0.4578E+02
      4.803  0.1977E+01  0.4591E+02
      4.868  0.6114E+00  0.4595E+02
      4.933  0.5963E+00  0.4599E+02
      4.998  0.7453E+00  0.4603E+02
      5.063  0.2858E+01  0.4622E+02
      5.128  0.1919E+01  0.4635E+02
      5.192  0.5304E+00  0.4638E+02
      5.257  0.9715E-01  0.4639E+02
      5.322  0.1749E+01  0.4650E+02
      5.387  0.4206E+00  0.4653E+02
      5.452  0.2271E+01  0.4667E+02
      5.517  0.2727E+01  0.4685E+02
      5.582  0.1039E+01  0.4692E+02
      5.647  0.2957E+01  0.4711E+02
      5.712  0.1370E+01  0.4720E+02
      5.776  0.1401E+01  0.4729E+02
      5.841  0.6815E+00  0.4733E+02
      5.906  0.2711E+01  0.4751E+02
      5.971  0.2159E+01  0.4765E+02
      6.036  0.1260E+01  0.4773E+02
      6.101  0.4657E+00  0.4776E+02
      6.166  0.1657E+01  0.4787E+02
      6.231  0.2402E+01  0.4803E+02
      6.295  0.1098E+01  0.4810E+02
      6.360  0.1677E+00  0.4811E+02
      6.425  0.4761E+00  0.4814E+02
      6.490  0.2735E+01  0.4832E+02
      6.555  0.1430E+01  0.4841E+02
      6.620  0.1135E+01  0.4848E+02
      6.685  0.1196E+01  0.4856E+02
      6.750  0.3057E+00  0.4858E+02
      6.815  0.4797E+00  0.4861E+02
      6.879  0.1955E+01  0.4874E+02
      6.944  0.1186E+01  0.4882E+02
      7.009  0.2152E+01  0.4896E+02
      7.074  0.6871E+00  0.4900E+02
      7.139  0.7093E+00  0.4905E+02
      7.204  0.3368E-01  0.4905E+02
      7.269  0.2014E+01  0.4918E+02
      7.334  0.7010E+00  0.4922E+02
      7.398  0.2102E+01  0.4936E+02
      7.463  0.1784E+01  0.4948E+02
      7.528  0.1430E+01  0.4957E+02
      7.593  0.9779E+00  0.4963E+02
      7.658  0.2345E+01  0.4979E+02
      7.723  0.7981E+00  0.4984E+02
      7.788  0.1326E+01  0.4992E+02
      7.853  0.2891E+01  0.5011E+02
      7.918  0.9157E+00  0.5017E+02
      7.982  0.4593E-04  0.5017E+02
      8.047  0.8562E+00  0.5023E+02
      8.112  0.1635E+01  0.5033E+02
      8.177  0.3068E+01  0.5053E+02
      8.242  0.1696E+01  0.5064E+02
      8.307  0.3099E+01  0.5084E+02
      8.372  0.3734E+01  0.5108E+02
      8.437  0.9061E+00  0.5114E+02
      8.502  0.2244E+01  0.5129E+02
      8.566  0.1949E+00  0.5130E+02
      8.631  0.6687E+00  0.5135E+02
      8.696  0.4112E+00  0.5137E+02
      8.761  0.2042E+01  0.5150E+02
      8.826  0.1723E+01  0.5162E+02
      8.891  0.7213E+00  0.5166E+02
      8.956  0.8553E+00  0.5172E+02
      9.021  0.2206E+00  0.5173E+02
      9.085  0.3336E+00  0.5175E+02
      9.150  0.2700E+01  0.5193E+02
      9.215  0.1047E+01  0.5200E+02
      9.280  0.1345E+01  0.5209E+02
      9.345  0.2111E+01  0.5222E+02
      9.410  0.1196E+01  0.5230E+02
      9.475  0.1974E+01  0.5243E+02
      9.540  0.2833E+01  0.5261E+02
      9.605  0.9976E+00  0.5268E+02
      9.669  0.8685E+00  0.5273E+02
      9.734  0.1421E+01  0.5283E+02
      9.799  0.1126E+01  0.5290E+02
      9.864  0.1728E+01  0.5301E+02
      9.929  0.4590E+00  0.5304E+02
      9.994  0.2112E+01  0.5318E+02
     10.059  0.1120E+01  0.5325E+02
     10.124  0.2044E+01  0.5338E+02
     10.188  0.1532E+01  0.5348E+02
     10.253  0.1505E+01  0.5358E+02
     10.318  0.8012E+00  0.5363E+02
     10.383  0.1111E+01  0.5370E+02
     10.448  0.2267E+01  0.5385E+02
     10.513  0.1630E+01  0.5396E+02
     10.578  0.2167E+00  0.5397E+02
     10.643  0.3199E+01  0.5418E+02
     10.708  0.1012E+01  0.5424E+02
     10.772  0.2613E+01  0.5441E+02
     10.837  0.2677E+01  0.5459E+02
     10.902  0.1714E+01  0.5470E+02
     10.967  0.9722E+00  0.5476E+02
     11.032  0.4266E+00  0.5479E+02
     11.097  0.1191E+01  0.5487E+02
     11.162  0.1367E+01  0.5496E+02
     11.227  0.1405E+01  0.5505E+02
     11.292  0.1180E+01  0.5512E+02
     11.356  0.8403E+00  0.5518E+02
     11.421  0.4428E+00  0.5521E+02
     11.486  0.2107E+01  0.5534E+02
     11.551  0.1200E+01  0.5542E+02
     11.616  0.1588E+01  0.5553E+02
     11.681  0.8560E+00  0.5558E+02
     11.746  0.1453E+01  0.5568E+02
     11.811  0.6143E+00  0.5572E+02
     11.875  0.6986E+00  0.5576E+02
     11.940  0.3638E+00  0.5579E+02
     12.005  0.1169E+00  0.5579E+02
     12.070  0.7393E+00  0.5584E+02
     12.135  0.2141E+00  0.5586E+02
     12.200  0.4281E+00  0.5588E+02
     12.265  0.6236E+00  0.5592E+02
     12.330  0.5305E+00  0.5596E+02
     12.395  0.3798E+00  0.5598E+02
     12.459  0.0000E+00  0.5598E+02
     12.524  0.0000E+00  0.5598E+02
     12.589  0.0000E+00  0.5598E+02
     12.654  0.8470E-04  0.5598E+02
     12.719  0.1069E+00  0.5599E+02
     12.784  0.3761E-13  0.5599E+02
     12.849  0.1762E-01  0.5599E+02
     12.914  0.0000E+00  0.5599E+02
     12.979  0.0000E+00  0.5599E+02
     13.043  0.0000E+00  0.5599E+02
     13.108  0.0000E+00  0.5599E+02
     13.173  0.6049E-04  0.5599E+02
     13.238  0.1426E+00  0.5600E+02
     13.303  0.0000E+00  0.5600E+02
     13.368  0.0000E+00  0.5600E+02
     13.433  0.0000E+00  0.5600E+02
     13.498  0.0000E+00  0.5600E+02
     13.562  0.0000E+00  0.5600E+02
     13.627  0.0000E+00  0.5600E+02
     13.692  0.0000E+00  0.5600E+02
     13.757  0.0000E+00  0.5600E+02
     13.822  0.0000E+00  0.5600E+02
     13.887  0.0000E+00  0.5600E+02
     13.952  0.0000E+00  0.5600E+02
     14.017  0.0000E+00  0.5600E+02
     14.082  0.0000E+00  0.5600E+02
