    4    4    1    1
  0.2102843E+02  0.4381494E-09  0.4381494E-09  0.4381494E-09  0.5000000E-15
  1.000000000000000E-004
  CAR 
 unknown system                          
   44   84   28
 
  0.0000000E+00  0.0000000E+00  0.0000000E+00  0.5787037E-03
   1       -4.4989
   2       -2.0689
   3       -2.0689
   4       -2.0689
   5       -1.8619
   6       -1.8619
   7       -1.8619
   8       -0.4244
   9       -0.4244
  10       -0.4244
  11        0.6175
  12        0.6175
  13        1.4099
  14        1.4099
  15        1.4099
  16        1.6630
  17        1.6630
  18        1.6630
  19        1.6630
  20        1.6630
  21        1.6630
  22        4.9132
  23        4.9132
  24        4.9132
  25        7.6452
  26        7.6452
  27        7.6452
  28       12.8329
 
  0.8333333E-01  0.0000000E+00  0.0000000E+00  0.3472222E-02
   1       -4.4315
   2       -2.0492
   3       -2.0280
   4       -2.0280
   5       -1.8403
   6       -1.8290
   7       -1.8290
   8       -0.4525
   9       -0.3981
  10       -0.3981
  11        0.5882
  12        0.6302
  13        1.3690
  14        1.3690
  15        1.3955
  16        1.5037
  17        1.5037
  18        1.6123
  19        1.6123
  20        1.6630
  21        1.6630
  22        4.2584
  23        5.1254
  24        5.1254
  25        7.6056
  26        7.6056
  27        8.4209
  28       12.6764
 
  0.1666667E+00  0.0000000E+00  0.0000000E+00  0.3472222E-02
   1       -4.2313
   2       -1.9971
   3       -1.9095
   4       -1.9095
   5       -1.7766
   6       -1.7304
   7       -1.7304
   8       -0.5339
   9       -0.3198
  10       -0.3198
  11        0.5042
  12        0.6675
  13        1.1183
  14        1.1183
  15        1.2497
  16        1.2497
  17        1.3535
  18        1.4689
  19        1.4689
  20        1.6632
  21        1.6632
  22        3.1114
  23        5.6685
  24        5.6685
  25        7.4980
  26        7.4980
  27        9.9358
  28       12.2379
 
  0.2500000E+00  0.0000000E+00  0.0000000E+00  0.3472222E-02
   1       -3.9053
   2       -1.9380
   3       -1.7284
   4       -1.7284
   5       -1.6737
   6       -1.5666
   7       -1.5666
   8       -0.6609
   9       -0.1915
  10       -0.1915
  11        0.3784
  12        0.6454
  13        0.6454
  14        0.7274
  15        1.0646
  16        1.0646
  17        1.2543
  18        1.2543
  19        1.2872
  20        1.6635
  21        1.6635
  22        1.9927
  23        6.3999
  24        6.3999
  25        7.3529
  26        7.3529
  27       11.5901
  28       11.5933
 
  0.3333333E+00  0.0000000E+00  0.0000000E+00  0.3472222E-02
   1       -3.4694
   2       -1.9294
   3       -1.5367
   4       -1.5150
   5       -1.5150
   6       -1.3382
   7       -1.3382
   8       -0.8218
   9       -0.0163
  10       -0.0163
  11        0.1641
  12        0.1641
  13        0.2357
  14        0.8063
  15        0.8439
  16        0.8439
  17        0.9962
  18        0.9962
  19        1.0505
  20        1.2020
  21        1.6638
  22        1.6638
  23        7.2110
  24        7.2110
  25        7.2334
  26        7.2334
  27       10.8048
  28       10.8048
 
  0.4166667E+00  0.0000000E+00  0.0000000E+00  0.3472222E-02
   1       -2.9578
   2       -2.0749
   3       -1.3727
   4       -1.3256
   5       -1.3256
   6       -1.0470
   7       -1.0470
   8       -1.0032
   9       -0.2888
  10       -0.2888
  11        0.1226
  12        0.2002
  13        0.2002
  14        0.4058
  15        0.6472
  16        0.6472
  17        0.7207
  18        0.7207
  19        0.8994
  20        1.1042
  21        1.6640
  22        1.6640
  23        7.1096
  24        7.1096
  25        8.1219
  26        8.1219
  27        9.9386
  28        9.9386
 
  0.5000000E+00  0.0000000E+00  0.0000000E+00  0.1736111E-02
   1       -2.4474
   2       -2.4474
   3       -1.2453
   4       -1.2453
   5       -1.1911
   6       -1.1911
   7       -0.6955
   8       -0.6955
   9       -0.6955
  10       -0.6955
  11        0.1294
  12        0.1294
  13        0.4499
  14        0.4499
  15        0.4499
  16        0.4499
  17        0.5637
  18        0.5637
  19        1.0010
  20        1.0010
  21        1.6641
  22        1.6641
  23        7.0731
  24        7.0731
  25        9.0333
  26        9.0333
  27        9.0333
  28        9.0333
 
  0.8333333E-01  0.8333333E-01  0.0000000E+00  0.6944444E-02
   1       -4.3647
   2       -2.0078
   3       -2.0078
   4       -1.9932
   5       -1.8078
   6       -1.8078
   7       -1.7916
   8       -0.4632
   9       -0.3884
  10       -0.3740
  11        0.5806
  12        0.6239
  13        1.3286
  14        1.3286
  15        1.3303
  16        1.3936
  17        1.4717
  18        1.4717
  19        1.6122
  20        1.6122
  21        1.6289
  22        4.4572
  23        4.4572
  24        5.3230
  25        7.5604
  26        8.3931
  27        8.3931
  28       12.1028
 
  0.1666667E+00  0.8333333E-01  0.0000000E+00  0.1388889E-01
   1       -4.1665
   2       -1.9544
   3       -1.8922
   4       -1.8881
   5       -1.7454
   6       -1.7106
   7       -1.6809
   8       -0.5343
   9       -0.3184
  10       -0.3030
  11        0.5083
  12        0.6583
  13        1.0058
  14        1.0537
  15        1.1883
  16        1.2170
  17        1.2843
  18        1.3988
  19        1.4684
  20        1.6113
  21        1.6120
  22        3.3336
  23        4.9352
  24        5.8392
  25        7.4349
  26        8.3278
  27        9.8794
  28       11.4711
 
  0.2500000E+00  0.8333333E-01  0.0000000E+00  0.1388889E-01
   1       -3.8438
   2       -1.8931
   3       -1.7334
   4       -1.7046
   5       -1.6446
   6       -1.5489
   7       -1.5037
   8       -0.6561
   9       -0.1919
  10       -0.1908
  11        0.3937
  12        0.5436
  13        0.6086
  14        0.7253
  15        0.9318
  16        1.0403
  17        1.0950
  18        1.2534
  19        1.3022
  20        1.6076
  21        1.6116
  22        2.2928
  23        5.5113
  24        6.5479
  25        7.2568
  26        8.2822
  27       10.8601
  28       11.5427
 
  0.3333333E+00  0.8333333E-01  0.0000000E+00  0.1388889E-01
   1       -3.4125
   2       -1.8821
   3       -1.5309
   4       -1.5104
   5       -1.4875
   6       -1.3240
   7       -1.2779
   8       -0.8123
   9       -0.0629
  10       -0.0175
  11        0.0758
  12        0.1457
  13        0.2895
  14        0.5595
  15        0.8153
  16        0.8293
  17        0.8743
  18        0.9948
  19        1.1548
  20        1.5344
  21        1.6073
  22        1.6109
  23        6.0469
  24        7.0623
  25        7.3656
  26        8.3517
  27       10.2711
  28       10.9165
 
  0.4166667E+00  0.8333333E-01  0.0000000E+00  0.1388889E-01
   1       -2.9061
   2       -2.0270
   3       -1.3500
   4       -1.3238
   5       -1.2943
   6       -1.0373
   7       -1.0244
   8       -0.9890
   9       -0.3558
  10       -0.2945
  11       -0.0191
  12        0.1755
  13        0.1987
  14        0.3354
  15        0.6440
  16        0.6721
  17        0.7191
  18        0.8644
  19        0.9236
  20        1.1994
  21        1.6080
  22        1.6100
  23        6.4401
  24        6.8759
  25        8.2436
  26        8.6302
  27        9.6826
  28       10.0505
 
  0.5000000E+00  0.8333333E-01  0.0000000E+00  0.6944444E-02
   1       -2.3993
   2       -2.3993
   3       -1.2182
   4       -1.2182
   5       -1.1725
   6       -1.1725
   7       -0.7268
   8       -0.7268
   9       -0.6923
  10       -0.6923
  11       -0.0097
  12       -0.0097
  13        0.4482
  14        0.4482
  15        0.5585
  16        0.5585
  17        0.5752
  18        0.5752
  19        1.0474
  20        1.0474
  21        1.6090
  22        1.6090
  23        6.6888
  24        6.6888
  25        9.1088
  26        9.1088
  27        9.1485
  28        9.1485
 
  0.1666667E+00  0.1666667E+00  0.0000000E+00  0.6944444E-02
   1       -3.9742
   2       -1.8306
   3       -1.8306
   4       -1.8298
   5       -1.6520
   6       -1.6520
   7       -1.5472
   8       -0.5649
   9       -0.2828
  10       -0.2544
  11        0.4834
  12        0.6719
  13        0.7752
  14        0.7752
  15        0.8359
  16        1.1201
  17        1.2848
  18        1.2848
  19        1.4670
  20        1.4670
  21        1.5283
  22        3.8186
  23        3.8186
  24        6.3010
  25        7.2520
  26        9.7231
  27        9.7231
  28       10.7419
 
  0.2500000E+00  0.1666667E+00  0.0000000E+00  0.1388889E-01
   1       -3.6618
   2       -1.7625
   3       -1.7118
   4       -1.6397
   5       -1.5575
   6       -1.4970
   7       -1.3559
   8       -0.6555
   9       -0.1839
  10       -0.1783
  11        0.3100
  12        0.4039
  13        0.4696
  14        0.4870
  15        0.7518
  16        0.9668
  17        1.1180
  18        1.2176
  19        1.2508
  20        1.4649
  21        1.4827
  22        2.8164
  23        4.3758
  24        6.9595
  25        6.9726
  26        9.5134
  27       10.1625
  28       11.1459
 
  0.3333333E+00  0.1666667E+00  0.0000000E+00  0.1388889E-01
   1       -3.2447
   2       -1.7443
   3       -1.5382
   4       -1.4322
   5       -1.4108
   6       -1.2821
   7       -1.1404
   8       -0.7906
   9       -0.1343
  10       -0.1307
  11       -0.0135
  12        0.0854
  13        0.1279
  14        0.3455
  15        0.7820
  16        0.8780
  17        0.9120
  18        0.9913
  19        1.0762
  20        1.4623
  21        1.4645
  22        2.0451
  23        4.9240
  24        6.6336
  25        7.7394
  26        9.3258
  27        9.7331
  28       11.2401
 
  0.4166667E+00  0.1666667E+00  0.0000000E+00  0.1388889E-01
   1       -2.7549
   2       -1.8886
   3       -1.3225
   4       -1.2828
   5       -1.2034
   6       -1.0097
   7       -0.9516
   8       -0.9501
   9       -0.5231
  10       -0.3145
  11       -0.1593
  12       -0.1358
  13        0.1981
  14        0.4153
  15        0.6257
  16        0.7098
  17        0.7155
  18        0.8585
  19        1.0397
  20        1.4585
  21        1.4597
  22        1.5447
  23        5.4249
  24        6.2645
  25        8.5912
  26        9.2314
  27        9.4368
  28       10.3738
 
  0.5000000E+00  0.1666667E+00  0.0000000E+00  0.6944444E-02
   1       -2.2604
   2       -2.2604
   3       -1.1468
   4       -1.1468
   5       -1.1185
   6       -1.1185
   7       -0.7990
   8       -0.7990
   9       -0.6844
  10       -0.6844
  11       -0.2095
  12       -0.2095
  13        0.4454
  14        0.4454
  15        0.5903
  16        0.5903
  17        0.6108
  18        0.6108
  19        1.2455
  20        1.2455
  21        1.4579
  22        1.4579
  23        5.8675
  24        5.8675
  25        9.2672
  26        9.2672
  27        9.4797
  28        9.4797
 
  0.2500000E+00  0.2500000E+00  0.0000000E+00  0.6944444E-02
   1       -3.3670
   2       -1.6385
   3       -1.5589
   4       -1.5589
   5       -1.4138
   6       -1.4138
   7       -1.1639
   8       -0.6908
   9       -0.1686
  10       -0.1147
  11        0.0196
  12        0.0196
  13        0.2672
  14        0.3606
  15        0.8459
  16        0.8606
  17        1.0743
  18        1.0743
  19        1.2471
  20        1.2471
  21        1.3669
  22        3.3715
  23        3.3715
  24        6.5351
  25        7.5658
  26        9.7078
  27       10.6256
  28       10.6256
 
  0.3333333E+00  0.2500000E+00  0.0000000E+00  0.1388889E-01
   1       -2.9755
   2       -1.5288
   3       -1.5084
   4       -1.3084
   5       -1.3040
   6       -1.2157
   7       -0.9663
   8       -0.7760
   9       -0.3885
  10       -0.2593
  11       -0.1735
  12       -0.0293
  13        0.0180
  14        0.3171
  15        0.6956
  16        0.8904
  17        0.9480
  18        0.9873
  19        1.0416
  20        1.2434
  21        1.2954
  22        2.5646
  23        3.9208
  24        6.0196
  25        8.3029
  26        9.4688
  27       10.1267
  28       11.5889
 
  0.4166667E+00  0.2500000E+00  0.0000000E+00  0.1388889E-01
   1       -2.5171
   2       -1.6781
   3       -1.3218
   4       -1.1748
   5       -1.0652
   6       -0.9676
   7       -0.8972
   8       -0.8299
   9       -0.7355
  10       -0.4040
  11       -0.3564
  12       -0.2502
  13        0.2110
  14        0.3725
  15        0.5731
  16        0.6999
  17        0.7132
  18        0.7519
  19        1.2418
  20        1.2599
  21        1.2755
  22        1.9779
  23        4.4530
  24        5.4914
  25        9.1235
  26        9.4033
  27        9.7372
  28       10.8764
 
  0.5000000E+00  0.2500000E+00  0.0000000E+00  0.6944444E-02
   1       -2.0487
   2       -2.0487
   3       -1.0895
   4       -1.0895
   5       -1.0352
   6       -1.0352
   7       -0.8343
   8       -0.8343
   9       -0.6768
  10       -0.6768
  11       -0.3645
  12       -0.3645
  13        0.4482
  14        0.4482
  15        0.5368
  16        0.5368
  17        0.5688
  18        0.5688
  19        1.2454
  20        1.2454
  21        1.5721
  22        1.5721
  23        4.9719
  24        4.9719
  25        9.4934
  26        9.4934
  27        9.9917
  28        9.9917
 
  0.3333333E+00  0.3333333E+00  0.0000000E+00  0.6944444E-02
   1       -2.6227
   2       -1.4338
   3       -1.2629
   4       -1.2629
   5       -1.1300
   6       -1.1300
   7       -0.7925
   8       -0.7918
   9       -0.5930
  10       -0.5930
  11       -0.2065
  12       -0.2057
  13        0.1044
  14        0.2549
  15        0.5768
  16        0.7832
  17        0.7832
  18        0.9857
  19        0.9857
  20        1.1541
  21        1.2854
  22        3.0853
  23        3.0853
  24        5.3565
  25        9.0025
  26        9.4191
  27       10.8484
  28       10.8484
 
  0.4166667E+00  0.3333333E+00  0.0000000E+00  0.1388889E-01
   1       -2.2158
   2       -1.4398
   3       -1.3113
   4       -1.0327
   5       -1.0269
   6       -0.9173
   7       -0.8487
   8       -0.8328
   9       -0.6843
  10       -0.5939
  11       -0.4314
  12       -0.2931
  13        0.2578
  14        0.2704
  15        0.4751
  16        0.6031
  17        0.6090
  18        0.7189
  19        0.9916
  20        1.0623
  21        1.5869
  22        2.4387
  23        3.6091
  24        4.7265
  25        9.5374
  26        9.7940
  27       10.2506
  28       11.5216
 
  0.5000000E+00  0.3333333E+00  0.0000000E+00  0.6944444E-02
   1       -1.7991
   2       -1.7991
   3       -1.1426
   4       -1.1426
   5       -0.9342
   6       -0.9342
   7       -0.7318
   8       -0.7318
   9       -0.6779
  10       -0.6779
  11       -0.4476
  12       -0.4476
  13        0.4060
  14        0.4060
  15        0.4689
  16        0.4689
  17        0.4815
  18        0.4815
  19        1.0131
  20        1.0131
  21        1.9572
  22        1.9572
  23        4.1490
  24        4.1490
  25        9.8134
  26        9.8134
  27       10.6428
  28       10.6428
 
  0.4166667E+00  0.4166667E+00  0.0000000E+00  0.6944444E-02
   1       -1.8855
   2       -1.2833
   3       -1.2717
   4       -1.2717
   5       -0.8682
   6       -0.8682
   7       -0.8243
   8       -0.6480
   9       -0.6480
  10       -0.5718
  11       -0.5472
  12       -0.3349
  13        0.2052
  14        0.3595
  15        0.3646
  16        0.4460
  17        0.4460
  18        0.7428
  19        0.7428
  20        0.9036
  21        1.9523
  22        2.9238
  23        2.9238
  24        4.0427
  25        9.8183
  26       10.5620
  27       10.8343
  28       10.8343
 
  0.5000000E+00  0.4166667E+00  0.0000000E+00  0.6944444E-02
   1       -1.5631
   2       -1.5631
   3       -1.2485
   4       -1.2485
   5       -0.8328
   6       -0.8328
   7       -0.6990
   8       -0.6990
   9       -0.5763
  10       -0.5763
  11       -0.4582
  12       -0.4582
  13        0.2762
  14        0.2762
  15        0.3415
  16        0.3415
  17        0.5245
  18        0.5245
  19        0.7992
  20        0.7992
  21        2.3852
  22        2.3852
  23        3.4493
  24        3.4493
  25       10.2483
  26       10.2483
  27       11.3943
  28       11.3949
 
  0.5000000E+00  0.5000000E+00  0.0000000E+00  0.1736111E-02
   1       -1.3814
   2       -1.3814
   3       -1.3814
   4       -1.3814
   5       -0.7503
   6       -0.7503
   7       -0.7503
   8       -0.7503
   9       -0.4697
  10       -0.4697
  11       -0.4697
  12       -0.4697
  13        0.2382
  14        0.2382
  15        0.2382
  16        0.2382
  17        0.6324
  18        0.6324
  19        0.6324
  20        0.6324
  21        2.8716
  22        2.8716
  23        2.8716
  24        2.8716
  25       10.8127
  26       10.8127
  27       10.8127
  28       10.8127
 
  0.8333333E-01  0.8333333E-01  0.8333333E-01  0.4629630E-02
   1       -4.2987
   2       -1.9731
   3       -1.9731
   4       -1.9731
   5       -1.7705
   6       -1.7705
   7       -1.7705
   8       -0.4717
   9       -0.3662
  10       -0.3662
  11        0.5967
  12        0.5967
  13        1.2954
  14        1.2954
  15        1.2954
  16        1.3273
  17        1.3273
  18        1.3273
  19        1.6032
  20        1.6032
  21        1.6032
  22        4.6366
  23        4.6366
  24        4.6366
  25        8.3563
  26        8.3563
  27        8.3563
  28       12.2423
 
  0.1666667E+00  0.8333333E-01  0.8333333E-01  0.1388889E-01
   1       -4.1027
   2       -1.9198
   3       -1.8723
   4       -1.8723
   5       -1.7082
   6       -1.6598
   7       -1.6598
   8       -0.5332
   9       -0.3060
  10       -0.2999
  11        0.5204
  12        0.6439
  13        0.9602
  14        0.9602
  15        1.1325
  16        1.1911
  17        1.2065
  18        1.2065
  19        1.5341
  20        1.5873
  21        1.5873
  22        3.5202
  23        5.0795
  24        5.0795
  25        8.2616
  26        8.2616
  27        9.7959
  28       11.6449
 
  0.2500000E+00  0.8333333E-01  0.8333333E-01  0.1388889E-01
   1       -3.7840
   2       -1.8582
   3       -1.7138
   4       -1.7138
   5       -1.6079
   6       -1.4829
   7       -1.4829
   8       -0.6484
   9       -0.1954
  10       -0.1909
  11        0.4157
  12        0.5154
  13        0.5154
  14        0.7194
  15        0.8191
  16        1.0246
  17        1.0468
  18        1.0468
  19        1.4363
  20        1.5747
  21        1.5747
  22        2.4949
  23        5.6217
  24        5.6217
  25        8.1592
  26        8.1592
  27       11.0987
  28       11.0987
 
  0.3333333E+00  0.8333333E-01  0.8333333E-01  0.1388889E-01
   1       -3.3582
   2       -1.8459
   3       -1.5105
   4       -1.5105
   5       -1.4758
   6       -1.2595
   7       -1.2595
   8       -0.7988
   9       -0.0844
  10       -0.0419
  11        0.0652
  12        0.0652
  13        0.3461
  14        0.4193
  15        0.8146
  16        0.8186
  17        0.8452
  18        0.8452
  19        1.3207
  20        1.5675
  21        1.5675
  22        1.6909
  23        6.1152
  24        6.1152
  25        8.1338
  26        8.1338
  27       10.6145
  28       10.6145
 
  0.4166667E+00  0.8333333E-01  0.8333333E-01  0.1388889E-01
   1       -2.8587
   2       -1.9890
   3       -1.3194
   4       -1.2978
   5       -1.2978
   6       -1.0196
   7       -1.0196
   8       -0.9696
   9       -0.3469
  10       -0.3469
  11       -0.0729
  12        0.0652
  13        0.1426
  14        0.4491
  15        0.5844
  16        0.6580
  17        0.6580
  18        0.9355
  19        1.1243
  20        1.1940
  21        1.5640
  22        1.5640
  23        6.4294
  24        6.4294
  25        8.2420
  26        8.2420
  27       10.2094
  28       10.2094
 
  0.5000000E+00  0.8333333E-01  0.8333333E-01  0.6944444E-02
   1       -2.3582
   2       -2.3582
   3       -1.1911
   4       -1.1911
   5       -1.1473
   6       -1.1473
   7       -0.8222
   8       -0.8222
   9       -0.6201
  10       -0.6201
  11       -0.0836
  12       -0.0836
  13        0.3551
  14        0.3551
  15        0.5765
  16        0.5765
  17        0.7246
  18        0.7246
  19        1.0631
  20        1.0631
  21        1.5630
  22        1.5630
  23        6.5266
  24        6.5266
  25        8.3401
  26        8.3401
  27       10.0239
  28       10.0239
 
  0.1666667E+00  0.1666667E+00  0.8333333E-01  0.1388889E-01
   1       -3.9137
   2       -1.8197
   3       -1.8197
   4       -1.8131
   5       -1.5975
   6       -1.5975
   7       -1.5243
   8       -0.5570
   9       -0.2751
  10       -0.2575
  11        0.5119
  12        0.6500
  13        0.7370
  14        0.7370
  15        0.7630
  16        1.0607
  17        1.1204
  18        1.1204
  19        1.5271
  20        1.5271
  21        1.5389
  22        3.9578
  23        3.9578
  24        5.4478
  25        8.0730
  26        9.5537
  27        9.5537
  28       11.0129
 
  0.2500000E+00  0.1666667E+00  0.8333333E-01  0.2777778E-01
   1       -3.6070
   2       -1.7585
   3       -1.6988
   4       -1.6629
   5       -1.4977
   6       -1.4203
   7       -1.3323
   8       -0.6383
   9       -0.1915
  10       -0.1857
  11        0.2926
  12        0.4147
  13        0.4280
  14        0.4439
  15        0.7363
  16        0.9215
  17        0.9495
  18        1.0078
  19        1.4390
  20        1.4927
  21        1.4928
  22        2.9425
  23        4.4853
  24        5.8974
  25        7.8195
  26        9.1990
  27       10.6013
  28       10.7690
 
  0.3333333E+00  0.1666667E+00  0.8333333E-01  0.2777778E-01
   1       -3.1987
   2       -1.7440
   3       -1.5288
   4       -1.4597
   5       -1.3701
   6       -1.2012
   7       -1.1208
   8       -0.7641
   9       -0.1412
  10       -0.1285
  11       -0.0557
  12        0.0273
  13        0.0842
  14        0.4201
  15        0.7332
  16        0.7594
  17        0.8429
  18        0.8667
  19        1.3117
  20        1.4607
  21        1.4635
  22        2.1236
  23        5.0162
  24        6.2253
  25        7.6605
  26        8.8111
  27       10.4189
  28       11.4705
 
  0.4166667E+00  0.1666667E+00  0.8333333E-01  0.2777778E-01
   1       -2.7210
   2       -1.8828
   3       -1.3135
   4       -1.2320
   5       -1.2260
   6       -1.0040
   7       -0.9587
   8       -0.9139
   9       -0.4689
  10       -0.3265
  11       -0.1774
  12       -0.1717
  13        0.1046
  14        0.5073
  15        0.5536
  16        0.6099
  17        0.6668
  18        1.0265
  19        1.1158
  20        1.4441
  21        1.4463
  22        1.5484
  23        5.5039
  24        6.2086
  25        7.7889
  26        8.4439
  27       10.4573
  28       11.0790
 
  0.5000000E+00  0.1666667E+00  0.8333333E-01  0.1388889E-01
   1       -2.2413
   2       -2.2413
   3       -1.1209
   4       -1.1209
   5       -1.0718
   6       -1.0718
   7       -0.9431
   8       -0.9431
   9       -0.5518
  10       -0.5518
  11       -0.2350
  12       -0.2350
  13        0.2937
  14        0.2937
  15        0.5645
  16        0.5645
  17        0.8246
  18        0.8246
  19        1.2254
  20        1.2254
  21        1.4400
  22        1.4400
  23        5.9181
  24        5.9181
  25        8.0996
  26        8.0996
  27       10.7006
  28       10.7006
 
  0.2500000E+00  0.2500000E+00  0.8333333E-01  0.1388889E-01
   1       -3.3215
   2       -1.6329
   3       -1.6056
   4       -1.6056
   5       -1.3187
   6       -1.3187
   7       -1.1413
   8       -0.6589
   9       -0.1765
  10       -0.1428
  11        0.0103
  12        0.0103
  13        0.2160
  14        0.4210
  15        0.7732
  16        0.8418
  17        0.8751
  18        0.8751
  19        1.3846
  20        1.3846
  21        1.4058
  22        3.4650
  23        3.4650
  24        6.1518
  25        7.4537
  26       10.0860
  27       10.0860
  28       10.4162
 
  0.3333333E+00  0.2500000E+00  0.8333333E-01  0.2777778E-01
   1       -2.9445
   2       -1.5950
   3       -1.5120
   4       -1.4112
   5       -1.1924
   6       -1.0971
   7       -0.9539
   8       -0.7281
   9       -0.3616
  10       -0.2621
  11       -0.1806
  12       -0.0518
  13       -0.0497
  14        0.4167
  15        0.6320
  16        0.6741
  17        0.7593
  18        1.0223
  19        1.2392
  20        1.3252
  21        1.3339
  22        2.6206
  23        4.0012
  24        6.0245
  25        7.4732
  26        9.4228
  27       10.4873
  28       10.9049
 
  0.4166667E+00  0.2500000E+00  0.8333333E-01  0.2777778E-01
   1       -2.5075
   2       -1.7324
   3       -1.3387
   4       -1.1915
   5       -1.0668
   6       -0.9500
   7       -0.8586
   8       -0.8316
   9       -0.5886
  10       -0.4074
  11       -0.3070
  12       -0.2568
  13        0.0808
  14        0.4538
  15        0.5192
  16        0.5400
  17        0.6150
  18        1.0325
  19        1.2545
  20        1.2861
  21        1.2888
  22        1.9874
  23        4.5319
  24        5.5723
  25        7.8450
  26        8.8325
  27       10.7715
  28       11.7296
 
  0.5000000E+00  0.2500000E+00  0.8333333E-01  0.1388889E-01
   1       -2.0691
   2       -2.0691
   3       -1.1323
   4       -1.1323
   5       -0.9504
   6       -0.9504
   7       -0.9483
   8       -0.9483
   9       -0.4927
  10       -0.4927
  11       -0.3706
  12       -0.3706
  13        0.2499
  14        0.2499
  15        0.5074
  16        0.5074
  17        0.7753
  18        0.7753
  19        1.2735
  20        1.2735
  21        1.5552
  22        1.5552
  23        5.0557
  24        5.0557
  25        8.3128
  26        8.3128
  27       11.2338
  28       11.2338
 
  0.3333333E+00  0.3333333E+00  0.8333333E-01  0.1388889E-01
   1       -2.6153
   2       -1.4547
   3       -1.4234
   4       -1.4234
   5       -0.9581
   6       -0.9581
   7       -0.8042
   8       -0.7181
   9       -0.5559
  10       -0.5559
  11       -0.2083
  12       -0.1720
  13       -0.0163
  14        0.4024
  15        0.4965
  16        0.5927
  17        0.5927
  18        1.1580
  19        1.1580
  20        1.2164
  21        1.2641
  22        3.1343
  23        3.1343
  24        5.4448
  25        7.7507
  26       10.0764
  27       10.0764
  28       10.7567
 
  0.4166667E+00  0.3333333E+00  0.8333333E-01  0.2777778E-01
   1       -2.2428
   2       -1.5756
   3       -1.3605
   4       -1.2736
   5       -0.8481
   6       -0.8183
   7       -0.7554
   8       -0.7452
   9       -0.6402
  10       -0.5851
  11       -0.2936
  12       -0.2902
  13        0.0600
  14        0.3899
  15        0.3946
  16        0.4844
  17        0.4954
  18        0.9450
  19        1.1011
  20        1.1291
  21        1.5660
  22        2.4509
  23        3.6608
  24        4.8071
  25        8.2030
  26        9.3553
  27       10.8002
  28       11.1989
 
  0.5000000E+00  0.3333333E+00  0.8333333E-01  0.1388889E-01
   1       -1.8740
   2       -1.8740
   3       -1.2597
   4       -1.2597
   5       -0.8238
   6       -0.8238
   7       -0.7935
   8       -0.7935
   9       -0.4439
  10       -0.4439
  11       -0.4340
  12       -0.4340
  13        0.2004
  14        0.2004
  15        0.3912
  16        0.3912
  17        0.7022
  18        0.7022
  19        1.0891
  20        1.0891
  21        1.9448
  22        1.9448
  23        4.2122
  24        4.2122
  25        8.7370
  26        8.7370
  27       11.5958
  28       11.5958
 
  0.4166667E+00  0.4166667E+00  0.8333333E-01  0.1388889E-01
   1       -1.9599
   2       -1.4544
   3       -1.4544
   4       -1.3739
   5       -0.7054
   6       -0.7054
   7       -0.7049
   8       -0.6886
   9       -0.5724
  10       -0.5724
  11       -0.3120
  12       -0.2900
  13        0.0553
  14        0.2756
  15        0.3076
  16        0.3076
  17        0.5283
  18        0.8902
  19        0.8902
  20        0.9891
  21        1.9351
  22        2.9428
  23        2.9428
  24        4.0986
  25        8.6959
  26        9.9871
  27        9.9871
  28       11.5417
 
  0.5000000E+00  0.4166667E+00  0.8333333E-01  0.1388889E-01
   1       -1.6899
   2       -1.6899
   3       -1.3935
   4       -1.3935
   5       -0.7120
   6       -0.7120
   7       -0.6777
   8       -0.6777
   9       -0.4142
  10       -0.4142
  11       -0.3699
  12       -0.3699
  13        0.1416
  14        0.1416
  15        0.2417
  16        0.2417
  17        0.6774
  18        0.6774
  19        0.9019
  20        0.9019
  21        2.3798
  22        2.3798
  23        3.4827
  24        3.4827
  25        9.2891
  26        9.2891
  27       10.7170
  28       10.7170
 
  0.5000000E+00  0.5000000E+00  0.8333333E-01  0.3472222E-02
   1       -1.5323
   2       -1.5323
   3       -1.5323
   4       -1.5323
   5       -0.6601
   6       -0.6601
   7       -0.6601
   8       -0.6601
   9       -0.3418
  10       -0.3418
  11       -0.3418
  12       -0.3418
  13        0.1318
  14        0.1318
  15        0.1318
  16        0.1318
  17        0.7476
  18        0.7476
  19        0.7476
  20        0.7476
  21        2.8807
  22        2.8807
  23        2.8807
  24        2.8807
  25        9.9492
  26        9.9492
  27        9.9492
  28        9.9492
 
  0.1666667E+00  0.1666667E+00  0.1666667E+00  0.4629630E-02
   1       -3.7348
   2       -1.7704
   3       -1.7704
   4       -1.7704
   5       -1.4560
   6       -1.4560
   7       -1.4560
   8       -0.5539
   9       -0.2488
  10       -0.2488
  11        0.5575
  12        0.5575
  13        0.5575
  14        0.5925
  15        0.5925
  16        0.9147
  17        0.9147
  18        0.9147
  19        1.5433
  20        1.5433
  21        1.5433
  22        4.3142
  23        4.3142
  24        4.3142
  25        9.0892
  26        9.0892
  27        9.0892
  28       11.8350
 
  0.2500000E+00  0.1666667E+00  0.1666667E+00  0.1388889E-01