       N       E                     dE             d eps       ncg     rms          rms(c)
DAV:   1     0.513031804271E+03    0.51303E+03   -0.26237E+04  4704   0.205E+03
DAV:   2     0.118101487552E+02   -0.50122E+03   -0.47551E+03  4744   0.489E+02
DAV:   3    -0.128806200039E+02   -0.24691E+02   -0.23193E+02  5356   0.111E+02
DAV:   4    -0.134200156562E+02   -0.53940E+00   -0.53741E+00  4952   0.159E+01
DAV:   5    -0.134253168765E+02   -0.53012E-02   -0.53002E-02  5004   0.149E+00    0.524E+00
DAV:   6    -0.125798565139E+02    0.84546E+00   -0.25227E+00  4920   0.150E+01    0.126E+00
DAV:   7    -0.125511553212E+02    0.28701E-01   -0.10279E-01  4960   0.237E+00    0.633E-01
DAV:   8    -0.125457633189E+02    0.53920E-02   -0.67605E-03  4816   0.841E-01    0.492E-02
DAV:   9    -0.125458118321E+02   -0.48513E-04   -0.41094E-04  5132   0.170E-01    0.271E-02
DAV:  10    -0.125458210020E+02   -0.91698E-05   -0.41399E-05  4832   0.473E-02    0.363E-03
DAV:  11    -0.125458222322E+02   -0.12303E-05   -0.15946E-06  4992   0.105E-02    0.989E-04
DAV:  12    -0.125458217489E+02    0.48335E-06   -0.85613E-08  4856   0.283E-03    0.717E-05
DAV:  13    -0.125458217609E+02   -0.12072E-07   -0.97863E-10  2604   0.281E-04    0.482E-05
DAV:  14    -0.125458217601E+02    0.87311E-09   -0.14517E-10  2532   0.131E-04
   1 F= -.12545822E+02 E0= -.12545723E+02  d E =-.197270E-03
