<?xml version="1.0" encoding="ISO-8859-1"?>
<modeling>
 <generator>
  <i name="program" type="string">vasp</i>
  <i name="version" type="string">4.6.28 </i>
  <i name="subversion" type="string">25Jul05 complex  parallel</i>
  <i name="platform" type="string">LinuxIFC</i>
  <i name="date" type="string">2017 01 06</i>
  <i name="time" type="string">05:32:09</i>
 </generator>
 <incar>
  <i type="string" name="PREC">accurate</i>
  <i type="int" name="IALGO">    38</i>
  <i type="logical" name="ADDGRID"> T  </i>
  <i name="EDIFF">      0.00000001</i>
  <i type="int" name="IBRION">    -1</i>
  <i name="ENCUT">    750.00000000</i>
  <i type="logical" name="LREAL"> F  </i>
  <i type="int" name="ISMEAR">     0</i>
  <i name="SIGMA">      0.01000000</i>
  <i type="logical" name="LWAVE"> F  </i>
  <i type="logical" name="LCHARG"> F  </i>
 </incar>
 <kpoints>
  <generation param="Gamma">
   <v type="int" name="divisions">      12      12      12</v>
   <v name="usershift">      0.00000000      0.00000000      0.00000000</v>
   <v name="genvec1">      0.08333333      0.00000000      0.00000000</v>
   <v name="genvec2">      0.00000000      0.08333333      0.00000000</v>
   <v name="genvec3">      0.00000000      0.00000000      0.08333333</v>
   <v name="shift">      0.00000000      0.00000000      0.00000000</v>
  </generation>
  <varray name="kpointlist" >
   <v>       0.00000000      0.00000000      0.00000000</v>
   <v>       0.08333333      0.00000000      0.00000000</v>
   <v>       0.16666667      0.00000000      0.00000000</v>
   <v>       0.25000000      0.00000000      0.00000000</v>
   <v>       0.33333333      0.00000000      0.00000000</v>
   <v>       0.41666667      0.00000000      0.00000000</v>
   <v>       0.50000000      0.00000000      0.00000000</v>
   <v>       0.08333333      0.08333333      0.00000000</v>
   <v>       0.16666667      0.08333333      0.00000000</v>
   <v>       0.25000000      0.08333333      0.00000000</v>
   <v>       0.33333333      0.08333333      0.00000000</v>
   <v>       0.41666667      0.08333333      0.00000000</v>
   <v>       0.50000000      0.08333333      0.00000000</v>
   <v>       0.16666667      0.16666667      0.00000000</v>
   <v>       0.25000000      0.16666667      0.00000000</v>
   <v>       0.33333333      0.16666667      0.00000000</v>
   <v>       0.41666667      0.16666667      0.00000000</v>
   <v>       0.50000000      0.16666667      0.00000000</v>
   <v>       0.25000000      0.25000000      0.00000000</v>
   <v>       0.33333333      0.25000000      0.00000000</v>
   <v>       0.41666667      0.25000000      0.00000000</v>
   <v>       0.50000000      0.25000000      0.00000000</v>
   <v>       0.33333333      0.33333333      0.00000000</v>
   <v>       0.41666667      0.33333333      0.00000000</v>
   <v>       0.50000000      0.33333333      0.00000000</v>
   <v>       0.41666667      0.41666667      0.00000000</v>
   <v>       0.50000000      0.41666667      0.00000000</v>
   <v>       0.50000000      0.50000000      0.00000000</v>
   <v>       0.08333333      0.08333333      0.08333333</v>
   <v>       0.16666667      0.08333333      0.08333333</v>
   <v>       0.25000000      0.08333333      0.08333333</v>
   <v>       0.33333333      0.08333333      0.08333333</v>
   <v>       0.41666667      0.08333333      0.08333333</v>
   <v>       0.50000000      0.08333333      0.08333333</v>
   <v>       0.16666667      0.16666667      0.08333333</v>
   <v>       0.25000000      0.16666667      0.08333333</v>
   <v>       0.33333333      0.16666667      0.08333333</v>
   <v>       0.41666667      0.16666667      0.08333333</v>
   <v>       0.50000000      0.16666667      0.08333333</v>
   <v>       0.25000000      0.25000000      0.08333333</v>
   <v>       0.33333333      0.25000000      0.08333333</v>
   <v>       0.41666667      0.25000000      0.08333333</v>
   <v>       0.50000000      0.25000000      0.08333333</v>
   <v>       0.33333333      0.33333333      0.08333333</v>
   <v>       0.41666667      0.33333333      0.08333333</v>
   <v>       0.50000000      0.33333333      0.08333333</v>
   <v>       0.41666667      0.41666667      0.08333333</v>
   <v>       0.50000000      0.41666667      0.08333333</v>
   <v>       0.50000000      0.50000000      0.08333333</v>
   <v>       0.16666667      0.16666667      0.16666667</v>
   <v>       0.25000000      0.16666667      0.16666667</v>
   <v>       0.33333333      0.16666667      0.16666667</v>
   <v>       0.41666667      0.16666667      0.16666667</v>
   <v>       0.50000000      0.16666667      0.16666667</v>
   <v>       0.25000000      0.25000000      0.16666667</v>
   <v>       0.33333333      0.25000000      0.16666667</v>
   <v>       0.41666667      0.25000000      0.16666667</v>
   <v>       0.50000000      0.25000000      0.16666667</v>
   <v>       0.33333333      0.33333333      0.16666667</v>
   <v>       0.41666667      0.33333333      0.16666667</v>
   <v>       0.50000000      0.33333333      0.16666667</v>
   <v>       0.41666667      0.41666667      0.16666667</v>
   <v>       0.50000000      0.41666667      0.16666667</v>
   <v>       0.50000000      0.50000000      0.16666667</v>
   <v>       0.25000000      0.25000000      0.25000000</v>
   <v>       0.33333333      0.25000000      0.25000000</v>
   <v>       0.41666667      0.25000000      0.25000000</v>
   <v>       0.50000000      0.25000000      0.25000000</v>
   <v>       0.33333333      0.33333333      0.25000000</v>
   <v>       0.41666667      0.33333333      0.25000000</v>
   <v>       0.50000000      0.33333333      0.25000000</v>
   <v>       0.41666667      0.41666667      0.25000000</v>
   <v>       0.50000000      0.41666667      0.25000000</v>
   <v>       0.50000000      0.50000000      0.25000000</v>
   <v>       0.33333333      0.33333333      0.33333333</v>
   <v>       0.41666667      0.33333333      0.33333333</v>
   <v>       0.50000000      0.33333333      0.33333333</v>
   <v>       0.41666667      0.41666667      0.33333333</v>
   <v>       0.50000000      0.41666667      0.33333333</v>
   <v>       0.50000000      0.50000000      0.33333333</v>
   <v>       0.41666667      0.41666667      0.41666667</v>
   <v>       0.50000000      0.41666667      0.41666667</v>
   <v>       0.50000000      0.50000000      0.41666667</v>
   <v>       0.50000000      0.50000000      0.50000000</v>
  </varray>
  <varray name="weights" >
   <v>       0.00057870</v>
   <v>       0.00347222</v>
   <v>       0.00347222</v>
   <v>       0.00347222</v>
   <v>       0.00347222</v>
   <v>       0.00347222</v>
   <v>       0.00173611</v>
   <v>       0.00694444</v>
   <v>       0.01388889</v>
   <v>       0.01388889</v>
   <v>       0.01388889</v>
   <v>       0.01388889</v>
   <v>       0.00694444</v>
   <v>       0.00694444</v>
   <v>       0.01388889</v>
   <v>       0.01388889</v>
   <v>       0.01388889</v>
   <v>       0.00694444</v>
   <v>       0.00694444</v>
   <v>       0.01388889</v>
   <v>       0.01388889</v>
   <v>       0.00694444</v>
   <v>       0.00694444</v>
   <v>       0.01388889</v>
   <v>       0.00694444</v>
   <v>       0.00694444</v>
   <v>       0.00694444</v>
   <v>       0.00173611</v>
   <v>       0.00462963</v>
   <v>       0.01388889</v>
   <v>       0.01388889</v>
   <v>       0.01388889</v>
   <v>       0.01388889</v>
   <v>       0.00694444</v>
   <v>       0.01388889</v>
   <v>       0.02777778</v>
   <v>       0.02777778</v>
   <v>       0.02777778</v>
   <v>       0.01388889</v>
   <v>       0.01388889</v>
   <v>       0.02777778</v>
   <v>       0.02777778</v>
   <v>       0.01388889</v>
   <v>       0.01388889</v>
   <v>       0.02777778</v>
   <v>       0.01388889</v>
   <v>       0.01388889</v>
   <v>       0.01388889</v>
   <v>       0.00347222</v>
   <v>       0.00462963</v>
   <v>       0.01388889</v>
   <v>       0.01388889</v>
   <v>       0.01388889</v>
   <v>       0.00694444</v>
   <v>       0.01388889</v>
   <v>       0.02777778</v>
   <v>       0.02777778</v>
   <v>       0.01388889</v>
   <v>       0.01388889</v>
   <v>       0.02777778</v>
   <v>       0.01388889</v>
   <v>       0.01388889</v>
   <v>       0.01388889</v>
   <v>       0.00347222</v>
   <v>       0.00462963</v>
   <v>       0.01388889</v>
   <v>       0.01388889</v>
   <v>       0.00694444</v>
   <v>       0.01388889</v>
   <v>       0.02777778</v>
   <v>       0.01388889</v>
   <v>       0.01388889</v>
   <v>       0.01388889</v>
   <v>       0.00347222</v>
   <v>       0.00462963</v>
   <v>       0.01388889</v>
   <v>       0.00694444</v>
   <v>       0.01388889</v>
   <v>       0.01388889</v>
   <v>       0.00347222</v>
   <v>       0.00462963</v>
   <v>       0.00694444</v>
   <v>       0.00347222</v>
   <v>       0.00057870</v>
  </varray>
 </kpoints>
 <parameters>
  <separator name="general" >
   <i type="string" name="SYSTEM">unknown system</i>
   <i type="logical" name="LCOMPAT"> F  </i>
  </separator>
  <separator name="electronic" >
   <i type="string" name="PREC">accura</i>
   <i name="ENMAX">    750.00000000</i>
   <i name="ENAUG">    356.67000000</i>
   <i name="EDIFF">      0.00000001</i>
   <i type="int" name="IALGO">    38</i>
   <i type="int" name="IWAVPR">    10</i>
   <i type="int" name="NBANDS">    26</i>
   <i name="NELECT">     44.00000000</i>
   <separator name="electronic smearing" >
    <i type="int" name="ISMEAR">     0</i>
    <i name="SIGMA">      0.01000000</i>
   </separator>
   <separator name="electronic projectors" >
    <i type="logical" name="LREAL"> F  </i>
    <v name="ROPT">      0.00000000</v>
    <i type="int" name="LMAXPAW">  -100</i>
    <i type="int" name="LMAXMIX">     2</i>
   </separator>
   <separator name="electronic startup" >
    <i type="int" name="ISTART">     0</i>
    <i type="int" name="ICHARG">     2</i>
    <i type="int" name="INIWAV">     1</i>
   </separator>
   <separator name="electronic spin" >
    <i type="int" name="ISPIN">     1</i>
    <i type="logical" name="LNONCOLLINEAR"> F  </i>
    <v name="MAGMOM">      1.00000000      1.00000000      1.00000000      1.00000000</v>
    <i name="NUPDOWN">     -1.00000000</i>
    <i type="logical" name="LSORBIT"> F  </i>
    <v name="SAXIS">      0.00000000      0.00000000      1.00000000</v>
    <i type="logical" name="LSPIRAL"> F  </i>
    <v name="QSPIRAL">      0.00000000      0.00000000      0.00000000</v>
    <i type="logical" name="LZEROZ"> F  </i>
   </separator>
   <separator name="electronic exchange-correlation" >
    <i type="string" name="GGA">--</i>
    <i type="int" name="VOSKOWN">     0</i>
    <i type="logical" name="LASPH"> F  </i>
    <i type="logical" name="LMETAGGA"> F  </i>
    <i type="string" name="GGA2">--</i>
   </separator>
   <separator name="electronic convergence" >
    <i type="int" name="NELM">    60</i>
    <i type="int" name="NELMDL">    -5</i>
    <i type="int" name="NELMIN">     2</i>
    <i name="ENINI">    750.00000000</i>
    <separator name="electronic convergence detail" >
     <i type="logical" name="LDIAG"> T  </i>
     <i name="WEIMIN">      0.00000000</i>
     <i name="EBREAK">      0.00000000</i>
     <i name="DEPER">      0.30000000</i>
     <i type="int" name="NRMM">     4</i>
     <i name="TIME">      0.10000000</i>
    </separator>
   </separator>
   <separator name="electronic mixer" >
    <i name="AMIX">      0.40000000</i>
    <i name="BMIX">      1.00000000</i>
    <i name="AMIN">      0.10000000</i>
    <i name="AMIX_MAG">      1.60000000</i>
    <i name="BMIX_MAG">      1.00000000</i>
    <separator name="electronic mixer details" >
     <i type="int" name="IMIX">     4</i>
     <i type="int" name="MAXMIX">   -45</i>
     <i name="WC">    100.00000000</i>
     <i type="int" name="INIMIX">     1</i>
     <i type="int" name="MIXPRE">     1</i>
     <i type="int" name="MREMOVE">     5</i>
    </separator>
   </separator>
   <separator name="electronic dipolcorrection" >
    <i type="int" name="IDIPOL">     0</i>
    <i type="logical" name="LDIPOL"> F  </i>
    <v name="DIPOL">   -100.00000000</v>
    <i name="EFIELD">      0.00000000</i>
   </separator>
  </separator>
  <separator name="grids" >
   <i type="int" name="NGX">    40</i>
   <i type="int" name="NGY">    40</i>
   <i type="int" name="NGZ">    40</i>
   <i type="int" name="NGXF">    80</i>
   <i type="int" name="NGYF">    80</i>
   <i type="int" name="NGZF">    80</i>
   <i type="logical" name="ADDGRID"> T  </i>
  </separator>
  <separator name="ionic" >
   <i type="int" name="NSW">     0</i>
   <i type="int" name="IBRION">    -1</i>
   <i type="int" name="ISIF">     2</i>
   <i name="PSTRESS">      0.00000000</i>
   <i name="EDIFFG">      0.00000010</i>
   <i type="int" name="NFREE">     0</i>
   <i name="POTIM">      0.50000000</i>
   <i name="SMASS">     -3.00000000</i>
  </separator>
  <separator name="ionic md" >
   <i name="TEBEG">      0.00010000</i>
   <i name="TEEND">      0.00010000</i>
   <i type="int" name="NBLOCK">     1</i>
   <i type="int" name="KBLOCK">     1</i>
   <i type="int" name="NPACO">   256</i>
   <i name="APACO">     16.00000000</i>
  </separator>
  <separator name="symmetry" >
   <i type="int" name="ISYM">     2</i>
   <i name="SYMPREC">      0.00001000</i>
  </separator>
  <separator name="dos" >
   <i type="logical" name="LORBIT"> F  </i>
   <v name="RWIGS">     -1.00000000</v>
   <i type="int" name="NEDOS">   301</i>
   <i name="EMIN">     10.00000000</i>
   <i name="EMAX">    -10.00000000</i>
  </separator>
  <separator name="writing" >
   <i type="int" name="NWRITE">     2</i>
   <i type="logical" name="LWAVE"> F  </i>
   <i type="logical" name="LCHARG"> F  </i>
   <i type="logical" name="LPARD"> F  </i>
   <i type="logical" name="LVTOT"> F  </i>
   <i type="logical" name="LELF"> F  </i>
   <i type="logical" name="LOPTICS"> F  </i>
   <i name="STM">      0.00000000</i>
  </separator>
  <separator name="performance" >
   <i type="int" name="NPAR">     4</i>
   <i type="int" name="NSIM">     4</i>
   <i type="int" name="NBLK">   256</i>
   <i type="logical" name="LPLANE"> T  </i>
   <i type="logical" name="LCRITICAL_MEM"> F  </i>
   <i type="logical" name="LSCALAPACK"> F  </i>
   <i type="logical" name="LSCALU"> F  </i>
   <i type="logical" name="LASYNC"> F  </i>
  </separator>
  <separator name="miscellaneous" >
   <i type="int" name="IDIOT">     3</i>
   <i type="logical" name="LMUSIC"> F  </i>
   <v name="POMASS">    196.96600000</v>
   <i type="logical" name="LCORR"> T  </i>
  </separator>
  <i type="logical" name="LREAL_COMPAT"> F  </i>
  <i type="logical" name="GGA_COMPAT"> T  </i>
  <i type="logical" name="LBERRY"> F  </i>
  <i type="int" name="ICORELEVEL">     0</i>
  <i type="logical" name="LDAU"> F  </i>
  <i type="int" name="I_CONSTRAINED_M">     0</i>
 </parameters>
 <atominfo>
  <atoms>       4</atoms>
  <types>       1</types>
  <array name="atoms" >
   <dimension dim="1">ion</dimension>
   <field type="string">element</field>
   <field type="int">atomtype</field>
   <set>
    <rc><c>Au</c><c>   1</c></rc>
    <rc><c>Au</c><c>   1</c></rc>
    <rc><c>Au</c><c>   1</c></rc>
    <rc><c>Au</c><c>   1</c></rc>
   </set>
  </array>
  <array name="atomtypes" >
   <dimension dim="1">type</dimension>
   <field type="int">atomspertype</field>
   <field type="string">element</field>
   <field>mass</field>
   <field>valence</field>
   <field type="string">pseudopotential</field>
   <set>
    <rc><c>   4</c><c>Au</c><c>    196.96600000</c><c>     11.00000000</c><c> PAW_PBE Au 06Sep2000                   </c></rc>
   </set>
  </array>
 </atominfo>
 <structure name="initialpos" >
  <crystal>
   <varray name="basis" >
    <v>       4.38149450      0.00000000      0.00000000</v>
    <v>       0.00000000      4.38149450      0.00000000</v>
    <v>       0.00000000      0.00000000      4.38149450</v>
   </varray>
   <i name="volume">     84.11371446</i>
   <varray name="rec_basis" >
    <v>       0.22823263      0.00000000      0.00000000</v>
    <v>       0.00000000      0.22823263      0.00000000</v>
    <v>       0.00000000      0.00000000      0.22823263</v>
   </varray>
  </crystal>
  <varray name="positions" >
   <v>       0.00000000      0.00000000      0.00000000</v>
   <v>       0.50000000      0.50000000      0.00000000</v>
   <v>       0.50000000      0.00000000      0.50000000</v>
   <v>       0.00000000      0.50000000      0.50000000</v>
  </varray>
 </structure>
 <calculation>
  <scstep>
   <time name="dav">   10.03   10.04</time>
   <time name="total">   10.75   10.76</time>
   <energy>
    <i name="alphaZ">    356.24543027</i>
    <i name="ewald">  -3646.49353973</i>
    <i name="hartreedc">   -607.88060296</i>
    <i name="XCdc">     58.82582929</i>
    <i name="pawpsdc">   2990.04966927</i>
    <i name="pawaedc">  -2896.51663641</i>
    <i name="eentropy">     -0.00033626</i>
    <i name="bandstr">    554.57826681</i>
    <i name="atom">   3704.22372399</i>
    <i name="e_fr_energy">    513.03180427</i>
    <i name="e_wo_entrp">    513.03214053</i>
    <i name="e_0_energy">    513.03197240</i>
   </energy>
  </scstep>
  <scstep>
   <time name="dav">   19.57   19.58</time>
   <time name="total">   19.58   19.59</time>
   <energy>
    <i name="e_fr_energy">     11.81014876</i>
    <i name="e_wo_entrp">     11.81031979</i>
    <i name="e_0_energy">     11.81023427</i>
   </energy>
  </scstep>
  <scstep>
   <time name="dav">   22.60   22.61</time>
   <time name="total">   22.61   22.62</time>
   <energy>
    <i name="e_fr_energy">    -12.88062000</i>
    <i name="e_wo_entrp">    -12.88054491</i>
    <i name="e_0_energy">    -12.88058246</i>
   </energy>
  </scstep>
  <scstep>
   <time name="dav">   21.33   21.33</time>
   <time name="total">   21.34   21.35</time>
   <energy>
    <i name="e_fr_energy">    -13.42001566</i>
    <i name="e_wo_entrp">    -13.41987660</i>
    <i name="e_0_energy">    -13.41994613</i>
   </energy>
  </scstep>
  <scstep>
   <time name="dav">   21.31   21.32</time>
   <time name="total">   22.90   22.91</time>
   <energy>
    <i name="e_fr_energy">    -13.42531688</i>
    <i name="e_wo_entrp">    -13.42517779</i>
    <i name="e_0_energy">    -13.42524733</i>
   </energy>
  </scstep>
  <scstep>
   <time name="dav">   21.25   21.27</time>
   <time name="total">   23.96   23.97</time>
   <energy>
    <i name="e_fr_energy">    -12.57985651</i>
    <i name="e_wo_entrp">    -12.57964471</i>
    <i name="e_0_energy">    -12.57975061</i>
   </energy>
  </scstep>
  <scstep>
   <time name="dav">   21.53   21.55</time>
   <time name="total">   24.23   24.25</time>
   <energy>
    <i name="e_fr_energy">    -12.55115532</i>
    <i name="e_wo_entrp">    -12.55094504</i>
    <i name="e_0_energy">    -12.55105018</i>
   </energy>
  </scstep>
  <scstep>
   <time name="dav">   21.12   21.13</time>
   <time name="total">   23.83   23.85</time>
   <energy>
    <i name="e_fr_energy">    -12.54576332</i>
    <i name="e_wo_entrp">    -12.54555875</i>
    <i name="e_0_energy">    -12.54566104</i>
   </energy>
  </scstep>
  <scstep>
   <time name="dav">   22.09   22.09</time>
   <time name="total">   24.79   24.81</time>
   <energy>
    <i name="e_fr_energy">    -12.54581183</i>
    <i name="e_wo_entrp">    -12.54561608</i>
    <i name="e_0_energy">    -12.54571396</i>
   </energy>
  </scstep>
  <scstep>
   <time name="dav">   21.21   21.22</time>
   <time name="total">   23.92   23.93</time>
   <energy>
    <i name="e_fr_energy">    -12.54582100</i>
    <i name="e_wo_entrp">    -12.54562391</i>
    <i name="e_0_energy">    -12.54572246</i>
   </energy>
  </scstep>
  <scstep>
   <time name="dav">   21.60   21.61</time>
   <time name="total">   24.32   24.33</time>
   <energy>
    <i name="e_fr_energy">    -12.54582223</i>
    <i name="e_wo_entrp">    -12.54562494</i>
    <i name="e_0_energy">    -12.54572359</i>
   </energy>
  </scstep>
  <scstep>
   <time name="dav">   21.15   21.16</time>
   <time name="total">   23.86   23.88</time>
   <energy>
    <i name="e_fr_energy">    -12.54582175</i>
    <i name="e_wo_entrp">    -12.54562448</i>
    <i name="e_0_energy">    -12.54572311</i>
   </energy>
  </scstep>
  <scstep>
   <time name="dav">   14.60   14.60</time>
   <time name="total">   17.32   17.33</time>
   <energy>
    <i name="e_fr_energy">    -12.54582176</i>
    <i name="e_wo_entrp">    -12.54562448</i>
    <i name="e_0_energy">    -12.54572312</i>
   </energy>
  </scstep>
  <scstep>
   <time name="dav">   14.37   14.40</time>
   <time name="total">   15.47   15.51</time>
   <energy>
    <i name="alphaZ">    356.24543027</i>
    <i name="ewald">  -3646.49353973</i>
    <i name="hartreedc">   -566.57038274</i>
    <i name="XCdc">     56.93089291</i>
    <i name="pawpsdc">   2939.61460205</i>
    <i name="pawaedc">  -2853.00648434</i>
    <i name="eentropy">     -0.00019727</i>
    <i name="bandstr">     -3.48986691</i>
    <i name="atom">   3704.22372399</i>
    <i name="e_fr_energy">    -12.54582176</i>
    <i name="e_wo_entrp">    -12.54562449</i>
    <i name="e_0_energy">    -12.54572312</i>
   </energy>
  </scstep>
  <structure>
   <crystal>
    <varray name="basis" >
     <v>       4.38149450      0.00000000      0.00000000</v>
     <v>       0.00000000      4.38149450      0.00000000</v>
     <v>       0.00000000      0.00000000      4.38149450</v>
    </varray>
    <i name="volume">     84.11371446</i>
    <varray name="rec_basis" >
     <v>       0.22823263      0.00000000      0.00000000</v>
     <v>       0.00000000      0.22823263      0.00000000</v>
     <v>       0.00000000      0.00000000      0.22823263</v>
    </varray>
   </crystal>
   <varray name="positions" >
    <v>       0.00000000      0.00000000      0.00000000</v>
    <v>       0.50000000      0.50000000      0.00000000</v>
    <v>       0.50000000      0.00000000      0.50000000</v>
    <v>       0.00000000      0.50000000      0.50000000</v>
   </varray>
  </structure>
  <varray name="forces" >
   <v>       0.00000000      0.00000000      0.00000000</v>
   <v>       0.00000000     -0.00000000      0.00000000</v>
   <v>       0.00000000     -0.00000000      0.00000000</v>
   <v>       0.00000000      0.00000000      0.00000000</v>
  </varray>
  <varray name="stress" >
   <v>    -128.21052932      0.00000000      0.00000000</v>
   <v>       0.00000000   -128.21052932     -0.00000000</v>
   <v>       0.00000000     -0.00000000   -128.21052932</v>
  </varray>
  <energy>
   <i name="e_fr_energy">    -12.54582176</i>
   <i name="e_wo_entrp">    -12.54572312</i>
   <i name="e_0_energy">     -0.00019727</i>
  </energy>
  <eigenvalues>
   <array>
    <dimension dim="1">band</dimension>
    <dimension dim="2">kpoint</dimension>
    <dimension dim="3">spin</dimension>
    <field>eigene</field>
    <field>occ</field>
    <set>
     <set comment="spin 1">
      <set comment="kpoint 1">
       <r>  -4.4989  1.0000</r>
       <r>  -2.0689  1.0000</r>
       <r>  -2.0689  1.0000</r>
       <r>  -2.0689  1.0000</r>
       <r>  -1.8619  1.0000</r>
       <r>  -1.8619  1.0000</r>
       <r>  -1.8619  1.0000</r>
       <r>  -0.4244  1.0000</r>
       <r>  -0.4244  1.0000</r>
       <r>  -0.4244  1.0000</r>
       <r>   0.6175  1.0000</r>
       <r>   0.6175  1.0000</r>
       <r>   1.4099  1.0000</r>
       <r>   1.4099  1.0000</r>
       <r>   1.4099  1.0000</r>
       <r>   1.6630  1.0000</r>
       <r>   1.6630  1.0000</r>
       <r>   1.6630  1.0000</r>
       <r>   1.6630  1.0000</r>
       <r>   1.6630  1.0000</r>
       <r>   1.6630  1.0000</r>
       <r>   4.9132  0.0000</r>
       <r>   4.9132  0.0000</r>
       <r>   4.9132  0.0000</r>
       <r>   7.6452  0.0000</r>
       <r>   7.6452  0.0000</r>
       <r>   7.6452  0.0000</r>
       <r>  12.8329  0.0000</r>
      </set>
      <set comment="kpoint 2">
       <r>  -4.4315  1.0000</r>
       <r>  -2.0492  1.0000</r>
       <r>  -2.0280  1.0000</r>
       <r>  -2.0280  1.0000</r>
       <r>  -1.8403  1.0000</r>
       <r>  -1.8290  1.0000</r>
       <r>  -1.8290  1.0000</r>
       <r>  -0.4525  1.0000</r>
       <r>  -0.3981  1.0000</r>
       <r>  -0.3981  1.0000</r>
       <r>   0.5882  1.0000</r>
       <r>   0.6302  1.0000</r>
       <r>   1.3690  1.0000</r>
       <r>   1.3690  1.0000</r>
       <r>   1.3955  1.0000</r>
       <r>   1.5037  1.0000</r>
       <r>   1.5037  1.0000</r>
       <r>   1.6123  1.0000</r>
       <r>   1.6123  1.0000</r>
       <r>   1.6630  1.0000</r>
       <r>   1.6630  1.0000</r>
       <r>   4.2584  0.0000</r>
       <r>   5.1254  0.0000</r>
       <r>   5.1254  0.0000</r>
       <r>   7.6056  0.0000</r>
       <r>   7.6056  0.0000</r>
       <r>   8.4209  0.0000</r>
       <r>  12.6764  0.0000</r>
      </set>
      <set comment="kpoint 3">
       <r>  -4.2313  1.0000</r>
       <r>  -1.9971  1.0000</r>
       <r>  -1.9095  1.0000</r>
       <r>  -1.9095  1.0000</r>
       <r>  -1.7766  1.0000</r>
       <r>  -1.7304  1.0000</r>
       <r>  -1.7304  1.0000</r>
       <r>  -0.5339  1.0000</r>
       <r>  -0.3198  1.0000</r>
       <r>  -0.3198  1.0000</r>
       <r>   0.5042  1.0000</r>
       <r>   0.6675  1.0000</r>
       <r>   1.1183  1.0000</r>
       <r>   1.1183  1.0000</r>
       <r>   1.2497  1.0000</r>
       <r>   1.2497  1.0000</r>
       <r>   1.3535  1.0000</r>
       <r>   1.4689  1.0000</r>
       <r>   1.4689  1.0000</r>
       <r>   1.6632  1.0000</r>
       <r>   1.6632  1.0000</r>
       <r>   3.1114  1.0000</r>
       <r>   5.6685  0.0000</r>
       <r>   5.6685  0.0000</r>
       <r>   7.4980  0.0000</r>
       <r>   7.4980  0.0000</r>
       <r>   9.9358  0.0000</r>
       <r>  12.2379  0.0000</r>
      </set>
      <set comment="kpoint 4">
       <r>  -3.9053  1.0000</r>
       <r>  -1.9380  1.0000</r>
       <r>  -1.7284  1.0000</r>
       <r>  -1.7284  1.0000</r>
       <r>  -1.6737  1.0000</r>
       <r>  -1.5666  1.0000</r>
       <r>  -1.5666  1.0000</r>
       <r>  -0.6609  1.0000</r>
       <r>  -0.1915  1.0000</r>
       <r>  -0.1915  1.0000</r>
       <r>   0.3784  1.0000</r>
       <r>   0.6454  1.0000</r>
       <r>   0.6454  1.0000</r>
       <r>   0.7274  1.0000</r>
       <r>   1.0646  1.0000</r>
       <r>   1.0646  1.0000</r>
       <r>   1.2543  1.0000</r>
       <r>   1.2543  1.0000</r>
       <r>   1.2872  1.0000</r>
       <r>   1.6635  1.0000</r>
       <r>   1.6635  1.0000</r>
       <r>   1.9927  1.0000</r>
       <r>   6.3999  0.0000</r>
       <r>   6.3999  0.0000</r>
       <r>   7.3529  0.0000</r>
       <r>   7.3529  0.0000</r>
       <r>  11.5901  0.0000</r>
       <r>  11.5933  0.0000</r>
      </set>
      <set comment="kpoint 5">
       <r>  -3.4694  1.0000</r>
       <r>  -1.9294  1.0000</r>
       <r>  -1.5367  1.0000</r>
       <r>  -1.5150  1.0000</r>
       <r>  -1.5150  1.0000</r>
       <r>  -1.3382  1.0000</r>
       <r>  -1.3382  1.0000</r>
       <r>  -0.8218  1.0000</r>
       <r>  -0.0163  1.0000</r>
       <r>  -0.0163  1.0000</r>
       <r>   0.1641  1.0000</r>
       <r>   0.1641  1.0000</r>
       <r>   0.2357  1.0000</r>
       <r>   0.8063  1.0000</r>
       <r>   0.8439  1.0000</r>
       <r>   0.8439  1.0000</r>
       <r>   0.9962  1.0000</r>
       <r>   0.9962  1.0000</r>
       <r>   1.0505  1.0000</r>
       <r>   1.2020  1.0000</r>
       <r>   1.6638  1.0000</r>
       <r>   1.6638  1.0000</r>
       <r>   7.2110  0.0000</r>
       <r>   7.2110  0.0000</r>
       <r>   7.2334  0.0000</r>
       <r>   7.2334  0.0000</r>
       <r>  10.8048  0.0000</r>
       <r>  10.8048  0.0000</r>
      </set>
      <set comment="kpoint 6">
       <r>  -2.9578  1.0000</r>
       <r>  -2.0749  1.0000</r>
       <r>  -1.3727  1.0000</r>
       <r>  -1.3256  1.0000</r>
       <r>  -1.3256  1.0000</r>
       <r>  -1.0470  1.0000</r>
       <r>  -1.0470  1.0000</r>
       <r>  -1.0032  1.0000</r>
       <r>  -0.2888  1.0000</r>
       <r>  -0.2888  1.0000</r>
       <r>   0.1226  1.0000</r>
       <r>   0.2002  1.0000</r>
       <r>   0.2002  1.0000</r>
       <r>   0.4058  1.0000</r>
       <r>   0.6472  1.0000</r>
       <r>   0.6472  1.0000</r>
       <r>   0.7207  1.0000</r>
       <r>   0.7207  1.0000</r>
       <r>   0.8994  1.0000</r>
       <r>   1.1042  1.0000</r>
       <r>   1.6640  1.0000</r>
       <r>   1.6640  1.0000</r>
       <r>   7.1096  0.0000</r>
       <r>   7.1096  0.0000</r>
       <r>   8.1219  0.0000</r>
       <r>   8.1219  0.0000</r>
       <r>   9.9386  0.0000</r>
       <r>   9.9386  0.0000</r>
      </set>
      <set comment="kpoint 7">
       <r>  -2.4474  1.0000</r>
       <r>  -2.4474  1.0000</r>
       <r>  -1.2453  1.0000</r>
       <r>  -1.2453  1.0000</r>
       <r>  -1.1911  1.0000</r>
       <r>  -1.1911  1.0000</r>
       <r>  -0.6955  1.0000</r>
       <r>  -0.6955  1.0000</r>
       <r>  -0.6955  1.0000</r>
       <r>  -0.6955  1.0000</r>
       <r>   0.1294  1.0000</r>
       <r>   0.1294  1.0000</r>
       <r>   0.4499  1.0000</r>
       <r>   0.4499  1.0000</r>
       <r>   0.4499  1.0000</r>
       <r>   0.4499  1.0000</r>
       <r>   0.5637  1.0000</r>
       <r>   0.5637  1.0000</r>
       <r>   1.0010  1.0000</r>
       <r>   1.0010  1.0000</r>
       <r>   1.6641  1.0000</r>
       <r>   1.6641  1.0000</r>
       <r>   7.0731  0.0000</r>
       <r>   7.0731  0.0000</r>
       <r>   9.0333  0.0000</r>
       <r>   9.0333  0.0000</r>
       <r>   9.0333  0.0000</r>
       <r>   9.0333  0.0000</r>
      </set>
      <set comment="kpoint 8">
       <r>  -4.3647  1.0000</r>
       <r>  -2.0078  1.0000</r>
       <r>  -2.0078  1.0000</r>
       <r>  -1.9932  1.0000</r>
       <r>  -1.8078  1.0000</r>
       <r>  -1.8078  1.0000</r>
       <r>  -1.7916  1.0000</r>
       <r>  -0.4632  1.0000</r>
       <r>  -0.3884  1.0000</r>
       <r>  -0.3740  1.0000</r>
       <r>   0.5806  1.0000</r>
       <r>   0.6239  1.0000</r>
       <r>   1.3286  1.0000</r>
       <r>   1.3286  1.0000</r>
       <r>   1.3303  1.0000</r>
       <r>   1.3936  1.0000</r>
       <r>   1.4717  1.0000</r>
       <r>   1.4717  1.0000</r>
       <r>   1.6122  1.0000</r>
       <r>   1.6122  1.0000</r>
       <r>   1.6289  1.0000</r>
       <r>   4.4572  0.0000</r>
       <r>   4.4572  0.0000</r>
       <r>   5.3230  0.0000</r>
       <r>   7.5604  0.0000</r>
       <r>   8.3931  0.0000</r>
       <r>   8.3931  0.0000</r>
       <r>  12.1028  0.0000</r>
      </set>
      <set comment="kpoint 9">
       <r>  -4.1665  1.0000</r>
       <r>  -1.9544  1.0000</r>
       <r>  -1.8922  1.0000</r>
       <r>  -1.8881  1.0000</r>
       <r>  -1.7454  1.0000</r>
       <r>  -1.7106  1.0000</r>
       <r>  -1.6809  1.0000</r>
       <r>  -0.5343  1.0000</r>
       <r>  -0.3184  1.0000</r>
       <r>  -0.3030  1.0000</r>
       <r>   0.5083  1.0000</r>
       <r>   0.6583  1.0000</r>
       <r>   1.0058  1.0000</r>
       <r>   1.0537  1.0000</r>
       <r>   1.1883  1.0000</r>
       <r>   1.2170  1.0000</r>
       <r>   1.2843  1.0000</r>
       <r>   1.3988  1.0000</r>
       <r>   1.4684  1.0000</r>
       <r>   1.6113  1.0000</r>
       <r>   1.6120  1.0000</r>
       <r>   3.3336  0.2322</r>
       <r>   4.9352  0.0000</r>
       <r>   5.8392  0.0000</r>
       <r>   7.4349  0.0000</r>
       <r>   8.3278  0.0000</r>
       <r>   9.8794  0.0000</r>
       <r>  11.4711  0.0000</r>
      </set>
      <set comment="kpoint 10">
       <r>  -3.8438  1.0000</r>
       <r>  -1.8931  1.0000</r>
       <r>  -1.7334  1.0000</r>
       <r>  -1.7046  1.0000</r>
       <r>  -1.6446  1.0000</r>
       <r>  -1.5489  1.0000</r>
       <r>  -1.5037  1.0000</r>
       <r>  -0.6561  1.0000</r>
       <r>  -0.1919  1.0000</r>
       <r>  -0.1908  1.0000</r>
       <r>   0.3937  1.0000</r>
       <r>   0.5436  1.0000</r>
       <r>   0.6086  1.0000</r>
       <r>   0.7253  1.0000</r>
       <r>   0.9318  1.0000</r>
       <r>   1.0403  1.0000</r>
       <r>   1.0950  1.0000</r>
       <r>   1.2534  1.0000</r>
       <r>   1.3022  1.0000</r>
       <r>   1.6076  1.0000</r>
       <r>   1.6116  1.0000</r>
       <r>   2.2928  1.0000</r>
       <r>   5.5113  0.0000</r>
       <r>   6.5479  0.0000</r>
       <r>   7.2568  0.0000</r>
       <r>   8.2822  0.0000</r>
       <r>  10.8601  0.0000</r>
       <r>  11.5427  0.0000</r>
      </set>
      <set comment="kpoint 11">
       <r>  -3.4125  1.0000</r>
       <r>  -1.8821  1.0000</r>
       <r>  -1.5309  1.0000</r>
       <r>  -1.5104  1.0000</r>
       <r>  -1.4875  1.0000</r>
       <r>  -1.3240  1.0000</r>
       <r>  -1.2779  1.0000</r>
       <r>  -0.8123  1.0000</r>
       <r>  -0.0629  1.0000</r>
       <r>  -0.0175  1.0000</r>
       <r>   0.0758  1.0000</r>
       <r>   0.1457  1.0000</r>
       <r>   0.2895  1.0000</r>
       <r>   0.5595  1.0000</r>
       <r>   0.8153  1.0000</r>
       <r>   0.8293  1.0000</r>
       <r>   0.8743  1.0000</r>
       <r>   0.9948  1.0000</r>
       <r>   1.1548  1.0000</r>
       <r>   1.5344  1.0000</r>
       <r>   1.6073  1.0000</r>
       <r>   1.6109  1.0000</r>
       <r>   6.0469  0.0000</r>
       <r>   7.0623  0.0000</r>
       <r>   7.3656  0.0000</r>
       <r>   8.3517  0.0000</r>
       <r>  10.2711  0.0000</r>
       <r>  10.9165  0.0000</r>
      </set>
      <set comment="kpoint 12">
       <r>  -2.9061  1.0000</r>
       <r>  -2.0270  1.0000</r>
       <r>  -1.3500  1.0000</r>
       <r>  -1.3238  1.0000</r>
       <r>  -1.2943  1.0000</r>
       <r>  -1.0373  1.0000</r>
       <r>  -1.0244  1.0000</r>
       <r>  -0.9890  1.0000</r>
       <r>  -0.3558  1.0000</r>
       <r>  -0.2945  1.0000</r>
       <r>  -0.0191  1.0000</r>
       <r>   0.1755  1.0000</r>
       <r>   0.1987  1.0000</r>
       <r>   0.3354  1.0000</r>
       <r>   0.6440  1.0000</r>
       <r>   0.6721  1.0000</r>
       <r>   0.7191  1.0000</r>
       <r>   0.8644  1.0000</r>
       <r>   0.9236  1.0000</r>
       <r>   1.1994  1.0000</r>
       <r>   1.6080  1.0000</r>
       <r>   1.6100  1.0000</r>
       <r>   6.4401  0.0000</r>
       <r>   6.8759  0.0000</r>
       <r>   8.2436  0.0000</r>
       <r>   8.6302  0.0000</r>
       <r>   9.6826  0.0000</r>
       <r>  10.0505  0.0000</r>
      </set>
      <set comment="kpoint 13">
       <r>  -2.3993  1.0000</r>
       <r>  -2.3993  1.0000</r>
       <r>  -1.2182  1.0000</r>
       <r>  -1.2182  1.0000</r>
       <r>  -1.1725  1.0000</r>
       <r>  -1.1725  1.0000</r>
       <r>  -0.7268  1.0000</r>
       <r>  -0.7268  1.0000</r>
       <r>  -0.6923  1.0000</r>
       <r>  -0.6923  1.0000</r>
       <r>  -0.0097  1.0000</r>
       <r>  -0.0097  1.0000</r>
       <r>   0.4482  1.0000</r>
       <r>   0.4482  1.0000</r>
       <r>   0.5585  1.0000</r>
       <r>   0.5585  1.0000</r>
       <r>   0.5752  1.0000</r>
       <r>   0.5752  1.0000</r>
       <r>   1.0474  1.0000</r>
       <r>   1.0474  1.0000</r>
       <r>   1.6090  1.0000</r>
       <r>   1.6090  1.0000</r>
       <r>   6.6888  0.0000</r>
       <r>   6.6888  0.0000</r>
       <r>   9.1088  0.0000</r>
       <r>   9.1088  0.0000</r>
       <r>   9.1485  0.0000</r>
       <r>   9.1485  0.0000</r>
      </set>
      <set comment="kpoint 14">
       <r>  -3.9742  1.0000</r>
       <r>  -1.8306  1.0000</r>
       <r>  -1.8306  1.0000</r>
       <r>  -1.8298  1.0000</r>
       <r>  -1.6520  1.0000</r>
       <r>  -1.6520  1.0000</r>
       <r>  -1.5472  1.0000</r>
       <r>  -0.5649  1.0000</r>
       <r>  -0.2828  1.0000</r>
       <r>  -0.2544  1.0000</r>
       <r>   0.4834  1.0000</r>
       <r>   0.6719  1.0000</r>
       <r>   0.7752  1.0000</r>
       <r>   0.7752  1.0000</r>
       <r>   0.8359  1.0000</r>
       <r>   1.1201  1.0000</r>
       <r>   1.2848  1.0000</r>
       <r>   1.2848  1.0000</r>
       <r>   1.4670  1.0000</r>
       <r>   1.4670  1.0000</r>
       <r>   1.5283  1.0000</r>
       <r>   3.8186  0.0000</r>
       <r>   3.8186  0.0000</r>
       <r>   6.3010  0.0000</r>
       <r>   7.2520  0.0000</r>
       <r>   9.7231  0.0000</r>
       <r>   9.7231  0.0000</r>
       <r>  10.7419  0.0000</r>
      </set>
      <set comment="kpoint 15">
       <r>  -3.6618  1.0000</r>
       <r>  -1.7625  1.0000</r>
       <r>  -1.7118  1.0000</r>
       <r>  -1.6397  1.0000</r>
       <r>  -1.5575  1.0000</r>
       <r>  -1.4970  1.0000</r>
       <r>  -1.3559  1.0000</r>
       <r>  -0.6555  1.0000</r>
       <r>  -0.1839  1.0000</r>
       <r>  -0.1783  1.0000</r>
       <r>   0.3100  1.0000</r>
       <r>   0.4039  1.0000</r>
       <r>   0.4696  1.0000</r>
       <r>   0.4870  1.0000</r>
       <r>   0.7518  1.0000</r>
       <r>   0.9668  1.0000</r>
       <r>   1.1180  1.0000</r>
       <r>   1.2176  1.0000</r>
       <r>   1.2508  1.0000</r>
       <r>   1.4649  1.0000</r>
       <r>   1.4827  1.0000</r>
       <r>   2.8164  1.0000</r>
       <r>   4.3758  0.0000</r>
       <r>   6.9595  0.0000</r>
       <r>   6.9726  0.0000</r>
       <r>   9.5134  0.0000</r>
       <r>  10.1625  0.0000</r>
       <r>  11.1459  0.0000</r>
      </set>
      <set comment="kpoint 16">
       <r>  -3.2447  1.0000</r>
       <r>  -1.7443  1.0000</r>
       <r>  -1.5382  1.0000</r>
       <r>  -1.4322  1.0000</r>
       <r>  -1.4108  1.0000</r>
       <r>  -1.2821  1.0000</r>
       <r>  -1.1404  1.0000</r>
       <r>  -0.7906  1.0000</r>
       <r>  -0.1343  1.0000</r>
       <r>  -0.1307  1.0000</r>
       <r>  -0.0135  1.0000</r>
       <r>   0.0854  1.0000</r>
       <r>   0.1279  1.0000</r>
       <r>   0.3455  1.0000</r>
       <r>   0.7820  1.0000</r>
       <r>   0.8780  1.0000</r>
       <r>   0.9120  1.0000</r>
       <r>   0.9913  1.0000</r>
       <r>   1.0762  1.0000</r>
       <r>   1.4623  1.0000</r>
       <r>   1.4645  1.0000</r>
       <r>   2.0451  1.0000</r>
       <r>   4.9240  0.0000</r>
       <r>   6.6336  0.0000</r>
       <r>   7.7394  0.0000</r>
       <r>   9.3258  0.0000</r>
       <r>   9.7331  0.0000</r>
       <r>  11.2401  0.0000</r>
      </set>
      <set comment="kpoint 17">
       <r>  -2.7549  1.0000</r>
       <r>  -1.8886  1.0000</r>
       <r>  -1.3225  1.0000</r>
       <r>  -1.2828  1.0000</r>
       <r>  -1.2034  1.0000</r>
       <r>  -1.0097  1.0000</r>
       <r>  -0.9516  1.0000</r>
       <r>  -0.9501  1.0000</r>
       <r>  -0.5231  1.0000</r>
       <r>  -0.3145  1.0000</r>
       <r>  -0.1593  1.0000</r>
       <r>  -0.1358  1.0000</r>
       <r>   0.1981  1.0000</r>
       <r>   0.4153  1.0000</r>
       <r>   0.6257  1.0000</r>
       <r>   0.7098  1.0000</r>
       <r>   0.7155  1.0000</r>
       <r>   0.8585  1.0000</r>
       <r>   1.0397  1.0000</r>
       <r>   1.4585  1.0000</r>
       <r>   1.4597  1.0000</r>
       <r>   1.5447  1.0000</r>
       <r>   5.4249  0.0000</r>
       <r>   6.2645  0.0000</r>
       <r>   8.5912  0.0000</r>
       <r>   9.2314  0.0000</r>
       <r>   9.4368  0.0000</r>
       <r>  10.3738  0.0000</r>
      </set>
      <set comment="kpoint 18">
       <r>  -2.2604  1.0000</r>
       <r>  -2.2604  1.0000</r>
       <r>  -1.1468  1.0000</r>
       <r>  -1.1468  1.0000</r>
       <r>  -1.1185  1.0000</r>
       <r>  -1.1185  1.0000</r>
       <r>  -0.7990  1.0000</r>
       <r>  -0.7990  1.0000</r>
       <r>  -0.6844  1.0000</r>
       <r>  -0.6844  1.0000</r>
       <r>  -0.2095  1.0000</r>
       <r>  -0.2095  1.0000</r>
       <r>   0.4454  1.0000</r>
       <r>   0.4454  1.0000</r>
       <r>   0.5903  1.0000</r>
       <r>   0.5903  1.0000</r>
       <r>   0.6108  1.0000</r>
       <r>   0.6108  1.0000</r>
       <r>   1.2455  1.0000</r>
       <r>   1.2455  1.0000</r>
       <r>   1.4579  1.0000</r>
       <r>   1.4579  1.0000</r>
       <r>   5.8675  0.0000</r>
       <r>   5.8675  0.0000</r>
       <r>   9.2672  0.0000</r>
       <r>   9.2672  0.0000</r>
       <r>   9.4797  0.0000</r>
       <r>   9.4797  0.0000</r>
      </set>
      <set comment="kpoint 19">
       <r>  -3.3670  1.0000</r>
       <r>  -1.6385  1.0000</r>
       <r>  -1.5589  1.0000</r>
       <r>  -1.5589  1.0000</r>
       <r>  -1.4138  1.0000</r>
       <r>  -1.4138  1.0000</r>
       <r>  -1.1639  1.0000</r>
       <r>  -0.6908  1.0000</r>
       <r>  -0.1686  1.0000</r>
       <r>  -0.1147  1.0000</r>
       <r>   0.0196  1.0000</r>
       <r>   0.0196  1.0000</r>
       <r>   0.2672  1.0000</r>
       <r>   0.3606  1.0000</r>
       <r>   0.8459  1.0000</r>
       <r>   0.8606  1.0000</r>
       <r>   1.0743  1.0000</r>
       <r>   1.0743  1.0000</r>
       <r>   1.2471  1.0000</r>
       <r>   1.2471  1.0000</r>
       <r>   1.3669  1.0000</r>
       <r>   3.3715  0.0000</r>
       <r>   3.3715  0.0000</r>
       <r>   6.5351  0.0000</r>
       <r>   7.5658  0.0000</r>
       <r>   9.7078  0.0000</r>
       <r>  10.6256  0.0000</r>
       <r>  10.6256  0.0000</r>
      </set>
      <set comment="kpoint 20">
       <r>  -2.9755  1.0000</r>
       <r>  -1.5288  1.0000</r>
       <r>  -1.5084  1.0000</r>
       <r>  -1.3084  1.0000</r>
       <r>  -1.3040  1.0000</r>
       <r>  -1.2157  1.0000</r>
       <r>  -0.9663  1.0000</r>
       <r>  -0.7760  1.0000</r>
       <r>  -0.3885  1.0000</r>
       <r>  -0.2593  1.0000</r>
       <r>  -0.1735  1.0000</r>
       <r>  -0.0293  1.0000</r>
       <r>   0.0180  1.0000</r>
       <r>   0.3171  1.0000</r>
       <r>   0.6956  1.0000</r>
       <r>   0.8904  1.0000</r>
       <r>   0.9480  1.0000</r>
       <r>   0.9873  1.0000</r>
       <r>   1.0416  1.0000</r>
       <r>   1.2434  1.0000</r>
       <r>   1.2954  1.0000</r>
       <r>   2.5646  1.0000</r>
       <r>   3.9208  0.0000</r>
       <r>   6.0196  0.0000</r>
       <r>   8.3029  0.0000</r>
       <r>   9.4688  0.0000</r>
       <r>  10.1267  0.0000</r>
       <r>  11.5889  0.0000</r>
      </set>
      <set comment="kpoint 21">
       <r>  -2.5171  1.0000</r>
       <r>  -1.6781  1.0000</r>
       <r>  -1.3218  1.0000</r>
       <r>  -1.1748  1.0000</r>
       <r>  -1.0652  1.0000</r>
       <r>  -0.9676  1.0000</r>
       <r>  -0.8972  1.0000</r>
       <r>  -0.8299  1.0000</r>
       <r>  -0.7355  1.0000</r>
       <r>  -0.4040  1.0000</r>
       <r>  -0.3564  1.0000</r>
       <r>  -0.2502  1.0000</r>
       <r>   0.2110  1.0000</r>
       <r>   0.3725  1.0000</r>
       <r>   0.5731  1.0000</r>
       <r>   0.6999  1.0000</r>
       <r>   0.7132  1.0000</r>
       <r>   0.7519  1.0000</r>
       <r>   1.2418  1.0000</r>
       <r>   1.2599  1.0000</r>
       <r>   1.2755  1.0000</r>
       <r>   1.9779  1.0000</r>
       <r>   4.4530  0.0000</r>
       <r>   5.4914  0.0000</r>
       <r>   9.1235  0.0000</r>
       <r>   9.4033  0.0000</r>
       <r>   9.7372  0.0000</r>
       <r>  10.8764  0.0000</r>
      </set>
      <set comment="kpoint 22">
       <r>  -2.0487  1.0000</r>
       <r>  -2.0487  1.0000</r>
       <r>  -1.0895  1.0000</r>
       <r>  -1.0895  1.0000</r>
       <r>  -1.0352  1.0000</r>
       <r>  -1.0352  1.0000</r>
       <r>  -0.8343  1.0000</r>
       <r>  -0.8343  1.0000</r>
       <r>  -0.6768  1.0000</r>
       <r>  -0.6768  1.0000</r>
       <r>  -0.3645  1.0000</r>
       <r>  -0.3645  1.0000</r>
       <r>   0.4482  1.0000</r>
       <r>   0.4482  1.0000</r>
       <r>   0.5368  1.0000</r>
       <r>   0.5368  1.0000</r>
       <r>   0.5688  1.0000</r>
       <r>   0.5688  1.0000</r>
       <r>   1.2454  1.0000</r>
       <r>   1.2454  1.0000</r>
       <r>   1.5721  1.0000</r>
       <r>   1.5721  1.0000</r>
       <r>   4.9719  0.0000</r>
       <r>   4.9719  0.0000</r>
       <r>   9.4934  0.0000</r>
       <r>   9.4934  0.0000</r>
       <r>   9.9917  0.0000</r>
       <r>   9.9917  0.0000</r>
      </set>
      <set comment="kpoint 23">
       <r>  -2.6227  1.0000</r>
       <r>  -1.4338  1.0000</r>
       <r>  -1.2629  1.0000</r>
       <r>  -1.2629  1.0000</r>
       <r>  -1.1300  1.0000</r>
       <r>  -1.1300  1.0000</r>
       <r>  -0.7925  1.0000</r>
       <r>  -0.7918  1.0000</r>
       <r>  -0.5930  1.0000</r>
       <r>  -0.5930  1.0000</r>
       <r>  -0.2065  1.0000</r>
       <r>  -0.2057  1.0000</r>
       <r>   0.1044  1.0000</r>
       <r>   0.2549  1.0000</r>
       <r>   0.5768  1.0000</r>
       <r>   0.7832  1.0000</r>
       <r>   0.7832  1.0000</r>
       <r>   0.9857  1.0000</r>
       <r>   0.9857  1.0000</r>
       <r>   1.1541  1.0000</r>
       <r>   1.2854  1.0000</r>
       <r>   3.0853  1.0000</r>
       <r>   3.0853  1.0000</r>
       <r>   5.3565  0.0000</r>
       <r>   9.0025  0.0000</r>
       <r>   9.4191  0.0000</r>
       <r>  10.8484  0.0000</r>
       <r>  10.8484  0.0000</r>
      </set>
      <set comment="kpoint 24">
       <r>  -2.2158  1.0000</r>
       <r>  -1.4398  1.0000</r>
       <r>  -1.3113  1.0000</r>
       <r>  -1.0327  1.0000</r>
       <r>  -1.0269  1.0000</r>
       <r>  -0.9173  1.0000</r>
       <r>  -0.8487  1.0000</r>
       <r>  -0.8328  1.0000</r>
       <r>  -0.6843  1.0000</r>
       <r>  -0.5939  1.0000</r>
       <r>  -0.4314  1.0000</r>
       <r>  -0.2931  1.0000</r>
       <r>   0.2578  1.0000</r>
       <r>   0.2704  1.0000</r>
       <r>   0.4751  1.0000</r>
       <r>   0.6031  1.0000</r>
       <r>   0.6090  1.0000</r>
       <r>   0.7189  1.0000</r>
       <r>   0.9916  1.0000</r>
       <r>   1.0623  1.0000</r>
       <r>   1.5869  1.0000</r>
       <r>   2.4387  1.0000</r>
       <r>   3.6091  0.0000</r>
       <r>   4.7265  0.0000</r>
       <r>   9.5374  0.0000</r>
       <r>   9.7940  0.0000</r>
       <r>  10.2506  0.0000</r>
       <r>  11.5216  0.0000</r>
      </set>
      <set comment="kpoint 25">
       <r>  -1.7991  1.0000</r>
       <r>  -1.7991  1.0000</r>
       <r>  -1.1426  1.0000</r>
       <r>  -1.1426  1.0000</r>
       <r>  -0.9342  1.0000</r>
       <r>  -0.9342  1.0000</r>
       <r>  -0.7318  1.0000</r>
       <r>  -0.7318  1.0000</r>
       <r>  -0.6779  1.0000</r>
       <r>  -0.6779  1.0000</r>
       <r>  -0.4476  1.0000</r>
       <r>  -0.4476  1.0000</r>
       <r>   0.4060  1.0000</r>
       <r>   0.4060  1.0000</r>
       <r>   0.4689  1.0000</r>
       <r>   0.4689  1.0000</r>
       <r>   0.4815  1.0000</r>
       <r>   0.4815  1.0000</r>
       <r>   1.0131  1.0000</r>
       <r>   1.0131  1.0000</r>
       <r>   1.9572  1.0000</r>
       <r>   1.9572  1.0000</r>
       <r>   4.1490  0.0000</r>
       <r>   4.1490  0.0000</r>
       <r>   9.8134  0.0000</r>
       <r>   9.8134  0.0000</r>
       <r>  10.6428  0.0000</r>
       <r>  10.6428  0.0000</r>
      </set>
      <set comment="kpoint 26">
       <r>  -1.8855  1.0000</r>
       <r>  -1.2833  1.0000</r>
       <r>  -1.2717  1.0000</r>
       <r>  -1.2717  1.0000</r>
       <r>  -0.8682  1.0000</r>
       <r>  -0.8682  1.0000</r>
       <r>  -0.8243  1.0000</r>
       <r>  -0.6480  1.0000</r>
       <r>  -0.6480  1.0000</r>
       <r>  -0.5718  1.0000</r>
       <r>  -0.5472  1.0000</r>
       <r>  -0.3349  1.0000</r>
       <r>   0.2052  1.0000</r>
       <r>   0.3595  1.0000</r>
       <r>   0.3646  1.0000</r>
       <r>   0.4460  1.0000</r>
       <r>   0.4460  1.0000</r>
       <r>   0.7428  1.0000</r>
       <r>   0.7428  1.0000</r>
       <r>   0.9036  1.0000</r>
       <r>   1.9523  1.0000</r>
       <r>   2.9238  1.0000</r>
       <r>   2.9238  1.0000</r>
       <r>   4.0427  0.0000</r>
       <r>   9.8183  0.0000</r>
       <r>  10.5620  0.0000</r>
       <r>  10.8343  0.0000</r>
       <r>  10.8343  0.0000</r>
      </set>
      <set comment="kpoint 27">
       <r>  -1.5631  1.0000</r>
       <r>  -1.5631  1.0000</r>
       <r>  -1.2485  1.0000</r>
       <r>  -1.2485  1.0000</r>
       <r>  -0.8328  1.0000</r>
       <r>  -0.8328  1.0000</r>
       <r>  -0.6990  1.0000</r>
       <r>  -0.6990  1.0000</r>
       <r>  -0.5763  1.0000</r>
       <r>  -0.5763  1.0000</r>
       <r>  -0.4582  1.0000</r>
       <r>  -0.4582  1.0000</r>
       <r>   0.2762  1.0000</r>
       <r>   0.2762  1.0000</r>
       <r>   0.3415  1.0000</r>
       <r>   0.3415  1.0000</r>
       <r>   0.5245  1.0000</r>
       <r>   0.5245  1.0000</r>
       <r>   0.7992  1.0000</r>
       <r>   0.7992  1.0000</r>
       <r>   2.3852  1.0000</r>
       <r>   2.3852  1.0000</r>
       <r>   3.4493  0.0000</r>
       <r>   3.4493  0.0000</r>
       <r>  10.2483  0.0000</r>
       <r>  10.2483  0.0000</r>
       <r>  11.3943  0.0000</r>
       <r>  11.3949  0.0000</r>
      </set>
      <set comment="kpoint 28">
       <r>  -1.3814  1.0000</r>
       <r>  -1.3814  1.0000</r>
       <r>  -1.3814  1.0000</r>
       <r>  -1.3814  1.0000</r>
       <r>  -0.7503  1.0000</r>
       <r>  -0.7503  1.0000</r>
       <r>  -0.7503  1.0000</r>
       <r>  -0.7503  1.0000</r>
       <r>  -0.4697  1.0000</r>
       <r>  -0.4697  1.0000</r>
       <r>  -0.4697  1.0000</r>
       <r>  -0.4697  1.0000</r>
       <r>   0.2382  1.0000</r>
       <r>   0.2382  1.0000</r>
       <r>   0.2382  1.0000</r>
       <r>   0.2382  1.0000</r>
       <r>   0.6324  1.0000</r>
       <r>   0.6324  1.0000</r>
       <r>   0.6324  1.0000</r>
       <r>   0.6324  1.0000</r>
       <r>   2.8716  1.0000</r>
       <r>   2.8716  1.0000</r>
       <r>   2.8716  1.0000</r>
       <r>   2.8716  1.0000</r>
       <r>  10.8127  0.0000</r>
       <r>  10.8127  0.0000</r>
       <r>  10.8127  0.0000</r>
       <r>  10.8127  0.0000</r>
      </set>
      <set comment="kpoint 29">
       <r>  -4.2987  1.0000</r>
       <r>  -1.9731  1.0000</r>
       <r>  -1.9731  1.0000</r>
       <r>  -1.9731  1.0000</r>
       <r>  -1.7705  1.0000</r>
       <r>  -1.7705  1.0000</r>
       <r>  -1.7705  1.0000</r>
       <r>  -0.4717  1.0000</r>
       <r>  -0.3662  1.0000</r>
       <r>  -0.3662  1.0000</r>
       <r>   0.5967  1.0000</r>
       <r>   0.5967  1.0000</r>
       <r>   1.2954  1.0000</r>
       <r>   1.2954  1.0000</r>
       <r>   1.2954  1.0000</r>
       <r>   1.3273  1.0000</r>
       <r>   1.3273  1.0000</r>
       <r>   1.3273  1.0000</r>
       <r>   1.6032  1.0000</r>
       <r>   1.6032  1.0000</r>
       <r>   1.6032  1.0000</r>
       <r>   4.6366  0.0000</r>
       <r>   4.6366  0.0000</r>
       <r>   4.6366  0.0000</r>
       <r>   8.3563  0.0000</r>
       <r>   8.3563  0.0000</r>
       <r>   8.3563  0.0000</r>
       <r>  12.2423  0.0000</r>
      </set>
      <set comment="kpoint 30">
       <r>  -4.1027  1.0000</r>
       <r>  -1.9198  1.0000</r>
       <r>  -1.8723  1.0000</r>
       <r>  -1.8723  1.0000</r>
       <r>  -1.7082  1.0000</r>
       <r>  -1.6598  1.0000</r>
       <r>  -1.6598  1.0000</r>
       <r>  -0.5332  1.0000</r>
       <r>  -0.3060  1.0000</r>
       <r>  -0.2999  1.0000</r>
       <r>   0.5204  1.0000</r>
       <r>   0.6439  1.0000</r>
       <r>   0.9602  1.0000</r>
       <r>   0.9602  1.0000</r>
       <r>   1.1325  1.0000</r>
       <r>   1.1911  1.0000</r>
       <r>   1.2065  1.0000</r>
       <r>   1.2065  1.0000</r>
       <r>   1.5341  1.0000</r>
       <r>   1.5873  1.0000</r>
       <r>   1.5873  1.0000</r>
       <r>   3.5202  0.0000</r>
       <r>   5.0795  0.0000</r>
       <r>   5.0795  0.0000</r>
       <r>   8.2616  0.0000</r>
       <r>   8.2616  0.0000</r>
       <r>   9.7959  0.0000</r>
       <r>  11.6449  0.0000</r>
      </set>
      <set comment="kpoint 31">
       <r>  -3.7840  1.0000</r>
       <r>  -1.8582  1.0000</r>
       <r>  -1.7138  1.0000</r>
       <r>  -1.7138  1.0000</r>
       <r>  -1.6079  1.0000</r>
       <r>  -1.4829  1.0000</r>
       <r>  -1.4829  1.0000</r>
       <r>  -0.6484  1.0000</r>
       <r>  -0.1954  1.0000</r>
       <r>  -0.1909  1.0000</r>
       <r>   0.4157  1.0000</r>
       <r>   0.5154  1.0000</r>
       <r>   0.5154  1.0000</r>
       <r>   0.7194  1.0000</r>
       <r>   0.8191  1.0000</r>
       <r>   1.0246  1.0000</r>
       <r>   1.0468  1.0000</r>
       <r>   1.0468  1.0000</r>
       <r>   1.4363  1.0000</r>
       <r>   1.5747  1.0000</r>
       <r>   1.5747  1.0000</r>
       <r>   2.4949  1.0000</r>
       <r>   5.6217  0.0000</r>
       <r>   5.6217  0.0000</r>
       <r>   8.1592  0.0000</r>
       <r>   8.1592  0.0000</r>
       <r>  11.0987  0.0000</r>
       <r>  11.0987  0.0000</r>
      </set>
      <set comment="kpoint 32">
       <r>  -3.3582  1.0000</r>
       <r>  -1.8459  1.0000</r>
       <r>  -1.5105  1.0000</r>
       <r>  -1.5105  1.0000</r>
       <r>  -1.4758  1.0000</r>
       <r>  -1.2595  1.0000</r>
       <r>  -1.2595  1.0000</r>
       <r>  -0.7988  1.0000</r>
       <r>  -0.0844  1.0000</r>
       <r>  -0.0419  1.0000</r>
       <r>   0.0652  1.0000</r>
       <r>   0.0652  1.0000</r>
       <r>   0.3461  1.0000</r>
       <r>   0.4193  1.0000</r>
       <r>   0.8146  1.0000</r>
       <r>   0.8186  1.0000</r>
       <r>   0.8452  1.0000</r>
       <r>   0.8452  1.0000</r>
       <r>   1.3207  1.0000</r>
       <r>   1.5675  1.0000</r>
       <r>   1.5675  1.0000</r>
       <r>   1.6909  1.0000</r>
       <r>   6.1152  0.0000</r>
       <r>   6.1152  0.0000</r>
       <r>   8.1338  0.0000</r>
       <r>   8.1338  0.0000</r>
       <r>  10.6145  0.0000</r>
       <r>  10.6145  0.0000</r>
      </set>
      <set comment="kpoint 33">
       <r>  -2.8587  1.0000</r>
       <r>  -1.9890  1.0000</r>
       <r>  -1.3194  1.0000</r>
       <r>  -1.2978  1.0000</r>
       <r>  -1.2978  1.0000</r>
       <r>  -1.0196  1.0000</r>
       <r>  -1.0196  1.0000</r>
       <r>  -0.9696  1.0000</r>
       <r>  -0.3469  1.0000</r>
       <r>  -0.3469  1.0000</r>
       <r>  -0.0729  1.0000</r>
       <r>   0.0652  1.0000</r>
       <r>   0.1426  1.0000</r>
       <r>   0.4491  1.0000</r>
       <r>   0.5844  1.0000</r>
       <r>   0.6580  1.0000</r>
       <r>   0.6580  1.0000</r>
       <r>   0.9355  1.0000</r>
       <r>   1.1243  1.0000</r>
       <r>   1.1940  1.0000</r>
       <r>   1.5640  1.0000</r>
       <r>   1.5640  1.0000</r>
       <r>   6.4294  0.0000</r>
       <r>   6.4294  0.0000</r>
       <r>   8.2420  0.0000</r>
       <r>   8.2420  0.0000</r>
       <r>  10.2094  0.0000</r>
       <r>  10.2094  0.0000</r>
      </set>
      <set comment="kpoint 34">
       <r>  -2.3582  1.0000</r>
       <r>  -2.3582  1.0000</r>
       <r>  -1.1911  1.0000</r>
       <r>  -1.1911  1.0000</r>
       <r>  -1.1473  1.0000</r>
       <r>  -1.1473  1.0000</r>
       <r>  -0.8222  1.0000</r>
       <r>  -0.8222  1.0000</r>
       <r>  -0.6201  1.0000</r>
       <r>  -0.6201  1.0000</r>
       <r>  -0.0836  1.0000</r>
       <r>  -0.0836  1.0000</r>
       <r>   0.3551  1.0000</r>
       <r>   0.3551  1.0000</r>
       <r>   0.5765  1.0000</r>
       <r>   0.5765  1.0000</r>
       <r>   0.7246  1.0000</r>
       <r>   0.7246  1.0000</r>
       <r>   1.0631  1.0000</r>
       <r>   1.0631  1.0000</r>
       <r>   1.5630  1.0000</r>
       <r>   1.5630  1.0000</r>
       <r>   6.5266  0.0000</r>
       <r>   6.5266  0.0000</r>
       <r>   8.3401  0.0000</r>
       <r>   8.3401  0.0000</r>
       <r>  10.0239  0.0000</r>
       <r>  10.0239  0.0000</r>
      </set>
      <set comment="kpoint 35">
       <r>  -3.9137  1.0000</r>
       <r>  -1.8197  1.0000</r>
       <r>  -1.8197  1.0000</r>
       <r>  -1.8131  1.0000</r>
       <r>  -1.5975  1.0000</r>
       <r>  -1.5975  1.0000</r>
       <r>  -1.5243  1.0000</r>
       <r>  -0.5570  1.0000</r>
       <r>  -0.2751  1.0000</r>
       <r>  -0.2575  1.0000</r>
       <r>   0.5119  1.0000</r>
       <r>   0.6500  1.0000</r>
       <r>   0.7370  1.0000</r>
       <r>   0.7370  1.0000</r>
       <r>   0.7630  1.0000</r>
       <r>   1.0607  1.0000</r>
       <r>   1.1204  1.0000</r>
       <r>   1.1204  1.0000</r>
       <r>   1.5271  1.0000</r>
       <r>   1.5271  1.0000</r>
       <r>   1.5389  1.0000</r>
       <r>   3.9578  0.0000</r>
       <r>   3.9578  0.0000</r>
       <r>   5.4478  0.0000</r>
       <r>   8.0730  0.0000</r>
       <r>   9.5537  0.0000</r>
       <r>   9.5537  0.0000</r>
       <r>  11.0129  0.0000</r>
      </set>
      <set comment="kpoint 36">
       <r>  -3.6070  1.0000</r>
       <r>  -1.7585  1.0000</r>
       <r>  -1.6988  1.0000</r>
       <r>  -1.6629  1.0000</r>
       <r>  -1.4977  1.0000</r>
       <r>  -1.4203  1.0000</r>
       <r>  -1.3323  1.0000</r>
       <r>  -0.6383  1.0000</r>
       <r>  -0.1915  1.0000</r>
       <r>  -0.1857  1.0000</r>
       <r>   0.2926  1.0000</r>
       <r>   0.4147  1.0000</r>
       <r>   0.4280  1.0000</r>
       <r>   0.4439  1.0000</r>
       <r>   0.7363  1.0000</r>
       <r>   0.9215  1.0000</r>
       <r>   0.9495  1.0000</r>
       <r>   1.0078  1.0000</r>
       <r>   1.4390  1.0000</r>
       <r>   1.4927  1.0000</r>
       <r>   1.4928  1.0000</r>
       <r>   2.9425  1.0000</r>
       <r>   4.4853  0.0000</r>
       <r>   5.8974  0.0000</r>
       <r>   7.8195  0.0000</r>
       <r>   9.1990  0.0000</r>
       <r>  10.6013  0.0000</r>
       <r>  10.7690  0.0000</r>
      </set>
      <set comment="kpoint 37">
       <r>  -3.1987  1.0000</r>
       <r>  -1.7440  1.0000</r>
       <r>  -1.5288  1.0000</r>
       <r>  -1.4597  1.0000</r>
       <r>  -1.3701  1.0000</r>
       <r>  -1.2012  1.0000</r>
       <r>  -1.1208  1.0000</r>
       <r>  -0.7641  1.0000</r>
       <r>  -0.1412  1.0000</r>
       <r>  -0.1285  1.0000</r>
       <r>  -0.0557  1.0000</r>
       <r>   0.0273  1.0000</r>
       <r>   0.0842  1.0000</r>
       <r>   0.4201  1.0000</r>
       <r>   0.7332  1.0000</r>
       <r>   0.7594  1.0000</r>
       <r>   0.8429  1.0000</r>
       <r>   0.8667  1.0000</r>
       <r>   1.3117  1.0000</r>
       <r>   1.4607  1.0000</r>
       <r>   1.4635  1.0000</r>
       <r>   2.1236  1.0000</r>
       <r>   5.0162  0.0000</r>
       <r>   6.2253  0.0000</r>
       <r>   7.6605  0.0000</r>
       <r>   8.8111  0.0000</r>
       <r>  10.4189  0.0000</r>
       <r>  11.4705  0.0000</r>
      </set>
      <set comment="kpoint 38">
       <r>  -2.7210  1.0000</r>
       <r>  -1.8828  1.0000</r>
       <r>  -1.3135  1.0000</r>
       <r>  -1.2320  1.0000</r>
       <r>  -1.2260  1.0000</r>
       <r>  -1.0040  1.0000</r>
       <r>  -0.9587  1.0000</r>
       <r>  -0.9139  1.0000</r>
       <r>  -0.4689  1.0000</r>
       <r>  -0.3265  1.0000</r>
       <r>  -0.1774  1.0000</r>
       <r>  -0.1717  1.0000</r>
       <r>   0.1046  1.0000</r>
       <r>   0.5073  1.0000</r>
       <r>   0.5536  1.0000</r>
       <r>   0.6099  1.0000</r>
       <r>   0.6668  1.0000</r>
       <r>   1.0265  1.0000</r>
       <r>   1.1158  1.0000</r>
       <r>   1.4441  1.0000</r>
       <r>   1.4463  1.0000</r>
       <r>   1.5484  1.0000</r>
       <r>   5.5039  0.0000</r>
       <r>   6.2086  0.0000</r>
       <r>   7.7889  0.0000</r>
       <r>   8.4439  0.0000</r>
       <r>  10.4573  0.0000</r>
       <r>  11.0790  0.0000</r>
      </set>
      <set comment="kpoint 39">
       <r>  -2.2413  1.0000</r>
       <r>  -2.2413  1.0000</r>
       <r>  -1.1209  1.0000</r>
       <r>  -1.1209  1.0000</r>
       <r>  -1.0718  1.0000</r>
       <r>  -1.0718  1.0000</r>
       <r>  -0.9431  1.0000</r>
       <r>  -0.9431  1.0000</r>
       <r>  -0.5518  1.0000</r>
       <r>  -0.5518  1.0000</r>
       <r>  -0.2350  1.0000</r>
       <r>  -0.2350  1.0000</r>
       <r>   0.2937  1.0000</r>
       <r>   0.2937  1.0000</r>
       <r>   0.5645  1.0000</r>
       <r>   0.5645  1.0000</r>
       <r>   0.8246  1.0000</r>
       <r>   0.8246  1.0000</r>
       <r>   1.2254  1.0000</r>
       <r>   1.2254  1.0000</r>
       <r>   1.4400  1.0000</r>
       <r>   1.4400  1.0000</r>
       <r>   5.9181  0.0000</r>
       <r>   5.9181  0.0000</r>
       <r>   8.0996  0.0000</r>
       <r>   8.0996  0.0000</r>
       <r>  10.7006  0.0000</r>
       <r>  10.7006  0.0000</r>
      </set>
      <set comment="kpoint 40">
       <r>  -3.3215  1.0000</r>
       <r>  -1.6329  1.0000</r>
       <r>  -1.6056  1.0000</r>
       <r>  -1.6056  1.0000</r>
       <r>  -1.3187  1.0000</r>
       <r>  -1.3187  1.0000</r>
       <r>  -1.1413  1.0000</r>
       <r>  -0.6589  1.0000</r>
       <r>  -0.1765  1.0000</r>
       <r>  -0.1428  1.0000</r>
       <r>   0.0103  1.0000</r>
       <r>   0.0103  1.0000</r>
       <r>   0.2160  1.0000</r>
       <r>   0.4210  1.0000</r>
       <r>   0.7732  1.0000</r>
       <r>   0.8418  1.0000</r>
       <r>   0.8751  1.0000</r>
       <r>   0.8751  1.0000</r>
       <r>   1.3846  1.0000</r>
       <r>   1.3846  1.0000</r>
       <r>   1.4058  1.0000</r>
       <r>   3.4650  0.0000</r>
       <r>   3.4650  0.0000</r>
       <r>   6.1518  0.0000</r>
       <r>   7.4537  0.0000</r>
       <r>  10.0860  0.0000</r>
       <r>  10.0860  0.0000</r>
       <r>  10.4162  0.0000</r>
      </set>
      <set comment="kpoint 41">
       <r>  -2.9445  1.0000</r>
       <r>  -1.5950  1.0000</r>
       <r>  -1.5120  1.0000</r>
       <r>  -1.4112  1.0000</r>
       <r>  -1.1924  1.0000</r>
       <r>  -1.0971  1.0000</r>
       <r>  -0.9539  1.0000</r>
       <r>  -0.7281  1.0000</r>
       <r>  -0.3616  1.0000</r>
       <r>  -0.2621  1.0000</r>
       <r>  -0.1806  1.0000</r>
       <r>  -0.0518  1.0000</r>
       <r>  -0.0497  1.0000</r>
       <r>   0.4167  1.0000</r>
       <r>   0.6320  1.0000</r>
       <r>   0.6741  1.0000</r>
       <r>   0.7593  1.0000</r>
       <r>   1.0223  1.0000</r>
       <r>   1.2392  1.0000</r>
       <r>   1.3252  1.0000</r>
       <r>   1.3339  1.0000</r>
       <r>   2.6206  1.0000</r>
       <r>   4.0012  0.0000</r>
       <r>   6.0245  0.0000</r>
       <r>   7.4732  0.0000</r>
       <r>   9.4228  0.0000</r>
       <r>  10.4873  0.0000</r>
       <r>  10.9049  0.0000</r>
      </set>
      <set comment="kpoint 42">
       <r>  -2.5075  1.0000</r>
       <r>  -1.7324  1.0000</r>
       <r>  -1.3387  1.0000</r>
       <r>  -1.1915  1.0000</r>
       <r>  -1.0668  1.0000</r>
       <r>  -0.9500  1.0000</r>
       <r>  -0.8586  1.0000</r>
       <r>  -0.8316  1.0000</r>
       <r>  -0.5886  1.0000</r>
       <r>  -0.4074  1.0000</r>
       <r>  -0.3070  1.0000</r>
       <r>  -0.2568  1.0000</r>
       <r>   0.0808  1.0000</r>
       <r>   0.4538  1.0000</r>
       <r>   0.5192  1.0000</r>
       <r>   0.5400  1.0000</r>
       <r>   0.6150  1.0000</r>
       <r>   1.0325  1.0000</r>
       <r>   1.2545  1.0000</r>
       <r>   1.2861  1.0000</r>
       <r>   1.2888  1.0000</r>
       <r>   1.9874  1.0000</r>
       <r>   4.5319  0.0000</r>
       <r>   5.5723  0.0000</r>
       <r>   7.8450  0.0000</r>
       <r>   8.8325  0.0000</r>
       <r>  10.7715  0.0000</r>
       <r>  11.7296  0.0000</r>
      </set>
      <set comment="kpoint 43">
       <r>  -2.0691  1.0000</r>
       <r>  -2.0691  1.0000</r>
       <r>  -1.1323  1.0000</r>
       <r>  -1.1323  1.0000</r>
       <r>  -0.9504  1.0000</r>
       <r>  -0.9504  1.0000</r>
       <r>  -0.9483  1.0000</r>
       <r>  -0.9483  1.0000</r>
       <r>  -0.4927  1.0000</r>
       <r>  -0.4927  1.0000</r>
       <r>  -0.3706  1.0000</r>
       <r>  -0.3706  1.0000</r>
       <r>   0.2499  1.0000</r>
       <r>   0.2499  1.0000</r>
       <r>   0.5074  1.0000</r>
       <r>   0.5074  1.0000</r>
       <r>   0.7753  1.0000</r>
       <r>   0.7753  1.0000</r>
       <r>   1.2735  1.0000</r>
       <r>   1.2735  1.0000</r>
       <r>   1.5552  1.0000</r>
       <r>   1.5552  1.0000</r>
       <r>   5.0557  0.0000</r>
       <r>   5.0557  0.0000</r>
       <r>   8.3128  0.0000</r>
       <r>   8.3128  0.0000</r>
       <r>  11.2338  0.0000</r>
       <r>  11.2338  0.0000</r>
      </set>
      <set comment="kpoint 44">
       <r>  -2.6153  1.0000</r>
       <r>  -1.4547  1.0000</r>
       <r>  -1.4234  1.0000</r>
       <r>  -1.4234  1.0000</r>
       <r>  -0.9581  1.0000</r>
       <r>  -0.9581  1.0000</r>
       <r>  -0.8042  1.0000</r>
       <r>  -0.7181  1.0000</r>
       <r>  -0.5559  1.0000</r>
       <r>  -0.5559  1.0000</r>
       <r>  -0.2083  1.0000</r>
       <r>  -0.1720  1.0000</r>
       <r>  -0.0163  1.0000</r>
       <r>   0.4024  1.0000</r>
       <r>   0.4965  1.0000</r>
       <r>   0.5927  1.0000</r>
       <r>   0.5927  1.0000</r>
       <r>   1.1580  1.0000</r>
       <r>   1.1580  1.0000</r>
       <r>   1.2164  1.0000</r>
       <r>   1.2641  1.0000</r>
       <r>   3.1343  1.0000</r>
       <r>   3.1343  1.0000</r>
       <r>   5.4448  0.0000</r>
       <r>   7.7507  0.0000</r>
       <r>  10.0764  0.0000</r>
       <r>  10.0764  0.0000</r>
       <r>  10.7567  0.0000</r>
      </set>
      <set comment="kpoint 45">
       <r>  -2.2428  1.0000</r>
       <r>  -1.5756  1.0000</r>
       <r>  -1.3605  1.0000</r>
       <r>  -1.2736  1.0000</r>
       <r>  -0.8481  1.0000</r>
       <r>  -0.8183  1.0000</r>
       <r>  -0.7554  1.0000</r>
       <r>  -0.7452  1.0000</r>
       <r>  -0.6402  1.0000</r>
       <r>  -0.5851  1.0000</r>
       <r>  -0.2936  1.0000</r>
       <r>  -0.2902  1.0000</r>
       <r>   0.0600  1.0000</r>
       <r>   0.3899  1.0000</r>
       <r>   0.3946  1.0000</r>
       <r>   0.4844  1.0000</r>
       <r>   0.4954  1.0000</r>
       <r>   0.9450  1.0000</r>
       <r>   1.1011  1.0000</r>
       <r>   1.1291  1.0000</r>
       <r>   1.5660  1.0000</r>
       <r>   2.4509  1.0000</r>
       <r>   3.6608  0.0000</r>
       <r>   4.8071  0.0000</r>
       <r>   8.2030  0.0000</r>
       <r>   9.3553  0.0000</r>
       <r>  10.8002  0.0000</r>
       <r>  11.1989  0.0000</r>
      </set>
      <set comment="kpoint 46">
       <r>  -1.8740  1.0000</r>
       <r>  -1.8740  1.0000</r>
       <r>  -1.2597  1.0000</r>
       <r>  -1.2597  1.0000</r>
       <r>  -0.8238  1.0000</r>
       <r>  -0.8238  1.0000</r>
       <r>  -0.7935  1.0000</r>
       <r>  -0.7935  1.0000</r>
       <r>  -0.4439  1.0000</r>
       <r>  -0.4439  1.0000</r>
       <r>  -0.4340  1.0000</r>
       <r>  -0.4340  1.0000</r>
       <r>   0.2004  1.0000</r>
       <r>   0.2004  1.0000</r>
       <r>   0.3912  1.0000</r>
       <r>   0.3912  1.0000</r>
       <r>   0.7022  1.0000</r>
       <r>   0.7022  1.0000</r>
       <r>   1.0891  1.0000</r>
       <r>   1.0891  1.0000</r>
       <r>   1.9448  1.0000</r>
       <r>   1.9448  1.0000</r>
       <r>   4.2122  0.0000</r>
       <r>   4.2122  0.0000</r>
       <r>   8.7370  0.0000</r>
       <r>   8.7370  0.0000</r>
       <r>  11.5958  0.0000</r>
       <r>  11.5958  0.0000</r>
      </set>
      <set comment="kpoint 47">
       <r>  -1.9599  1.0000</r>
       <r>  -1.4544  1.0000</r>
       <r>  -1.4544  1.0000</r>
       <r>  -1.3739  1.0000</r>
       <r>  -0.7054  1.0000</r>
       <r>  -0.7054  1.0000</r>
       <r>  -0.7049  1.0000</r>
       <r>  -0.6886  1.0000</r>
       <r>  -0.5724  1.0000</r>
       <r>  -0.5724  1.0000</r>
       <r>  -0.3120  1.0000</r>
       <r>  -0.2900  1.0000</r>
       <r>   0.0553  1.0000</r>
       <r>   0.2756  1.0000</r>
       <r>   0.3076  1.0000</r>
       <r>   0.3076  1.0000</r>
       <r>   0.5283  1.0000</r>
       <r>   0.8902  1.0000</r>
       <r>   0.8902  1.0000</r>
       <r>   0.9891  1.0000</r>
       <r>   1.9351  1.0000</r>
       <r>   2.9428  1.0000</r>
       <r>   2.9428  1.0000</r>
       <r>   4.0986  0.0000</r>
       <r>   8.6959  0.0000</r>
       <r>   9.9871  0.0000</r>
       <r>   9.9871  0.0000</r>
       <r>  11.5417  0.0000</r>
      </set>
      <set comment="kpoint 48">
       <r>  -1.6899  1.0000</r>
       <r>  -1.6899  1.0000</r>
       <r>  -1.3935  1.0000</r>
       <r>  -1.3935  1.0000</r>
       <r>  -0.7120  1.0000</r>
       <r>  -0.7120  1.0000</r>
       <r>  -0.6777  1.0000</r>
       <r>  -0.6777  1.0000</r>
       <r>  -0.4142  1.0000</r>
       <r>  -0.4142  1.0000</r>
       <r>  -0.3699  1.0000</r>
       <r>  -0.3699  1.0000</r>
       <r>   0.1416  1.0000</r>
       <r>   0.1416  1.0000</r>
       <r>   0.2417  1.0000</r>
       <r>   0.2417  1.0000</r>
       <r>   0.6774  1.0000</r>
       <r>   0.6774  1.0000</r>
       <r>   0.9019  1.0000</r>
       <r>   0.9019  1.0000</r>
       <r>   2.3798  1.0000</r>
       <r>   2.3798  1.0000</r>
       <r>   3.4827  0.0000</r>
       <r>   3.4827  0.0000</r>
       <r>   9.2891  0.0000</r>
       <r>   9.2891  0.0000</r>
       <r>  10.7170  0.0000</r>
       <r>  10.7170  0.0000</r>
      </set>
      <set comment="kpoint 49">
       <r>  -1.5323  1.0000</r>
       <r>  -1.5323  1.0000</r>
       <r>  -1.5323  1.0000</r>
       <r>  -1.5323  1.0000</r>
       <r>  -0.6601  1.0000</r>
       <r>  -0.6601  1.0000</r>
       <r>  -0.6601  1.0000</r>
       <r>  -0.6601  1.0000</r>
       <r>  -0.3418  1.0000</r>
       <r>  -0.3418  1.0000</r>
       <r>  -0.3418  1.0000</r>
       <r>  -0.3418  1.0000</r>
       <r>   0.1318  1.0000</r>
       <r>   0.1318  1.0000</r>
       <r>   0.1318  1.0000</r>
       <r>   0.1318  1.0000</r>
       <r>   0.7476  1.0000</r>
       <r>   0.7476  1.0000</r>
       <r>   0.7476  1.0000</r>
       <r>   0.7476  1.0000</r>
       <r>   2.8807  1.0000</r>
       <r>   2.8807  1.0000</r>
       <r>   2.8807  1.0000</r>
       <r>   2.8807  1.0000</r>
       <r>   9.9492  0.0000</r>
       <r>   9.9492  0.0000</r>
       <r>   9.9492  0.0000</r>
       <r>   9.9492  0.0000</r>
      </set>
      <set comment="kpoint 50">
       <r>  -3.7348  1.0000</r>
       <r>  -1.7704  1.0000</r>
       <r>  -1.7704  1.0000</r>
       <r>  -1.7704  1.0000</r>
       <r>  -1.4560  1.0000</r>
       <r>  -1.4560  1.0000</r>
       <r>  -1.4560  1.0000</r>
       <r>  -0.5539  1.0000</r>
       <r>  -0.2488  1.0000</r>
       <r>  -0.2488  1.0000</r>
       <r>   0.5575  1.0000</r>
       <r>   0.5575  1.0000</r>
       <r>   0.5575  1.0000</r>
       <r>   0.5925  1.0000</r>
       <r>   0.5925  1.0000</r>
       <r>   0.9147  1.0000</r>
       <r>   0.9147  1.0000</r>
       <r>   0.9147  1.0000</r>
       <r>   1.5433  1.0000</r>
       <r>   1.5433  1.0000</r>
       <r>   1.5433  1.0000</r>
       <r>   4.3142  0.0000</r>
       <r>   4.3142  0.0000</r>
       <r>   4.3142  0.0000</r>
       <r>   9.0892  0.0000</r>
       <r>   9.0892  0.0000</r>
       <r>   9.0892  0.0000</r>
       <r>  11.8350  0.0000</r>
      </set>
      <set comment="kpoint 51">
       <r>  -3.4459  1.0000</r>
       <r>  -1.7251  1.0000</r>
       <r>  -1.6684  1.0000</r>
       <r>  -1.6684  1.0000</r>
       <r>  -1.3461  1.0000</r>
       <r>  -1.2608  1.0000</r>
       <r>  -1.2608  1.0000</r>
       <r>  -0.5972  1.0000</r>
       <r>  -0.2031  1.0000</r>
       <r>  -0.1973  1.0000</r>
       <r>   0.2256  1.0000</r>
       <r>   0.2256  1.0000</r>
       <r>   0.2586  1.0000</r>
       <r>   0.5325  1.0000</r>
       <r>   0.7137  1.0000</r>
       <r>   0.7268  1.0000</r>
       <r>   0.7944  1.0000</r>
       <r>   0.7944  1.0000</r>
       <r>   1.5054  1.0000</r>
       <r>   1.5054  1.0000</r>
       <r>   1.5116  1.0000</r>
       <r>   3.2762  1.0000</r>
       <r>   4.7790  0.0000</r>
       <r>   4.7790  0.0000</r>
       <r>   8.4754  0.0000</r>
       <r>   8.4754  0.0000</r>
       <r>   9.9748  0.0000</r>
       <r>  11.7194  0.0000</r>
      </set>
      <set comment="kpoint 52">
       <r>  -3.0646  1.0000</r>
       <r>  -1.7263  1.0000</r>
       <r>  -1.5131  1.0000</r>
       <r>  -1.5131  1.0000</r>
       <r>  -1.2080  1.0000</r>
       <r>  -1.0582  1.0000</r>
       <r>  -1.0582  1.0000</r>
       <r>  -0.6893  1.0000</r>
       <r>  -0.1723  1.0000</r>
       <r>  -0.1150  1.0000</r>
       <r>  -0.1150  1.0000</r>
       <r>  -0.1146  1.0000</r>
       <r>  -0.0603  1.0000</r>
       <r>   0.5253  1.0000</r>
       <r>   0.5547  1.0000</r>
       <r>   0.6754  1.0000</r>
       <r>   0.6754  1.0000</r>
       <r>   0.8616  1.0000</r>
       <r>   1.4363  1.0000</r>
       <r>   1.4508  1.0000</r>
       <r>   1.4508  1.0000</r>
       <r>   2.3907  1.0000</r>
       <r>   5.2677  0.0000</r>
       <r>   5.2677  0.0000</r>
       <r>   7.8631  0.0000</r>
       <r>   7.8631  0.0000</r>
       <r>  10.8105  0.0000</r>
       <r>  11.7472  0.0000</r>
      </set>
      <set comment="kpoint 53">
       <r>  -2.6241  1.0000</r>
       <r>  -1.8621  1.0000</r>
       <r>  -1.3141  1.0000</r>
       <r>  -1.3141  1.0000</r>
       <r>  -1.0655  1.0000</r>
       <r>  -0.9581  1.0000</r>
       <r>  -0.9581  1.0000</r>
       <r>  -0.8070  1.0000</r>
       <r>  -0.3445  1.0000</r>
       <r>  -0.3445  1.0000</r>
       <r>  -0.2759  1.0000</r>
       <r>  -0.2263  1.0000</r>
       <r>   0.0021  1.0000</r>
       <r>   0.3290  1.0000</r>
       <r>   0.5486  1.0000</r>
       <r>   0.5486  1.0000</r>
       <r>   0.7550  1.0000</r>
       <r>   1.0216  1.0000</r>
       <r>   1.3222  1.0000</r>
       <r>   1.4090  1.0000</r>
       <r>   1.4090  1.0000</r>
       <r>   1.6777  1.0000</r>
       <r>   5.7034  0.0000</r>
       <r>   5.7034  0.0000</r>
       <r>   7.3551  0.0000</r>
       <r>   7.3551  0.0000</r>
       <r>  11.6578  0.0000</r>
       <r>  11.8339  0.0000</r>
      </set>
      <set comment="kpoint 54">
       <r>  -2.1878  1.0000</r>
       <r>  -2.1878  1.0000</r>
       <r>  -1.1372  1.0000</r>
       <r>  -1.1372  1.0000</r>
       <r>  -1.0435  1.0000</r>
       <r>  -1.0435  1.0000</r>
       <r>  -0.9334  1.0000</r>
       <r>  -0.9334  1.0000</r>
       <r>  -0.3916  1.0000</r>
       <r>  -0.3916  1.0000</r>
       <r>  -0.3046  1.0000</r>
       <r>  -0.3046  1.0000</r>
       <r>   0.1516  1.0000</r>
       <r>   0.1516  1.0000</r>
       <r>   0.4853  1.0000</r>
       <r>   0.4853  1.0000</r>
       <r>   1.1346  1.0000</r>
       <r>   1.1346  1.0000</r>
       <r>   1.1798  1.0000</r>
       <r>   1.1798  1.0000</r>
       <r>   1.3941  1.0000</r>
       <r>   1.3941  1.0000</r>
       <r>   5.9163  0.0000</r>
       <r>   5.9163  0.0000</r>
       <r>   7.1194  0.0000</r>
       <r>   7.1194  0.0000</r>
       <r>  11.8828  0.0000</r>
       <r>  11.8828  0.0000</r>
      </set>
      <set comment="kpoint 55">
       <r>  -3.1887  1.0000</r>
       <r>  -1.6459  1.0000</r>
       <r>  -1.6459  1.0000</r>
       <r>  -1.6262  1.0000</r>
       <r>  -1.1420  1.0000</r>
       <r>  -1.1420  1.0000</r>
       <r>  -1.0714  1.0000</r>
       <r>  -0.5682  1.0000</r>
       <r>  -0.1979  1.0000</r>
       <r>  -0.1923  1.0000</r>
       <r>  -0.0249  1.0000</r>
       <r>  -0.0249  1.0000</r>
       <r>   0.0801  1.0000</r>
       <r>   0.5659  1.0000</r>
       <r>   0.6094  1.0000</r>
       <r>   0.6140  1.0000</r>
       <r>   0.6140  1.0000</r>
       <r>   0.7935  1.0000</r>
       <r>   1.4705  1.0000</r>
       <r>   1.4890  1.0000</r>
       <r>   1.4890  1.0000</r>
       <r>   3.7275  0.0000</r>
       <r>   3.7275  0.0000</r>
       <r>   5.1827  0.0000</r>
       <r>   7.6593  0.0000</r>
       <r>   9.1139  0.0000</r>
       <r>   9.1139  0.0000</r>
       <r>  11.8032  0.0000</r>
      </set>
      <set comment="kpoint 56">
       <r>  -2.8548  1.0000</r>
       <r>  -1.6769  1.0000</r>
       <r>  -1.5368  1.0000</r>
       <r>  -1.5245  1.0000</r>
       <r>  -0.9868  1.0000</r>
       <r>  -0.9458  1.0000</r>
       <r>  -0.9100  1.0000</r>
       <r>  -0.5865  1.0000</r>
       <r>  -0.2794  1.0000</r>
       <r>  -0.2684  1.0000</r>
       <r>  -0.2021  1.0000</r>
       <r>  -0.1478  1.0000</r>
       <r>  -0.1021  1.0000</r>
       <r>   0.4152  1.0000</r>
       <r>   0.4830  1.0000</r>
       <r>   0.5268  1.0000</r>
       <r>   0.6075  1.0000</r>
       <r>   0.9719  1.0000</r>
       <r>   1.4065  1.0000</r>
       <r>   1.4223  1.0000</r>
       <r>   1.4226  1.0000</r>
       <r>   2.8038  1.0000</r>
       <r>   4.2317  0.0000</r>
       <r>   5.6031  0.0000</r>
       <r>   6.9347  0.0000</r>
       <r>   8.3108  0.0000</r>
       <r>   9.8181  0.0000</r>
       <r>  12.0130  0.0000</r>
      </set>
      <set comment="kpoint 57">
       <r>  -2.4773  1.0000</r>
       <r>  -1.8234  1.0000</r>
       <r>  -1.4148  1.0000</r>
       <r>  -1.3858  1.0000</r>
       <r>  -0.8963  1.0000</r>
       <r>  -0.8752  1.0000</r>
       <r>  -0.8266  1.0000</r>
       <r>  -0.6414  1.0000</r>
       <r>  -0.4123  1.0000</r>
       <r>  -0.3395  1.0000</r>
       <r>  -0.2757  1.0000</r>
       <r>  -0.1995  1.0000</r>
       <r>  -0.0630  1.0000</r>
       <r>   0.2256  1.0000</r>
       <r>   0.3870  1.0000</r>
       <r>   0.4305  1.0000</r>
       <r>   0.7944  1.0000</r>
       <r>   1.1944  1.0000</r>
       <r>   1.2926  1.0000</r>
       <r>   1.3474  1.0000</r>
       <r>   1.3564  1.0000</r>
       <r>   2.0499  1.0000</r>
       <r>   4.7598  0.0000</r>
       <r>   5.7334  0.0000</r>
       <r>   6.6250  0.0000</r>
       <r>   7.6029  0.0000</r>
       <r>  10.5956  0.0000</r>
       <r>  12.3287  0.0000</r>
      </set>
      <set comment="kpoint 58">
       <r>  -2.1089  1.0000</r>
       <r>  -2.1089  1.0000</r>
       <r>  -1.3230  1.0000</r>
       <r>  -1.3230  1.0000</r>
       <r>  -0.9326  1.0000</r>
       <r>  -0.9326  1.0000</r>
       <r>  -0.7133  1.0000</r>
       <r>  -0.7133  1.0000</r>
       <r>  -0.3889  1.0000</r>
       <r>  -0.3889  1.0000</r>
       <r>  -0.2468  1.0000</r>
       <r>  -0.2468  1.0000</r>
       <r>   0.0629  1.0000</r>
       <r>   0.0629  1.0000</r>
       <r>   0.3594  1.0000</r>
       <r>   0.3594  1.0000</r>
       <r>   1.0751  1.0000</r>
       <r>   1.0751  1.0000</r>
       <r>   1.3265  1.0000</r>
       <r>   1.3265  1.0000</r>
       <r>   1.5131  1.0000</r>
       <r>   1.5131  1.0000</r>
       <r>   5.2967  0.0000</r>
       <r>   5.2967  0.0000</r>
       <r>   7.0046  0.0000</r>
       <r>   7.0046  0.0000</r>
       <r>  11.4363  0.0000</r>
       <r>  11.4363  0.0000</r>
      </set>
      <set comment="kpoint 59">
       <r>  -2.5900  1.0000</r>
       <r>  -1.6030  1.0000</r>
       <r>  -1.6030  1.0000</r>
       <r>  -1.5308  1.0000</r>
       <r>  -0.8058  1.0000</r>
       <r>  -0.7865  1.0000</r>
       <r>  -0.7865  1.0000</r>
       <r>  -0.5049  1.0000</r>
       <r>  -0.4098  1.0000</r>
       <r>  -0.4098  1.0000</r>
       <r>  -0.2090  1.0000</r>
       <r>  -0.1555  1.0000</r>
       <r>  -0.0877  1.0000</r>
       <r>   0.3258  1.0000</r>
       <r>   0.3438  1.0000</r>
       <r>   0.3438  1.0000</r>
       <r>   0.6196  1.0000</r>
       <r>   1.2029  1.0000</r>
       <r>   1.3327  1.0000</r>
       <r>   1.3471  1.0000</r>
       <r>   1.3471  1.0000</r>
       <r>   3.2869  1.0000</r>
       <r>   3.2869  1.0000</r>
       <r>   5.6582  0.0000</r>
       <r>   6.4584  0.0000</r>
       <r>   8.9126  0.0000</r>
       <r>   8.9126  0.0000</r>
       <r>  12.2567  0.0000</r>
      </set>
      <set comment="kpoint 60">
       <r>  -2.2984  1.0000</r>
       <r>  -1.7703  1.0000</r>
       <r>  -1.5301  1.0000</r>
       <r>  -1.5071  1.0000</r>
       <r>  -0.7860  1.0000</r>
       <r>  -0.7748  1.0000</r>
       <r>  -0.5998  1.0000</r>
       <r>  -0.4838  1.0000</r>
       <r>  -0.4739  1.0000</r>
       <r>  -0.3008  1.0000</r>
       <r>  -0.2633  1.0000</r>
       <r>  -0.1042  1.0000</r>
       <r>  -0.0639  1.0000</r>
       <r>   0.1619  1.0000</r>
       <r>   0.2255  1.0000</r>
       <r>   0.2755  1.0000</r>
       <r>   0.7428  1.0000</r>
       <r>   1.1998  1.0000</r>
       <r>   1.2569  1.0000</r>
       <r>   1.2653  1.0000</r>
       <r>   1.5040  1.0000</r>
       <r>   2.5010  1.0000</r>
       <r>   3.8158  0.0000</r>
       <r>   5.0440  0.0000</r>
       <r>   6.8336  0.0000</r>
       <r>   8.1136  0.0000</r>
       <r>   9.6262  0.0000</r>
       <r>  11.3063  0.0000</r>
      </set>
      <set comment="kpoint 61">
       <r>  -2.0132  1.0000</r>
       <r>  -2.0132  1.0000</r>
       <r>  -1.4955  1.0000</r>
       <r>  -1.4955  1.0000</r>
       <r>  -0.8025  1.0000</r>
       <r>  -0.8025  1.0000</r>
       <r>  -0.4940  1.0000</r>
       <r>  -0.4940  1.0000</r>
       <r>  -0.4035  1.0000</r>
       <r>  -0.4035  1.0000</r>
       <r>  -0.1214  1.0000</r>
       <r>  -0.1214  1.0000</r>
       <r>   0.0070  1.0000</r>
       <r>   0.0070  1.0000</r>
       <r>   0.2135  1.0000</r>
       <r>   0.2135  1.0000</r>
       <r>   0.9765  1.0000</r>
       <r>   0.9765  1.0000</r>
       <r>   1.2262  1.0000</r>
       <r>   1.2262  1.0000</r>
       <r>   1.9126  1.0000</r>
[...]
       <r>   2.9095  1.0000</r>
       <r>   2.9095  1.0000</r>
       <r>   2.9095  1.0000</r>
       <r>   8.7130  0.0000</r>
       <r>   8.7130  0.0000</r>
       <r>   8.7130  0.0000</r>
       <r>   8.7130  0.0000</r>
      </set>
      <set comment="kpoint 65">
       <r>  -2.9803  1.0000</r>
       <r>  -1.6457  1.0000</r>
       <r>  -1.6457  1.0000</r>
       <r>  -1.6457  1.0000</r>
       <r>  -0.9520  1.0000</r>
       <r>  -0.9520  1.0000</r>
       <r>  -0.9520  1.0000</r>
       <r>  -0.4454  1.0000</r>
       <r>  -0.2223  1.0000</r>
       <r>  -0.2223  1.0000</r>
       <r>  -0.0953  1.0000</r>
       <r>  -0.0953  1.0000</r>
       <r>  -0.0953  1.0000</r>
       <r>   0.4174  1.0000</r>
       <r>   0.4174  1.0000</r>
       <r>   0.4174  1.0000</r>
       <r>   0.7484  1.0000</r>
       <r>   0.7484  1.0000</r>
       <r>   1.5043  1.0000</r>
       <r>   1.5043  1.0000</r>
       <r>   1.5043  1.0000</r>
       <r>   4.1154  0.0000</r>
       <r>   4.1154  0.0000</r>
       <r>   4.1154  0.0000</r>
       <r>   8.1301  0.0000</r>
       <r>   8.1301  0.0000</r>
       <r>   8.1301  0.0000</r>
       <r>  13.1968  0.0000</r>
      </set>
      <set comment="kpoint 66">
       <r>  -2.7160  1.0000</r>
       <r>  -1.7266  1.0000</r>
       <r>  -1.6110  1.0000</r>
       <r>  -1.6110  1.0000</r>
       <r>  -0.8240  1.0000</r>
       <r>  -0.8240  1.0000</r>
       <r>  -0.7887  1.0000</r>
       <r>  -0.3723  1.0000</r>
       <r>  -0.2537  1.0000</r>
       <r>  -0.2266  1.0000</r>
       <r>  -0.2153  1.0000</r>
       <r>  -0.1433  1.0000</r>
       <r>  -0.1433  1.0000</r>
       <r>   0.2290  1.0000</r>
       <r>   0.3045  1.0000</r>
       <r>   0.3045  1.0000</r>
       <r>   0.7929  1.0000</r>
       <r>   0.9419  1.0000</r>
       <r>   1.4568  1.0000</r>
       <r>   1.4568  1.0000</r>
       <r>   1.4860  1.0000</r>
       <r>   3.1225  1.0000</r>
       <r>   4.5863  0.0000</r>
       <r>   4.5863  0.0000</r>
       <r>   7.2306  0.0000</r>
       <r>   7.2306  0.0000</r>
       <r>   8.7590  0.0000</r>
       <r>  12.1740  0.0000</r>
      </set>
      <set comment="kpoint 67">
       <r>  -2.4232  1.0000</r>
       <r>  -1.8926  1.0000</r>
       <r>  -1.5624  1.0000</r>
       <r>  -1.5624  1.0000</r>
       <r>  -0.8191  1.0000</r>
       <r>  -0.8191  1.0000</r>
       <r>  -0.5992  1.0000</r>
       <r>  -0.3794  1.0000</r>
       <r>  -0.3518  1.0000</r>
       <r>  -0.2682  1.0000</r>
       <r>  -0.1652  1.0000</r>
       <r>  -0.0796  1.0000</r>
       <r>  -0.0796  1.0000</r>
       <r>   0.0622  1.0000</r>
       <r>   0.2290  1.0000</r>
       <r>   0.2290  1.0000</r>
       <r>   1.0530  1.0000</r>
       <r>   1.1275  1.0000</r>
       <r>   1.3903  1.0000</r>
       <r>   1.3903  1.0000</r>
       <r>   1.4123  1.0000</r>
       <r>   2.2588  1.0000</r>
       <r>   5.1169  0.0000</r>
       <r>   5.1169  0.0000</r>
       <r>   6.4431  0.0000</r>
       <r>   6.4431  0.0000</r>
       <r>   9.4986  0.0000</r>
       <r>  11.2155  0.0000</r>
      </set>
      <set comment="kpoint 68">
       <r>  -2.1359  1.0000</r>
       <r>  -2.1359  1.0000</r>
       <r>  -1.5378  1.0000</r>
       <r>  -1.5378  1.0000</r>
       <r>  -0.8430  1.0000</r>
       <r>  -0.8430  1.0000</r>
       <r>  -0.4196  1.0000</r>
       <r>  -0.4196  1.0000</r>
       <r>  -0.3764  1.0000</r>
       <r>  -0.3764  1.0000</r>
       <r>  -0.0716  1.0000</r>
       <r>  -0.0716  1.0000</r>
       <r>  -0.0085  1.0000</r>
       <r>  -0.0085  1.0000</r>
       <r>   0.1815  1.0000</r>
       <r>   0.1815  1.0000</r>
       <r>   1.2890  1.0000</r>
       <r>   1.2890  1.0000</r>
       <r>   1.3585  1.0000</r>
       <r>   1.3585  1.0000</r>
       <r>   1.5568  1.0000</r>
       <r>   1.5568  1.0000</r>
       <r>   5.5999  0.0000</r>
       <r>   5.5999  0.0000</r>
       <r>   5.8747  0.0000</r>
       <r>   5.8747  0.0000</r>
       <r>  10.3221  0.0000</r>
       <r>  10.3221  0.0000</r>
      </set>
      <set comment="kpoint 69">
       <r>  -2.5406  1.0000</r>
       <r>  -1.7459  1.0000</r>
       <r>  -1.7459  1.0000</r>
       <r>  -1.6702  1.0000</r>
       <r>  -0.7556  1.0000</r>
       <r>  -0.7013  1.0000</r>
       <r>  -0.7013  1.0000</r>
       <r>  -0.2965  1.0000</r>
       <r>  -0.2558  1.0000</r>
       <r>  -0.1473  1.0000</r>
       <r>  -0.1473  1.0000</r>
       <r>  -0.0840  1.0000</r>
       <r>   0.0249  1.0000</r>
       <r>   0.1315  1.0000</r>
       <r>   0.1315  1.0000</r>
       <r>   0.1391  1.0000</r>
       <r>   0.8428  1.0000</r>
       <r>   1.1142  1.0000</r>
       <r>   1.4286  1.0000</r>
       <r>   1.4549  1.0000</r>
       <r>   1.4549  1.0000</r>
       <r>   3.5508  0.0000</r>
       <r>   3.5508  0.0000</r>
       <r>   5.0394  0.0000</r>
       <r>   6.2547  0.0000</r>
       <r>   7.7962  0.0000</r>
       <r>   7.7962  0.0000</r>
       <r>  11.1373  0.0000</r>
      </set>
      <set comment="kpoint 70">
       <r>  -2.3418  1.0000</r>
       <r>  -1.9273  1.0000</r>
       <r>  -1.7440  1.0000</r>
       <r>  -1.7073  1.0000</r>
       <r>  -0.7360  1.0000</r>
       <r>  -0.7129  1.0000</r>
       <r>  -0.5670  1.0000</r>
       <r>  -0.3568  1.0000</r>
       <r>  -0.2366  1.0000</r>
       <r>  -0.1218  1.0000</r>
       <r>  -0.0211  1.0000</r>
       <r>   0.0016  1.0000</r>
       <r>   0.0422  1.0000</r>
       <r>   0.0430  1.0000</r>
       <r>   0.1424  1.0000</r>
       <r>   0.1751  1.0000</r>
       <r>   0.9978  1.0000</r>
       <r>   1.3686  1.0000</r>
       <r>   1.3834  1.0000</r>
       <r>   1.3855  1.0000</r>
       <r>   1.4040  1.0000</r>
       <r>   2.6323  1.0000</r>
       <r>   4.0682  0.0000</r>
       <r>   5.3960  0.0000</r>
       <r>   5.5888  0.0000</r>
       <r>   6.9478  0.0000</r>
       <r>   8.4962  0.0000</r>
       <r>  10.1767  0.0000</r>
      </set>
      <set comment="kpoint 71">
       <r>  -2.1324  1.0000</r>
       <r>  -2.1324  1.0000</r>
       <r>  -1.7302  1.0000</r>
       <r>  -1.7302  1.0000</r>
       <r>  -0.7314  1.0000</r>
       <r>  -0.7314  1.0000</r>
       <r>  -0.4485  1.0000</r>
       <r>  -0.4485  1.0000</r>
       <r>  -0.1718  1.0000</r>
       <r>  -0.1718  1.0000</r>
       <r>   0.0072  1.0000</r>
       <r>   0.0072  1.0000</r>
       <r>   0.0139  1.0000</r>
       <r>   0.0139  1.0000</r>
       <r>   0.2169  1.0000</r>
       <r>   0.2169  1.0000</r>
       <r>   1.2337  1.0000</r>
       <r>   1.2337  1.0000</r>
       <r>   1.3399  1.0000</r>
       <r>   1.3399  1.0000</r>
       <r>   1.8919  1.0000</r>
       <r>   1.8919  1.0000</r>
       <r>   4.6790  0.0000</r>
       <r>   4.6790  0.0000</r>
       <r>   6.2138  0.0000</r>
       <r>   6.2138  0.0000</r>
       <r>   9.2946  0.0000</r>
       <r>   9.2946  0.0000</r>
      </set>
      <set comment="kpoint 72">
       <r>  -2.2311  1.0000</r>
       <r>  -1.9261  1.0000</r>
       <r>  -1.9261  1.0000</r>
       <r>  -1.8165  1.0000</r>
       <r>  -0.6661  1.0000</r>
       <r>  -0.5913  1.0000</r>
       <r>  -0.5913  1.0000</r>
       <r>  -0.3957  1.0000</r>
       <r>  -0.2630  1.0000</r>
       <r>  -0.1226  1.0000</r>
       <r>  -0.1226  1.0000</r>
       <r>  -0.0756  1.0000</r>
       <r>   0.2424  1.0000</r>
       <r>   0.2424  1.0000</r>
       <r>   0.3245  1.0000</r>
       <r>   0.3582  1.0000</r>
       <r>   0.9843  1.0000</r>
       <r>   1.3024  1.0000</r>
       <r>   1.3025  1.0000</r>
       <r>   1.3025  1.0000</r>
       <r>   1.7988  1.0000</r>
       <r>   3.1258  1.0000</r>
       <r>   3.1258  1.0000</r>
       <r>   4.4950  0.0000</r>
       <r>   6.1549  0.0000</r>
       <r>   7.6045  0.0000</r>
       <r>   7.6045  0.0000</r>
       <r>   9.2263  0.0000</r>
      </set>
      <set comment="kpoint 73">
       <r>  -2.0914  1.0000</r>
       <r>  -2.0914  1.0000</r>
       <r>  -1.8893  1.0000</r>
       <r>  -1.8893  1.0000</r>
       <r>  -0.6207  1.0000</r>
       <r>  -0.6207  1.0000</r>
       <r>  -0.4792  1.0000</r>
       <r>  -0.4792  1.0000</r>
       <r>  -0.2189  1.0000</r>
       <r>  -0.2189  1.0000</r>
       <r>  -0.1288  1.0000</r>
       <r>  -0.1288  1.0000</r>
       <r>   0.3515  1.0000</r>
       <r>   0.3515  1.0000</r>
       <r>   0.4042  1.0000</r>
       <r>   0.4042  1.0000</r>
       <r>   1.1403  1.0000</r>
       <r>   1.1403  1.0000</r>
       <r>   1.2569  1.0000</r>
       <r>   1.2569  1.0000</r>
       <r>   2.3583  1.0000</r>
       <r>   2.3583  1.0000</r>
       <r>   3.7400  0.0000</r>
       <r>   3.7400  0.0000</r>
       <r>   6.8257  0.0000</r>
       <r>   6.8257  0.0000</r>
       <r>   8.3677  0.0000</r>
       <r>   8.3677  0.0000</r>
      </set>
      <set comment="kpoint 74">
       <r>  -2.0104  1.0000</r>
       <r>  -2.0104  1.0000</r>
       <r>  -2.0104  1.0000</r>
       <r>  -2.0104  1.0000</r>
       <r>  -0.5318  1.0000</r>
       <r>  -0.5318  1.0000</r>
       <r>  -0.5318  1.0000</r>
       <r>  -0.5318  1.0000</r>
       <r>  -0.2094  1.0000</r>
       <r>  -0.2094  1.0000</r>
       <r>  -0.2094  1.0000</r>
       <r>  -0.2094  1.0000</r>
       <r>   0.4951  1.0000</r>
       <r>   0.4951  1.0000</r>
       <r>   0.4951  1.0000</r>
       <r>   0.4951  1.0000</r>
       <r>   1.1464  1.0000</r>
       <r>   1.1464  1.0000</r>
       <r>   1.1464  1.0000</r>
       <r>   1.1464  1.0000</r>
       <r>   2.9643  1.0000</r>
       <r>   2.9643  1.0000</r>
       <r>   2.9643  1.0000</r>
       <r>   2.9643  1.0000</r>
       <r>   7.5447  0.0000</r>
       <r>   7.5447  0.0000</r>
       <r>   7.5447  0.0000</r>
       <r>   7.5447  0.0000</r>
      </set>
      <set comment="kpoint 75">
       <r>  -2.4612  1.0000</r>
       <r>  -1.8481  1.0000</r>
       <r>  -1.8481  1.0000</r>
       <r>  -1.8481  1.0000</r>
       <r>  -0.6616  1.0000</r>
       <r>  -0.6616  1.0000</r>
       <r>  -0.6616  1.0000</r>
       <r>  -0.3091  1.0000</r>
       <r>  -0.3091  1.0000</r>
       <r>  -0.0315  1.0000</r>
       <r>  -0.0315  1.0000</r>
       <r>  -0.0315  1.0000</r>
       <r>   0.1575  1.0000</r>
       <r>   0.1575  1.0000</r>
       <r>   0.1575  1.0000</r>
       <r>   0.3236  1.0000</r>
       <r>   1.0536  1.0000</r>
       <r>   1.0536  1.0000</r>
       <r>   1.4731  1.0000</r>
       <r>   1.4731  1.0000</r>
       <r>   1.4731  1.0000</r>
       <r>   3.9221  0.0000</r>
       <r>   3.9221  0.0000</r>
       <r>   3.9221  0.0000</r>
       <r>   6.7943  0.0000</r>
       <r>   6.7943  0.0000</r>
       <r>   6.7943  0.0000</r>
       <r>  10.0907  0.0000</r>
      </set>
      <set comment="kpoint 76">
       <r>  -2.3488  1.0000</r>
       <r>  -2.0333  1.0000</r>
       <r>  -1.9093  1.0000</r>
       <r>  -1.9093  1.0000</r>
       <r>  -0.6457  1.0000</r>
       <r>  -0.6457  1.0000</r>
       <r>  -0.5515  1.0000</r>
       <r>  -0.3659  1.0000</r>
       <r>  -0.3122  1.0000</r>
       <r>  -0.1693  1.0000</r>
       <r>  -0.1198  1.0000</r>
       <r>  -0.1198  1.0000</r>
       <r>   0.3061  1.0000</r>
       <r>   0.4070  1.0000</r>
       <r>   0.4070  1.0000</r>
       <r>   0.5458  1.0000</r>
       <r>   1.2355  1.0000</r>
       <r>   1.3135  1.0000</r>
       <r>   1.4300  1.0000</r>
       <r>   1.4300  1.0000</r>
       <r>   1.4550  1.0000</r>
       <r>   2.8996  1.0000</r>
       <r>   4.3777  0.0000</r>
       <r>   4.3777  0.0000</r>
       <r>   5.9510  0.0000</r>
       <r>   5.9510  0.0000</r>
       <r>   7.4729  0.0000</r>
       <r>   9.1285  0.0000</r>
      </set>
      <set comment="kpoint 77">
       <r>  -2.2043  1.0000</r>
       <r>  -2.2043  1.0000</r>
       <r>  -1.9296  1.0000</r>
       <r>  -1.9296  1.0000</r>
       <r>  -0.6425  1.0000</r>
       <r>  -0.6425  1.0000</r>
       <r>  -0.4486  1.0000</r>
       <r>  -0.4486  1.0000</r>
       <r>  -0.2648  1.0000</r>
       <r>  -0.2648  1.0000</r>
       <r>  -0.1482  1.0000</r>
       <r>  -0.1482  1.0000</r>
       <r>   0.4566  1.0000</r>
       <r>   0.4566  1.0000</r>
       <r>   0.5133  1.0000</r>
       <r>   0.5133  1.0000</r>
       <r>   1.3734  1.0000</r>
       <r>   1.3734  1.0000</r>
       <r>   1.3965  1.0000</r>
       <r>   1.3965  1.0000</r>
       <r>   2.0098  1.0000</r>
       <r>   2.0098  1.0000</r>
       <r>   4.7185  0.0000</r>
       <r>   4.7185  0.0000</r>
       <r>   5.4789  0.0000</r>
       <r>   5.4789  0.0000</r>
       <r>   8.2546  0.0000</r>
       <r>   8.2546  0.0000</r>
      </set>
      <set comment="kpoint 78">
       <r>  -2.3093  1.0000</r>
       <r>  -2.0850  1.0000</r>
       <r>  -2.0850  1.0000</r>
       <r>  -2.0225  1.0000</r>
       <r>  -0.5885  1.0000</r>
       <r>  -0.5456  1.0000</r>
       <r>  -0.5456  1.0000</r>
       <r>  -0.3860  1.0000</r>
       <r>  -0.3583  1.0000</r>
       <r>  -0.2466  1.0000</r>
       <r>  -0.2466  1.0000</r>
       <r>  -0.2253  1.0000</r>
       <r>   0.6301  1.0000</r>
       <r>   0.6301  1.0000</r>
       <r>   0.6707  1.0000</r>
       <r>   0.9311  1.0000</r>
       <r>   1.1811  1.0000</r>
       <r>   1.4084  1.0000</r>
       <r>   1.4225  1.0000</r>
       <r>   1.4225  1.0000</r>
       <r>   1.7003  1.0000</r>
       <r>   3.3247  0.6964</r>
       <r>   3.3247  0.6964</r>
       <r>   4.4318  0.0000</r>
       <r>   5.4658  0.0000</r>
       <r>   6.5838  0.0000</r>
       <r>   6.5838  0.0000</r>
       <r>   8.1772  0.0000</r>
      </set>
      <set comment="kpoint 79">
       <r>  -2.2207  1.0000</r>
       <r>  -2.2207  1.0000</r>
       <r>  -2.0814  1.0000</r>
       <r>  -2.0814  1.0000</r>
       <r>  -0.5546  1.0000</r>
       <r>  -0.5546  1.0000</r>
       <r>  -0.4545  1.0000</r>
       <r>  -0.4545  1.0000</r>
       <r>  -0.3287  1.0000</r>
       <r>  -0.3287  1.0000</r>
       <r>  -0.2686  1.0000</r>
       <r>  -0.2686  1.0000</r>
       <r>   0.7800  1.0000</r>
       <r>   0.7800  1.0000</r>
       <r>   0.8346  1.0000</r>
       <r>   0.8346  1.0000</r>
       <r>   1.3317  1.0000</r>
       <r>   1.3317  1.0000</r>
       <r>   1.3791  1.0000</r>
       <r>   1.3791  1.0000</r>
       <r>   2.4093  1.0000</r>
       <r>   2.4093  1.0000</r>
       <r>   3.8895  0.0000</r>
       <r>   3.8895  0.0000</r>
       <r>   5.8616  0.0000</r>
       <r>   5.8616  0.0000</r>
       <r>   7.3278  0.0000</r>
       <r>   7.3278  0.0000</r>
      </set>
      <set comment="kpoint 80">
       <r>  -2.1794  1.0000</r>
       <r>  -2.1794  1.0000</r>
       <r>  -2.1794  1.0000</r>
       <r>  -2.1794  1.0000</r>
       <r>  -0.4850  1.0000</r>
       <r>  -0.4850  1.0000</r>
       <r>  -0.4850  1.0000</r>
       <r>  -0.4850  1.0000</r>
       <r>  -0.3349  1.0000</r>
       <r>  -0.3349  1.0000</r>
       <r>  -0.3349  1.0000</r>
       <r>  -0.3349  1.0000</r>
       <r>   0.9552  1.0000</r>
       <r>   0.9552  1.0000</r>
       <r>   0.9552  1.0000</r>
       <r>   0.9552  1.0000</r>
       <r>   1.3055  1.0000</r>
       <r>   1.3055  1.0000</r>
       <r>   1.3055  1.0000</r>
       <r>   1.3055  1.0000</r>
       <r>   3.0577  1.0000</r>
       <r>   3.0577  1.0000</r>
       <r>   3.0577  1.0000</r>
       <r>   3.0577  1.0000</r>
       <r>   6.5250  0.0000</r>
       <r>   6.5250  0.0000</r>
       <r>   6.5250  0.0000</r>
       <r>   6.5250  0.0000</r>
      </set>
      <set comment="kpoint 81">
       <r>  -2.3283  1.0000</r>
       <r>  -2.1819  1.0000</r>
       <r>  -2.1819  1.0000</r>
       <r>  -2.1819  1.0000</r>
       <r>  -0.5097  1.0000</r>
       <r>  -0.5097  1.0000</r>
       <r>  -0.5097  1.0000</r>
       <r>  -0.4028  1.0000</r>
       <r>  -0.4028  1.0000</r>
       <r>  -0.3340  1.0000</r>
       <r>  -0.3340  1.0000</r>
       <r>  -0.3340  1.0000</r>
       <r>   0.9546  1.0000</r>
       <r>   0.9546  1.0000</r>
       <r>   0.9546  1.0000</r>
       <r>   1.3332  1.0000</r>
       <r>   1.3332  1.0000</r>
       <r>   1.4521  1.0000</r>
       <r>   1.4521  1.0000</r>
       <r>   1.4521  1.0000</r>
       <r>   1.8808  1.0000</r>
       <r>   3.5877  0.0000</r>
       <r>   3.5877  0.0000</r>
       <r>   3.5877  0.0000</r>
       <r>   5.7899  0.0000</r>
       <r>   5.7899  0.0000</r>
       <r>   5.7899  0.0000</r>
       <r>   7.2428  0.0000</r>
      </set>
      <set comment="kpoint 82">
       <r>  -2.2854  1.0000</r>
       <r>  -2.2854  1.0000</r>
       <r>  -2.2145  1.0000</r>
       <r>  -2.2145  1.0000</r>
       <r>  -0.4946  1.0000</r>
       <r>  -0.4946  1.0000</r>
       <r>  -0.4449  1.0000</r>
       <r>  -0.4449  1.0000</r>
       <r>  -0.3944  1.0000</r>
       <r>  -0.3944  1.0000</r>
       <r>  -0.3662  1.0000</r>
       <r>  -0.3662  1.0000</r>
       <r>   1.1010  1.0000</r>
       <r>   1.1010  1.0000</r>
       <r>   1.1958  1.0000</r>
       <r>   1.1958  1.0000</r>
       <r>   1.4265  1.0000</r>
       <r>   1.4265  1.0000</r>
       <r>   1.4318  1.0000</r>
       <r>   1.4318  1.0000</r>
       <r>   2.6624  1.0000</r>
       <r>   2.6624  1.0000</r>
       <r>   3.7469  0.0000</r>
       <r>   3.7469  0.0000</r>
       <r>   5.4467  0.0000</r>
       <r>   5.4467  0.0000</r>
       <r>   6.4383  0.0000</r>
       <r>   6.4383  0.0000</r>
      </set>
      <set comment="kpoint 83">
       <r>  -2.2833  1.0000</r>
       <r>  -2.2833  1.0000</r>
       <r>  -2.2833  1.0000</r>
       <r>  -2.2833  1.0000</r>
       <r>  -0.4520  1.0000</r>
       <r>  -0.4520  1.0000</r>
       <r>  -0.4520  1.0000</r>
       <r>  -0.4520  1.0000</r>
       <r>  -0.4133  1.0000</r>
       <r>  -0.4133  1.0000</r>
       <r>  -0.4133  1.0000</r>
       <r>  -0.4133  1.0000</r>
       <r>   1.3094  1.0000</r>
       <r>   1.3094  1.0000</r>
       <r>   1.3094  1.0000</r>
       <r>   1.3094  1.0000</r>
       <r>   1.4088  1.0000</r>
       <r>   1.4088  1.0000</r>
       <r>   1.4088  1.0000</r>
       <r>   1.4088  1.0000</r>
       <r>   3.1915  1.0000</r>
       <r>   3.1915  1.0000</r>
       <r>   3.1915  1.0000</r>
       <r>   3.1915  1.0000</r>
       <r>   5.7553  0.0000</r>
       <r>   5.7553  0.0000</r>
       <r>   5.7553  0.0000</r>
       <r>   5.7553  0.0000</r>
      </set>
      <set comment="kpoint 84">
       <r>  -2.3182  1.0000</r>
       <r>  -2.3182  1.0000</r>
       <r>  -2.3182  1.0000</r>
       <r>  -2.3182  1.0000</r>
       <r>  -0.4400  1.0000</r>
       <r>  -0.4400  1.0000</r>
       <r>  -0.4400  1.0000</r>
       <r>  -0.4400  1.0000</r>
       <r>  -0.4400  1.0000</r>
       <r>  -0.4400  1.0000</r>
       <r>  -0.4400  1.0000</r>
       <r>  -0.4400  1.0000</r>
       <r>   1.4446  1.0000</r>
       <r>   1.4446  1.0000</r>
       <r>   1.4446  1.0000</r>
       <r>   1.4446  1.0000</r>
       <r>   1.4446  1.0000</r>
       <r>   1.4446  1.0000</r>
       <r>   1.4446  1.0000</r>
       <r>   1.4446  1.0000</r>
       <r>   3.2752  1.0000</r>
       <r>   3.2752  1.0000</r>
       <r>   3.2752  1.0000</r>
       <r>   3.2752  1.0000</r>
       <r>   5.4423  0.0000</r>
       <r>   5.4423  0.0000</r>
       <r>   5.4423  0.0000</r>
       <r>   5.4423  0.0000</r>
      </set>
     </set>
    </set>
   </array>
  </eigenvalues>
 </calculation>
 <structure name="finalpos" >
  <crystal>
   <varray name="basis" >
    <v>       4.38149450      0.00000000      0.00000000</v>
    <v>       0.00000000      4.38149450      0.00000000</v>
    <v>       0.00000000      0.00000000      4.38149450</v>
   </varray>
   <i name="volume">     84.11371446</i>
   <varray name="rec_basis" >
    <v>       0.22823263      0.00000000      0.00000000</v>
    <v>       0.00000000      0.22823263      0.00000000</v>
    <v>       0.00000000      0.00000000      0.22823263</v>
   </varray>
  </crystal>
  <varray name="positions" >
   <v>       0.00000000      0.00000000      0.00000000</v>
   <v>       0.50000000      0.50000000      0.00000000</v>
   <v>       0.50000000      0.00000000      0.50000000</v>
   <v>       0.00000000      0.50000000      0.50000000</v>
  </varray>
 </structure>
</modeling>
