   4   4   0   0
  0.1238582E+02  0.3672780E-09  0.3672780E-09  0.3672780E-09  0.5000000E-15
  1.000000000000000E-004
  CAR 
 unknown system                          
     13.74901174     -6.51996465  301      3.42009901      1.00000000
     -6.520  0.0000E+00  0.0000E+00
     -6.452  0.0000E+00  0.0000E+00
     -6.385  0.0000E+00  0.0000E+00
     -6.317  0.0000E+00  0.0000E+00
     -6.250  0.0000E+00  0.0000E+00
     -6.182  0.0000E+00  0.0000E+00
     -6.115  0.0000E+00  0.0000E+00
     -6.047  0.0000E+00  0.0000E+00
     -5.979  0.0000E+00  0.0000E+00
     -5.912  0.0000E+00  0.0000E+00
     -5.844  0.0000E+00  0.0000E+00
     -5.777  0.0000E+00  0.0000E+00
     -5.709  0.0000E+00  0.0000E+00
     -5.642  0.1027E-10  0.6938E-12
     -5.574  0.1713E-01  0.1157E-02
     -5.507  0.9567E-01  0.7621E-02
     -5.439  0.7314E-01  0.1256E-01
     -5.371  0.1408E+00  0.2208E-01
     -5.304  0.1358E+00  0.3125E-01
     -5.236  0.1028E+00  0.3819E-01
     -5.169  0.4110E+00  0.6597E-01
     -5.101  0.3945E+00  0.9263E-01
     -5.034  0.1661E-01  0.9375E-01
     -4.966  0.9828E-02  0.9441E-01
     -4.898  0.1960E+00  0.1077E+00
     -4.831  0.5136E+00  0.1424E+00
     -4.763  0.4111E+00  0.1701E+00
     -4.696  0.4107E+00  0.1979E+00
     -4.628  0.1336E+00  0.2069E+00
     -4.561  0.2396E+00  0.2234E+00
     -4.493  0.3010E+00  0.2437E+00
     -4.426  0.6929E+00  0.2905E+00
     -4.358  0.3491E-05  0.2905E+00
     -4.290  0.1028E+00  0.2975E+00
     -4.223  0.8223E+00  0.3530E+00
     -4.155  0.6165E+00  0.3947E+00
     -4.088  0.4099E+00  0.4224E+00
     -4.020  0.3677E+00  0.4473E+00
     -3.953  0.6302E+00  0.4899E+00
     -3.885  0.5705E+00  0.5284E+00
     -3.817  0.7615E-01  0.5336E+00
     -3.750  0.5830E-01  0.5375E+00
     -3.682  0.3541E+00  0.5614E+00
     -3.615  0.5148E+00  0.5962E+00
     -3.547  0.1263E+01  0.6816E+00
     -3.480  0.5160E+00  0.7164E+00
     -3.412  0.9092E-02  0.7170E+00
     -3.344  0.1224E+01  0.7998E+00
     -3.277  0.8223E+00  0.8553E+00
     -3.209  0.3252E-08  0.8553E+00
     -3.142  0.2056E+00  0.8692E+00
     -3.074  0.1111E+01  0.9443E+00
     -3.007  0.5332E+00  0.9803E+00
     -2.939  0.9712E+00  0.1046E+01
     -2.872  0.3655E+00  0.1071E+01
     -2.804  0.7240E+00  0.1120E+01
     -2.736  0.9201E+00  0.1182E+01
     -2.669  0.1417E+00  0.1191E+01
     -2.601  0.8550E+00  0.1249E+01
     -2.534  0.1632E+01  0.1359E+01
     -2.466  0.6603E+00  0.1404E+01
     -2.399  0.8277E+00  0.1460E+01
     -2.331  0.8454E+00  0.1517E+01
     -2.263  0.9169E+00  0.1580E+01
     -2.196  0.5313E+00  0.1616E+01
     -2.128  0.1406E+01  0.1711E+01
     -2.061  0.6155E+00  0.1752E+01
     -1.993  0.6337E+00  0.1795E+01
     -1.926  0.2133E+01  0.1939E+01
     -1.858  0.1571E+01  0.2046E+01
     -1.791  0.1228E+01  0.2128E+01
     -1.723  0.1323E+01  0.2218E+01
     -1.655  0.9110E+00  0.2279E+01
     -1.588  0.1348E+01  0.2370E+01
     -1.520  0.1580E+01  0.2477E+01
     -1.453  0.4136E+01  0.2757E+01
     -1.385  0.1795E+01  0.2878E+01
     -1.318  0.3975E+01  0.3147E+01
     -1.250  0.3403E+01  0.3378E+01
     -1.182  0.3750E+01  0.3632E+01
     -1.115  0.4659E+01  0.3948E+01
     -1.047  0.6086E+01  0.4360E+01
     -0.980  0.3544E+01  0.4600E+01
     -0.912  0.6905E+01  0.5067E+01
     -0.845  0.4777E+01  0.5392E+01
     -0.777  0.5300E+01  0.5750E+01
     -0.710  0.8175E+01  0.6303E+01
     -0.642  0.8102E+01  0.6854E+01
     -0.574  0.8009E+01  0.7395E+01
     -0.507  0.1175E+02  0.8190E+01
     -0.439  0.9485E+01  0.8834E+01
     -0.372  0.1028E+02  0.9528E+01
     -0.304  0.7389E+01  0.1003E+02
     -0.237  0.9896E+01  0.1070E+02
     -0.169  0.9372E+01  0.1133E+02
     -0.101  0.8595E+01  0.1191E+02
     -0.034  0.7772E+01  0.1244E+02
      0.034  0.1147E+02  0.1321E+02
      0.101  0.1010E+02  0.1390E+02
      0.169  0.1445E+02  0.1487E+02
      0.236  0.9946E+01  0.1555E+02
      0.304  0.1708E+02  0.1671E+02
      0.371  0.1342E+02  0.1762E+02
      0.439  0.1489E+02  0.1862E+02
      0.507  0.1676E+02  0.1976E+02
      0.574  0.1553E+02  0.2081E+02
      0.642  0.2150E+02  0.2226E+02
      0.709  0.1965E+02  0.2359E+02
      0.777  0.1461E+02  0.2458E+02
      0.844  0.1093E+02  0.2532E+02
      0.912  0.9386E+01  0.2596E+02
      0.980  0.1263E+02  0.2681E+02
      1.047  0.1297E+02  0.2769E+02
      1.115  0.1518E+02  0.2872E+02
      1.182  0.1519E+02  0.2975E+02
      1.250  0.1554E+02  0.3080E+02
      1.317  0.1536E+02  0.3184E+02
      1.385  0.1504E+02  0.3286E+02
      1.452  0.1318E+02  0.3375E+02
      1.520  0.1336E+02  0.3465E+02
      1.588  0.1654E+02  0.3577E+02
      1.655  0.1532E+02  0.3681E+02
      1.723  0.2160E+02  0.3827E+02
      1.790  0.2819E+02  0.4018E+02
      1.858  0.1461E+02  0.4117E+02
      1.925  0.1168E+02  0.4196E+02
      1.993  0.7630E+00  0.4202E+02
      2.061  0.4718E+00  0.4205E+02
      2.128  0.1743E+01  0.4217E+02
      2.196  0.2330E+01  0.4232E+02
      2.263  0.2069E+01  0.4246E+02
      2.331  0.8160E+00  0.4252E+02
      2.398  0.1989E+01  0.4265E+02
      2.466  0.1215E+01  0.4273E+02
      2.534  0.1262E+01  0.4282E+02
      2.601  0.1670E+01  0.4293E+02
      2.669  0.2334E+01  0.4309E+02
      2.736  0.1366E+01  0.4318E+02
      2.804  0.9376E+00  0.4325E+02
      2.871  0.1098E+01  0.4332E+02
      2.939  0.3807E-01  0.4332E+02
      3.006  0.1285E+01  0.4341E+02
      3.074  0.1367E+01  0.4350E+02
      3.142  0.3707E+01  0.4375E+02
      3.209  0.1621E+01  0.4386E+02
      3.277  0.5206E+00  0.4390E+02
      3.344  0.1211E+01  0.4398E+02
      3.412  0.5172E-01  0.4399E+02
      3.479  0.1192E+01  0.4407E+02
      3.547  0.8575E+00  0.4412E+02
      3.615  0.1488E+01  0.4422E+02
      3.682  0.8244E+00  0.4428E+02
      3.750  0.3387E+01  0.4451E+02
      3.817  0.2097E-01  0.4451E+02
      3.885  0.5429E+00  0.4455E+02
      3.952  0.2335E+01  0.4470E+02
      4.020  0.8223E+00  0.4476E+02
      4.087  0.1070E+01  0.4483E+02
      4.155  0.9852E+00  0.4490E+02
      4.223  0.1286E+01  0.4499E+02
      4.290  0.1144E+01  0.4506E+02
      4.358  0.4487E+00  0.4509E+02
      4.425  0.4990E+00  0.4513E+02
      4.493  0.8950E+00  0.4519E+02
      4.560  0.1040E+01  0.4526E+02
      4.628  0.2140E+01  0.4540E+02
      4.696  0.1876E+01  0.4553E+02
      4.763  0.8399E+00  0.4559E+02
      4.831  0.1233E+01  0.4567E+02
      4.898  0.1096E-05  0.4567E+02
      4.966  0.4745E+00  0.4570E+02
      5.033  0.2044E+01  0.4584E+02
      5.101  0.6831E+00  0.4589E+02
      5.168  0.1578E+01  0.4599E+02
      5.236  0.8220E+00  0.4605E+02
      5.304  0.7938E+00  0.4610E+02
      5.371  0.2056E+00  0.4612E+02
      5.439  0.6857E+00  0.4616E+02
      5.506  0.2985E+01  0.4637E+02
      5.574  0.4111E+00  0.4640E+02
      5.641  0.4103E-11  0.4640E+02
      5.709  0.3385E+00  0.4642E+02
      5.777  0.2165E+01  0.4657E+02
      5.844  0.1415E+01  0.4666E+02
      5.912  0.3873E+00  0.4669E+02
      5.979  0.8202E+00  0.4674E+02
      6.047  0.7079E+00  0.4679E+02
      6.114  0.5255E+00  0.4683E+02
      6.182  0.1334E+00  0.4684E+02
      6.249  0.4978E+00  0.4687E+02
      6.317  0.1808E+01  0.4699E+02
      6.385  0.6446E+00  0.4703E+02
      6.452  0.1016E+01  0.4710E+02
      6.520  0.4860E+00  0.4714E+02
      6.587  0.3851E+00  0.4716E+02
      6.655  0.8614E+00  0.4722E+02
      6.722  0.9508E+00  0.4728E+02
      6.790  0.8215E+00  0.4734E+02
      6.858  0.4485E+00  0.4737E+02
      6.925  0.4068E+00  0.4740E+02
      6.993  0.5508E+00  0.4744E+02
      7.060  0.1572E+01  0.4754E+02
      7.128  0.1556E+01  0.4765E+02
      7.195  0.2083E+00  0.4766E+02
      7.263  0.2858E+00  0.4768E+02
      7.331  0.2497E+01  0.4785E+02
      7.398  0.1726E+00  0.4786E+02
      7.466  0.1465E+01  0.4796E+02
      7.533  0.9545E+00  0.4803E+02
      7.601  0.9278E+00  0.4809E+02
      7.668  0.1362E+01  0.4818E+02
      7.736  0.2150E+01  0.4833E+02
      7.803  0.3201E+00  0.4835E+02
      7.871  0.1435E+01  0.4844E+02
      7.939  0.1233E+01  0.4853E+02
      8.006  0.4112E+00  0.4856E+02
      8.074  0.4111E+00  0.4858E+02
      8.141  0.2458E+01  0.4875E+02
      8.209  0.2722E+00  0.4877E+02
      8.276  0.3562E-03  0.4877E+02
      8.344  0.1811E+01  0.4889E+02
      8.412  0.1919E+01  0.4902E+02
      8.479  0.7123E+00  0.4907E+02
      8.547  0.1895E+01  0.4920E+02
      8.614  0.4901E+00  0.4923E+02
      8.682  0.7778E+00  0.4928E+02
      8.749  0.8223E+00  0.4934E+02
      8.817  0.8201E+00  0.4939E+02
      8.884  0.2055E+00  0.4941E+02
      8.952  0.8669E+00  0.4947E+02
      9.020  0.1394E+01  0.4956E+02
      9.087  0.1881E-04  0.4956E+02
      9.155  0.1731E+01  0.4968E+02
      9.222  0.1195E+00  0.4969E+02
      9.290  0.1036E+01  0.4976E+02
      9.357  0.1429E+01  0.4985E+02
      9.425  0.1033E+01  0.4992E+02
      9.493  0.4067E+00  0.4995E+02
      9.560  0.1751E+01  0.5007E+02
      9.628  0.7235E+00  0.5012E+02
      9.695  0.8087E+00  0.5017E+02
      9.763  0.0000E+00  0.5017E+02
      9.830  0.3002E-05  0.5017E+02
      9.898  0.1096E+01  0.5025E+02
      9.965  0.8223E+00  0.5030E+02
     10.033  0.1670E+01  0.5041E+02
     10.101  0.3769E+00  0.5044E+02
     10.168  0.2057E+00  0.5045E+02
     10.236  0.2438E+00  0.5047E+02
     10.303  0.1030E+01  0.5054E+02
     10.371  0.7963E+00  0.5059E+02
     10.438  0.1093E+01  0.5067E+02
     10.506  0.1193E+01  0.5075E+02
     10.574  0.8063E+00  0.5080E+02
     10.641  0.6167E+00  0.5084E+02
     10.709  0.1454E+00  0.5085E+02
     10.776  0.3267E+01  0.5108E+02
     10.844  0.7811E-01  0.5108E+02
     10.911  0.7707E+00  0.5113E+02
     10.979  0.8255E+00  0.5119E+02
     11.046  0.2177E+01  0.5134E+02
     11.114  0.1636E+01  0.5145E+02
     11.182  0.8865E-05  0.5145E+02
     11.249  0.1233E+01  0.5153E+02
     11.317  0.7837E+00  0.5158E+02
     11.384  0.4497E+00  0.5161E+02
     11.452  0.1681E-10  0.5161E+02
     11.519  0.1992E+01  0.5175E+02
     11.587  0.2684E+00  0.5177E+02
     11.655  0.2056E+00  0.5178E+02
     11.722  0.4581E-02  0.5178E+02
     11.790  0.1023E+01  0.5185E+02
     11.857  0.4018E+00  0.5188E+02
     11.925  0.4078E+00  0.5191E+02
     11.992  0.2268E-10  0.5191E+02
     12.060  0.4107E+00  0.5193E+02
     12.127  0.6842E+00  0.5198E+02
     12.195  0.0000E+00  0.5198E+02
     12.263  0.0000E+00  0.5198E+02
     12.330  0.0000E+00  0.5198E+02
     12.398  0.0000E+00  0.5198E+02
     12.465  0.0000E+00  0.5198E+02
     12.533  0.4547E-06  0.5198E+02
     12.600  0.2056E+00  0.5199E+02
     12.668  0.0000E+00  0.5199E+02
     12.736  0.0000E+00  0.5199E+02
     12.803  0.2630E-04  0.5199E+02
     12.871  0.1028E+00  0.5200E+02
     12.938  0.0000E+00  0.5200E+02
     13.006  0.0000E+00  0.5200E+02
     13.073  0.0000E+00  0.5200E+02
     13.141  0.0000E+00  0.5200E+02
     13.209  0.0000E+00  0.5200E+02
     13.276  0.0000E+00  0.5200E+02
     13.344  0.0000E+00  0.5200E+02
     13.411  0.0000E+00  0.5200E+02
     13.479  0.0000E+00  0.5200E+02
     13.546  0.0000E+00  0.5200E+02
     13.614  0.0000E+00  0.5200E+02
     13.681  0.0000E+00  0.5200E+02
     13.749  0.0000E+00  0.5200E+02
