    4    4    1    1
  0.1238582E+02  0.3672780E-09  0.3672780E-09  0.3672780E-09  0.5000000E-15
  1.000000000000000E-004
  CAR 
 unknown system                          
   44   84   26
 
  0.0000000E+00  0.0000000E+00  0.0000000E+00  0.5787037E-03
   1       -5.5986
   2       -1.2279
   3       -1.2279
   4       -1.2279
   5       -0.8051
   6       -0.8051
   7       -0.8051
   8        0.4867
   9        0.4867
  10        0.4867
  11        1.2558
  12        1.2558
  13        1.7670
  14        1.7670
  15        1.7670
  16        1.9102
  17        1.9102
  18        1.9102
  19        1.9102
  20        1.9102
  21        1.9102
  22        4.9395
  23        4.9395
  24        4.9395
  25       10.1852
  26       10.1852
 
  0.8333333E-01  0.0000000E+00  0.0000000E+00  0.3472222E-02
   1       -5.5170
   2       -1.2295
   3       -1.1906
   4       -1.1906
   5       -0.7842
   6       -0.7830
   7       -0.7830
   8        0.4637
   9        0.5054
  10        0.5054
  11        1.2349
  12        1.2643
  13        1.7399
  14        1.7399
  15        1.7581
  16        1.7766
  17        1.7766
  18        1.8782
  19        1.8782
  20        1.9103
  21        1.9103
  22        4.4176
  23        5.1468
  24        5.1468
  25       10.2172
  26       10.2172
 
  0.1666667E+00  0.0000000E+00  0.0000000E+00  0.3472222E-02
   1       -5.2737
   2       -1.2503
   3       -1.0842
   4       -1.0842
   5       -0.7225
   6       -0.7160
   7       -0.7160
   8        0.3962
   9        0.5610
  10        0.5610
  11        1.1745
  12        1.2894
  13        1.4560
  14        1.4560
  15        1.6613
  16        1.6613
  17        1.7321
  18        1.7866
  19        1.7866
  20        1.9104
  21        1.9104
  22        3.3357
  23        5.6881
  24        5.6881
  25       10.3161
  26       10.3161
 
  0.2500000E+00  0.0000000E+00  0.0000000E+00  0.3472222E-02
   1       -4.8742
   2       -1.3478
   3       -0.9252
   4       -0.9252
   5       -0.6237
   6       -0.6033
   7       -0.6033
   8        0.2896
   9        0.6521
  10        0.6521
  11        1.0694
  12        1.0694
  13        1.0824
  14        1.3294
  15        1.5402
  16        1.5402
  17        1.6470
  18        1.6470
  19        1.6908
  20        1.9106
  21        1.9106
  22        2.2365
  23        6.4410
  24        6.4410
  25       10.4906
  26       10.4906
 
  0.3333333E+00  0.0000000E+00  0.0000000E+00  0.3472222E-02
   1       -4.3298
   2       -1.6331
   3       -0.7448
   4       -0.7448
   5       -0.4939
   6       -0.4431
   7       -0.4431
   8        0.1519
   9        0.6850
  10        0.6850
  11        0.7760
  12        0.7760
  13        0.9737
  14        1.3817
  15        1.3975
  16        1.3975
  17        1.4002
  18        1.4755
  19        1.4755
  20        1.6372
  21        1.9107
  22        1.9107
  23        7.3352
  24        7.3352
  25       10.7537
  26       10.7537
 
  0.4166667E+00  0.0000000E+00  0.0000000E+00  0.3472222E-02
   1       -3.6623
   2       -2.1876
   3       -0.5927
   4       -0.5927
   5       -0.3410
   6       -0.2341
   7       -0.2341
   8       -0.0068
   9        0.3327
  10        0.3327
  11        0.8753
  12        0.9283
  13        0.9283
  14        0.9606
  15        1.2729
  16        1.2729
  17        1.2889
  18        1.2889
  19        1.4428
  20        1.5751
  21        1.9109
  22        1.9109
  23        8.3377
  24        8.3377
  25       10.6073
  26       10.6073
 
  0.5000000E+00  0.0000000E+00  0.0000000E+00  0.1736111E-02
   1       -2.9166
   2       -2.9166
   3       -0.5310
   4       -0.5310
   5       -0.1750
   6       -0.1750
   7        0.0248
   8        0.0248
   9        0.0248
  10        0.0248
  11        0.8379
  12        0.8379
  13        1.1024
  14        1.1024
  15        1.1024
  16        1.1024
  17        1.2212
  18        1.2212
  19        1.5088
  20        1.5088
  21        1.9109
  22        1.9109
  23        9.4319
  24        9.4319
  25        9.4319
  26        9.4319
 
  0.8333333E-01  0.8333333E-01  0.0000000E+00  0.6944444E-02
   1       -5.4357
   2       -1.1913
   3       -1.1913
   4       -1.1543
   5       -0.7624
   6       -0.7624
   7       -0.7615
   8        0.4509
   9        0.5143
  10        0.5222
  11        1.2292
  12        1.2595
  13        1.6777
  14        1.6989
  15        1.6989
  16        1.7140
  17        1.7699
  18        1.7699
  19        1.8782
  20        1.8782
  21        1.8897
  22        4.6208
  23        4.6208
  24        5.3402
  25       10.2496
  26       10.9153
 
  0.1666667E+00  0.8333333E-01  0.0000000E+00  0.1388889E-01
   1       -5.1934
   2       -1.2092
   3       -1.0821
   4       -1.0506
   5       -0.7019
   6       -0.6969
   7       -0.6967
   8        0.3902
   9        0.5645
  10        0.5718
  11        1.1770
  12        1.2825
  13        1.3933
  14        1.3949
  15        1.5834
  16        1.6386
  17        1.6695
  18        1.7415
  19        1.7863
  20        1.8781
  21        1.8786
  22        3.5531
  23        5.1358
  24        5.8552
  25       10.3492
  26       11.0476
 
  0.2500000E+00  0.8333333E-01  0.0000000E+00  0.1388889E-01
   1       -4.7957
   2       -1.3017
   3       -0.9185
   4       -0.8951
   5       -0.6052
   6       -0.5889
   7       -0.5862
   8        0.2874
   9        0.6503
  10        0.6540
  11        1.0089
  12        1.0340
  13        1.0928
  14        1.3272
  15        1.3825
  16        1.5221
  17        1.5477
  18        1.6466
  19        1.6884
  20        1.8760
  21        1.8778
  22        2.5204
  23        5.8303
  24        6.5857
  25       10.5199
  26       11.2792
 
  0.3333333E+00  0.8333333E-01  0.0000000E+00  0.1388889E-01
   1       -4.2540
   2       -1.5803
   3       -0.7317
   4       -0.7165
   5       -0.4780
   6       -0.4386
   7       -0.4293
   8        0.1533
   9        0.6312
  10        0.6672
  11        0.7407
  12        0.7769
  13        1.0104
  14        1.0792
  15        1.3849
  16        1.3867
  17        1.4049
  18        1.4750
  19        1.5905
  20        1.8561
  21        1.8756
  22        1.8775
  23        6.6354
  24        7.4636
  25       10.5580
  26       10.9056
 
  0.4166667E+00  0.8333333E-01  0.0000000E+00  0.1388889E-01
   1       -3.5904
   2       -2.1277
   3       -0.5715
   4       -0.5627
   5       -0.3283
   6       -0.2469
   7       -0.2247
   8       -0.0015
   9        0.2886
  10        0.3271
  11        0.7703
  12        0.8220
  13        0.9286
  14        1.0257
  15        1.2663
  16        1.2781
  17        1.2884
  18        1.3806
  19        1.4574
  20        1.6319
  21        1.8760
  22        1.8770
  23        7.5227
  24        8.4548
  25        9.5150
  26       10.7113
 
  0.5000000E+00  0.8333333E-01  0.0000000E+00  0.6944444E-02
   1       -2.8500
   2       -2.8500
   3       -0.5025
   4       -0.5025
   5       -0.1659
   6       -0.1659
   7       -0.0060
   8       -0.0060
   9        0.0279
  10        0.0279
  11        0.7476
  12        0.7476
  13        1.1022
  14        1.1022
  15        1.1727
  16        1.1727
  17        1.2212
  18        1.2212
  19        1.5368
  20        1.5368
  21        1.8765
  22        1.8765
  23        8.4826
  24        8.4826
  25        9.5411
  26        9.5411
 
  0.1666667E+00  0.1666667E+00  0.0000000E+00  0.6944444E-02
   1       -4.9542
   2       -1.0914
   3       -1.0914
   4       -0.9546
   5       -0.6400
   6       -0.6400
   7       -0.6393
   8        0.3538
   9        0.5944
  10        0.6032
  11        1.1582
  12        1.2059
  13        1.2337
  14        1.2337
  15        1.2903
  16        1.5721
  17        1.6645
  18        1.6645
  19        1.7856
  20        1.7856
  21        1.8286
  22        4.0531
  23        4.0531
  24        6.3164
  25       10.4438
  26       11.7404
 
  0.2500000E+00  0.1666667E+00  0.0000000E+00  0.1388889E-01
   1       -4.5621
   2       -1.1690
   3       -0.9135
   4       -0.8104
   5       -0.5493
   6       -0.5445
   7       -0.5359
   8        0.2715
   9        0.6489
  10        0.6697
  11        0.8516
  12        0.9241
  13        1.0035
  14        1.0989
  15        1.3430
  16        1.4685
  17        1.5488
  18        1.6218
  19        1.6453
  20        1.7845
  21        1.7999
  22        3.0206
  23        4.6836
  24        6.9956
  25       10.2680
  26       10.7597
 
  0.3333333E+00  0.1666667E+00  0.0000000E+00  0.1388889E-01
   1       -4.0290
   2       -1.4280
   3       -0.7066
   4       -0.6390
   5       -0.4303
   6       -0.4214
   7       -0.3887
   8        0.1531
   9        0.4923
  10        0.6116
  11        0.6838
  12        0.7562
  13        0.7852
  14        1.0491
  15        1.3458
  16        1.4096
  17        1.4259
  18        1.4737
  19        1.5296
  20        1.7832
  21        1.7874
  22        2.2831
  23        5.3967
  24        7.8337
  25        9.1178
  26       10.9755
 
  0.4166667E+00  0.1666667E+00  0.0000000E+00  0.1388889E-01
   1       -3.3778
   2       -1.9535
   3       -0.5201
   4       -0.4775
   5       -0.2907
   6       -0.2823
   7       -0.1978
   8        0.0120
   9        0.1745
  10        0.3088
  11        0.6128
  12        0.6614
  13        0.9324
  14        1.0834
  15        1.2427
  16        1.2806
  17        1.2879
  18        1.3806
  19        1.5313
  20        1.7820
  21        1.7826
  22        1.8755
  23        6.1851
  24        8.0315
  25        8.7956
  26       11.0170
 
  0.5000000E+00  0.1666667E+00  0.0000000E+00  0.6944444E-02
   1       -2.6546
   2       -2.6546
   3       -0.4233
   4       -0.4233
   5       -0.1397
   6       -0.1397
   7       -0.0905
   8       -0.0905
   9        0.0359
  10        0.0359
  11        0.6072
  12        0.6072
  13        1.1033
  14        1.1033
  15        1.2107
  16        1.2107
  17        1.2131
  18        1.2131
  19        1.6663
  20        1.6663
  21        1.7815
  22        1.7815
  23        7.0582
  24        7.0582
  25        9.8610
  26        9.8610
 
  0.2500000E+00  0.2500000E+00  0.0000000E+00  0.6944444E-02
   1       -4.1800
   2       -0.9670
   3       -0.9670
   4       -0.6860
   5       -0.4698
   6       -0.4558
   7       -0.4558
   8        0.2240
   9        0.6455
  10        0.6455
  11        0.6504
  12        0.7202
  13        0.7425
  14        1.0661
  15        1.3828
  16        1.4139
  17        1.5141
  18        1.5141
  19        1.6437
  20        1.6437
  21        1.7291
  22        3.5909
  23        3.5909
  24        7.6196
  25        8.9604
  26       10.9025
 
  0.3333333E+00  0.2500000E+00  0.0000000E+00  0.1388889E-01
   1       -3.6626
   2       -1.1949
   3       -0.7272
   4       -0.5387
   5       -0.3773
   6       -0.3513
   7       -0.3245
   8        0.1393
   9        0.3275
  10        0.4741
  11        0.5146
  12        0.6381
  13        0.8148
  14        1.0289
  15        1.2794
  16        1.3818
  17        1.4290
  18        1.4728
  19        1.5333
  20        1.6425
  21        1.6832
  22        2.7544
  23        4.2229
  24        7.7399
  25        8.4102
  26       11.2106
 
  0.4166667E+00  0.2500000E+00  0.0000000E+00  0.1388889E-01
   1       -3.0346
   2       -1.6830
   3       -0.4986
   4       -0.3724
   5       -0.3131
   6       -0.2297
   7       -0.1564
   8        0.0269
   9        0.0533
  10        0.2739
  11        0.4272
  12        0.5788
  13        0.9482
  14        1.0539
  15        1.1944
  16        1.2548
  17        1.2896
  18        1.2977
  19        1.6429
  20        1.6586
  21        1.6899
  22        2.2175
  23        4.9304
  24        6.6671
  25        9.3346
  26       11.5083
 
  0.5000000E+00  0.2500000E+00  0.0000000E+00  0.6944444E-02
   1       -2.3440
   2       -2.3440
   3       -0.3454
   4       -0.3454
   5       -0.1781
   6       -0.1781
   7       -0.1001
   8       -0.1001
   9        0.0455
  10        0.0455
  11        0.4871
  12        0.4871
  13        1.1102
  14        1.1102
  15        1.1557
  16        1.1557
  17        1.1799
  18        1.1799
  19        1.6471
  20        1.6471
  21        1.8986
  22        1.8986
  23        5.7368
  24        5.7368
  25       10.3719
  26       10.3719
 
  0.3333333E+00  0.3333333E+00  0.0000000E+00  0.6944444E-02
   1       -3.1702
   2       -0.9168
   3       -0.9168
   4       -0.4616
   5       -0.2875
   6       -0.2422
   7       -0.2422
   8        0.1001
   9        0.2380
  10        0.2380
  11        0.3790
  12        0.5939
  13        0.8806
  14        0.9837
  15        1.1938
  16        1.3048
  17        1.3048
  18        1.4742
  19        1.4742
  20        1.5948
  21        1.6979
  22        3.2809
  23        3.2809
  24        6.5233
  25        9.1562
  26       11.5609
 
  0.4166667E+00  0.3333333E+00  0.0000000E+00  0.1388889E-01
   1       -2.5807
   2       -1.3506
   3       -0.6511
   4       -0.4269
   5       -0.1821
   6       -0.1487
   7       -0.1059
   8        0.0334
   9        0.0521
  10        0.2183
  11        0.2810
  12        0.5161
  13        0.9838
  14        0.9879
  15        1.1203
  16        1.1840
  17        1.1850
  18        1.2979
  19        1.4813
  20        1.5344
  21        1.9102
  22        2.6206
  23        3.8881
  24        5.4815
  25       10.0428
  26       12.0380
 
  0.5000000E+00  0.3333333E+00  0.0000000E+00  0.6944444E-02
   1       -1.9453
   2       -1.9453
   3       -0.4738
   4       -0.4738
   5       -0.0817
   6       -0.0817
   7       -0.0533
   8       -0.0533
   9        0.0512
  10        0.0512
  11        0.3970
  12        0.3970
  13        1.0609
  14        1.0609
  15        1.1105
  16        1.1105
  17        1.1309
  18        1.1309
  19        1.4991
  20        1.4991
  21        2.1951
  22        2.1951
  23        4.6103
  24        4.6103
  25       11.0501
  26       11.0501
 
  0.4166667E+00  0.4166667E+00  0.0000000E+00  0.6944444E-02
   1       -2.0516
   2       -1.0115
   3       -1.0115
   4       -0.5420
   5       -0.0535
   6       -0.0535
   7       -0.0350
   8        0.0227
   9        0.1408
  10        0.1729
  11        0.1729
  12        0.4419
  13        0.9403
  14        1.0443
  15        1.0624
  16        1.0767
  17        1.0767
  18        1.3191
  19        1.3191
  20        1.4324
  21        2.1894
  22        3.1054
  23        3.1054
  24        4.4977
  25       10.8954
  26       12.5653
 
  0.5000000E+00  0.4166667E+00  0.0000000E+00  0.6944444E-02
   1       -1.5036
   2       -1.5036
   3       -0.7305
   4       -0.7305
   5       -0.0079
   6       -0.0079
   7        0.0468
   8        0.0468
   9        0.0804
  10        0.0804
  11        0.3219
  12        0.3219
  13        0.9764
  14        0.9764
  15        1.0194
  16        1.0194
  17        1.1749
  18        1.1749
  19        1.3614
  20        1.3614
  21        2.5637
  22        2.5637
  23        3.7153
  24        3.7153
  25       11.8742
  26       11.8742
 
  0.5000000E+00  0.5000000E+00  0.0000000E+00  0.1736111E-02
   1       -1.0803
   2       -1.0803
   3       -1.0803
   4       -1.0803
   5        0.0272
   6        0.0272
   7        0.0272
   8        0.0272
   9        0.2237
  10        0.2237
  11        0.2237
  12        0.2237
  13        0.9576
  14        0.9576
  15        0.9576
  16        0.9576
  17        1.2509
  18        1.2509
  19        1.2509
  20        1.2509
  21        3.0490
  22        3.0490
  23        3.0490
  24        3.0490
  25       12.8277
  26       12.8277
 
  0.8333333E-01  0.8333333E-01  0.8333333E-01  0.4629630E-02
   1       -5.3547
   2       -1.1542
   3       -1.1542
   4       -1.1542
   5       -0.7413
   6       -0.7413
   7       -0.7413
   8        0.4390
   9        0.5299
  10        0.5299
  11        1.2401
  12        1.2401
  13        1.6331
  14        1.6331
  15        1.6331
  16        1.6904
  17        1.6904
  18        1.6904
  19        1.8746
  20        1.8746
  21        1.8746
  22        4.8066
  23        4.8066
  24        4.8066
  25       10.9588
  26       10.9588
 
  0.1666667E+00  0.8333333E-01  0.8333333E-01  0.1388889E-01
   1       -5.1135
   2       -1.1697
   3       -1.0481
   4       -1.0481
   5       -0.6819
   6       -0.6778
   7       -0.6778
   8        0.3841
   9        0.5727
  10        0.5766
  11        1.1851
  12        1.2719
  13        1.3391
  14        1.3391
  15        1.4976
  16        1.6193
  17        1.6222
  18        1.6222
  19        1.8340
  20        1.8647
  21        1.8647
  22        3.7381
  23        5.2908
  24        5.2908
  25       11.0923
  26       11.0923
 
  0.2500000E+00  0.8333333E-01  0.8333333E-01  0.1388889E-01
   1       -4.7177
   2       -1.2579
   3       -0.8890
   4       -0.8890
   5       -0.5867
   6       -0.5718
   7       -0.5718
   8        0.2858
   9        0.6487
  10        0.6535
  11        0.9779
  12        0.9779
  13        1.1078
  14        1.2647
  15        1.3223
  16        1.5052
  17        1.5153
  18        1.5153
  19        1.7762
  20        1.8564
  21        1.8564
  22        2.7102
  23        5.9594
  24        5.9594
  25       11.3176
  26       11.3176
 
  0.3333333E+00  0.8333333E-01  0.8333333E-01  0.1388889E-01
   1       -4.1790
   2       -1.5304
   3       -0.7049
   4       -0.7049
   5       -0.4617
   6       -0.4255
   7       -0.4255
   8        0.1559
   9        0.6185
  10        0.6185
  11        0.7258
  12        0.7588
  13        0.9628
  14        1.0493
  15        1.3601
  16        1.3834
  17        1.3834
  18        1.3879
  19        1.7064
  20        1.8517
  21        1.8517
  22        1.9857
  23        6.7444
  24        6.7444
  25       10.7479
  26       10.7479
 
  0.4166667E+00  0.8333333E-01  0.8333333E-01  0.1388889E-01
   1       -3.5197
   2       -2.0703
   3       -0.5422
   4       -0.5422
   5       -0.3147
   6       -0.2444
   7       -0.2444
   8        0.0050
   9        0.2934
  10        0.2934
  11        0.7306
  12        0.7463
  13        0.8892
  14        1.1048
  15        1.1999
  16        1.2650
  17        1.2650
  18        1.4641
  19        1.5594
  20        1.6283
  21        1.8494
  22        1.8494
  23        7.6102
  24        7.6102
  25        9.6427
  26        9.6427
 
  0.5000000E+00  0.8333333E-01  0.8333333E-01  0.6944444E-02
   1       -2.7853
   2       -2.7853
   3       -0.4733
   4       -0.4733
   5       -0.1556
   6       -0.1556
   7       -0.0769
   8       -0.0769
   9        0.0731
  10        0.0731
  11        0.6966
  12        0.6966
  13        1.0391
  14        1.0391
  15        1.2152
  16        1.2152
  17        1.2858
  18        1.2858
  19        1.5459
  20        1.5459
  21        1.8488
  22        1.8488
  23        8.3756
  24        8.3756
  25        8.7982
  26        8.7982
 
  0.1666667E+00  0.1666667E+00  0.8333333E-01  0.1388889E-01
   1       -4.8757
   2       -1.0565
   3       -1.0565
   4       -0.9514
   5       -0.6215
   6       -0.6215
   7       -0.6209
   8        0.3501
   9        0.5993
  10        0.6042
  11        1.1565
  12        1.1777
  13        1.1850
  14        1.1850
  15        1.2745
  16        1.5317
  17        1.5593
  18        1.5593
  19        1.8284
  20        1.8284
  21        1.8362
  22        4.1930
  23        4.1930
  24        5.7125
  25       11.2168
  26       11.8440
 
  0.2500000E+00  0.1666667E+00  0.8333333E-01  0.2777778E-01
   1       -4.4860
   2       -1.1324
   3       -0.8863
   4       -0.8065
   5       -0.5311
   6       -0.5273
   7       -0.5209
   8        0.2727
   9        0.6472
  10        0.6623
  11        0.8290
  12        0.8786
  13        0.9562
  14        1.1265
  15        1.3316
  16        1.4333
  17        1.4457
  18        1.4766
  19        1.7737
  20        1.8054
  21        1.8076
  22        3.1394
  23        4.7928
  24        6.3201
  25       10.4601
  26       11.5076
 
  0.3333333E+00  0.1666667E+00  0.8333333E-01  0.2777778E-01
   1       -3.9565
   2       -1.3873
   3       -0.6869
   4       -0.6339
   5       -0.4123
   6       -0.4086
   7       -0.3846
   8        0.1593
   9        0.4928
  10        0.5774
  11        0.6784
  12        0.7171
  13        0.7533
  14        1.1005
  15        1.3003
  16        1.3219
  17        1.3625
  18        1.4174
  19        1.6930
  20        1.7871
  21        1.7873
  22        2.3521
  23        5.4846
  24        7.0446
  25        9.2684
  26       11.0440
 
  0.4166667E+00  0.1666667E+00  0.8333333E-01  0.2777778E-01
   1       -3.3109
   2       -1.9044
   3       -0.4989
   4       -0.4623
   5       -0.2934
   6       -0.2737
   7       -0.2353
   8        0.0228
   9        0.2116
  10        0.3012
  11        0.5869
  12        0.6492
  13        0.8649
  14        1.1453
  15        1.1789
  16        1.2237
  17        1.2492
  18        1.5213
  19        1.5621
  20        1.7765
  21        1.7768
  22        1.8766
  23        6.2539
  24        7.6929
  25        8.3759
  26        9.9342
 
  0.5000000E+00  0.1666667E+00  0.8333333E-01  0.1388889E-01
   1       -2.5956
   2       -2.5956
   3       -0.3926
   4       -0.3926
   5       -0.1882
   6       -0.1882
   7       -0.1252
   8       -0.1252
   9        0.1136
  10        0.1136
  11        0.5897
  12        0.5897
  13        0.9969
  14        0.9969
  15        1.1908
  16        1.1908
  17        1.3590
  18        1.3590
  19        1.6503
  20        1.6503
  21        1.7735
  22        1.7735
  23        7.0919
  24        7.0919
  25        8.9400
  26        8.9400
 
  0.2500000E+00  0.2500000E+00  0.8333333E-01  0.1388889E-01
   1       -4.1071
   2       -0.9440
   3       -0.9440
   4       -0.6881
   5       -0.4514
   6       -0.4378
   7       -0.4378
   8        0.2305
   9        0.6325
  10        0.6325
  11        0.6482
  12        0.6986
  13        0.7106
  14        1.1085
  15        1.3332
  16        1.3850
  17        1.3850
  18        1.4002
  19        1.7345
  20        1.7345
  21        1.7540
  22        3.6758
  23        3.6758
  24        6.8470
  25        9.1202
  26       11.7690
 
  0.3333333E+00  0.2500000E+00  0.8333333E-01  0.2777778E-01
   1       -3.5949
   2       -1.1725
   3       -0.7248
   4       -0.5531
   5       -0.3572
   6       -0.3286
   7       -0.3114
   8        0.1525
   9        0.3452
  10        0.4702
  11        0.5029
  12        0.6357
  13        0.7639
  14        1.0992
  15        1.2333
  16        1.2513
  17        1.2966
  18        1.5190
  19        1.6377
  20        1.6962
  21        1.7089
  22        2.8012
  23        4.2882
  24        7.3140
  25        8.1251
  26       11.4985
 
  0.4166667E+00  0.2500000E+00  0.8333333E-01  0.2777778E-01
   1       -2.9750
   2       -1.6499
   3       -0.5171
   4       -0.4143
   5       -0.2901
   6       -0.2044
   7       -0.1901
   8        0.0464
   9        0.1357
  10        0.2997
  11        0.4266
  12        0.5764
  13        0.8516
  14        1.1032
  15        1.1536
  16        1.1726
  17        1.1974
  18        1.4993
  19        1.6732
  20        1.6736
  21        1.6797
  22        2.2220
  23        4.9812
  24        6.6581
  25        8.5183
  26       10.3879
 
  0.5000000E+00  0.2500000E+00  0.8333333E-01  0.1388889E-01
   1       -2.2962
   2       -2.2962
   3       -0.3746
   4       -0.3746
   5       -0.2241
   6       -0.2241
   7       -0.0761
   8       -0.0761
   9        0.1413
  10        0.1413
  11        0.4857
  12        0.4857
  13        0.9652
  14        0.9652
  15        1.1361
  16        1.1361
  17        1.3260
  18        1.3260
  19        1.6682
  20        1.6682
  21        1.8828
  22        1.8828
  23        5.7708
  24        5.7708
  25        9.3886
  26        9.3886
 
  0.3333333E+00  0.3333333E+00  0.8333333E-01  0.1388889E-01
   1       -3.1105
   2       -0.9252
   3       -0.9252
   4       -0.5049
   5       -0.2578
   6       -0.2115
   7       -0.2115
   8        0.1230
   9        0.2624
  10        0.2624
  11        0.3983
  12        0.5943
  13        0.7901
  14        1.0901
  15        1.1386
  16        1.1840
  17        1.1840
  18        1.5826
  19        1.5826
  20        1.6347
  21        1.6809
  22        3.3158
  23        3.3158
  24        6.4976
  25        8.3776
  26       12.1071
 
  0.4166667E+00  0.3333333E+00  0.8333333E-01  0.2777778E-01
   1       -2.5334
   2       -1.3445
   3       -0.7008
   4       -0.4969
   5       -0.1527
   6       -0.1068
   7       -0.0836
   8        0.0665
   9        0.1229
  10        0.2784
  11        0.2962
  12        0.5192
  13        0.8382
  14        1.0497
  15        1.0644
  16        1.1033
  17        1.1484
  18        1.4396
  19        1.5502
  20        1.5780
  21        1.8914
  22        2.6235
  23        3.9157
  24        5.4934
  25        9.1163
  26       10.9936
 
  0.5000000E+00  0.3333333E+00  0.8333333E-01  0.1388889E-01
   1       -1.9164
   2       -1.9164
   3       -0.5523
   4       -0.5523
   5       -0.0740
   6       -0.0740
   7       -0.0122
   8       -0.0122
   9        0.1558
  10        0.1558
  11        0.4041
  12        0.4041
  13        0.9262
  14        0.9262
  15        1.0492
  16        1.0492
  17        1.2801
  18        1.2801
  19        1.5486
  20        1.5486
  21        2.1798
  22        2.1798
  23        4.6322
  24        4.6322
  25        9.9961
  26        9.9961
 
  0.4166667E+00  0.4166667E+00  0.8333333E-01  0.1388889E-01
   1       -2.0235
   2       -1.0429
   3       -1.0429
   4       -0.6209
   5       -0.0098
   6        0.0123
   7        0.0123
   8        0.0727
   9        0.1995
  10        0.1995
  11        0.2300
  12        0.4496
  13        0.8353
  14        0.9826
  15        0.9863
  16        0.9863
  17        1.1770
  18        1.4109
  19        1.4109
  20        1.4878
  21        2.1699
  22        3.1081
  23        3.1081
  24        4.5083
  25        9.8659
  26       11.7389
 
  0.5000000E+00  0.4166667E+00  0.8333333E-01  0.1388889E-01
   1       -1.5032
   2       -1.5032
   3       -0.7966
   4       -0.7966
   5        0.0572
   6        0.0572
   7        0.0889
   8        0.0889
   9        0.1558
  10        0.1558
  11        0.3344
  12        0.3344
  13        0.8843
  14        0.8843
  15        0.9506
  16        0.9506
  17        1.2741
  18        1.2741
  19        1.4275
  20        1.4275
  21        2.5496
  22        2.5496
  23        3.7209
  24        3.7209
  25       10.7419
  26       10.7419
 
  0.5000000E+00  0.5000000E+00  0.8333333E-01  0.3472222E-02
   1       -1.1155
   2       -1.1155
   3       -1.1155
   4       -1.1155
   5        0.1136
   6        0.1136
   7        0.1136
   8        0.1136
   9        0.2417
  10        0.2417
  11        0.2417
  12        0.2417
  13        0.8835
  14        0.8835
  15        0.8835
  16        0.8835
  17        1.3271
  18        1.3271
  19        1.3271
  20        1.3271
  21        3.0412
  22        3.0412
  23        3.0412
  24        3.0412
  25       11.6161
  26       11.6161
 
  0.1666667E+00  0.1666667E+00  0.1666667E+00  0.4629630E-02
   1       -4.6420
   2       -0.9580
   3       -0.9580
   4       -0.9580
   5       -0.5656
   6       -0.5656
   7       -0.5656
   8        0.3278
   9        0.6163
  10        0.6163
  11        1.0140
  12        1.0140
  13        1.0140
  14        1.2326
  15        1.2326
  16        1.4321
  17        1.4321
  18        1.4321
  19        1.8407
  20        1.8407
  21        1.8407
  22        4.5669
  23        4.5669
  24        4.5669
  25       12.1054
  26       12.1054
 
  0.2500000E+00  0.1666667E+00  0.1666667E+00  0.1388889E-01
   1       -4.2598
   2       -1.0305
   3       -0.8130
   4       -0.8130
   5       -0.4749
   6       -0.4730
   7       -0.4730
   8        0.2696
   9        0.6458
  10        0.6511
  11        0.7543
  12        0.7543
  13        0.8047
  14        1.1871
  15        1.3027
  16        1.3142
  17        1.3412
  18        1.3412
  19        1.8167
  20        1.8167
  21        1.8225
  22        3.4602
  23        5.0964
  24        5.0964
  25       10.7670
  26       10.7670
 
  0.3333333E+00  0.1666667E+00  0.1666667E+00  0.1388889E-01
   1       -3.7423
   2       -1.2742
   3       -0.6446
   4       -0.6446
   5       -0.3586
   6       -0.3586
   7       -0.3558
   8        0.1752
   9        0.4902
  10        0.4902
  11        0.6048
  12        0.6587
  13        0.7086
  14        1.1620
  15        1.1926
  16        1.2514
  17        1.2514
  18        1.4121
  19        1.7770
  20        1.7831
  21        1.7831
  22        2.5835
  23        5.7267
  24        5.7267
  25        9.5678
  26        9.5678
 
  0.4166667E+00  0.1666667E+00  0.1666667E+00  0.1388889E-01
   1       -3.1145
   2       -1.7651
   3       -0.4734
   4       -0.4734
   5       -0.2784
   6       -0.2784
   7       -0.2201
   8        0.0552
   9        0.2870
  10        0.2870
  11        0.5155
  12        0.6135
  13        0.7910
  14        1.0234
  15        1.1656
  16        1.1656
  17        1.3144
  18        1.5162
  19        1.7066
  20        1.7582
  21        1.7582
  22        1.9718
  23        6.4085
  24        6.4085
  25        8.5474
  26        8.5474
 
  0.5000000E+00  0.1666667E+00  0.1666667E+00  0.6944444E-02
   1       -2.4247
   2       -2.4247
   3       -0.3465
   4       -0.3465
   5       -0.3036
   6       -0.3036
   7       -0.0797
   8       -0.0797
   9        0.2124
  10        0.2124
  11        0.5416
  12        0.5416