<?xml version="1.0" encoding="ISO-8859-1"?>
<modeling>
 <generator>
  <i name="program" type="string">vasp</i>
  <i name="version" type="string">4.6.28 </i>
  <i name="subversion" type="string">25Jul05 complex  parallel</i>
  <i name="platform" type="string">LinuxIFC</i>
  <i name="date" type="string">2016 12 21</i>
  <i name="time" type="string">11:38:40</i>
 </generator>
 <incar>
  <i type="string" name="PREC">accurate</i>
  <i type="int" name="IALGO">    38</i>
  <i type="logical" name="ADDGRID"> T  </i>
  <i name="EDIFF">      0.00000001</i>
  <i type="int" name="IBRION">    -1</i>
  <i name="ENCUT">    750.00000000</i>
  <i type="logical" name="LREAL"> F  </i>
  <i type="int" name="ISMEAR">     0</i>
  <i name="SIGMA">      0.01000000</i>
  <i type="logical" name="LWAVE"> F  </i>
  <i type="logical" name="LCHARG"> F  </i>
 </incar>
 <kpoints>
  <generation param="Gamma">
   <v type="int" name="divisions">      12      12      12</v>
   <v name="usershift">      0.00000000      0.00000000      0.00000000</v>
   <v name="genvec1">      0.08333333      0.00000000      0.00000000</v>
   <v name="genvec2">      0.00000000      0.08333333      0.00000000</v>
   <v name="genvec3">      0.00000000      0.00000000      0.08333333</v>
   <v name="shift">      0.00000000      0.00000000      0.00000000</v>
  </generation>
  <varray name="kpointlist" >
   <v>       0.00000000      0.00000000      0.00000000</v>
   <v>       0.08333333      0.00000000      0.00000000</v>
   <v>       0.16666667      0.00000000      0.00000000</v>
   <v>       0.25000000      0.00000000      0.00000000</v>
   <v>       0.33333333      0.00000000      0.00000000</v>
   <v>       0.41666667      0.00000000      0.00000000</v>
   <v>       0.50000000      0.00000000      0.00000000</v>
   <v>       0.08333333      0.08333333      0.00000000</v>
   <v>       0.16666667      0.08333333      0.00000000</v>
   <v>       0.25000000      0.08333333      0.00000000</v>
   <v>       0.33333333      0.08333333      0.00000000</v>
   <v>       0.41666667      0.08333333      0.00000000</v>
   <v>       0.50000000      0.08333333      0.00000000</v>
   <v>       0.16666667      0.16666667      0.00000000</v>
   <v>       0.25000000      0.16666667      0.00000000</v>
   <v>       0.33333333      0.16666667      0.00000000</v>
   <v>       0.41666667      0.16666667      0.00000000</v>
   <v>       0.50000000      0.16666667      0.00000000</v>
   <v>       0.25000000      0.25000000      0.00000000</v>
   <v>       0.33333333      0.25000000      0.00000000</v>
   <v>       0.41666667      0.25000000      0.00000000</v>
   <v>       0.50000000      0.25000000      0.00000000</v>
   <v>       0.33333333      0.33333333      0.00000000</v>
   <v>       0.41666667      0.33333333      0.00000000</v>
   <v>       0.50000000      0.33333333      0.00000000</v>
   <v>       0.41666667      0.41666667      0.00000000</v>
   <v>       0.50000000      0.41666667      0.00000000</v>
   <v>       0.50000000      0.50000000      0.00000000</v>
   <v>       0.08333333      0.08333333      0.08333333</v>
   <v>       0.16666667      0.08333333      0.08333333</v>
   <v>       0.25000000      0.08333333      0.08333333</v>
   <v>       0.33333333      0.08333333      0.08333333</v>
   <v>       0.41666667      0.08333333      0.08333333</v>
   <v>       0.50000000      0.08333333      0.08333333</v>
   <v>       0.16666667      0.16666667      0.08333333</v>
   <v>       0.25000000      0.16666667      0.08333333</v>
   <v>       0.33333333      0.16666667      0.08333333</v>
   <v>       0.41666667      0.16666667      0.08333333</v>
   <v>       0.50000000      0.16666667      0.08333333</v>
   <v>       0.25000000      0.25000000      0.08333333</v>
   <v>       0.33333333      0.25000000      0.08333333</v>
   <v>       0.41666667      0.25000000      0.08333333</v>
   <v>       0.50000000      0.25000000      0.08333333</v>
   <v>       0.33333333      0.33333333      0.08333333</v>
   <v>       0.41666667      0.33333333      0.08333333</v>
   <v>       0.50000000      0.33333333      0.08333333</v>
   <v>       0.41666667      0.41666667      0.08333333</v>
   <v>       0.50000000      0.41666667      0.08333333</v>
   <v>       0.50000000      0.50000000      0.08333333</v>
   <v>       0.16666667      0.16666667      0.16666667</v>
   <v>       0.25000000      0.16666667      0.16666667</v>
   <v>       0.33333333      0.16666667      0.16666667</v>
   <v>       0.41666667      0.16666667      0.16666667</v>
   <v>       0.50000000      0.16666667      0.16666667</v>
   <v>       0.25000000      0.25000000      0.16666667</v>
   <v>       0.33333333      0.25000000      0.16666667</v>
   <v>       0.41666667      0.25000000      0.16666667</v>
   <v>       0.50000000      0.25000000      0.16666667</v>
   <v>       0.33333333      0.33333333      0.16666667</v>
   <v>       0.41666667      0.33333333      0.16666667</v>
   <v>       0.50000000      0.33333333      0.16666667</v>
   <v>       0.41666667      0.41666667      0.16666667</v>
   <v>       0.50000000      0.41666667      0.16666667</v>
   <v>       0.50000000      0.50000000      0.16666667</v>
   <v>       0.25000000      0.25000000      0.25000000</v>
   <v>       0.33333333      0.25000000      0.25000000</v>
   <v>       0.41666667      0.25000000      0.25000000</v>
   <v>       0.50000000      0.25000000      0.25000000</v>
   <v>       0.33333333      0.33333333      0.25000000</v>
   <v>       0.41666667      0.33333333      0.25000000</v>
   <v>       0.50000000      0.33333333      0.25000000</v>
   <v>       0.41666667      0.41666667      0.25000000</v>
   <v>       0.50000000      0.41666667      0.25000000</v>
   <v>       0.50000000      0.50000000      0.25000000</v>
   <v>       0.33333333      0.33333333      0.33333333</v>
   <v>       0.41666667      0.33333333      0.33333333</v>
   <v>       0.50000000      0.33333333      0.33333333</v>
   <v>       0.41666667      0.41666667      0.33333333</v>
   <v>       0.50000000      0.41666667      0.33333333</v>
   <v>       0.50000000      0.50000000      0.33333333</v>
   <v>       0.41666667      0.41666667      0.41666667</v>
   <v>       0.50000000      0.41666667      0.41666667</v>
   <v>       0.50000000      0.50000000      0.41666667</v>
   <v>       0.50000000      0.50000000      0.50000000</v>
  </varray>
  <varray name="weights" >
   <v>       0.00057870</v>
   <v>       0.00347222</v>
   <v>       0.00347222</v>
   <v>       0.00347222</v>
   <v>       0.00347222</v>
   <v>       0.00347222</v>
   <v>       0.00173611</v>
   <v>       0.00694444</v>
   <v>       0.01388889</v>
   <v>       0.01388889</v>
   <v>       0.01388889</v>
   <v>       0.01388889</v>
   <v>       0.00694444</v>
   <v>       0.00694444</v>
   <v>       0.01388889</v>
   <v>       0.01388889</v>
   <v>       0.01388889</v>
   <v>       0.00694444</v>
   <v>       0.00694444</v>
   <v>       0.01388889</v>
   <v>       0.01388889</v>
   <v>       0.00694444</v>
   <v>       0.00694444</v>
   <v>       0.01388889</v>
   <v>       0.00694444</v>
   <v>       0.00694444</v>
   <v>       0.00694444</v>
   <v>       0.00173611</v>
   <v>       0.00462963</v>
   <v>       0.01388889</v>
   <v>       0.01388889</v>
   <v>       0.01388889</v>
   <v>       0.01388889</v>
   <v>       0.00694444</v>
   <v>       0.01388889</v>
   <v>       0.02777778</v>
   <v>       0.02777778</v>
   <v>       0.02777778</v>
   <v>       0.01388889</v>
   <v>       0.01388889</v>
   <v>       0.02777778</v>
   <v>       0.02777778</v>
   <v>       0.01388889</v>
   <v>       0.01388889</v>
   <v>       0.02777778</v>
   <v>       0.01388889</v>
   <v>       0.01388889</v>
   <v>       0.01388889</v>
   <v>       0.00347222</v>
   <v>       0.00462963</v>
   <v>       0.01388889</v>
   <v>       0.01388889</v>
   <v>       0.01388889</v>
   <v>       0.00694444</v>
   <v>       0.01388889</v>
   <v>       0.02777778</v>
   <v>       0.02777778</v>
   <v>       0.01388889</v>
   <v>       0.01388889</v>
   <v>       0.02777778</v>
   <v>       0.01388889</v>
   <v>       0.01388889</v>
   <v>       0.01388889</v>
   <v>       0.00347222</v>
   <v>       0.00462963</v>
   <v>       0.01388889</v>
   <v>       0.01388889</v>
   <v>       0.00694444</v>
   <v>       0.01388889</v>
   <v>       0.02777778</v>
   <v>       0.01388889</v>
   <v>       0.01388889</v>
   <v>       0.01388889</v>
   <v>       0.00347222</v>
   <v>       0.00462963</v>
   <v>       0.01388889</v>
   <v>       0.00694444</v>
   <v>       0.01388889</v>
   <v>       0.01388889</v>
   <v>       0.00347222</v>
   <v>       0.00462963</v>
   <v>       0.00694444</v>
   <v>       0.00347222</v>
   <v>       0.00057870</v>
  </varray>
 </kpoints>
 <parameters>
  <separator name="general" >
   <i type="string" name="SYSTEM">unknown system</i>
   <i type="logical" name="LCOMPAT"> F  </i>
  </separator>
  <separator name="electronic" >
   <i type="string" name="PREC">accura</i>
   <i name="ENMAX">    750.00000000</i>
   <i name="ENAUG">    516.45600000</i>
   <i name="EDIFF">      0.00000001</i>
   <i type="int" name="IALGO">    38</i>
   <i type="int" name="IWAVPR">    10</i>
   <i type="int" name="NBANDS">    26</i>
   <i name="NELECT">     44.00000000</i>
   <separator name="electronic smearing" >
    <i type="int" name="ISMEAR">     0</i>
    <i name="SIGMA">      0.01000000</i>
   </separator>
   <separator name="electronic projectors" >
    <i type="logical" name="LREAL"> F  </i>
    <v name="ROPT">      0.00000000</v>
    <i type="int" name="LMAXPAW">  -100</i>
    <i type="int" name="LMAXMIX">     2</i>
   </separator>
   <separator name="electronic startup" >
    <i type="int" name="ISTART">     0</i>
    <i type="int" name="ICHARG">     2</i>
    <i type="int" name="INIWAV">     1</i>
   </separator>
   <separator name="electronic spin" >
    <i type="int" name="ISPIN">     1</i>
    <i type="logical" name="LNONCOLLINEAR"> F  </i>
    <v name="MAGMOM">      1.00000000      1.00000000      1.00000000      1.00000000</v>
    <i name="NUPDOWN">     -1.00000000</i>
    <i type="logical" name="LSORBIT"> F  </i>
    <v name="SAXIS">      0.00000000      0.00000000      1.00000000</v>
    <i type="logical" name="LSPIRAL"> F  </i>
    <v name="QSPIRAL">      0.00000000      0.00000000      0.00000000</v>
    <i type="logical" name="LZEROZ"> F  </i>
   </separator>
   <separator name="electronic exchange-correlation" >
    <i type="string" name="GGA">--</i>
    <i type="int" name="VOSKOWN">     0</i>
    <i type="logical" name="LASPH"> F  </i>
    <i type="logical" name="LMETAGGA"> F  </i>
    <i type="string" name="GGA2">--</i>
   </separator>
   <separator name="electronic convergence" >
    <i type="int" name="NELM">    60</i>
    <i type="int" name="NELMDL">     0</i>
    <i type="int" name="NELMIN">     2</i>
    <i name="ENINI">    750.00000000</i>
    <separator name="electronic convergence detail" >
     <i type="logical" name="LDIAG"> T  </i>
     <i name="WEIMIN">      0.00000000</i>
     <i name="EBREAK">      0.00000000</i>
     <i name="DEPER">      0.30000000</i>
     <i type="int" name="NRMM">     4</i>
     <i name="TIME">      0.10000000</i>
    </separator>
   </separator>
   <separator name="electronic mixer" >
    <i name="AMIX">      0.40000000</i>
    <i name="BMIX">      1.00000000</i>
    <i name="AMIN">      0.10000000</i>
    <i name="AMIX_MAG">      1.60000000</i>
    <i name="BMIX_MAG">      1.00000000</i>
    <separator name="electronic mixer details" >
     <i type="int" name="IMIX">     4</i>
     <i type="int" name="MAXMIX">   -45</i>
     <i name="WC">    100.00000000</i>
     <i type="int" name="INIMIX">     1</i>
     <i type="int" name="MIXPRE">     1</i>
     <i type="int" name="MREMOVE">     5</i>
    </separator>
   </separator>
   <separator name="electronic dipolcorrection" >
    <i type="int" name="IDIPOL">     0</i>
    <i type="logical" name="LDIPOL"> F  </i>
    <v name="DIPOL">   -100.00000000</v>
    <i name="EFIELD">      0.00000000</i>
   </separator>
  </separator>
  <separator name="grids" >
   <i type="int" name="NGX">    36</i>
   <i type="int" name="NGY">    36</i>
   <i type="int" name="NGZ">    36</i>
   <i type="int" name="NGXF">    72</i>
   <i type="int" name="NGYF">    72</i>
   <i type="int" name="NGZF">    72</i>
   <i type="logical" name="ADDGRID"> T  </i>
  </separator>
  <separator name="ionic" >
   <i type="int" name="NSW">     0</i>
   <i type="int" name="IBRION">    -1</i>
   <i type="int" name="ISIF">     2</i>
   <i name="PSTRESS">      0.00000000</i>
   <i name="EDIFFG">      0.00000010</i>
   <i type="int" name="NFREE">     0</i>
   <i name="POTIM">      0.50000000</i>
   <i name="SMASS">     -3.00000000</i>
  </separator>
  <separator name="ionic md" >
   <i name="TEBEG">      0.00010000</i>
   <i name="TEEND">      0.00010000</i>
   <i type="int" name="NBLOCK">     1</i>
   <i type="int" name="KBLOCK">     1</i>
   <i type="int" name="NPACO">   256</i>
   <i name="APACO">     16.00000000</i>
  </separator>
  <separator name="symmetry" >
   <i type="int" name="ISYM">     2</i>
   <i name="SYMPREC">      0.00001000</i>
  </separator>
  <separator name="dos" >
   <i type="logical" name="LORBIT"> F  </i>
   <v name="RWIGS">     -1.00000000</v>
   <i type="int" name="NEDOS">   301</i>
   <i name="EMIN">     10.00000000</i>
   <i name="EMAX">    -10.00000000</i>
  </separator>
  <separator name="writing" >
   <i type="int" name="NWRITE">     2</i>
   <i type="logical" name="LWAVE"> F  </i>
   <i type="logical" name="LCHARG"> F  </i>
   <i type="logical" name="LPARD"> F  </i>
   <i type="logical" name="LVTOT"> F  </i>
   <i type="logical" name="LELF"> F  </i>
   <i type="logical" name="LOPTICS"> F  </i>
   <i name="STM">      0.00000000</i>
  </separator>
  <separator name="performance" >
   <i type="int" name="NPAR">     2</i>
   <i type="int" name="NSIM">     4</i>
   <i type="int" name="NBLK">   256</i>
   <i type="logical" name="LPLANE"> T  </i>
   <i type="logical" name="LCRITICAL_MEM"> F  </i>
   <i type="logical" name="LSCALAPACK"> F  </i>
   <i type="logical" name="LSCALU"> F  </i>
   <i type="logical" name="LASYNC"> F  </i>
  </separator>
  <separator name="miscellaneous" >
   <i type="int" name="IDIOT">     3</i>
   <i type="logical" name="LMUSIC"> F  </i>
   <v name="POMASS">     63.54600000</v>
   <i type="logical" name="LCORR"> T  </i>
  </separator>
  <i type="logical" name="LREAL_COMPAT"> F  </i>
  <i type="logical" name="GGA_COMPAT"> T  </i>
  <i type="logical" name="LBERRY"> F  </i>
  <i type="int" name="ICORELEVEL">     0</i>
  <i type="logical" name="LDAU"> F  </i>
  <i type="int" name="I_CONSTRAINED_M">     0</i>
 </parameters>
 <atominfo>
  <atoms>       4</atoms>
  <types>       1</types>
  <array name="atoms" >
   <dimension dim="1">ion</dimension>
   <field type="string">element</field>
   <field type="int">atomtype</field>
   <set>
    <rc><c>Cu</c><c>   1</c></rc>
    <rc><c>Cu</c><c>   1</c></rc>
    <rc><c>Cu</c><c>   1</c></rc>
    <rc><c>Cu</c><c>   1</c></rc>
   </set>
  </array>
  <array name="atomtypes" >
   <dimension dim="1">type</dimension>
   <field type="int">atomspertype</field>
   <field type="string">element</field>
   <field>mass</field>
   <field>valence</field>
   <field type="string">pseudopotential</field>
   <set>
    <rc><c>   4</c><c>Cu</c><c>     63.54600000</c><c>     11.00000000</c><c> PAW_PBE Cu 05Jan2001                   </c></rc>
   </set>
  </array>
 </atominfo>
 <structure name="initialpos" >
  <crystal>
   <varray name="basis" >
    <v>       3.67277997      0.00000000      0.00000000</v>
    <v>       0.00000000      3.67277997      0.00000000</v>
    <v>       0.00000000      0.00000000      3.67277997</v>
   </varray>
   <i name="volume">     49.54327752</i>
   <varray name="rec_basis" >
    <v>       0.27227332      0.00000000      0.00000000</v>
    <v>       0.00000000      0.27227332      0.00000000</v>
    <v>       0.00000000      0.00000000      0.27227332</v>
   </varray>
  </crystal>
  <varray name="positions" >
   <v>       0.00000000      0.00000000      0.00000000</v>
   <v>       0.50000000      0.50000000      0.00000000</v>
   <v>       0.50000000      0.00000000      0.50000000</v>
   <v>       0.00000000      0.50000000      0.50000000</v>
  </varray>
 </structure>
 <calculation>
  <scstep>
   <time name="dav">   30.10  285.01</time>
   <time name="total">   30.84  290.17</time>
   <energy>
    <i name="alphaZ">    412.60896542</i>
    <i name="ewald">  -4350.13573108</i>
    <i name="hartreedc">  -1341.62067272</i>
    <i name="XCdc">    175.08723113</i>
    <i name="pawpsdc">   4328.20916945</i>
    <i name="pawaedc">  -4904.30802700</i>
    <i name="eentropy">     -0.00027152</i>
    <i name="bandstr">    434.83753232</i>
    <i name="atom">   5563.91755062</i>
    <i name="e_fr_energy">    318.59574661</i>
    <i name="e_wo_entrp">    318.59601813</i>
    <i name="e_0_energy">    318.59588237</i>
   </energy>
  </scstep>
  <scstep>
   <time name="dav">   34.75  347.43</time>
   <time name="total">   34.77  347.67</time>
   <energy>
    <i name="e_fr_energy">      1.14151805</i>
    <i name="e_wo_entrp">      1.14161667</i>
    <i name="e_0_energy">      1.14156736</i>
   </energy>
  </scstep>
  <scstep>
   <time name="dav">   31.98  319.70</time>
   <time name="total">   32.00  319.91</time>
   <energy>
    <i name="e_fr_energy">    -18.05780786</i>
    <i name="e_wo_entrp">    -18.05764102</i>
    <i name="e_0_energy">    -18.05772444</i>
   </energy>
  </scstep>
  <scstep>
   <time name="dav">   31.81  318.01</time>
   <time name="total">   31.82  318.12</time>
   <energy>
    <i name="e_fr_energy">    -18.27703643</i>
    <i name="e_wo_entrp">    -18.27692306</i>
    <i name="e_0_energy">    -18.27697974</i>
   </energy>
  </scstep>
  <scstep>
   <time name="dav">   32.94  329.42</time>
   <time name="total">   33.65  336.54</time>
   <energy>
    <i name="e_fr_energy">    -18.27790565</i>
    <i name="e_wo_entrp">    -18.27779227</i>
    <i name="e_0_energy">    -18.27784896</i>
   </energy>
  </scstep>
  <scstep>
   <time name="dav">   33.63  336.40</time>
   <time name="total">   35.07  350.72</time>
   <energy>
    <i name="e_fr_energy">    -16.24598877</i>
    <i name="e_wo_entrp">    -16.24595212</i>
    <i name="e_0_energy">    -16.24597044</i>
   </energy>
  </scstep>
  <scstep>
   <time name="dav">   32.60  325.99</time>
   <time name="total">   33.99  339.94</time>
   <energy>
    <i name="e_fr_energy">    -14.90178570</i>
    <i name="e_wo_entrp">    -14.90164663</i>
    <i name="e_0_energy">    -14.90171617</i>
   </energy>
  </scstep>
  <scstep>
   <time name="dav">   33.86  338.55</time>
   <time name="total">   35.46  354.54</time>
   <energy>
    <i name="e_fr_energy">    -14.87505540</i>
    <i name="e_wo_entrp">    -14.87491632</i>
    <i name="e_0_energy">    -14.87498586</i>
   </energy>
  </scstep>
  <scstep>
   <time name="dav">   31.35  310.13</time>
   <time name="total">   32.92  325.15</time>
   <energy>
    <i name="e_fr_energy">    -14.86325777</i>
    <i name="e_wo_entrp">    -14.86311870</i>
    <i name="e_0_energy">    -14.86318824</i>
   </energy>
  </scstep>
  <scstep>
   <time name="dav">   29.66  266.95</time>
   <time name="total">   30.97  278.73</time>
   <energy>
    <i name="e_fr_energy">    -14.86334111</i>
    <i name="e_wo_entrp">    -14.86320204</i>
    <i name="e_0_energy">    -14.86327157</i>
   </energy>
  </scstep>
  <scstep>
   <time name="dav">   29.23  263.04</time>
   <time name="total">   30.52  274.70</time>
   <energy>
    <i name="e_fr_energy">    -14.86333535</i>
    <i name="e_wo_entrp">    -14.86319627</i>
    <i name="e_0_energy">    -14.86326581</i>
   </energy>
  </scstep>
  <scstep>
   <time name="dav">   27.50  231.12</time>
   <time name="total">   28.98  243.68</time>
   <energy>
    <i name="e_fr_energy">    -14.86334052</i>
    <i name="e_wo_entrp">    -14.86320144</i>
    <i name="e_0_energy">    -14.86327098</i>
   </energy>
  </scstep>
  <scstep>
   <time name="dav">   24.33  166.54</time>
   <time name="total">   25.55  174.82</time>
   <energy>
    <i name="e_fr_energy">    -14.86334126</i>
    <i name="e_wo_entrp">    -14.86320219</i>
    <i name="e_0_energy">    -14.86327173</i>
   </energy>
  </scstep>
  <scstep>
   <time name="dav">    9.76   40.44</time>
   <time name="total">   11.93   50.66</time>
   <energy>
    <i name="e_fr_energy">    -14.86334132</i>
    <i name="e_wo_entrp">    -14.86320225</i>
    <i name="e_0_energy">    -14.86327179</i>
   </energy>
  </scstep>
  <scstep>
   <time name="dav">    9.52   38.06</time>
   <time name="total">   10.70   42.80</time>
   <energy>
    <i name="e_fr_energy">    -14.86334131</i>
    <i name="e_wo_entrp">    -14.86320223</i>
    <i name="e_0_energy">    -14.86327177</i>
   </energy>
  </scstep>
  <scstep>
   <time name="dav">   10.46   41.82</time>
   <time name="total">   11.65   46.58</time>
   <energy>
    <i name="e_fr_energy">    -14.86334129</i>
    <i name="e_wo_entrp">    -14.86320222</i>
    <i name="e_0_energy">    -14.86327176</i>
   </energy>
  </scstep>
  <scstep>
   <time name="dav">    7.48   29.41</time>
   <time name="total">    8.02   31.56</time>
   <energy>
    <i name="alphaZ">    412.60896542</i>
    <i name="ewald">  -4350.13573108</i>
    <i name="hartreedc">  -1255.03435872</i>
    <i name="XCdc">    170.84944687</i>
    <i name="pawpsdc">   4366.75637811</i>
    <i name="pawaedc">  -4944.97750932</i>
    <i name="eentropy">     -0.00013907</i>
    <i name="bandstr">     21.15205588</i>
    <i name="atom">   5563.91755062</i>
    <i name="e_fr_energy">    -14.86334129</i>
    <i name="e_wo_entrp">    -14.86320222</i>
    <i name="e_0_energy">    -14.86327176</i>
   </energy>
  </scstep>
  <structure>
   <crystal>
    <varray name="basis" >
     <v>       3.67277997      0.00000000      0.00000000</v>
     <v>       0.00000000      3.67277997      0.00000000</v>
     <v>       0.00000000      0.00000000      3.67277997</v>
    </varray>
    <i name="volume">     49.54327752</i>
    <varray name="rec_basis" >
     <v>       0.27227332      0.00000000      0.00000000</v>
     <v>       0.00000000      0.27227332      0.00000000</v>
     <v>       0.00000000      0.00000000      0.27227332</v>
    </varray>
   </crystal>
   <varray name="positions" >
    <v>       0.00000000      0.00000000      0.00000000</v>
    <v>       0.50000000      0.50000000      0.00000000</v>
    <v>       0.50000000      0.00000000      0.50000000</v>
    <v>       0.00000000      0.50000000      0.50000000</v>
   </varray>
  </structure>
  <varray name="forces" >
   <v>       0.00000000      0.00000000      0.00000000</v>
   <v>      -0.00000000      0.00000000      0.00000000</v>
   <v>       0.00000000     -0.00000000      0.00000000</v>
   <v>      -0.00000000     -0.00000000      0.00000000</v>
  </varray>
  <varray name="stress" >
   <v>     -37.38366052     -0.00000000      0.00000000</v>
   <v>      -0.00000000    -37.38366052     -0.00000000</v>
   <v>       0.00000000      0.00000000    -37.38366052</v>
  </varray>
  <energy>
   <i name="e_fr_energy">    -14.86334129</i>
   <i name="e_wo_entrp">    -14.86327176</i>
   <i name="e_0_energy">     -0.00013907</i>
  </energy>
  <eigenvalues>
   <array>
    <dimension dim="1">band</dimension>
    <dimension dim="2">kpoint</dimension>
    <dimension dim="3">spin</dimension>
    <field>eigene</field>
    <field>occ</field>
    <set>
     <set comment="spin 1">
      <set comment="kpoint 1">
       <r>  -5.5986  1.0000</r>
       <r>  -1.2279  1.0000</r>
       <r>  -1.2279  1.0000</r>
       <r>  -1.2279  1.0000</r>
       <r>  -0.8051  1.0000</r>
       <r>  -0.8051  1.0000</r>
       <r>  -0.8051  1.0000</r>
       <r>   0.4867  1.0000</r>
       <r>   0.4867  1.0000</r>
       <r>   0.4867  1.0000</r>
       <r>   1.2558  1.0000</r>
       <r>   1.2558  1.0000</r>
       <r>   1.7670  1.0000</r>
       <r>   1.7670  1.0000</r>
       <r>   1.7670  1.0000</r>
       <r>   1.9102  1.0000</r>
       <r>   1.9102  1.0000</r>
       <r>   1.9102  1.0000</r>
       <r>   1.9102  1.0000</r>
       <r>   1.9102  1.0000</r>
       <r>   1.9102  1.0000</r>
       <r>   4.9395  0.0000</r>
       <r>   4.9395  0.0000</r>
       <r>   4.9395  0.0000</r>
       <r>  10.1852  0.0000</r>
       <r>  10.1852  0.0000</r>
      </set>
      <set comment="kpoint 2">
       <r>  -5.5170  1.0000</r>
       <r>  -1.2295  1.0000</r>
       <r>  -1.1906  1.0000</r>
       <r>  -1.1906  1.0000</r>
       <r>  -0.7842  1.0000</r>
       <r>  -0.7830  1.0000</r>
       <r>  -0.7830  1.0000</r>
       <r>   0.4637  1.0000</r>
       <r>   0.5054  1.0000</r>
       <r>   0.5054  1.0000</r>
       <r>   1.2349  1.0000</r>
       <r>   1.2643  1.0000</r>
       <r>   1.7399  1.0000</r>
       <r>   1.7399  1.0000</r>
       <r>   1.7581  1.0000</r>
       <r>   1.7766  1.0000</r>
       <r>   1.7766  1.0000</r>
       <r>   1.8782  1.0000</r>
       <r>   1.8782  1.0000</r>
       <r>   1.9103  1.0000</r>
       <r>   1.9103  1.0000</r>
       <r>   4.4176  0.0000</r>
       <r>   5.1468  0.0000</r>
       <r>   5.1468  0.0000</r>
       <r>  10.2172  0.0000</r>
       <r>  10.2172  0.0000</r>
      </set>
      <set comment="kpoint 3">
       <r>  -5.2737  1.0000</r>
       <r>  -1.2503  1.0000</r>
       <r>  -1.0842  1.0000</r>
       <r>  -1.0842  1.0000</r>
       <r>  -0.7225  1.0000</r>
       <r>  -0.7160  1.0000</r>
       <r>  -0.7160  1.0000</r>
       <r>   0.3962  1.0000</r>
       <r>   0.5610  1.0000</r>
       <r>   0.5610  1.0000</r>
       <r>   1.1745  1.0000</r>
       <r>   1.2894  1.0000</r>
       <r>   1.4560  1.0000</r>
       <r>   1.4560  1.0000</r>
       <r>   1.6613  1.0000</r>
       <r>   1.6613  1.0000</r>
       <r>   1.7321  1.0000</r>
       <r>   1.7866  1.0000</r>
       <r>   1.7866  1.0000</r>
       <r>   1.9104  1.0000</r>
       <r>   1.9104  1.0000</r>
       <r>   3.3357  1.0000</r>
       <r>   5.6881  0.0000</r>
       <r>   5.6881  0.0000</r>
       <r>  10.3161  0.0000</r>
       <r>  10.3161  0.0000</r>
      </set>
      <set comment="kpoint 4">
       <r>  -4.8742  1.0000</r>
       <r>  -1.3478  1.0000</r>
       <r>  -0.9252  1.0000</r>
       <r>  -0.9252  1.0000</r>
       <r>  -0.6237  1.0000</r>
       <r>  -0.6033  1.0000</r>
       <r>  -0.6033  1.0000</r>
       <r>   0.2896  1.0000</r>
       <r>   0.6521  1.0000</r>
       <r>   0.6521  1.0000</r>
       <r>   1.0694  1.0000</r>
       <r>   1.0694  1.0000</r>
       <r>   1.0824  1.0000</r>
       <r>   1.3294  1.0000</r>
       <r>   1.5402  1.0000</r>
       <r>   1.5402  1.0000</r>
       <r>   1.6470  1.0000</r>
       <r>   1.6470  1.0000</r>
       <r>   1.6908  1.0000</r>
       <r>   1.9106  1.0000</r>
       <r>   1.9106  1.0000</r>
       <r>   2.2365  1.0000</r>
       <r>   6.4410  0.0000</r>
       <r>   6.4410  0.0000</r>
       <r>  10.4906  0.0000</r>
       <r>  10.4906  0.0000</r>
      </set>
      <set comment="kpoint 5">
       <r>  -4.3298  1.0000</r>
       <r>  -1.6331  1.0000</r>
       <r>  -0.7448  1.0000</r>
       <r>  -0.7448  1.0000</r>
       <r>  -0.4939  1.0000</r>
       <r>  -0.4431  1.0000</r>
       <r>  -0.4431  1.0000</r>
       <r>   0.1519  1.0000</r>
       <r>   0.6850  1.0000</r>
       <r>   0.6850  1.0000</r>
       <r>   0.7760  1.0000</r>
       <r>   0.7760  1.0000</r>
       <r>   0.9737  1.0000</r>
       <r>   1.3817  1.0000</r>
       <r>   1.3975  1.0000</r>
       <r>   1.3975  1.0000</r>
       <r>   1.4002  1.0000</r>
       <r>   1.4755  1.0000</r>
       <r>   1.4755  1.0000</r>
       <r>   1.6372  1.0000</r>
       <r>   1.9107  1.0000</r>
       <r>   1.9107  1.0000</r>
       <r>   7.3352  0.0000</r>
       <r>   7.3352  0.0000</r>
       <r>  10.7537  0.0000</r>
       <r>  10.7537  0.0000</r>
      </set>
      <set comment="kpoint 6">
       <r>  -3.6623  1.0000</r>
       <r>  -2.1876  1.0000</r>
       <r>  -0.5927  1.0000</r>
       <r>  -0.5927  1.0000</r>
       <r>  -0.3410  1.0000</r>
       <r>  -0.2341  1.0000</r>
       <r>  -0.2341  1.0000</r>
       <r>  -0.0068  1.0000</r>
       <r>   0.3327  1.0000</r>
       <r>   0.3327  1.0000</r>
       <r>   0.8753  1.0000</r>
       <r>   0.9283  1.0000</r>
       <r>   0.9283  1.0000</r>
       <r>   0.9606  1.0000</r>
       <r>   1.2729  1.0000</r>
       <r>   1.2729  1.0000</r>
       <r>   1.2889  1.0000</r>
       <r>   1.2889  1.0000</r>
       <r>   1.4428  1.0000</r>
       <r>   1.5751  1.0000</r>
       <r>   1.9109  1.0000</r>
       <r>   1.9109  1.0000</r>
       <r>   8.3377  0.0000</r>
       <r>   8.3377  0.0000</r>
       <r>  10.6073  0.0000</r>
       <r>  10.6073  0.0000</r>
      </set>
      <set comment="kpoint 7">
       <r>  -2.9166  1.0000</r>
       <r>  -2.9166  1.0000</r>
       <r>  -0.5310  1.0000</r>
       <r>  -0.5310  1.0000</r>
       <r>  -0.1750  1.0000</r>
       <r>  -0.1750  1.0000</r>
       <r>   0.0248  1.0000</r>
       <r>   0.0248  1.0000</r>
       <r>   0.0248  1.0000</r>
       <r>   0.0248  1.0000</r>
       <r>   0.8379  1.0000</r>
       <r>   0.8379  1.0000</r>
       <r>   1.1024  1.0000</r>
       <r>   1.1024  1.0000</r>
       <r>   1.1024  1.0000</r>
       <r>   1.1024  1.0000</r>
       <r>   1.2212  1.0000</r>
       <r>   1.2212  1.0000</r>
       <r>   1.5088  1.0000</r>
       <r>   1.5088  1.0000</r>
       <r>   1.9109  1.0000</r>
       <r>   1.9109  1.0000</r>
       <r>   9.4319  0.0000</r>
       <r>   9.4319  0.0000</r>
       <r>   9.4319  0.0000</r>
       <r>   9.4319  0.0000</r>
      </set>
      <set comment="kpoint 8">
       <r>  -5.4357  1.0000</r>
       <r>  -1.1913  1.0000</r>
       <r>  -1.1913  1.0000</r>
       <r>  -1.1543  1.0000</r>
       <r>  -0.7624  1.0000</r>
       <r>  -0.7624  1.0000</r>
       <r>  -0.7615  1.0000</r>
       <r>   0.4509  1.0000</r>
       <r>   0.5143  1.0000</r>
       <r>   0.5222  1.0000</r>
       <r>   1.2292  1.0000</r>
       <r>   1.2595  1.0000</r>
       <r>   1.6777  1.0000</r>
       <r>   1.6989  1.0000</r>
       <r>   1.6989  1.0000</r>
       <r>   1.7140  1.0000</r>
       <r>   1.7699  1.0000</r>
       <r>   1.7699  1.0000</r>
       <r>   1.8782  1.0000</r>
       <r>   1.8782  1.0000</r>
       <r>   1.8897  1.0000</r>
       <r>   4.6208  0.0000</r>
       <r>   4.6208  0.0000</r>
       <r>   5.3402  0.0000</r>
       <r>  10.2496  0.0000</r>
       <r>  10.9153  0.0000</r>
      </set>
      <set comment="kpoint 9">
       <r>  -5.1934  1.0000</r>
       <r>  -1.2092  1.0000</r>
       <r>  -1.0821  1.0000</r>
       <r>  -1.0506  1.0000</r>
       <r>  -0.7019  1.0000</r>
       <r>  -0.6969  1.0000</r>
       <r>  -0.6967  1.0000</r>
       <r>   0.3902  1.0000</r>
       <r>   0.5645  1.0000</r>
       <r>   0.5718  1.0000</r>
       <r>   1.1770  1.0000</r>
       <r>   1.2825  1.0000</r>
       <r>   1.3933  1.0000</r>
       <r>   1.3949  1.0000</r>
       <r>   1.5834  1.0000</r>
       <r>   1.6386  1.0000</r>
       <r>   1.6695  1.0000</r>
       <r>   1.7415  1.0000</r>
       <r>   1.7863  1.0000</r>
       <r>   1.8781  1.0000</r>
       <r>   1.8786  1.0000</r>
       <r>   3.5531  0.0000</r>
       <r>   5.1358  0.0000</r>
       <r>   5.8552  0.0000</r>
       <r>  10.3492  0.0000</r>
       <r>  11.0476  0.0000</r>
      </set>
      <set comment="kpoint 10">
       <r>  -4.7957  1.0000</r>
       <r>  -1.3017  1.0000</r>
       <r>  -0.9185  1.0000</r>
       <r>  -0.8951  1.0000</r>
       <r>  -0.6052  1.0000</r>
       <r>  -0.5889  1.0000</r>
       <r>  -0.5862  1.0000</r>
       <r>   0.2874  1.0000</r>
       <r>   0.6503  1.0000</r>
       <r>   0.6540  1.0000</r>
       <r>   1.0089  1.0000</r>
       <r>   1.0340  1.0000</r>
       <r>   1.0928  1.0000</r>
       <r>   1.3272  1.0000</r>
       <r>   1.3825  1.0000</r>
       <r>   1.5221  1.0000</r>
       <r>   1.5477  1.0000</r>
       <r>   1.6466  1.0000</r>
       <r>   1.6884  1.0000</r>
       <r>   1.8760  1.0000</r>
       <r>   1.8778  1.0000</r>
       <r>   2.5204  1.0000</r>
       <r>   5.8303  0.0000</r>
       <r>   6.5857  0.0000</r>
       <r>  10.5199  0.0000</r>
       <r>  11.2792  0.0000</r>
      </set>
      <set comment="kpoint 11">
       <r>  -4.2540  1.0000</r>
       <r>  -1.5803  1.0000</r>
       <r>  -0.7317  1.0000</r>
       <r>  -0.7165  1.0000</r>
       <r>  -0.4780  1.0000</r>
       <r>  -0.4386  1.0000</r>
       <r>  -0.4293  1.0000</r>
       <r>   0.1533  1.0000</r>
       <r>   0.6312  1.0000</r>
       <r>   0.6672  1.0000</r>
       <r>   0.7407  1.0000</r>
       <r>   0.7769  1.0000</r>
       <r>   1.0104  1.0000</r>
       <r>   1.0792  1.0000</r>
       <r>   1.3849  1.0000</r>
       <r>   1.3867  1.0000</r>
       <r>   1.4049  1.0000</r>
       <r>   1.4750  1.0000</r>
       <r>   1.5905  1.0000</r>
       <r>   1.8561  1.0000</r>
       <r>   1.8756  1.0000</r>
       <r>   1.8775  1.0000</r>
       <r>   6.6354  0.0000</r>
       <r>   7.4636  0.0000</r>
       <r>  10.5580  0.0000</r>
       <r>  10.9056  0.0000</r>
      </set>
      <set comment="kpoint 12">
       <r>  -3.5904  1.0000</r>
       <r>  -2.1277  1.0000</r>
       <r>  -0.5715  1.0000</r>
       <r>  -0.5627  1.0000</r>
       <r>  -0.3283  1.0000</r>
       <r>  -0.2469  1.0000</r>
       <r>  -0.2247  1.0000</r>
       <r>  -0.0015  1.0000</r>
       <r>   0.2886  1.0000</r>
       <r>   0.3271  1.0000</r>
       <r>   0.7703  1.0000</r>
       <r>   0.8220  1.0000</r>
       <r>   0.9286  1.0000</r>
       <r>   1.0257  1.0000</r>
       <r>   1.2663  1.0000</r>
       <r>   1.2781  1.0000</r>
       <r>   1.2884  1.0000</r>
       <r>   1.3806  1.0000</r>
       <r>   1.4574  1.0000</r>
       <r>   1.6319  1.0000</r>
       <r>   1.8760  1.0000</r>
       <r>   1.8770  1.0000</r>
       <r>   7.5227  0.0000</r>
       <r>   8.4548  0.0000</r>
       <r>   9.5150  0.0000</r>
       <r>  10.7113  0.0000</r>
      </set>
      <set comment="kpoint 13">
       <r>  -2.8500  1.0000</r>
       <r>  -2.8500  1.0000</r>
       <r>  -0.5025  1.0000</r>
       <r>  -0.5025  1.0000</r>
       <r>  -0.1659  1.0000</r>
       <r>  -0.1659  1.0000</r>
       <r>  -0.0060  1.0000</r>
       <r>  -0.0060  1.0000</r>
       <r>   0.0279  1.0000</r>
       <r>   0.0279  1.0000</r>
       <r>   0.7476  1.0000</r>
       <r>   0.7476  1.0000</r>
       <r>   1.1022  1.0000</r>
       <r>   1.1022  1.0000</r>
       <r>   1.1727  1.0000</r>
       <r>   1.1727  1.0000</r>
       <r>   1.2212  1.0000</r>
       <r>   1.2212  1.0000</r>
       <r>   1.5368  1.0000</r>
       <r>   1.5368  1.0000</r>
       <r>   1.8765  1.0000</r>
       <r>   1.8765  1.0000</r>
       <r>   8.4826  0.0000</r>
       <r>   8.4826  0.0000</r>
       <r>   9.5411  0.0000</r>
       <r>   9.5411  0.0000</r>
      </set>
      <set comment="kpoint 14">
       <r>  -4.9542  1.0000</r>
       <r>  -1.0914  1.0000</r>
       <r>  -1.0914  1.0000</r>
       <r>  -0.9546  1.0000</r>
       <r>  -0.6400  1.0000</r>
       <r>  -0.6400  1.0000</r>
       <r>  -0.6393  1.0000</r>
       <r>   0.3538  1.0000</r>
       <r>   0.5944  1.0000</r>
       <r>   0.6032  1.0000</r>
       <r>   1.1582  1.0000</r>
       <r>   1.2059  1.0000</r>
       <r>   1.2337  1.0000</r>
       <r>   1.2337  1.0000</r>
       <r>   1.2903  1.0000</r>
       <r>   1.5721  1.0000</r>
       <r>   1.6645  1.0000</r>
       <r>   1.6645  1.0000</r>
       <r>   1.7856  1.0000</r>
       <r>   1.7856  1.0000</r>
       <r>   1.8286  1.0000</r>
       <r>   4.0531  0.0000</r>
       <r>   4.0531  0.0000</r>
       <r>   6.3164  0.0000</r>
       <r>  10.4438  0.0000</r>
       <r>  11.7404  0.0000</r>
      </set>
      <set comment="kpoint 15">
       <r>  -4.5621  1.0000</r>
       <r>  -1.1690  1.0000</r>
       <r>  -0.9135  1.0000</r>
       <r>  -0.8104  1.0000</r>
       <r>  -0.5493  1.0000</r>
       <r>  -0.5445  1.0000</r>
       <r>  -0.5359  1.0000</r>
       <r>   0.2715  1.0000</r>
       <r>   0.6489  1.0000</r>
       <r>   0.6697  1.0000</r>
       <r>   0.8516  1.0000</r>
       <r>   0.9241  1.0000</r>
       <r>   1.0035  1.0000</r>
       <r>   1.0989  1.0000</r>
       <r>   1.3430  1.0000</r>
       <r>   1.4685  1.0000</r>
       <r>   1.5488  1.0000</r>
       <r>   1.6218  1.0000</r>
       <r>   1.6453  1.0000</r>
       <r>   1.7845  1.0000</r>
       <r>   1.7999  1.0000</r>
       <r>   3.0206  1.0000</r>
       <r>   4.6836  0.0000</r>
       <r>   6.9956  0.0000</r>
       <r>  10.2680  0.0000</r>
       <r>  10.7597  0.0000</r>
      </set>
      <set comment="kpoint 16">
       <r>  -4.0290  1.0000</r>
       <r>  -1.4280  1.0000</r>
       <r>  -0.7066  1.0000</r>
       <r>  -0.6390  1.0000</r>
       <r>  -0.4303  1.0000</r>
       <r>  -0.4214  1.0000</r>
       <r>  -0.3887  1.0000</r>
       <r>   0.1531  1.0000</r>
       <r>   0.4923  1.0000</r>
       <r>   0.6116  1.0000</r>
       <r>   0.6838  1.0000</r>
       <r>   0.7562  1.0000</r>
       <r>   0.7852  1.0000</r>
       <r>   1.0491  1.0000</r>
       <r>   1.3458  1.0000</r>
       <r>   1.4096  1.0000</r>
       <r>   1.4259  1.0000</r>
       <r>   1.4737  1.0000</r>
       <r>   1.5296  1.0000</r>
       <r>   1.7832  1.0000</r>
       <r>   1.7874  1.0000</r>
       <r>   2.2831  1.0000</r>
       <r>   5.3967  0.0000</r>
       <r>   7.8337  0.0000</r>
       <r>   9.1178  0.0000</r>
       <r>  10.9755  0.0000</r>
      </set>
      <set comment="kpoint 17">
       <r>  -3.3778  1.0000</r>
       <r>  -1.9535  1.0000</r>
       <r>  -0.5201  1.0000</r>
       <r>  -0.4775  1.0000</r>
       <r>  -0.2907  1.0000</r>
       <r>  -0.2823  1.0000</r>
       <r>  -0.1978  1.0000</r>
       <r>   0.0120  1.0000</r>
       <r>   0.1745  1.0000</r>
       <r>   0.3088  1.0000</r>
       <r>   0.6128  1.0000</r>
       <r>   0.6614  1.0000</r>
       <r>   0.9324  1.0000</r>
       <r>   1.0834  1.0000</r>
       <r>   1.2427  1.0000</r>
       <r>   1.2806  1.0000</r>
       <r>   1.2879  1.0000</r>
       <r>   1.3806  1.0000</r>
       <r>   1.5313  1.0000</r>
       <r>   1.7820  1.0000</r>
       <r>   1.7826  1.0000</r>
       <r>   1.8755  1.0000</r>
       <r>   6.1851  0.0000</r>
       <r>   8.0315  0.0000</r>
       <r>   8.7956  0.0000</r>
       <r>  11.0170  0.0000</r>
      </set>
      <set comment="kpoint 18">
       <r>  -2.6546  1.0000</r>
       <r>  -2.6546  1.0000</r>
       <r>  -0.4233  1.0000</r>
       <r>  -0.4233  1.0000</r>
       <r>  -0.1397  1.0000</r>
       <r>  -0.1397  1.0000</r>
       <r>  -0.0905  1.0000</r>
       <r>  -0.0905  1.0000</r>
       <r>   0.0359  1.0000</r>
       <r>   0.0359  1.0000</r>
       <r>   0.6072  1.0000</r>
       <r>   0.6072  1.0000</r>
       <r>   1.1033  1.0000</r>
       <r>   1.1033  1.0000</r>
       <r>   1.2107  1.0000</r>
       <r>   1.2107  1.0000</r>
       <r>   1.2131  1.0000</r>
       <r>   1.2131  1.0000</r>
       <r>   1.6663  1.0000</r>
       <r>   1.6663  1.0000</r>
       <r>   1.7815  1.0000</r>
       <r>   1.7815  1.0000</r>
       <r>   7.0582  0.0000</r>
       <r>   7.0582  0.0000</r>
       <r>   9.8610  0.0000</r>
       <r>   9.8610  0.0000</r>
      </set>
      <set comment="kpoint 19">
       <r>  -4.1800  1.0000</r>
       <r>  -0.9670  1.0000</r>
       <r>  -0.9670  1.0000</r>
       <r>  -0.6860  1.0000</r>
       <r>  -0.4698  1.0000</r>
       <r>  -0.4558  1.0000</r>
       <r>  -0.4558  1.0000</r>
       <r>   0.2240  1.0000</r>
       <r>   0.6455  1.0000</r>
       <r>   0.6455  1.0000</r>
       <r>   0.6504  1.0000</r>
       <r>   0.7202  1.0000</r>
       <r>   0.7425  1.0000</r>
       <r>   1.0661  1.0000</r>
       <r>   1.3828  1.0000</r>
       <r>   1.4139  1.0000</r>
       <r>   1.5141  1.0000</r>
       <r>   1.5141  1.0000</r>
       <r>   1.6437  1.0000</r>
       <r>   1.6437  1.0000</r>
       <r>   1.7291  1.0000</r>
       <r>   3.5909  0.0000</r>
       <r>   3.5909  0.0000</r>
       <r>   7.6196  0.0000</r>
       <r>   8.9604  0.0000</r>
       <r>  10.9025  0.0000</r>
      </set>
      <set comment="kpoint 20">
       <r>  -3.6626  1.0000</r>
       <r>  -1.1949  1.0000</r>
       <r>  -0.7272  1.0000</r>
       <r>  -0.5387  1.0000</r>
       <r>  -0.3773  1.0000</r>
       <r>  -0.3513  1.0000</r>
       <r>  -0.3245  1.0000</r>
       <r>   0.1393  1.0000</r>
       <r>   0.3275  1.0000</r>
       <r>   0.4741  1.0000</r>
       <r>   0.5146  1.0000</r>
       <r>   0.6381  1.0000</r>
       <r>   0.8148  1.0000</r>
       <r>   1.0289  1.0000</r>
       <r>   1.2794  1.0000</r>
       <r>   1.3818  1.0000</r>
       <r>   1.4290  1.0000</r>
       <r>   1.4728  1.0000</r>
       <r>   1.5333  1.0000</r>
       <r>   1.6425  1.0000</r>
       <r>   1.6832  1.0000</r>
       <r>   2.7544  1.0000</r>
       <r>   4.2229  0.0000</r>
       <r>   7.7399  0.0000</r>
       <r>   8.4102  0.0000</r>
       <r>  11.2106  0.0000</r>
      </set>
      <set comment="kpoint 21">
       <r>  -3.0346  1.0000</r>
       <r>  -1.6830  1.0000</r>
       <r>  -0.4986  1.0000</r>
       <r>  -0.3724  1.0000</r>
       <r>  -0.3131  1.0000</r>
       <r>  -0.2297  1.0000</r>
       <r>  -0.1564  1.0000</r>
       <r>   0.0269  1.0000</r>
       <r>   0.0533  1.0000</r>
       <r>   0.2739  1.0000</r>
       <r>   0.4272  1.0000</r>
       <r>   0.5788  1.0000</r>
       <r>   0.9482  1.0000</r>
       <r>   1.0539  1.0000</r>
       <r>   1.1944  1.0000</r>
       <r>   1.2548  1.0000</r>
       <r>   1.2896  1.0000</r>
       <r>   1.2977  1.0000</r>
       <r>   1.6429  1.0000</r>
       <r>   1.6586  1.0000</r>
       <r>   1.6899  1.0000</r>
       <r>   2.2175  1.0000</r>
       <r>   4.9304  0.0000</r>
       <r>   6.6671  0.0000</r>
       <r>   9.3346  0.0000</r>
       <r>  11.5083  0.0000</r>
      </set>
      <set comment="kpoint 22">
       <r>  -2.3440  1.0000</r>
       <r>  -2.3440  1.0000</r>
       <r>  -0.3454  1.0000</r>
       <r>  -0.3454  1.0000</r>
       <r>  -0.1781  1.0000</r>
       <r>  -0.1781  1.0000</r>
       <r>  -0.1001  1.0000</r>
       <r>  -0.1001  1.0000</r>
       <r>   0.0455  1.0000</r>
       <r>   0.0455  1.0000</r>
       <r>   0.4871  1.0000</r>
       <r>   0.4871  1.0000</r>
       <r>   1.1102  1.0000</r>
       <r>   1.1102  1.0000</r>
       <r>   1.1557  1.0000</r>
       <r>   1.1557  1.0000</r>
       <r>   1.1799  1.0000</r>
       <r>   1.1799  1.0000</r>
       <r>   1.6471  1.0000</r>
       <r>   1.6471  1.0000</r>
       <r>   1.8986  1.0000</r>
       <r>   1.8986  1.0000</r>
       <r>   5.7368  0.0000</r>
       <r>   5.7368  0.0000</r>
       <r>  10.3719  0.0000</r>
       <r>  10.3719  0.0000</r>
      </set>
      <set comment="kpoint 23">
       <r>  -3.1702  1.0000</r>
       <r>  -0.9168  1.0000</r>
       <r>  -0.9168  1.0000</r>
       <r>  -0.4616  1.0000</r>
       <r>  -0.2875  1.0000</r>
       <r>  -0.2422  1.0000</r>
       <r>  -0.2422  1.0000</r>
       <r>   0.1001  1.0000</r>
       <r>   0.2380  1.0000</r>
       <r>   0.2380  1.0000</r>
       <r>   0.3790  1.0000</r>
       <r>   0.5939  1.0000</r>
       <r>   0.8806  1.0000</r>
       <r>   0.9837  1.0000</r>
       <r>   1.1938  1.0000</r>
       <r>   1.3048  1.0000</r>
       <r>   1.3048  1.0000</r>
       <r>   1.4742  1.0000</r>
       <r>   1.4742  1.0000</r>
       <r>   1.5948  1.0000</r>
       <r>   1.6979  1.0000</r>
       <r>   3.2809  1.0000</r>
       <r>   3.2809  1.0000</r>
       <r>   6.5233  0.0000</r>
       <r>   9.1562  0.0000</r>
       <r>  11.5609  0.0000</r>
      </set>
      <set comment="kpoint 24">
       <r>  -2.5807  1.0000</r>
       <r>  -1.3506  1.0000</r>
       <r>  -0.6511  1.0000</r>
       <r>  -0.4269  1.0000</r>
       <r>  -0.1821  1.0000</r>
       <r>  -0.1487  1.0000</r>
       <r>  -0.1059  1.0000</r>
       <r>   0.0334  1.0000</r>
       <r>   0.0521  1.0000</r>
       <r>   0.2183  1.0000</r>
       <r>   0.2810  1.0000</r>
       <r>   0.5161  1.0000</r>
       <r>   0.9838  1.0000</r>
       <r>   0.9879  1.0000</r>
       <r>   1.1203  1.0000</r>
       <r>   1.1840  1.0000</r>
       <r>   1.1850  1.0000</r>
       <r>   1.2979  1.0000</r>
       <r>   1.4813  1.0000</r>
       <r>   1.5344  1.0000</r>
       <r>   1.9102  1.0000</r>
       <r>   2.6206  1.0000</r>
       <r>   3.8881  0.0000</r>
       <r>   5.4815  0.0000</r>
       <r>  10.0428  0.0000</r>
       <r>  12.0380  0.0000</r>
      </set>
      <set comment="kpoint 25">
       <r>  -1.9453  1.0000</r>
       <r>  -1.9453  1.0000</r>
       <r>  -0.4738  1.0000</r>
       <r>  -0.4738  1.0000</r>
       <r>  -0.0817  1.0000</r>
       <r>  -0.0817  1.0000</r>
       <r>  -0.0533  1.0000</r>
       <r>  -0.0533  1.0000</r>
       <r>   0.0512  1.0000</r>
       <r>   0.0512  1.0000</r>
       <r>   0.3970  1.0000</r>
       <r>   0.3970  1.0000</r>
       <r>   1.0609  1.0000</r>
       <r>   1.0609  1.0000</r>
       <r>   1.1105  1.0000</r>
       <r>   1.1105  1.0000</r>
       <r>   1.1309  1.0000</r>
       <r>   1.1309  1.0000</r>
       <r>   1.4991  1.0000</r>
       <r>   1.4991  1.0000</r>
       <r>   2.1951  1.0000</r>
       <r>   2.1951  1.0000</r>
       <r>   4.6103  0.0000</r>
       <r>   4.6103  0.0000</r>
       <r>  11.0501  0.0000</r>
       <r>  11.0501  0.0000</r>
      </set>
      <set comment="kpoint 26">
       <r>  -2.0516  1.0000</r>
       <r>  -1.0115  1.0000</r>
       <r>  -1.0115  1.0000</r>
       <r>  -0.5420  1.0000</r>
       <r>  -0.0535  1.0000</r>
       <r>  -0.0535  1.0000</r>
       <r>  -0.0350  1.0000</r>
       <r>   0.0227  1.0000</r>
       <r>   0.1408  1.0000</r>
       <r>   0.1729  1.0000</r>
       <r>   0.1729  1.0000</r>
       <r>   0.4419  1.0000</r>
       <r>   0.9403  1.0000</r>
       <r>   1.0443  1.0000</r>
       <r>   1.0624  1.0000</r>
       <r>   1.0767  1.0000</r>
       <r>   1.0767  1.0000</r>
       <r>   1.3191  1.0000</r>
       <r>   1.3191  1.0000</r>
       <r>   1.4324  1.0000</r>
       <r>   2.1894  1.0000</r>
       <r>   3.1054  1.0000</r>
       <r>   3.1054  1.0000</r>
       <r>   4.4977  0.0000</r>
       <r>  10.8954  0.0000</r>
       <r>  12.5653  0.0000</r>
      </set>
      <set comment="kpoint 27">
       <r>  -1.5036  1.0000</r>
       <r>  -1.5036  1.0000</r>
       <r>  -0.7305  1.0000</r>
       <r>  -0.7305  1.0000</r>
       <r>  -0.0079  1.0000</r>
       <r>  -0.0079  1.0000</r>
       <r>   0.0468  1.0000</r>
       <r>   0.0468  1.0000</r>
       <r>   0.0804  1.0000</r>
       <r>   0.0804  1.0000</r>
       <r>   0.3219  1.0000</r>
       <r>   0.3219  1.0000</r>
       <r>   0.9764  1.0000</r>
       <r>   0.9764  1.0000</r>
       <r>   1.0194  1.0000</r>
       <r>   1.0194  1.0000</r>
       <r>   1.1749  1.0000</r>
       <r>   1.1749  1.0000</r>
       <r>   1.3614  1.0000</r>
       <r>   1.3614  1.0000</r>
       <r>   2.5637  1.0000</r>
       <r>   2.5637  1.0000</r>
       <r>   3.7153  0.0000</r>
       <r>   3.7153  0.0000</r>
       <r>  11.8742  0.0000</r>
       <r>  11.8742  0.0000</r>
      </set>
      <set comment="kpoint 28">
       <r>  -1.0803  1.0000</r>
       <r>  -1.0803  1.0000</r>
       <r>  -1.0803  1.0000</r>
       <r>  -1.0803  1.0000</r>
       <r>   0.0272  1.0000</r>
       <r>   0.0272  1.0000</r>
       <r>   0.0272  1.0000</r>
       <r>   0.0272  1.0000</r>
       <r>   0.2237  1.0000</r>
       <r>   0.2237  1.0000</r>
       <r>   0.2237  1.0000</r>
       <r>   0.2237  1.0000</r>
       <r>   0.9576  1.0000</r>
       <r>   0.9576  1.0000</r>
       <r>   0.9576  1.0000</r>
       <r>   0.9576  1.0000</r>
       <r>   1.2509  1.0000</r>
       <r>   1.2509  1.0000</r>
       <r>   1.2509  1.0000</r>
       <r>   1.2509  1.0000</r>
       <r>   3.0490  1.0000</r>
       <r>   3.0490  1.0000</r>
       <r>   3.0490  1.0000</r>
       <r>   3.0490  1.0000</r>
       <r>  12.8277  0.0000</r>
       <r>  12.8277  0.0000</r>
      </set>
      <set comment="kpoint 29">
       <r>  -5.3547  1.0000</r>
       <r>  -1.1542  1.0000</r>
       <r>  -1.1542  1.0000</r>
       <r>  -1.1542  1.0000</r>
       <r>  -0.7413  1.0000</r>
       <r>  -0.7413  1.0000</r>
       <r>  -0.7413  1.0000</r>
       <r>   0.4390  1.0000</r>
       <r>   0.5299  1.0000</r>
       <r>   0.5299  1.0000</r>
       <r>   1.2401  1.0000</r>
       <r>   1.2401  1.0000</r>
       <r>   1.6331  1.0000</r>
       <r>   1.6331  1.0000</r>
       <r>   1.6331  1.0000</r>
       <r>   1.6904  1.0000</r>
       <r>   1.6904  1.0000</r>
       <r>   1.6904  1.0000</r>
       <r>   1.8746  1.0000</r>
       <r>   1.8746  1.0000</r>
       <r>   1.8746  1.0000</r>
       <r>   4.8066  0.0000</r>
       <r>   4.8066  0.0000</r>
       <r>   4.8066  0.0000</r>
       <r>  10.9588  0.0000</r>
       <r>  10.9588  0.0000</r>
      </set>
      <set comment="kpoint 30">
       <r>  -5.1135  1.0000</r>
       <r>  -1.1697  1.0000</r>
       <r>  -1.0481  1.0000</r>
       <r>  -1.0481  1.0000</r>
       <r>  -0.6819  1.0000</r>
       <r>  -0.6778  1.0000</r>
       <r>  -0.6778  1.0000</r>
       <r>   0.3841  1.0000</r>
       <r>   0.5727  1.0000</r>
       <r>   0.5766  1.0000</r>
       <r>   1.1851  1.0000</r>
       <r>   1.2719  1.0000</r>
       <r>   1.3391  1.0000</r>
       <r>   1.3391  1.0000</r>
       <r>   1.4976  1.0000</r>
       <r>   1.6193  1.0000</r>
       <r>   1.6222  1.0000</r>
       <r>   1.6222  1.0000</r>
       <r>   1.8340  1.0000</r>
       <r>   1.8647  1.0000</r>
       <r>   1.8647  1.0000</r>
       <r>   3.7381  0.0000</r>
       <r>   5.2908  0.0000</r>
       <r>   5.2908  0.0000</r>
       <r>  11.0923  0.0000</r>
       <r>  11.0923  0.0000</r>
      </set>
      <set comment="kpoint 31">
       <r>  -4.7177  1.0000</r>
       <r>  -1.2579  1.0000</r>
       <r>  -0.8890  1.0000</r>
       <r>  -0.8890  1.0000</r>
       <r>  -0.5867  1.0000</r>
       <r>  -0.5718  1.0000</r>
       <r>  -0.5718  1.0000</r>
       <r>   0.2858  1.0000</r>
       <r>   0.6487  1.0000</r>
       <r>   0.6535  1.0000</r>
       <r>   0.9779  1.0000</r>
       <r>   0.9779  1.0000</r>
       <r>   1.1078  1.0000</r>
       <r>   1.2647  1.0000</r>
       <r>   1.3223  1.0000</r>
       <r>   1.5052  1.0000</r>
       <r>   1.5153  1.0000</r>
       <r>   1.5153  1.0000</r>
       <r>   1.7762  1.0000</r>
       <r>   1.8564  1.0000</r>
       <r>   1.8564  1.0000</r>
       <r>   2.7102  1.0000</r>
       <r>   5.9594  0.0000</r>
       <r>   5.9594  0.0000</r>
       <r>  11.3176  0.0000</r>
       <r>  11.3176  0.0000</r>
      </set>
      <set comment="kpoint 32">
       <r>  -4.1790  1.0000</r>
       <r>  -1.5304  1.0000</r>
       <r>  -0.7049  1.0000</r>
       <r>  -0.7049  1.0000</r>
       <r>  -0.4617  1.0000</r>
       <r>  -0.4255  1.0000</r>
       <r>  -0.4255  1.0000</r>
       <r>   0.1559  1.0000</r>
       <r>   0.6185  1.0000</r>
       <r>   0.6185  1.0000</r>
       <r>   0.7258  1.0000</r>
       <r>   0.7588  1.0000</r>
       <r>   0.9628  1.0000</r>
       <r>   1.0493  1.0000</r>
       <r>   1.3601  1.0000</r>
       <r>   1.3834  1.0000</r>
       <r>   1.3834  1.0000</r>
       <r>   1.3879  1.0000</r>
       <r>   1.7064  1.0000</r>
       <r>   1.8517  1.0000</r>
       <r>   1.8517  1.0000</r>
       <r>   1.9857  1.0000</r>
       <r>   6.7444  0.0000</r>
       <r>   6.7444  0.0000</r>
       <r>  10.7479  0.0000</r>
       <r>  10.7479  0.0000</r>
      </set>
      <set comment="kpoint 33">
       <r>  -3.5197  1.0000</r>
       <r>  -2.0703  1.0000</r>
       <r>  -0.5422  1.0000</r>
       <r>  -0.5422  1.0000</r>
       <r>  -0.3147  1.0000</r>
       <r>  -0.2444  1.0000</r>
       <r>  -0.2444  1.0000</r>
       <r>   0.0050  1.0000</r>
       <r>   0.2934  1.0000</r>
       <r>   0.2934  1.0000</r>
       <r>   0.7306  1.0000</r>
       <r>   0.7463  1.0000</r>
       <r>   0.8892  1.0000</r>
       <r>   1.1048  1.0000</r>
       <r>   1.1999  1.0000</r>
       <r>   1.2650  1.0000</r>
       <r>   1.2650  1.0000</r>
       <r>   1.4641  1.0000</r>
       <r>   1.5594  1.0000</r>
       <r>   1.6283  1.0000</r>
       <r>   1.8494  1.0000</r>
       <r>   1.8494  1.0000</r>
       <r>   7.6102  0.0000</r>
       <r>   7.6102  0.0000</r>
       <r>   9.6427  0.0000</r>
       <r>   9.6427  0.0000</r>
      </set>
      <set comment="kpoint 34">
       <r>  -2.7853  1.0000</r>
       <r>  -2.7853  1.0000</r>
       <r>  -0.4733  1.0000</r>
       <r>  -0.4733  1.0000</r>
       <r>  -0.1556  1.0000</r>
       <r>  -0.1556  1.0000</r>
       <r>  -0.0769  1.0000</r>
       <r>  -0.0769  1.0000</r>
       <r>   0.0731  1.0000</r>
       <r>   0.0731  1.0000</r>
       <r>   0.6966  1.0000</r>
       <r>   0.6966  1.0000</r>
       <r>   1.0391  1.0000</r>
       <r>   1.0391  1.0000</r>
       <r>   1.2152  1.0000</r>
       <r>   1.2152  1.0000</r>
       <r>   1.2858  1.0000</r>
       <r>   1.2858  1.0000</r>
       <r>   1.5459  1.0000</r>
       <r>   1.5459  1.0000</r>
       <r>   1.8488  1.0000</r>
       <r>   1.8488  1.0000</r>
       <r>   8.3756  0.0000</r>
       <r>   8.3756  0.0000</r>
       <r>   8.7982  0.0000</r>
       <r>   8.7982  0.0000</r>
      </set>
      <set comment="kpoint 35">
       <r>  -4.8757  1.0000</r>
       <r>  -1.0565  1.0000</r>
       <r>  -1.0565  1.0000</r>
       <r>  -0.9514  1.0000</r>
       <r>  -0.6215  1.0000</r>
       <r>  -0.6215  1.0000</r>
       <r>  -0.6209  1.0000</r>
       <r>   0.3501  1.0000</r>
       <r>   0.5993  1.0000</r>
       <r>   0.6042  1.0000</r>
       <r>   1.1565  1.0000</r>
       <r>   1.1777  1.0000</r>
       <r>   1.1850  1.0000</r>
       <r>   1.1850  1.0000</r>
       <r>   1.2745  1.0000</r>
       <r>   1.5317  1.0000</r>
       <r>   1.5593  1.0000</r>
       <r>   1.5593  1.0000</r>
       <r>   1.8284  1.0000</r>
       <r>   1.8284  1.0000</r>
       <r>   1.8362  1.0000</r>
       <r>   4.1930  0.0000</r>
       <r>   4.1930  0.0000</r>
       <r>   5.7125  0.0000</r>
       <r>  11.2168  0.0000</r>
       <r>  11.8440  0.0000</r>
      </set>
      <set comment="kpoint 36">
       <r>  -4.4860  1.0000</r>
       <r>  -1.1324  1.0000</r>
       <r>  -0.8863  1.0000</r>
       <r>  -0.8065  1.0000</r>
       <r>  -0.5311  1.0000</r>
       <r>  -0.5273  1.0000</r>
       <r>  -0.5209  1.0000</r>
       <r>   0.2727  1.0000</r>
       <r>   0.6472  1.0000</r>
       <r>   0.6623  1.0000</r>
       <r>   0.8290  1.0000</r>
       <r>   0.8786  1.0000</r>
       <r>   0.9562  1.0000</r>
       <r>   1.1265  1.0000</r>
       <r>   1.3316  1.0000</r>
       <r>   1.4333  1.0000</r>
       <r>   1.4457  1.0000</r>
       <r>   1.4766  1.0000</r>
       <r>   1.7737  1.0000</r>
       <r>   1.8054  1.0000</r>
       <r>   1.8076  1.0000</r>
       <r>   3.1394  1.0000</r>
       <r>   4.7928  0.0000</r>
       <r>   6.3201  0.0000</r>
       <r>  10.4601  0.0000</r>
       <r>  11.5076  0.0000</r>
      </set>
      <set comment="kpoint 37">
       <r>  -3.9565  1.0000</r>
       <r>  -1.3873  1.0000</r>
       <r>  -0.6869  1.0000</r>
       <r>  -0.6339  1.0000</r>
       <r>  -0.4123  1.0000</r>
       <r>  -0.4086  1.0000</r>
       <r>  -0.3846  1.0000</r>
       <r>   0.1593  1.0000</r>
       <r>   0.4928  1.0000</r>
       <r>   0.5774  1.0000</r>
       <r>   0.6784  1.0000</r>
       <r>   0.7171  1.0000</r>
       <r>   0.7533  1.0000</r>
       <r>   1.1005  1.0000</r>
       <r>   1.3003  1.0000</r>
       <r>   1.3219  1.0000</r>
       <r>   1.3625  1.0000</r>
       <r>   1.4174  1.0000</r>
       <r>   1.6930  1.0000</r>
       <r>   1.7871  1.0000</r>
       <r>   1.7873  1.0000</r>
       <r>   2.3521  1.0000</r>
       <r>   5.4846  0.0000</r>
       <r>   7.0446  0.0000</r>
       <r>   9.2684  0.0000</r>
       <r>  11.0440  0.0000</r>
      </set>
      <set comment="kpoint 38">
       <r>  -3.3109  1.0000</r>
       <r>  -1.9044  1.0000</r>
       <r>  -0.4989  1.0000</r>
       <r>  -0.4623  1.0000</r>
       <r>  -0.2934  1.0000</r>
       <r>  -0.2737  1.0000</r>
       <r>  -0.2353  1.0000</r>
       <r>   0.0228  1.0000</r>
       <r>   0.2116  1.0000</r>
       <r>   0.3012  1.0000</r>
       <r>   0.5869  1.0000</r>
       <r>   0.6492  1.0000</r>
       <r>   0.8649  1.0000</r>
       <r>   1.1453  1.0000</r>
       <r>   1.1789  1.0000</r>
       <r>   1.2237  1.0000</r>
       <r>   1.2492  1.0000</r>
       <r>   1.5213  1.0000</r>
       <r>   1.5621  1.0000</r>
       <r>   1.7765  1.0000</r>
       <r>   1.7768  1.0000</r>
       <r>   1.8766  1.0000</r>
       <r>   6.2539  0.0000</r>
       <r>   7.6929  0.0000</r>
       <r>   8.3759  0.0000</r>
       <r>   9.9342  0.0000</r>
      </set>
      <set comment="kpoint 39">
       <r>  -2.5956  1.0000</r>
       <r>  -2.5956  1.0000</r>
       <r>  -0.3926  1.0000</r>
       <r>  -0.3926  1.0000</r>
       <r>  -0.1882  1.0000</r>
       <r>  -0.1882  1.0000</r>
       <r>  -0.1252  1.0000</r>
       <r>  -0.1252  1.0000</r>
       <r>   0.1136  1.0000</r>
       <r>   0.1136  1.0000</r>
       <r>   0.5897  1.0000</r>
       <r>   0.5897  1.0000</r>
       <r>   0.9969  1.0000</r>
       <r>   0.9969  1.0000</r>
       <r>   1.1908  1.0000</r>
       <r>   1.1908  1.0000</r>
       <r>   1.3590  1.0000</r>
       <r>   1.3590  1.0000</r>
       <r>   1.6503  1.0000</r>
       <r>   1.6503  1.0000</r>
       <r>   1.7735  1.0000</r>
       <r>   1.7735  1.0000</r>
       <r>   7.0919  0.0000</r>
       <r>   7.0919  0.0000</r>
       <r>   8.9400  0.0000</r>
       <r>   8.9400  0.0000</r>
      </set>
      <set comment="kpoint 40">
       <r>  -4.1071  1.0000</r>
       <r>  -0.9440  1.0000</r>
       <r>  -0.9440  1.0000</r>
       <r>  -0.6881  1.0000</r>
       <r>  -0.4514  1.0000</r>
       <r>  -0.4378  1.0000</r>
       <r>  -0.4378  1.0000</r>
       <r>   0.2305  1.0000</r>
       <r>   0.6325  1.0000</r>
       <r>   0.6325  1.0000</r>
       <r>   0.6482  1.0000</r>
       <r>   0.6986  1.0000</r>
       <r>   0.7106  1.0000</r>
       <r>   1.1085  1.0000</r>
       <r>   1.3332  1.0000</r>
       <r>   1.3850  1.0000</r>
       <r>   1.3850  1.0000</r>
       <r>   1.4002  1.0000</r>
       <r>   1.7345  1.0000</r>
       <r>   1.7345  1.0000</r>
       <r>   1.7540  1.0000</r>
       <r>   3.6758  0.0000</r>
       <r>   3.6758  0.0000</r>
       <r>   6.8470  0.0000</r>
       <r>   9.1202  0.0000</r>
       <r>  11.7690  0.0000</r>
      </set>
      <set comment="kpoint 41">
       <r>  -3.5949  1.0000</r>
       <r>  -1.1725  1.0000</r>
       <r>  -0.7248  1.0000</r>
       <r>  -0.5531  1.0000</r>
       <r>  -0.3572  1.0000</r>
       <r>  -0.3286  1.0000</r>
       <r>  -0.3114  1.0000</r>
       <r>   0.1525  1.0000</r>
       <r>   0.3452  1.0000</r>
       <r>   0.4702  1.0000</r>
       <r>   0.5029  1.0000</r>
       <r>   0.6357  1.0000</r>
       <r>   0.7639  1.0000</r>
       <r>   1.0992  1.0000</r>
       <r>   1.2333  1.0000</r>
       <r>   1.2513  1.0000</r>
       <r>   1.2966  1.0000</r>
       <r>   1.5190  1.0000</r>
       <r>   1.6377  1.0000</r>
       <r>   1.6962  1.0000</r>
       <r>   1.7089  1.0000</r>
       <r>   2.8012  1.0000</r>
       <r>   4.2882  0.0000</r>
       <r>   7.3140  0.0000</r>
       <r>   8.1251  0.0000</r>
       <r>  11.4985  0.0000</r>
      </set>
      <set comment="kpoint 42">
       <r>  -2.9750  1.0000</r>
       <r>  -1.6499  1.0000</r>
       <r>  -0.5171  1.0000</r>
       <r>  -0.4143  1.0000</r>
       <r>  -0.2901  1.0000</r>
       <r>  -0.2044  1.0000</r>
       <r>  -0.1901  1.0000</r>
       <r>   0.0464  1.0000</r>
       <r>   0.1357  1.0000</r>
       <r>   0.2997  1.0000</r>
       <r>   0.4266  1.0000</r>
       <r>   0.5764  1.0000</r>
       <r>   0.8516  1.0000</r>
       <r>   1.1032  1.0000</r>
       <r>   1.1536  1.0000</r>
       <r>   1.1726  1.0000</r>
       <r>   1.1974  1.0000</r>
       <r>   1.4993  1.0000</r>
       <r>   1.6732  1.0000</r>
       <r>   1.6736  1.0000</r>
       <r>   1.6797  1.0000</r>
       <r>   2.2220  1.0000</r>
       <r>   4.9812  0.0000</r>
       <r>   6.6581  0.0000</r>
       <r>   8.5183  0.0000</r>
       <r>  10.3879  0.0000</r>
      </set>
      <set comment="kpoint 43">
       <r>  -2.2962  1.0000</r>
       <r>  -2.2962  1.0000</r>
       <r>  -0.3746  1.0000</r>
       <r>  -0.3746  1.0000</r>
       <r>  -0.2241  1.0000</r>
       <r>  -0.2241  1.0000</r>
       <r>  -0.0761  1.0000</r>
       <r>  -0.0761  1.0000</r>
       <r>   0.1413  1.0000</r>
       <r>   0.1413  1.0000</r>
       <r>   0.4857  1.0000</r>
       <r>   0.4857  1.0000</r>
       <r>   0.9652  1.0000</r>
       <r>   0.9652  1.0000</r>
       <r>   1.1361  1.0000</r>
       <r>   1.1361  1.0000</r>
       <r>   1.3260  1.0000</r>
       <r>   1.3260  1.0000</r>
       <r>   1.6682  1.0000</r>
       <r>   1.6682  1.0000</r>
       <r>   1.8828  1.0000</r>
       <r>   1.8828  1.0000</r>
       <r>   5.7708  0.0000</r>
       <r>   5.7708  0.0000</r>
       <r>   9.3886  0.0000</r>
       <r>   9.3886  0.0000</r>
      </set>
      <set comment="kpoint 44">
       <r>  -3.1105  1.0000</r>
       <r>  -0.9252  1.0000</r>
       <r>  -0.9252  1.0000</r>
       <r>  -0.5049  1.0000</r>
       <r>  -0.2578  1.0000</r>
       <r>  -0.2115  1.0000</r>
       <r>  -0.2115  1.0000</r>
       <r>   0.1230  1.0000</r>
       <r>   0.2624  1.0000</r>
       <r>   0.2624  1.0000</r>
       <r>   0.3983  1.0000</r>
       <r>   0.5943  1.0000</r>
       <r>   0.7901  1.0000</r>
       <r>   1.0901  1.0000</r>
       <r>   1.1386  1.0000</r>
       <r>   1.1840  1.0000</r>
       <r>   1.1840  1.0000</r>
       <r>   1.5826  1.0000</r>
       <r>   1.5826  1.0000</r>
       <r>   1.6347  1.0000</r>
       <r>   1.6809  1.0000</r>
       <r>   3.3158  1.0000</r>
       <r>   3.3158  1.0000</r>
       <r>   6.4976  0.0000</r>
       <r>   8.3776  0.0000</r>
       <r>  12.1071  0.0000</r>
      </set>
      <set comment="kpoint 45">
       <r>  -2.5334  1.0000</r>
       <r>  -1.3445  1.0000</r>
       <r>  -0.7008  1.0000</r>
       <r>  -0.4969  1.0000</r>
       <r>  -0.1527  1.0000</r>
       <r>  -0.1068  1.0000</r>
       <r>  -0.0836  1.0000</r>
       <r>   0.0665  1.0000</r>
       <r>   0.1229  1.0000</r>
       <r>   0.2784  1.0000</r>
       <r>   0.2962  1.0000</r>
       <r>   0.5192  1.0000</r>
       <r>   0.8382  1.0000</r>
       <r>   1.0497  1.0000</r>
       <r>   1.0644  1.0000</r>
       <r>   1.1033  1.0000</r>
       <r>   1.1484  1.0000</r>
       <r>   1.4396  1.0000</r>
       <r>   1.5502  1.0000</r>
       <r>   1.5780  1.0000</r>
       <r>   1.8914  1.0000</r>
       <r>   2.6235  1.0000</r>
       <r>   3.9157  0.0000</r>
       <r>   5.4934  0.0000</r>
       <r>   9.1163  0.0000</r>
       <r>  10.9936  0.0000</r>
      </set>
      <set comment="kpoint 46">
       <r>  -1.9164  1.0000</r>
       <r>  -1.9164  1.0000</r>
       <r>  -0.5523  1.0000</r>
       <r>  -0.5523  1.0000</r>
       <r>  -0.0740  1.0000</r>
       <r>  -0.0740  1.0000</r>
       <r>  -0.0122  1.0000</r>
       <r>  -0.0122  1.0000</r>
       <r>   0.1558  1.0000</r>
       <r>   0.1558  1.0000</r>
       <r>   0.4041  1.0000</r>
       <r>   0.4041  1.0000</r>
       <r>   0.9262  1.0000</r>
       <r>   0.9262  1.0000</r>
       <r>   1.0492  1.0000</r>
       <r>   1.0492  1.0000</r>
       <r>   1.2801  1.0000</r>
       <r>   1.2801  1.0000</r>
       <r>   1.5486  1.0000</r>
       <r>   1.5486  1.0000</r>
       <r>   2.1798  1.0000</r>
       <r>   2.1798  1.0000</r>
       <r>   4.6322  0.0000</r>
       <r>   4.6322  0.0000</r>
       <r>   9.9961  0.0000</r>
       <r>   9.9961  0.0000</r>
      </set>
      <set comment="kpoint 47">
       <r>  -2.0235  1.0000</r>
       <r>  -1.0429  1.0000</r>
       <r>  -1.0429  1.0000</r>
       <r>  -0.6209  1.0000</r>
       <r>  -0.0098  1.0000</r>
       <r>   0.0123  1.0000</r>
       <r>   0.0123  1.0000</r>
       <r>   0.0727  1.0000</r>
       <r>   0.1995  1.0000</r>
       <r>   0.1995  1.0000</r>
       <r>   0.2300  1.0000</r>
       <r>   0.4496  1.0000</r>
       <r>   0.8353  1.0000</r>
       <r>   0.9826  1.0000</r>
       <r>   0.9863  1.0000</r>
       <r>   0.9863  1.0000</r>
       <r>   1.1770  1.0000</r>
       <r>   1.4109  1.0000</r>
       <r>   1.4109  1.0000</r>
       <r>   1.4878  1.0000</r>
       <r>   2.1699  1.0000</r>
       <r>   3.1081  1.0000</r>
       <r>   3.1081  1.0000</r>
       <r>   4.5083  0.0000</r>
       <r>   9.8659  0.0000</r>
       <r>  11.7389  0.0000</r>
      </set>
      <set comment="kpoint 48">
       <r>  -1.5032  1.0000</r>
       <r>  -1.5032  1.0000</r>
       <r>  -0.7966  1.0000</r>
       <r>  -0.7966  1.0000</r>
       <r>   0.0572  1.0000</r>
       <r>   0.0572  1.0000</r>
       <r>   0.0889  1.0000</r>
       <r>   0.0889  1.0000</r>
       <r>   0.1558  1.0000</r>
       <r>   0.1558  1.0000</r>
       <r>   0.3344  1.0000</r>
       <r>   0.3344  1.0000</r>
       <r>   0.8843  1.0000</r>
       <r>   0.8843  1.0000</r>
       <r>   0.9506  1.0000</r>
       <r>   0.9506  1.0000</r>
       <r>   1.2741  1.0000</r>
       <r>   1.2741  1.0000</r>
       <r>   1.4275  1.0000</r>
       <r>   1.4275  1.0000</r>
       <r>   2.5496  1.0000</r>
       <r>   2.5496  1.0000</r>
       <r>   3.7209  0.0000</r>
       <r>   3.7209  0.0000</r>
       <r>  10.7419  0.0000</r>
       <r>  10.7419  0.0000</r>
      </set>
      <set comment="kpoint 49">
       <r>  -1.1155  1.0000</r>
       <r>  -1.1155  1.0000</r>
       <r>  -1.1155  1.0000</r>
       <r>  -1.1155  1.0000</r>
       <r>   0.1136  1.0000</r>
       <r>   0.1136  1.0000</r>
       <r>   0.1136  1.0000</r>
       <r>   0.1136  1.0000</r>
       <r>   0.2417  1.0000</r>
       <r>   0.2417  1.0000</r>
       <r>   0.2417  1.0000</r>
       <r>   0.2417  1.0000</r>
       <r>   0.8835  1.0000</r>
       <r>   0.8835  1.0000</r>
       <r>   0.8835  1.0000</r>
       <r>   0.8835  1.0000</r>
       <r>   1.3271  1.0000</r>
       <r>   1.3271  1.0000</r>
       <r>   1.3271  1.0000</r>
       <r>   1.3271  1.0000</r>
       <r>   3.0412  1.0000</r>
       <r>   3.0412  1.0000</r>
       <r>   3.0412  1.0000</r>
       <r>   3.0412  1.0000</r>
       <r>  11.6161  0.0000</r>
       <r>  11.6161  0.0000</r>
      </set>
      <set comment="kpoint 50">
       <r>  -4.6420  1.0000</r>
       <r>  -0.9580  1.0000</r>
       <r>  -0.9580  1.0000</r>
       <r>  -0.9580  1.0000</r>
       <r>  -0.5656  1.0000</r>
       <r>  -0.5656  1.0000</r>
       <r>  -0.5656  1.0000</r>
       <r>   0.3278  1.0000</r>
       <r>   0.6163  1.0000</r>
       <r>   0.6163  1.0000</r>
       <r>   1.0140  1.0000</r>
       <r>   1.0140  1.0000</r>
       <r>   1.0140  1.0000</r>
       <r>   1.2326  1.0000</r>
       <r>   1.2326  1.0000</r>
       <r>   1.4321  1.0000</r>
       <r>   1.4321  1.0000</r>
       <r>   1.4321  1.0000</r>
       <r>   1.8407  1.0000</r>
       <r>   1.8407  1.0000</r>
       <r>   1.8407  1.0000</r>
       <r>   4.5669  0.0000</r>
       <r>   4.5669  0.0000</r>
       <r>   4.5669  0.0000</r>
       <r>  12.1054  0.0000</r>
       <r>  12.1054  0.0000</r>
      </set>
      <set comment="kpoint 51">
       <r>  -4.2598  1.0000</r>
       <r>  -1.0305  1.0000</r>
       <r>  -0.8130  1.0000</r>
       <r>  -0.8130  1.0000</r>
       <r>  -0.4749  1.0000</r>
       <r>  -0.4730  1.0000</r>
       <r>  -0.4730  1.0000</r>
       <r>   0.2696  1.0000</r>
       <r>   0.6458  1.0000</r>
       <r>   0.6511  1.0000</r>
       <r>   0.7543  1.0000</r>
       <r>   0.7543  1.0000</r>
       <r>   0.8047  1.0000</r>
       <r>   1.1871  1.0000</r>
       <r>   1.3027  1.0000</r>
       <r>   1.3142  1.0000</r>
       <r>   1.3412  1.0000</r>
       <r>   1.3412  1.0000</r>
       <r>   1.8167  1.0000</r>
       <r>   1.8167  1.0000</r>
       <r>   1.8225  1.0000</r>
       <r>   3.4602  0.0000</r>
       <r>   5.0964  0.0000</r>
       <r>   5.0964  0.0000</r>
       <r>  10.7670  0.0000</r>
       <r>  10.7670  0.0000</r>
      </set>
      <set comment="kpoint 52">
       <r>  -3.7423  1.0000</r>
       <r>  -1.2742  1.0000</r>
       <r>  -0.6446  1.0000</r>
       <r>  -0.6446  1.0000</r>
       <r>  -0.3586  1.0000</r>
       <r>  -0.3586  1.0000</r>
       <r>  -0.3558  1.0000</r>
       <r>   0.1752  1.0000</r>
       <r>   0.4902  1.0000</r>
       <r>   0.4902  1.0000</r>
       <r>   0.6048  1.0000</r>
       <r>   0.6587  1.0000</r>
       <r>   0.7086  1.0000</r>
       <r>   1.1620  1.0000</r>
       <r>   1.1926  1.0000</r>
       <r>   1.2514  1.0000</r>
       <r>   1.2514  1.0000</r>
       <r>   1.4121  1.0000</r>
       <r>   1.7770  1.0000</r>
       <r>   1.7831  1.0000</r>
       <r>   1.7831  1.0000</r>
       <r>   2.5835  1.0000</r>
       <r>   5.7267  0.0000</r>
       <r>   5.7267  0.0000</r>
       <r>   9.5678  0.0000</r>
       <r>   9.5678  0.0000</r>
      </set>
      <set comment="kpoint 53">
       <r>  -3.1145  1.0000</r>
       <r>  -1.7651  1.0000</r>
       <r>  -0.4734  1.0000</r>
       <r>  -0.4734  1.0000</r>
       <r>  -0.2784  1.0000</r>
       <r>  -0.2784  1.0000</r>
       <r>  -0.2201  1.0000</r>
       <r>   0.0552  1.0000</r>
       <r>   0.2870  1.0000</r>
       <r>   0.2870  1.0000</r>
       <r>   0.5155  1.0000</r>
       <r>   0.6135  1.0000</r>
       <r>   0.7910  1.0000</r>
       <r>   1.0234  1.0000</r>
       <r>   1.1656  1.0000</r>
       <r>   1.1656  1.0000</r>
       <r>   1.3144  1.0000</r>
       <r>   1.5162  1.0000</r>
       <r>   1.7066  1.0000</r>
       <r>   1.7582  1.0000</r>
       <r>   1.7582  1.0000</r>
       <r>   1.9718  1.0000</r>
       <r>   6.4085  0.0000</r>
       <r>   6.4085  0.0000</r>
       <r>   8.5474  0.0000</r>
       <r>   8.5474  0.0000</r>
      </set>
      <set comment="kpoint 54">
       <r>  -2.4247  1.0000</r>
       <r>  -2.4247  1.0000</r>
       <r>  -0.3465  1.0000</r>
       <r>  -0.3465  1.0000</r>
       <r>  -0.3036  1.0000</r>
       <r>  -0.3036  1.0000</r>
       <r>  -0.0797  1.0000</r>
       <r>  -0.0797  1.0000</r>
       <r>   0.2124  1.0000</r>
       <r>   0.2124  1.0000</r>
       <r>   0.5416  1.0000</r>
       <r>   0.5416  1.0000</r>
       <r>   0.8973  1.0000</r>
       <r>   0.8973  1.0000</r>
       <r>   1.1268  1.0000</r>
       <r>   1.1268  1.0000</r>
       <r>   1.5685  1.0000</r>
       <r>   1.5685  1.0000</r>
       <r>   1.6172  1.0000</r>
       <r>   1.6172  1.0000</r>
       <r>   1.7495  1.0000</r>
       <r>   1.7495  1.0000</r>
       <r>   6.8646  0.0000</r>
       <r>   6.8646  0.0000</r>
       <r>   7.9787  0.0000</r>
       <r>   7.9787  0.0000</r>
      </set>
      <set comment="kpoint 55">
       <r>  -3.8913  1.0000</r>
       <r>  -0.8860  1.0000</r>
       <r>  -0.8860  1.0000</r>
       <r>  -0.7160  1.0000</r>
       <r>  -0.3886  1.0000</r>
       <r>  -0.3794  1.0000</r>
       <r>  -0.3794  1.0000</r>
       <r>   0.2464  1.0000</r>
       <r>   0.5898  1.0000</r>
       <r>   0.5898  1.0000</r>
       <r>   0.6252  1.0000</r>
       <r>   0.6426  1.0000</r>
       <r>   0.6596  1.0000</r>
       <r>   1.2088  1.0000</r>
       <r>   1.2160  1.0000</r>
       <r>   1.2160  1.0000</r>
       <r>   1.2200  1.0000</r>
       <r>   1.3653  1.0000</r>
       <r>   1.7955  1.0000</r>
       <r>   1.8062  1.0000</r>
       <r>   1.8062  1.0000</r>
       <r>   3.9181  0.0000</r>
       <r>   3.9181  0.0000</r>
       <r>   5.5398  0.0000</r>
       <r>   9.4262  0.0000</r>
       <r>  11.2249  0.0000</r>
      </set>
      <set comment="kpoint 56">
       <r>  -3.3959  1.0000</r>
       <r>  -1.1158  1.0000</r>
       <r>  -0.7313  1.0000</r>
       <r>  -0.6191  1.0000</r>
       <r>  -0.2832  1.0000</r>
       <r>  -0.2576  1.0000</r>
       <r>  -0.2562  1.0000</r>
       <r>   0.1919  1.0000</r>
       <r>   0.3908  1.0000</r>
       <r>   0.4571  1.0000</r>
       <r>   0.4756  1.0000</r>
       <r>   0.6277  1.0000</r>
       <r>   0.6884  1.0000</r>
       <r>   1.0786  1.0000</r>
       <r>   1.1259  1.0000</r>
       <r>   1.1432  1.0000</r>
       <r>   1.2308  1.0000</r>
       <r>   1.4823  1.0000</r>
       <r>   1.7559  1.0000</r>
       <r>   1.7627  1.0000</r>
       <r>   1.7637  1.0000</r>
       <r>   2.9539  1.0000</r>
       <r>   4.4734  0.0000</r>
       <r>   6.0391  0.0000</r>
       <r>   8.3074  0.0000</r>
       <r>  10.0168  0.0000</r>
      </set>
      <set comment="kpoint 57">
       <r>  -2.8018  1.0000</r>
       <r>  -1.5606  1.0000</r>
       <r>  -0.5978  1.0000</r>
       <r>  -0.5414  1.0000</r>
       <r>  -0.2042  1.0000</r>
       <r>  -0.1692  1.0000</r>
       <r>  -0.1235  1.0000</r>
       <r>   0.1077  1.0000</r>
       <r>   0.2807  1.0000</r>
       <r>   0.3597  1.0000</r>
       <r>   0.4235  1.0000</r>
       <r>   0.5675  1.0000</r>
       <r>   0.7452  1.0000</r>
       <r>   0.9465  1.0000</r>
       <r>   1.0551  1.0000</r>
       <r>   1.0724  1.0000</r>
       <r>   1.3448  1.0000</r>
       <r>   1.6266  1.0000</r>
       <r>   1.6792  1.0000</r>
       <r>   1.7202  1.0000</r>
       <r>   1.7230  1.0000</r>
       <r>   2.2613  1.0000</r>
       <r>   5.1104  0.0000</r>
       <r>   6.2839  0.0000</r>
       <r>   7.7116  0.0000</r>
       <r>   8.9649  0.0000</r>
      </set>
      <set comment="kpoint 58">
       <r>  -2.1607  1.0000</r>
       <r>  -2.1607  1.0000</r>
       <r>  -0.5233  1.0000</r>
       <r>  -0.5233  1.0000</r>
       <r>  -0.1691  1.0000</r>
       <r>  -0.1691  1.0000</r>
       <r>   0.0007  1.0000</r>
       <r>   0.0007  1.0000</r>
       <r>   0.2932  1.0000</r>
       <r>   0.2932  1.0000</r>
       <r>   0.4800  1.0000</r>
       <r>   0.4800  1.0000</r>
       <r>   0.8326  1.0000</r>
       <r>   0.8326  1.0000</r>
       <r>   1.0318  1.0000</r>
       <r>   1.0318  1.0000</r>
       <r>   1.5317  1.0000</r>
       <r>   1.5317  1.0000</r>
       <r>   1.7069  1.0000</r>
       <r>   1.7069  1.0000</r>
       <r>   1.8412  1.0000</r>
       <r>   1.8412  1.0000</r>
       <r>   5.7972  0.0000</r>
       <r>   5.7972  0.0000</r>
       <r>   8.1100  0.0000</r>
       <r>   8.1100  0.0000</r>
      </set>
      <set comment="kpoint 59">
       <r>  -2.9366  1.0000</r>
       <r>  -0.9515  1.0000</r>
       <r>  -0.9515  1.0000</r>
       <r>  -0.6262  1.0000</r>
       <r>  -0.1697  1.0000</r>
       <r>  -0.1204  1.0000</r>
       <r>  -0.1204  1.0000</r>
       <r>   0.1955  1.0000</r>
       <r>   0.3304  1.0000</r>
       <r>   0.3304  1.0000</r>
       <r>   0.4472  1.0000</r>
       <r>   0.5937  1.0000</r>
       <r>   0.6854  1.0000</r>
       <r>   1.0160  1.0000</r>
       <r>   1.0160  1.0000</r>
       <r>   1.0189  1.0000</r>
       <r>   1.2413  1.0000</r>
       <r>   1.6334  1.0000</r>
       <r>   1.7090  1.0000</r>
       <r>   1.7103  1.0000</r>
       <r>   1.7103  1.0000</r>
       <r>   3.4236  0.3125</r>
       <r>   3.4236  0.3125</r>
       <r>   6.0768  0.0000</r>
       <r>   7.6200  0.0000</r>
       <r>  10.6149  0.0000</r>
      </set>
      <set comment="kpoint 60">
       <r>  -2.3987  1.0000</r>
       <r>  -1.3310  1.0000</r>
       <r>  -0.8148  1.0000</r>
       <r>  -0.6585  1.0000</r>
       <r>  -0.0672  1.0000</r>
       <r>  -0.0097  1.0000</r>
       <r>   0.0173  1.0000</r>
       <r>   0.1735  1.0000</r>
       <r>   0.2871  1.0000</r>
       <r>   0.3418  1.0000</r>
       <r>   0.4109  1.0000</r>
       <r>   0.5254  1.0000</r>
       <r>   0.7140  1.0000</r>
       <r>   0.8905  1.0000</r>
       <r>   0.9451  1.0000</r>
       <r>   0.9585  1.0000</r>
       <r>   1.3169  1.0000</r>
       <r>   1.6111  1.0000</r>
       <r>   1.6588  1.0000</r>
       <r>   1.6611  1.0000</r>
       <r>   1.8360  1.0000</r>
       <r>   2.6410  1.0000</r>
       <r>   3.9910  0.0000</r>
       <r>   5.4418  0.0000</r>
       <r>   7.9049  0.0000</r>
       <r>   9.5418  0.0000</r>
      </set>
      <set comment="kpoint 61">
       <r>  -1.8380  1.0000</r>
       <r>  -1.8380  1.0000</r>
       <r>  -0.7183  1.0000</r>
       <r>  -0.7183  1.0000</r>
       <r>  -0.0064  1.0000</r>
       <r>  -0.0064  1.0000</r>
       <r>   0.1176  1.0000</r>
       <r>   0.1176  1.0000</r>
       <r>   0.3512  1.0000</r>
       <r>   0.3512  1.0000</r>
       <r>   0.4227  1.0000</r>
       <r>   0.4227  1.0000</r>
       <r>   0.7851  1.0000</r>
       <r>   0.7851  1.0000</r>
       <r>   0.9235  1.0000</r>
       <r>   0.9235  1.0000</r>
       <r>   1.4637  1.0000</r>
       <r>   1.4637  1.0000</r>
       <r>   1.6392  1.0000</r>
       <r>   1.6392  1.0000</r>
       <r>   2.1363  1.0000</r>
       <r>   2.1363  1.0000</r>
       <r>   4.6697  0.0000</r>
       <r>   4.6697  0.0000</r>
       <r>   8.6256  0.0000</r>
       <r>   8.6256  0.0000</r>
      </set>
      <set comment="kpoint 62">
       <r>  -1.9472  1.0000</r>
       <r>  -1.1173  1.0000</r>
       <r>  -1.1173  1.0000</r>
       <r>  -0.7900  1.0000</r>
       <r>   0.0652  1.0000</r>
       <r>   0.1591  1.0000</r>
       <r>   0.1591  1.0000</r>
       <r>   0.2327  1.0000</r>
       <r>   0.3035  1.0000</r>
       <r>   0.3035  1.0000</r>
       <r>   0.4265  1.0000</r>
       <r>   0.4689  1.0000</r>
       <r>   0.7052  1.0000</r>
       <r>   0.8436  1.0000</r>
       <r>   0.8436  1.0000</r>
       <r>   0.8586  1.0000</r>
       <r>   1.3351  1.0000</r>
       <r>   1.5560  1.0000</r>
       <r>   1.5560  1.0000</r>
       <r>   1.5929  1.0000</r>
       <r>   2.1106  1.0000</r>
       <r>   3.1157  1.0000</r>
       <r>   3.1157  1.0000</r>
       <r>   4.5094  0.0000</r>
       <r>   8.5166  0.0000</r>
       <r>  10.2613  0.0000</r>
      </set>
      <set comment="kpoint 63">
       <r>  -1.5030  1.0000</r>
       <r>  -1.5030  1.0000</r>
       <r>  -0.9388  1.0000</r>
       <r>  -0.9388  1.0000</r>
       <r>   0.1564  1.0000</r>
       <r>   0.1564  1.0000</r>
       <r>   0.2528  1.0000</r>
       <r>   0.2528  1.0000</r>
       <r>   0.3680  1.0000</r>
       <r>   0.3680  1.0000</r>
       <r>   0.3788  1.0000</r>
       <r>   0.3788  1.0000</r>
       <r>   0.7503  1.0000</r>
       <r>   0.7503  1.0000</r>
       <r>   0.8220  1.0000</r>
       <r>   0.8220  1.0000</r>
       <r>   1.4294  1.0000</r>
       <r>   1.4294  1.0000</r>
       <r>   1.5479  1.0000</r>
       <r>   1.5479  1.0000</r>
       <r>   2.5062  1.0000</r>
       <r>   2.5062  1.0000</r>
       <r>   3.7272  0.0000</r>
       <r>   3.7272  0.0000</r>
       <r>   9.3138  0.0000</r>
       <r>   9.3138  0.0000</r>
      </set>
      <set comment="kpoint 64">
       <r>  -1.1977  1.0000</r>
       <r>  -1.1977  1.0000</r>
       <r>  -1.1977  1.0000</r>
       <r>  -1.1977  1.0000</r>
       <r>   0.2854  1.0000</r>
       <r>   0.2854  1.0000</r>
       <r>   0.2854  1.0000</r>
       <r>   0.2854  1.0000</r>
       <r>   0.3549  1.0000</r>
       <r>   0.3549  1.0000</r>
       <r>   0.3549  1.0000</r>
       <r>   0.3549  1.0000</r>
       <r>   0.7549  1.0000</r>
       <r>   0.7549  1.0000</r>
       <r>   0.7549  1.0000</r>
       <r>   0.7549  1.0000</r>
       <r>   1.4616  1.0000</r>
       <r>   1.4616  1.0000</r>
       <r>   1.4616  1.0000</r>
       <r>   1.4616  1.0000</r>
       <r>   3.0137  1.0000</r>
       <r>   3.0137  1.0000</r>
       <r>   3.0137  1.0000</r>
       <r>   3.0137  1.0000</r>
       <r>  10.1459  0.0000</r>
       <r>  10.1459  0.0000</r>
      </set>
      <set comment="kpoint 65">
       <r>  -3.5421  1.0000</r>
       <r>  -0.8181  1.0000</r>
       <r>  -0.8181  1.0000</r>
       <r>  -0.8181  1.0000</r>
       <r>  -0.2771  1.0000</r>
       <r>  -0.2771  1.0000</r>
       <r>  -0.2771  1.0000</r>
       <r>   0.2601  1.0000</r>
       <r>   0.5184  1.0000</r>
       <r>   0.5184  1.0000</r>
       <r>   0.5184  1.0000</r>
       <r>   0.6342  1.0000</r>
       <r>   0.6342  1.0000</r>
       <r>   1.0854  1.0000</r>
       <r>   1.0854  1.0000</r>
       <r>   1.0854  1.0000</r>
       <r>   1.3327  1.0000</r>
       <r>   1.3327  1.0000</r>
       <r>   1.8174  1.0000</r>
       <r>   1.8174  1.0000</r>
       <r>   1.8174  1.0000</r>
       <r>   4.2867  0.0000</r>
       <r>   4.2867  0.0000</r>
       <r>   4.2867  0.0000</r>
       <r>   9.8777  0.0000</r>
       <r>   9.8777  0.0000</r>
      </set>
      <set comment="kpoint 66">
       <r>  -3.0780  1.0000</r>
       <r>  -1.0493  1.0000</r>
       <r>  -0.7611  1.0000</r>
       <r>  -0.7611  1.0000</r>
       <r>  -0.1545  1.0000</r>
       <r>  -0.1545  1.0000</r>
       <r>  -0.1322  1.0000</r>
       <r>   0.2546  1.0000</r>
       <r>   0.4374  1.0000</r>
       <r>   0.4492  1.0000</r>
       <r>   0.4492  1.0000</r>
       <r>   0.6108  1.0000</r>
       <r>   0.6360  1.0000</r>
       <r>   0.9516  1.0000</r>
       <r>   0.9971  1.0000</r>
       <r>   0.9971  1.0000</r>
       <r>   1.3552  1.0000</r>
       <r>   1.4611  1.0000</r>
       <r>   1.7873  1.0000</r>
       <r>   1.7873  1.0000</r>
       <r>   1.8069  1.0000</r>
       <r>   3.2255  1.0000</r>
       <r>   4.7418  0.0000</r>
       <r>   4.7418  0.0000</r>
       <r>   8.7186  0.0000</r>
       <r>   8.7186  0.0000</r>
      </set>
      <set comment="kpoint 67">
       <r>  -2.5325  1.0000</r>
       <r>  -1.4406  1.0000</r>
       <r>  -0.7232  1.0000</r>
       <r>  -0.7232  1.0000</r>
       <r>  -0.0686  1.0000</r>
       <r>  -0.0686  1.0000</r>
       <r>   0.0184  1.0000</r>
       <r>   0.2175  1.0000</r>
       <r>   0.4193  1.0000</r>
       <r>   0.4294  1.0000</r>
       <r>   0.4294  1.0000</r>
       <r>   0.5501  1.0000</r>
       <r>   0.6698  1.0000</r>
       <r>   0.8321  1.0000</r>
       <r>   0.9351  1.0000</r>
       <r>   0.9351  1.0000</r>
       <r>   1.5083  1.0000</r>
       <r>   1.5817  1.0000</r>
       <r>   1.7469  1.0000</r>
       <r>   1.7469  1.0000</r>
       <r>   1.7616  1.0000</r>
       <r>   2.4103  1.0000</r>
       <r>   5.2117  0.0000</r>
       <r>   5.2117  0.0000</r>
       <r>   7.8218  0.0000</r>
       <r>   7.8218  0.0000</r>
      </set>
      <set comment="kpoint 68">
       <r>  -1.9608  1.0000</r>
       <r>  -1.9608  1.0000</r>
       <r>  -0.7096  1.0000</r>
       <r>  -0.7096  1.0000</r>
       <r>  -0.0447  1.0000</r>
       <r>  -0.0447  1.0000</r>
       <r>   0.1408  1.0000</r>
       <r>   0.1408  1.0000</r>
       <r>   0.4397  1.0000</r>
       <r>   0.4397  1.0000</r>
       <r>   0.4682  1.0000</r>
       <r>   0.4682  1.0000</r>
       <r>   0.7361  1.0000</r>
       <r>   0.7361  1.0000</r>
       <r>   0.9077  1.0000</r>
       <r>   0.9077  1.0000</r>
       <r>   1.6846  1.0000</r>
       <r>   1.6846  1.0000</r>
       <r>   1.7285  1.0000</r>
       <r>   1.7285  1.0000</r>
       <r>   1.8476  1.0000</r>
       <r>   1.8476  1.0000</r>
       <r>   5.4617  0.0000</r>
       <r>   5.4617  0.0000</r>
       <r>   7.4285  0.0000</r>
       <r>   7.4285  0.0000</r>
      </set>
      <set comment="kpoint 69">
       <r>  -2.6656  1.0000</r>
       <r>  -0.9914  1.0000</r>
       <r>  -0.9914  1.0000</r>
       <r>  -0.8065  1.0000</r>
       <r>  -0.0334  1.0000</r>
       <r>   0.0108  1.0000</r>
       <r>   0.0108  1.0000</r>
       <r>   0.3261  1.0000</r>
       <r>   0.4363  1.0000</r>
       <r>   0.4363  1.0000</r>
       <r>   0.5102  1.0000</r>
       <r>   0.5867  1.0000</r>
       <r>   0.6082  1.0000</r>
       <r>   0.8699  1.0000</r>
       <r>   0.8699  1.0000</r>
       <r>   0.8856  1.0000</r>
       <r>   1.3926  1.0000</r>
       <r>   1.5690  1.0000</r>
       <r>   1.7698  1.0000</r>
       <r>   1.7849  1.0000</r>
       <r>   1.7849  1.0000</r>
       <r>   3.6071  0.0000</r>
       <r>   3.6071  0.0000</r>
       <r>   4.9974  0.0000</r>
       <r>   7.7246  0.0000</r>
       <r>   9.2894  0.0000</r>
      </set>
      <set comment="kpoint 70">
       <r>  -2.1983  1.0000</r>
       <r>  -1.3170  1.0000</r>
       <r>  -0.9440  1.0000</r>
       <r>  -0.8549  1.0000</r>
       <r>   0.0595  1.0000</r>
       <r>   0.0963  1.0000</r>
       <r>   0.1880  1.0000</r>
       <r>   0.3725  1.0000</r>
       <r>   0.4384  1.0000</r>
       <r>   0.4958  1.0000</r>
       <r>   0.5274  1.0000</r>
       <r>   0.5647  1.0000</r>
       <r>   0.6208  1.0000</r>
       <r>   0.7586  1.0000</r>
       <r>   0.8151  1.0000</r>
       <r>   0.8176  1.0000</r>
       <r>   1.4840  1.0000</r>
       <r>   1.7326  1.0000</r>
       <r>   1.7388  1.0000</r>
       <r>   1.7388  1.0000</r>
       <r>   1.7492  1.0000</r>
       <r>   2.7032  1.0000</r>
       <r>   4.0820  0.0000</r>
       <r>   4.9993  0.0000</r>
       <r>   7.2905  0.0000</r>
       <r>   8.3000  0.0000</r>
      </set>
      <set comment="kpoint 71">
       <r>  -1.7304  1.0000</r>
       <r>  -1.7304  1.0000</r>
       <r>  -0.9004  1.0000</r>
       <r>  -0.9004  1.0000</r>
       <r>   0.1035  1.0000</r>
       <r>   0.1035  1.0000</r>
       <r>   0.3357  1.0000</r>
       <r>   0.3357  1.0000</r>
       <r>   0.4582  1.0000</r>
       <r>   0.4582  1.0000</r>
       <r>   0.5696  1.0000</r>
       <r>   0.5696  1.0000</r>
       <r>   0.6732  1.0000</r>
       <r>   0.6732  1.0000</r>
       <r>   0.7907  1.0000</r>
       <r>   0.7907  1.0000</r>
       <r>   1.6368  1.0000</r>
       <r>   1.6368  1.0000</r>
       <r>   1.7142  1.0000</r>
       <r>   1.7142  1.0000</r>
       <r>   2.0805  1.0000</r>
       <r>   2.0805  1.0000</r>
       <r>   4.6049  0.0000</r>
       <r>   4.6049  0.0000</r>
       <r>   7.5708  0.0000</r>
       <r>   7.5708  0.0000</r>
      </set>
      <set comment="kpoint 72">
       <r>  -1.8412  1.0000</r>
       <r>  -1.2020  1.0000</r>
       <r>  -1.2020  1.0000</r>
       <r>  -0.9783  1.0000</r>
       <r>   0.1721  1.0000</r>
       <r>   0.2639  1.0000</r>
       <r>   0.2639  1.0000</r>
       <r>   0.4866  1.0000</r>
       <r>   0.5297  1.0000</r>
       <r>   0.5497  1.0000</r>
       <r>   0.5497  1.0000</r>
       <r>   0.5990  1.0000</r>
       <r>   0.6641  1.0000</r>
       <r>   0.7188  1.0000</r>
       <r>   0.7188  1.0000</r>
       <r>   0.7302  1.0000</r>
       <r>   1.4849  1.0000</r>
       <r>   1.6824  1.0000</r>
       <r>   1.6824  1.0000</r>
       <r>   1.6901  1.0000</r>
       <r>   2.0095  1.0000</r>
       <r>   3.1278  1.0000</r>
       <r>   3.1278  1.0000</r>
       <r>   4.3782  0.0000</r>
       <r>   7.4935  0.0000</r>
       <r>   8.9624  0.0000</r>
      </set>
      <set comment="kpoint 73">
       <r>  -1.5018  1.0000</r>
       <r>  -1.5018  1.0000</r>
       <r>  -1.0921  1.0000</r>
       <r>  -1.0921  1.0000</r>
       <r>   0.2434  1.0000</r>
       <r>   0.2434  1.0000</r>
       <r>   0.4024  1.0000</r>
       <r>   0.4024  1.0000</r>
       <r>   0.5740  1.0000</r>
       <r>   0.5740  1.0000</r>
       <r>   0.6455  1.0000</r>
       <r>   0.6455  1.0000</r>
       <r>   0.6605  1.0000</r>
       <r>   0.6605  1.0000</r>
       <r>   0.7076  1.0000</r>
       <r>   0.7076  1.0000</r>
       <r>   1.5779  1.0000</r>
       <r>   1.5779  1.0000</r>
       <r>   1.6590  1.0000</r>
       <r>   1.6590  1.0000</r>
       <r>   2.4332  1.0000</r>
       <r>   2.4332  1.0000</r>
       <r>   3.6942  0.0000</r>
       <r>   3.6942  0.0000</r>
       <r>   8.1092  0.0000</r>
       <r>   8.1092  0.0000</r>
      </set>
      <set comment="kpoint 74">
       <r>  -1.2899  1.0000</r>
       <r>  -1.2899  1.0000</r>
       <r>  -1.2899  1.0000</r>
       <r>  -1.2899  1.0000</r>
       <r>   0.3477  1.0000</r>
       <r>   0.3477  1.0000</r>
       <r>   0.3477  1.0000</r>
       <r>   0.3477  1.0000</r>
       <r>   0.6345  1.0000</r>
       <r>   0.6345  1.0000</r>
       <r>   0.6345  1.0000</r>
       <r>   0.6345  1.0000</r>
       <r>   0.7047  1.0000</r>
       <r>   0.7047  1.0000</r>
       <r>   0.7047  1.0000</r>
       <r>   0.7047  1.0000</r>
       <r>   1.5901  1.0000</r>
       <r>   1.5901  1.0000</r>
       <r>   1.5901  1.0000</r>
       <r>   1.5901  1.0000</r>
       <r>   2.9543  1.0000</r>
       <r>   2.9543  1.0000</r>
       <r>   2.9543  1.0000</r>
       <r>   2.9543  1.0000</r>
       <r>   8.8584  0.0000</r>
       <r>   8.8584  0.0000</r>
      </set>
      <set comment="kpoint 75">
       <r>  -2.3275  1.0000</r>
       <r>  -1.0326  1.0000</r>
       <r>  -1.0326  1.0000</r>
       <r>  -1.0326  1.0000</r>
       <r>   0.1315  1.0000</r>
       <r>   0.1315  1.0000</r>
       <r>   0.1315  1.0000</r>
       <r>   0.5098  1.0000</r>
       <r>   0.5653  1.0000</r>
       <r>   0.5653  1.0000</r>
       <r>   0.5784  1.0000</r>
       <r>   0.5784  1.0000</r>
       <r>   0.5784  1.0000</r>
       <r>   0.7623  1.0000</r>
       <r>   0.7623  1.0000</r>
       <r>   0.7623  1.0000</r>
       <r>   1.5318  1.0000</r>
       <r>   1.5318  1.0000</r>
       <r>   1.7982  1.0000</r>
       <r>   1.7982  1.0000</r>
       <r>   1.7982  1.0000</r>
       <r>   3.8526  0.0000</r>
       <r>   3.8526  0.0000</r>
       <r>   3.8526  0.0000</r>
       <r>   8.1914  0.0000</r>
       <r>   8.1914  0.0000</r>
      </set>
      <set comment="kpoint 76">
       <r>  -1.9633  1.0000</r>
       <r>  -1.3010  1.0000</r>
       <r>  -1.0625  1.0000</r>
       <r>  -1.0625  1.0000</r>
       <r>   0.2027  1.0000</r>
       <r>   0.2027  1.0000</r>
       <r>   0.2974  1.0000</r>
       <r>   0.5186  1.0000</r>
       <r>   0.5601  1.0000</r>
       <r>   0.6472  1.0000</r>
       <r>   0.6620  1.0000</r>
       <r>   0.6719  1.0000</r>
       <r>   0.6896  1.0000</r>
       <r>   0.6896  1.0000</r>
       <r>   0.7333  1.0000</r>
       <r>   0.7333  1.0000</r>
       <r>   1.6493  1.0000</r>
       <r>   1.6513  1.0000</r>
       <r>   1.7708  1.0000</r>
       <r>   1.7708  1.0000</r>
       <r>   1.7873  1.0000</r>
       <r>   2.8593  1.0000</r>
       <r>   4.1021  0.0000</r>
       <r>   4.1021  0.0000</r>
       <r>   7.4121  0.0000</r>
       <r>   7.4121  0.0000</r>
      </set>
      <set comment="kpoint 77">
       <r>  -1.6131  1.0000</r>
       <r>  -1.6131  1.0000</r>
       <r>  -1.0734  1.0000</r>
       <r>  -1.0734  1.0000</r>
       <r>   0.2243  1.0000</r>
       <r>   0.2243  1.0000</r>
       <r>   0.4321  1.0000</r>
       <r>   0.4321  1.0000</r>
       <r>   0.5930  1.0000</r>
       <r>   0.5930  1.0000</r>
       <r>   0.6741  1.0000</r>
       <r>   0.6741  1.0000</r>
       <r>   0.7008  1.0000</r>
       <r>   0.7008  1.0000</r>
       <r>   0.7943  1.0000</r>
       <r>   0.7943  1.0000</r>
       <r>   1.7366  1.0000</r>
       <r>   1.7366  1.0000</r>
       <r>   1.7506  1.0000</r>
       <r>   1.7506  1.0000</r>
       <r>   2.0983  1.0000</r>
       <r>   2.0983  1.0000</r>
       <r>   4.2200  0.0000</r>
       <r>   4.2200  0.0000</r>
       <r>   7.1138  0.0000</r>
       <r>   7.1138  0.0000</r>
      </set>
      <set comment="kpoint 78">
       <r>  -1.7232  1.0000</r>
       <r>  -1.2748  1.0000</r>
       <r>  -1.2748  1.0000</r>
       <r>  -1.1590  1.0000</r>
       <r>   0.2854  1.0000</r>
       <r>   0.3348  1.0000</r>
       <r>   0.3348  1.0000</r>
       <r>   0.5001  1.0000</r>
       <r>   0.5258  1.0000</r>
       <r>   0.6035  1.0000</r>
       <r>   0.6035  1.0000</r>
       <r>   0.6200  1.0000</r>
       <r>   0.8884  1.0000</r>
       <r>   0.8884  1.0000</r>
       <r>   0.9212  1.0000</r>
       <r>   0.9744  1.0000</r>
       <r>   1.6133  1.0000</r>
       <r>   1.7573  1.0000</r>
       <r>   1.7640  1.0000</r>
       <r>   1.7640  1.0000</r>
       <r>   1.8657  1.0000</r>
       <r>   3.1432  1.0000</r>
       <r>   3.1432  1.0000</r>
       <r>   3.9167  0.0000</r>
       <r>   7.0589  0.0000</r>
       <r>   7.9158  0.0000</r>
      </set>
      <set comment="kpoint 79">
       <r>  -1.4934  1.0000</r>
       <r>  -1.4934  1.0000</r>
       <r>  -1.2294  1.0000</r>
       <r>  -1.2294  1.0000</r>
       <r>   0.3306  1.0000</r>
       <r>   0.3306  1.0000</r>
       <r>   0.4362  1.0000</r>
       <r>   0.4362  1.0000</r>
       <r>   0.5451  1.0000</r>
       <r>   0.5451  1.0000</r>
       <r>   0.5877  1.0000</r>
       <r>   0.5877  1.0000</r>
       <r>   1.0024  1.0000</r>
       <r>   1.0024  1.0000</r>
       <r>   1.0175  1.0000</r>
       <r>   1.0175  1.0000</r>
       <r>   1.7022  1.0000</r>
       <r>   1.7022  1.0000</r>
       <r>   1.7382  1.0000</r>
       <r>   1.7382  1.0000</r>
       <r>   2.3438  1.0000</r>
       <r>   2.3438  1.0000</r>
       <r>   3.5356  0.0000</r>
       <r>   3.5356  0.0000</r>
       <r>   7.2778  0.0000</r>
       <r>   7.2778  0.0000</r>
      </set>
      <set comment="kpoint 80">
       <r>  -1.3679  1.0000</r>
       <r>  -1.3679  1.0000</r>
       <r>  -1.3679  1.0000</r>
       <r>  -1.3679  1.0000</r>
       <r>   0.4056  1.0000</r>
       <r>   0.4056  1.0000</r>
       <r>   0.4056  1.0000</r>
       <r>   0.4056  1.0000</r>
       <r>   0.5404  1.0000</r>
       <r>   0.5404  1.0000</r>
       <r>   0.5404  1.0000</r>
       <r>   0.5404  1.0000</r>
       <r>   1.1281  1.0000</r>
       <r>   1.1281  1.0000</r>
       <r>   1.1281  1.0000</r>
       <r>   1.1281  1.0000</r>
       <r>   1.6924  1.0000</r>
       <r>   1.6924  1.0000</r>
       <r>   1.6924  1.0000</r>
       <r>   1.6924  1.0000</r>
       <r>   2.8420  1.0000</r>
       <r>   2.8420  1.0000</r>
       <r>   2.8420  1.0000</r>
       <r>   2.8420  1.0000</r>
       <r>   7.8313  0.0000</r>
       <r>   7.8313  0.0000</r>
      </set>
      <set comment="kpoint 81">
       <r>  -1.6000  1.0000</r>
       <r>  -1.3228  1.0000</r>
       <r>  -1.3228  1.0000</r>
       <r>  -1.3228  1.0000</r>
       <r>   0.3830  1.0000</r>
       <r>   0.3830  1.0000</r>
       <r>   0.3830  1.0000</r>
       <r>   0.4905  1.0000</r>
       <r>   0.4905  1.0000</r>
       <r>   0.5395  1.0000</r>
       <r>   0.5395  1.0000</r>
       <r>   0.5395  1.0000</r>
       <r>   1.1844  1.0000</r>
       <r>   1.1844  1.0000</r>
       <r>   1.1844  1.0000</r>
       <r>   1.5474  1.0000</r>
       <r>   1.7105  1.0000</r>
       <r>   1.7105  1.0000</r>
       <r>   1.7850  1.0000</r>
       <r>   1.7850  1.0000</r>
       <r>   1.7850  1.0000</r>
       <r>   3.1585  1.0000</r>
       <r>   3.1585  1.0000</r>
       <r>   3.1585  1.0000</r>
       <r>   7.2118  0.0000</r>
       <r>   7.2118  0.0000</r>
      </set>
      <set comment="kpoint 82">
       <r>  -1.4685  1.0000</r>
       <r>  -1.4685  1.0000</r>
       <r>  -1.3395  1.0000</r>
       <r>  -1.3395  1.0000</r>
       <r>   0.4016  1.0000</r>
       <r>   0.4016  1.0000</r>
       <r>   0.4525  1.0000</r>
       <r>   0.4525  1.0000</r>
       <r>   0.4952  1.0000</r>
       <r>   0.4952  1.0000</r>
       <r>   0.5155  1.0000</r>
       <r>   0.5155  1.0000</r>
       <r>   1.3207  1.0000</r>
       <r>   1.3207  1.0000</r>
       <r>   1.4361  1.0000</r>
       <r>   1.4361  1.0000</r>
       <r>   1.7692  1.0000</r>
       <r>   1.7692  1.0000</r>
       <r>   1.7722  1.0000</r>
       <r>   1.7722  1.0000</r>
       <r>   2.3385  1.0000</r>
       <r>   2.3385  1.0000</r>
       <r>   3.1656  1.0000</r>
       <r>   3.1656  1.0000</r>
       <r>   6.9585  0.0000</r>
       <r>   6.9585  0.0000</r>
      </set>
      <set comment="kpoint 83">
       <r>  -1.4189  1.0000</r>
       <r>  -1.4189  1.0000</r>
       <r>  -1.4189  1.0000</r>
       <r>  -1.4189  1.0000</r>
       <r>   0.4461  1.0000</r>
       <r>   0.4461  1.0000</r>
       <r>   0.4461  1.0000</r>
       <r>   0.4461  1.0000</r>
       <r>   0.4809  1.0000</r>
       <r>   0.4809  1.0000</r>
       <r>   0.4809  1.0000</r>
       <r>   0.4809  1.0000</r>
       <r>   1.5528  1.0000</r>
       <r>   1.5528  1.0000</r>
       <r>   1.5528  1.0000</r>
       <r>   1.5528  1.0000</r>
       <r>   1.7578  1.0000</r>
       <r>   1.7578  1.0000</r>
       <r>   1.7578  1.0000</r>
       <r>   1.7578  1.0000</r>
       <r>   2.6653  1.0000</r>
       <r>   2.6653  1.0000</r>
       <r>   2.6653  1.0000</r>
       <r>   2.6653  1.0000</r>
       <r>   7.1523  0.0000</r>
       <r>   7.1523  0.0000</r>
      </set>
      <set comment="kpoint 84">
       <r>  -1.4366  1.0000</r>
       <r>  -1.4366  1.0000</r>
       <r>  -1.4366  1.0000</r>
       <r>  -1.4366  1.0000</r>
       <r>   0.4606  1.0000</r>
       <r>   0.4606  1.0000</r>
       <r>   0.4606  1.0000</r>
       <r>   0.4606  1.0000</r>
       <r>   0.4606  1.0000</r>
       <r>   0.4606  1.0000</r>
       <r>   0.4606  1.0000</r>
       <r>   0.4606  1.0000</r>
       <r>   1.7803  1.0000</r>
       <r>   1.7803  1.0000</r>
       <r>   1.7803  1.0000</r>
       <r>   1.7803  1.0000</r>
       <r>   1.7803  1.0000</r>
       <r>   1.7803  1.0000</r>
       <r>   1.7803  1.0000</r>
       <r>   1.7803  1.0000</r>
       <r>   2.5340  1.0000</r>
       <r>   2.5340  1.0000</r>
       <r>   2.5340  1.0000</r>
       <r>   2.5340  1.0000</r>
       <r>   6.9123  0.0000</r>
       <r>   6.9123  0.0000</r>
      </set>
     </set>
    </set>
   </array>
  </eigenvalues>
 </calculation>
 <structure name="finalpos" >
  <crystal>
   <varray name="basis" >
    <v>       3.67277997      0.00000000      0.00000000</v>
    <v>       0.00000000      3.67277997      0.00000000</v>
    <v>       0.00000000      0.00000000      3.67277997</v>
   </varray>
   <i name="volume">     49.54327752</i>
   <varray name="rec_basis" >
    <v>       0.27227332      0.00000000      0.00000000</v>
    <v>       0.00000000      0.27227332      0.00000000</v>
    <v>       0.00000000      0.00000000      0.27227332</v>
   </varray>
  </crystal>
  <varray name="positions" >
   <v>       0.00000000      0.00000000      0.00000000</v>
   <v>       0.50000000      0.50000000      0.00000000</v>
   <v>       0.50000000      0.00000000      0.50000000</v>
   <v>       0.00000000      0.50000000      0.50000000</v>
  </varray>
 </structure>
</modeling>
