 running on    8 nodes
 distr:  one band on    1 nodes,    8 groups
 vasp.4.6.28 25Jul05 complex 
 POSCAR found :  1 types and    4 ions
 LDA part: xc-table for Pade appr. of Perdew
 POSCAR, INCAR and KPOINTS ok, starting setup
 WARNING: wrap around errors must be expected
 FFT: planning ...           1
 reading WAVECAR
 WARNING: random wavefunctions but no delay for mixing, default for NELMDL
 entering main loop
       N       E                     dE             d eps       ncg     rms          rms(c)
DAV:   1     0.363098384772E+03    0.36310E+03   -0.31384E+04 89552   0.344E+03
DAV:   2     0.118005093253E+02   -0.35130E+03   -0.33152E+03 85280   0.488E+02
DAV:   3    -0.176625862493E+02   -0.29463E+02   -0.28648E+02 91336   0.163E+02
DAV:   4    -0.180984990005E+02   -0.43591E+00   -0.43543E+00 96992   0.209E+01
DAV:   5    -0.180993498292E+02   -0.85083E-03   -0.85082E-03 93504   0.895E-01    0.141E+01
DAV:   6    -0.154980883148E+02    0.26013E+01   -0.20461E+01 94128   0.761E+01    0.496E+00
DAV:   7    -0.145870450369E+02    0.91104E+00   -0.33506E+00 97048   0.300E+01    0.141E+00
DAV:   8    -0.145292919845E+02    0.57753E-01   -0.24110E-02101448   0.127E+00    0.542E-01
DAV:   9    -0.145228967845E+02    0.63952E-02   -0.51718E-03110600   0.116E+00    0.353E-02
DAV:  10    -0.145229703675E+02   -0.73583E-04   -0.60074E-04 94552   0.193E-01    0.661E-03
DAV:  11    -0.145229684722E+02    0.18952E-05   -0.54241E-05 95056   0.905E-02    0.614E-03
DAV:  12    -0.145229725945E+02   -0.41222E-05   -0.11956E-06 98312   0.193E-02    0.935E-04
DAV:  13    -0.145229731492E+02   -0.55479E-06   -0.53498E-08 93104   0.316E-03    0.215E-04
DAV:  14    -0.145229731697E+02   -0.20496E-07   -0.26005E-09 56288   0.495E-04    0.486E-05
DAV:  15    -0.145229731608E+02    0.89531E-08   -0.25540E-10 52472   0.144E-04
   1 F= -.14522973E+02 E0= -.14522950E+02  d E =-.461979E-04
