   4   4   0   0
  0.1063949E+02  0.3491351E-09  0.3491351E-09  0.3491351E-09  0.5000000E-15
  1.000000000000000E-004
  CAR 
 unknown system                          
     28.82556301     -7.06382369  301      4.77210757      1.00000000
     -7.064  0.0000E+00  0.0000E+00
     -6.944  0.0000E+00  0.0000E+00
     -6.825  0.0000E+00  0.0000E+00
     -6.705  0.0000E+00  0.0000E+00
     -6.585  0.0000E+00  0.0000E+00
     -6.466  0.0000E+00  0.0000E+00
     -6.346  0.0000E+00  0.0000E+00
     -6.226  0.0000E+00  0.0000E+00
     -6.107  0.0000E+00  0.0000E+00
     -5.987  0.0000E+00  0.0000E+00
     -5.868  0.0000E+00  0.0000E+00
     -5.748  0.0000E+00  0.0000E+00
     -5.628  0.0000E+00  0.0000E+00
     -5.509  0.0000E+00  0.0000E+00
     -5.389  0.1241E-01  0.1484E-02
     -5.269  0.5978E-01  0.1114E-01
     -5.150  0.8398E-01  0.2672E-01
     -5.030  0.1042E+00  0.4466E-01
     -4.910  0.1189E+00  0.6726E-01
     -4.791  0.1183E+00  0.9093E-01
     -4.671  0.1597E+00  0.1208E+00
     -4.552  0.1868E+00  0.1496E+00
     -4.432  0.1906E+00  0.1833E+00
     -4.312  0.1825E+00  0.2170E+00
     -4.193  0.2130E+00  0.2560E+00
     -4.073  0.2361E+00  0.2955E+00
     -3.953  0.2624E+00  0.3367E+00
     -3.834  0.2347E+00  0.3803E+00
     -3.714  0.2881E+00  0.4243E+00
     -3.595  0.2425E+00  0.4746E+00
     -3.475  0.2751E+00  0.5241E+00
     -3.355  0.3021E+00  0.5785E+00
     -3.236  0.3066E+00  0.6346E+00
     -3.116  0.3310E+00  0.6923E+00
     -2.996  0.3206E+00  0.7527E+00
     -2.877  0.4004E+00  0.8170E+00
     -2.757  0.3220E+00  0.8786E+00
     -2.637  0.4109E+00  0.9548E+00
     -2.518  0.3844E+00  0.1023E+01
     -2.398  0.3969E+00  0.1103E+01
     -2.279  0.5100E+00  0.1185E+01
     -2.159  0.4576E+00  0.1267E+01
     -2.039  0.5342E+00  0.1362E+01
     -1.920  0.5628E+00  0.1458E+01
     -1.800  0.5956E+00  0.1561E+01
     -1.680  0.6560E+00  0.1669E+01
     -1.561  0.6145E+00  0.1786E+01
     -1.441  0.8309E+00  0.1924E+01
     -1.322  0.8247E+00  0.2064E+01
     -1.202  0.9918E+00  0.2232E+01
     -1.082  0.1253E+01  0.2433E+01
     -0.963  0.1584E+01  0.2689E+01
     -0.843  0.1896E+01  0.3028E+01
     -0.723  0.2905E+01  0.3502E+01
     -0.604  0.2892E+01  0.4016E+01
     -0.484  0.2917E+01  0.4547E+01
     -0.364  0.3044E+01  0.5097E+01
     -0.245  0.3518E+01  0.5705E+01
     -0.125  0.4600E+01  0.6484E+01
     -0.006  0.5142E+01  0.7374E+01
      0.114  0.5786E+01  0.8416E+01
      0.234  0.5434E+01  0.9380E+01
      0.353  0.4739E+01  0.1026E+02
      0.473  0.4972E+01  0.1115E+02
      0.593  0.4806E+01  0.1200E+02
      0.712  0.4321E+01  0.1281E+02
      0.832  0.5935E+01  0.1385E+02
      0.951  0.6419E+01  0.1502E+02
      1.071  0.6864E+01  0.1629E+02
      1.191  0.7232E+01  0.1760E+02
      1.310  0.9056E+01  0.1917E+02
      1.430  0.8635E+01  0.2074E+02
      1.550  0.1124E+02  0.2263E+02
      1.669  0.8028E+01  0.2420E+02
      1.789  0.6298E+01  0.2537E+02
      1.909  0.5862E+01  0.2642E+02
      2.028  0.6133E+01  0.2749E+02
      2.148  0.7820E+01  0.2887E+02
      2.267  0.8623E+01  0.3041E+02
      2.387  0.8008E+01  0.3189E+02
      2.507  0.7323E+01  0.3320E+02
      2.626  0.7169E+01  0.3450E+02
      2.746  0.7785E+01  0.3584E+02
      2.866  0.9302E+01  0.3744E+02
      2.985  0.1523E+02  0.3996E+02
      3.105  0.7543E+01  0.4154E+02
      3.224  0.1169E+01  0.4201E+02
      3.344  0.9183E+00  0.4218E+02
      3.464  0.8585E+00  0.4235E+02
      3.583  0.8033E+00  0.4252E+02
      3.703  0.7379E+00  0.4269E+02
      3.823  0.9088E+00  0.4286E+02
      3.942  0.9328E+00  0.4301E+02
      4.062  0.8276E+00  0.4316E+02
      4.182  0.8047E+00  0.4331E+02
      4.301  0.8495E+00  0.4345E+02
      4.421  0.7032E+00  0.4359E+02
      4.540  0.8624E+00  0.4374E+02
      4.660  0.7983E+00  0.4387E+02
      4.780  0.7523E+00  0.4401E+02
      4.899  0.6744E+00  0.4413E+02
      5.019  0.8171E+00  0.4428E+02
      5.139  0.6945E+00  0.4440E+02
      5.258  0.7970E+00  0.4453E+02
      5.378  0.7220E+00  0.4465E+02
      5.497  0.7605E+00  0.4478E+02
      5.617  0.5753E+00  0.4490E+02
      5.737  0.6682E+00  0.4501E+02
      5.856  0.6886E+00  0.4515E+02
      5.976  0.5693E+00  0.4525E+02
      6.096  0.7680E+00  0.4539E+02
      6.215  0.6429E+00  0.4551E+02
      6.335  0.6600E+00  0.4562E+02
      6.455  0.7216E+00  0.4573E+02
      6.574  0.5605E+00  0.4585E+02
      6.694  0.5376E+00  0.4595E+02
      6.813  0.6307E+00  0.4607E+02
      6.933  0.6797E+00  0.4618E+02
      7.053  0.5943E+00  0.4628E+02
      7.172  0.7524E+00  0.4639E+02
      7.292  0.4246E+00  0.4648E+02
      7.412  0.4594E+00  0.4657E+02
      7.531  0.5147E+00  0.4667E+02
      7.651  0.5348E+00  0.4677E+02
      7.770  0.5405E+00  0.4685E+02
      7.890  0.3774E+00  0.4693E+02
      8.010  0.4107E+00  0.4702E+02
      8.129  0.5143E+00  0.4710E+02
      8.249  0.4379E+00  0.4717E+02
      8.369  0.4619E+00  0.4725E+02
      8.488  0.2725E+00  0.4731E+02
      8.608  0.4756E+00  0.4739E+02
      8.728  0.3904E+00  0.4745E+02
      8.847  0.2796E+00  0.4751E+02
      8.967  0.2438E+00  0.4756E+02
      9.086  0.4876E+00  0.4764E+02
      9.206  0.6160E+00  0.4774E+02
      9.326  0.6813E+00  0.4785E+02
      9.445  0.7038E+00  0.4798E+02
      9.565  0.7739E+00  0.4812E+02
      9.685  0.7088E+00  0.4824E+02
      9.804  0.6915E+00  0.4837E+02
      9.924  0.7005E+00  0.4851E+02
     10.043  0.7849E+00  0.4864E+02
     10.163  0.8338E+00  0.4878E+02
     10.283  0.7527E+00  0.4892E+02
     10.402  0.6302E+00  0.4904E+02
     10.522  0.8395E+00  0.4919E+02
     10.642  0.6892E+00  0.4932E+02
     10.761  0.7799E+00  0.4944E+02
     10.881  0.8159E+00  0.4957E+02
     11.001  0.5951E+00  0.4967E+02
     11.120  0.6148E+00  0.4980E+02
     11.240  0.6283E+00  0.4991E+02
     11.359  0.6703E+00  0.5003E+02
     11.479  0.6971E+00  0.5014E+02
     11.599  0.6219E+00  0.5025E+02
     11.718  0.6164E+00  0.5036E+02
     11.838  0.5644E+00  0.5046E+02
     11.958  0.6484E+00  0.5058E+02
     12.077  0.6191E+00  0.5067E+02
     12.197  0.5584E+00  0.5077E+02
     12.316  0.6865E+00  0.5089E+02
     12.436  0.5001E+00  0.5097E+02
     12.556  0.6382E+00  0.5108E+02
     12.675  0.5875E+00  0.5118E+02
     12.795  0.7882E+00  0.5133E+02
     12.915  0.8520E+00  0.5148E+02
     13.034  0.7883E+00  0.5161E+02
     13.154  0.8137E+00  0.5175E+02
     13.273  0.6673E+00  0.5187E+02
     13.393  0.7090E+00  0.5198E+02
     13.513  0.8884E+00  0.5215E+02
     13.632  0.8275E+00  0.5230E+02
     13.752  0.8587E+00  0.5246E+02
     13.872  0.8646E+00  0.5262E+02
     13.991  0.1010E+01  0.5279E+02
     14.111  0.8724E+00  0.5294E+02
     14.231  0.1041E+01  0.5312E+02
     14.350  0.8931E+00  0.5326E+02
     14.470  0.8736E+00  0.5341E+02
     14.589  0.9760E+00  0.5357E+02
     14.709  0.9268E+00  0.5375E+02
     14.829  0.8710E+00  0.5390E+02
     14.948  0.7506E+00  0.5404E+02
     15.068  0.9517E+00  0.5421E+02
     15.188  0.1154E+01  0.5440E+02
     15.307  0.8461E+00  0.5456E+02
     15.427  0.7488E+00  0.5471E+02
     15.546  0.8315E+00  0.5486E+02
     15.666  0.1058E+01  0.5503E+02
     15.786  0.1048E+01  0.5522E+02
     15.905  0.8495E+00  0.5538E+02
     16.025  0.8986E+00  0.5555E+02
     16.145  0.9322E+00  0.5570E+02
     16.264  0.9226E+00  0.5588E+02
     16.384  0.9628E+00  0.5604E+02
     16.504  0.1037E+01  0.5623E+02
     16.623  0.1001E+01  0.5640E+02
     16.743  0.8759E+00  0.5656E+02
     16.862  0.1021E+01  0.5673E+02
     16.982  0.9496E+00  0.5691E+02
     17.102  0.9038E+00  0.5707E+02
     17.221  0.1048E+01  0.5727E+02
     17.341  0.8381E+00  0.5743E+02
     17.461  0.9688E+00  0.5760E+02
     17.580  0.9234E+00  0.5779E+02
     17.700  0.9620E+00  0.5797E+02
     17.819  0.8870E+00  0.5814E+02
     17.939  0.1082E+01  0.5834E+02
     18.059  0.1051E+01  0.5851E+02
     18.178  0.9653E+00  0.5869E+02
     18.298  0.9735E+00  0.5888E+02
     18.418  0.1203E+01  0.5907E+02
     18.537  0.9768E+00  0.5926E+02
     18.657  0.1090E+01  0.5944E+02
     18.777  0.1089E+01  0.5965E+02
     18.896  0.1120E+01  0.5985E+02
     19.016  0.9877E+00  0.6003E+02
     19.135  0.1044E+01  0.6024E+02
     19.255  0.9865E+00  0.6040E+02
     19.375  0.1144E+01  0.6059E+02
     19.494  0.9325E+00  0.6076E+02
     19.614  0.8047E+00  0.6092E+02
     19.734  0.1122E+01  0.6112E+02
     19.853  0.7648E+00  0.6126E+02
     19.973  0.8583E+00  0.6143E+02
     20.092  0.7797E+00  0.6156E+02
     20.212  0.8876E+00  0.6172E+02
     20.332  0.6525E+00  0.6185E+02
     20.451  0.6939E+00  0.6197E+02
     20.571  0.6702E+00  0.6210E+02
     20.691  0.5209E+00  0.6219E+02
     20.810  0.4865E+00  0.6229E+02
     20.930  0.4817E+00  0.6238E+02
     21.050  0.4010E+00  0.6246E+02
     21.169  0.5065E+00  0.6255E+02
     21.289  0.5626E+00  0.6264E+02
     21.408  0.3029E+00  0.6270E+02
     21.528  0.4430E+00  0.6279E+02
     21.648  0.2728E+00  0.6284E+02
     21.767  0.3660E+00  0.6290E+02
     21.887  0.2990E+00  0.6297E+02
     22.007  0.3624E+00  0.6304E+02
     22.126  0.2393E+00  0.6307E+02
     22.246  0.5401E+00  0.6315E+02
     22.365  0.2320E+00  0.6319E+02
     22.485  0.3250E+00  0.6323E+02
     22.605  0.2233E+00  0.6328E+02
     22.724  0.2415E+00  0.6332E+02
     22.844  0.1318E+00  0.6336E+02
     22.964  0.3751E+00  0.6342E+02
     23.083  0.1206E+00  0.6343E+02
     23.203  0.2378E+00  0.6347E+02
     23.323  0.1506E+00  0.6351E+02
     23.442  0.8941E-01  0.6353E+02
     23.562  0.1610E+00  0.6356E+02
     23.681  0.2069E+00  0.6359E+02
     23.801  0.1675E+00  0.6362E+02
     23.921  0.1063E+00  0.6364E+02
     24.040  0.1463E+00  0.6367E+02
     24.160  0.1032E+00  0.6369E+02
     24.280  0.1358E+00  0.6371E+02
     24.399  0.8841E-01  0.6374E+02
     24.519  0.7189E-01  0.6376E+02
     24.638  0.6973E-01  0.6377E+02
     24.758  0.2161E+00  0.6380E+02
     24.878  0.6207E-01  0.6381E+02
     24.997  0.1022E+00  0.6383E+02
     25.117  0.7147E-01  0.6384E+02
     25.237  0.6682E-01  0.6386E+02
     25.356  0.2761E-01  0.6387E+02
     25.476  0.9538E-01  0.6388E+02
     25.596  0.8045E-01  0.6390E+02
     25.715  0.5455E-01  0.6391E+02
     25.835  0.8156E-01  0.6392E+02
     25.954  0.3441E-01  0.6393E+02
     26.074  0.7488E-01  0.6394E+02
     26.194  0.3440E-01  0.6394E+02
     26.313  0.5124E-01  0.6395E+02
     26.433  0.9399E-01  0.6396E+02
     26.553  0.8793E-02  0.6397E+02
     26.672  0.3948E-01  0.6397E+02
     26.792  0.5934E-01  0.6398E+02
     26.911  0.3725E-01  0.6399E+02
     27.031  0.3448E-01  0.6399E+02
     27.151  0.2414E-01  0.6400E+02
     27.270  0.2867E-02  0.6400E+02
     27.390  0.0000E+00  0.6400E+02
     27.510  0.0000E+00  0.6400E+02
     27.629  0.0000E+00  0.6400E+02
     27.749  0.0000E+00  0.6400E+02
     27.869  0.0000E+00  0.6400E+02
     27.988  0.0000E+00  0.6400E+02
     28.108  0.0000E+00  0.6400E+02
     28.227  0.0000E+00  0.6400E+02
     28.347  0.0000E+00  0.6400E+02
     28.467  0.0000E+00  0.6400E+02
     28.586  0.0000E+00  0.6400E+02
     28.706  0.0000E+00  0.6400E+02
     28.826  0.0000E+00  0.6400E+02
