    4    4    1    1
  0.1063949E+02  0.3491351E-09  0.3491351E-09  0.3491351E-09  0.5000000E-15
  1.000000000000000E-004
  CAR 
 unknown system                          
   44 1330   32
 
  0.0000000E+00  0.0000000E+00  0.0000000E+00  0.2143347E-04
   1       -5.4325
   2       -0.8136
   3       -0.8136
   4       -0.8136
   5       -0.2895
   6       -0.2895
   7       -0.2895
   8        1.3468
   9        1.3468
  10        1.3468
  11        2.3204
  12        2.3204
  13        2.9657
  14        2.9657
  15        2.9657
  16        3.1472
  17        3.1472
  18        3.1472
  19        3.1472
  20        3.1472
  21        3.1472
  22        6.1811
  23        6.1811
  24        6.1811
  25       12.6253
  26       12.6253
  27       12.6253
  28       18.7810
  29       18.7810
  30       18.7810
  31       18.7810
  32       18.7810
 
  0.2777778E-01  0.0000000E+00  0.0000000E+00  0.1286008E-03
   1       -5.4224
   2       -0.8133
   3       -0.8086
   4       -0.8086
   5       -0.2866
   6       -0.2864
   7       -0.2864
   8        1.3434
   9        1.3494
  10        1.3494
  11        2.3173
  12        2.3216
  13        2.9618
  14        2.9618
  15        2.9644
  16        3.1252
  17        3.1252
  18        3.1426
  19        3.1426
  20        3.1472
  21        3.1472
  22        6.1175
  23        6.2118
  24        6.2118
  25       12.6284
  26       12.6284
  27       12.7079
  28       18.7053
  29       18.7053
  30       18.7382
  31       18.7382
  32       18.7963
 
  0.5555556E-01  0.0000000E+00  0.0000000E+00  0.1286008E-03
   1       -5.3920
   2       -0.8123
   3       -0.7936
   4       -0.7936
   5       -0.2778
   6       -0.2771
   7       -0.2771
   8        1.3335
   9        1.3572
  10        1.3572
  11        2.3083
  12        2.3252
  13        2.9501
  14        2.9501
  15        2.9607
  16        3.0619
  17        3.0619
  18        3.1288
  19        3.1288
  20        3.1472
  21        3.1472
  22        5.9365
  23        6.3015
  24        6.3015
  25       12.6378
  26       12.6378
  27       12.9464
  28       18.4927
  29       18.4927
  30       18.6141
  31       18.6141
  32       18.8419
 
  0.8333333E-01  0.0000000E+00  0.0000000E+00  0.1286008E-03
   1       -5.3413
   2       -0.8113
   3       -0.7688
   4       -0.7688
   5       -0.2633
   6       -0.2617
   7       -0.2617
   8        1.3171
   9        1.3702
  10        1.3702
  11        2.2934
  12        2.3311
  13        2.9307
  14        2.9307
  15        2.9544
  16        2.9639
  17        2.9639
  18        3.1062
  19        3.1062
  20        3.1473
  21        3.1473
  22        5.6618
  23        6.4436
  24        6.4436
  25       12.6536
  26       12.6536
  27       13.3172
  28       18.1768
  29       18.1768
  30       18.4202
  31       18.4202
  32       18.9176
 
  0.1111111E+00  0.0000000E+00  0.0000000E+00  0.1286008E-03
   1       -5.2707
   2       -0.8114
   3       -0.7347
   4       -0.7347
   5       -0.2432
   6       -0.2399
   7       -0.2399
   8        1.2942
   9        1.3883
  10        1.3883
  11        2.2727
  12        2.3394
  13        2.8393
  14        2.8393
  15        2.9039
  16        2.9039
  17        2.9458
  18        3.0749
  19        3.0749
  20        3.1473
  21        3.1473
  22        5.3214
  23        6.6296
  24        6.6296
  25       12.6759
  26       12.6759
  27       13.7933
  28       17.7915
  29       17.7915
  30       18.1718
  31       18.1718
  32       19.0230
 
  0.1388889E+00  0.0000000E+00  0.0000000E+00  0.1286008E-03
   1       -5.1802
   2       -0.8141
   3       -0.6917
   4       -0.6917
   5       -0.2174
   6       -0.2120
   7       -0.2120
   8        1.2652
   9        1.4116
  10        1.4116
  11        2.2466
  12        2.3499
  13        2.6962
  14        2.6962
  15        2.8700
  16        2.8700
  17        2.9348
  18        3.0356
  19        3.0356
  20        3.1474
  21        3.1474
  22        4.9407
  23        6.8517
  24        6.8517
  25       12.7050
  26       12.7050
  27       14.3503
  28       17.3630
  29       17.3630
  30       17.8846
  31       17.8846
  32       19.1575
 
  0.1666667E+00  0.0000000E+00  0.0000000E+00  0.1286008E-03
   1       -5.0701
   2       -0.8215
   3       -0.6406
   4       -0.6406
   5       -0.1863
   6       -0.1777
   7       -0.1777
   8        1.2303
   9        1.4398
  10        1.4398
  11        2.2155
  12        2.3626
  13        2.5412
  14        2.5412
  15        2.8293
  16        2.8293
  17        2.9215
  18        2.9888
  19        2.9888
  20        3.1474
  21        3.1474
  22        4.5399
  23        7.1032
  24        7.1032
  25       12.7412
  26       12.7412
  27       14.9696
  28       16.9086
  29       16.9086
  30       17.5726
  31       17.5726
  32       19.3206
 
  0.1944444E+00  0.0000000E+00  0.0000000E+00  0.1286008E-03
   1       -4.9408
   2       -0.8364
   3       -0.5824
   4       -0.5824
   5       -0.1500
   6       -0.1371
   7       -0.1371
   8        1.1899
   9        1.4731
  10        1.4731
  11        2.1797
  12        2.3775
  13        2.3791
  14        2.3791
  15        2.7825
  16        2.7825
  17        2.9060
  18        2.9352
  19        2.9352
  20        3.1475
  21        3.1475
  22        4.1350
  23        7.3791
  24        7.3791
  25       12.7847
  26       12.7847
  27       15.6374
  28       16.4396
  29       16.4396
  30       17.2473
  31       17.2473
  32       19.5113
 
  0.2222222E+00  0.0000000E+00  0.0000000E+00  0.1286008E-03
   1       -4.7926
   2       -0.8625
   3       -0.5180
   4       -0.5180
   5       -0.1087
   6       -0.0900
   7       -0.0900
   8        1.1441
   9        1.5112
  10        1.5112
  11        2.1399
  12        2.2140
  13        2.2140
  14        2.3943
  15        2.7302
  16        2.7302
  17        2.8755
  18        2.8755
  19        2.8886
  20        3.1476
  21        3.1476
  22        3.7387
  23        7.6754
  24        7.6754
  25       12.8359
  26       12.8359
  27       15.9634
  28       15.9634
  29       16.3435
  30       16.9178
  31       16.9178
  32       19.7288
 
  0.2500000E+00  0.0000000E+00  0.0000000E+00  0.1286008E-03
   1       -4.6262
   2       -0.9041
   3       -0.4490
   4       -0.4490
   5       -0.0628
   6       -0.0365
   7       -0.0365
   8        1.0936
   9        1.5541
  10        1.5541
  11        2.0484
  12        2.0484
  13        2.0968
  14        2.4130
  15        2.6736
  16        2.6736
  17        2.8106
  18        2.8106
  19        2.8692
  20        3.1477
  21        3.1477
  22        3.3618
  23        7.9893
  24        7.9893
  25       12.8951
  26       12.8951
  27       15.4847
  28       15.4847
  29       16.5912
  30       16.5912
  31       17.0807
  32       19.9722
 
  0.2777778E+00  0.0000000E+00  0.0000000E+00  0.1286008E-03
   1       -4.4421
   2       -0.9665
   3       -0.3769
   4       -0.3769
   5       -0.0124
   6        0.0236
   7        0.0236
   8        1.0387
   9        1.6015
  10        1.6015
  11        1.8844
  12        1.8844
  13        2.0512
  14        2.4334
  15        2.6139
  16        2.6139
  17        2.7412
  18        2.7412
  19        2.8481
  20        3.0140
  21        3.1477
  22        3.1477
  23        8.3188
  24        8.3188
  25       12.9627
  26       12.9627
  27       15.0068
  28       15.0068
  29       16.2731
  30       16.2731
  31       17.8430
  32       20.2406
 
  0.3055556E+00  0.0000000E+00  0.0000000E+00  0.1286008E-03
   1       -4.2411
   2       -1.0549
   3       -0.3036
   4       -0.3036
   5        0.0420
   6        0.0902
   7        0.0902
   8        0.9798
   9        1.6534
  10        1.6534
  11        1.7235
  12        1.7235
  13        2.0042
  14        2.4554
  15        2.5525
  16        2.5525
  17        2.6682
  18        2.6682
  19        2.7036
  20        2.8255
  21        3.1478
  22        3.1478
  23        8.6622
  24        8.6622
  25       13.0386
  26       13.0386
  27       14.5318
  28       14.5318
  29       15.9679
  30       15.9679
  31       18.6257
  32       20.5328
 
  0.3333333E+00  0.0000000E+00  0.0000000E+00  0.1286008E-03
   1       -4.0243
   2       -1.1740
   3       -0.2314
   4       -0.2314
   5        0.1001
   6        0.1636
   7        0.1636
   8        0.9175
   9        1.5668
  10        1.5668
  11        1.7096
  12        1.7096
  13        1.9570
  14        2.4375
  15        2.4788
  16        2.4914
  17        2.4914
  18        2.5924
  19        2.5924
  20        2.8014
  21        3.1479
  22        3.1479
  23        9.0183
  24        9.0183
  25       13.1227
  26       13.1227
  27       14.0614
  28       14.0614
  29       15.6792
  30       15.6792
  31       19.4245
  32       20.8479
 
  0.3611111E+00  0.0000000E+00  0.0000000E+00  0.1286008E-03
   1       -3.7930
   2       -1.3265
   3       -0.1628
   4       -0.1628
   5        0.1615
   6        0.2436
   7        0.2436
   8        0.8524
   9        1.4150
  10        1.4150
  11        1.7697
  12        1.7697
  13        1.9110
  14        2.2198
  15        2.4327
  16        2.4327
  17        2.5035
  18        2.5146
  19        2.5146
  20        2.7762
  21        3.1480
  22        3.1480
  23        9.3863
  24        9.3863
  25       13.2143
  26       13.2143
  27       13.5967
  28       13.5967
  29       15.4106
  30       15.4106
  31       20.2352
  32       21.1849
 
  0.3888889E+00  0.0000000E+00  0.0000000E+00  0.1286008E-03
   1       -3.5486
   2       -1.5122
   3       -0.1006
   4       -0.1006
   5        0.2258
   6        0.3305
   7        0.3305
   8        0.7848
   9        1.2687
  10        1.2687
  11        1.8336
  12        1.8336
  13        1.8682
  14        2.0514
  15        2.3792
  16        2.3792
  17        2.4356
  18        2.4356
  19        2.5293
  20        2.7499
  21        3.1480
  22        3.1480
  23        9.7653
  24        9.7653
  25       13.1384
  26       13.1384
  27       13.3114
  28       13.3114
  29       15.1660
  30       15.1660
  31       21.0534
  32       21.5428
 
  0.4166667E+00  0.0000000E+00  0.0000000E+00  0.1286008E-03
   1       -3.2932
   2       -1.7277
   3       -0.0480
   4       -0.0480
   5        0.2925
   6        0.4241
   7        0.4241
   8        0.7155
   9        1.1284
  10        1.1284
  11        1.8308
  12        1.9010
  13        1.9010
  14        1.9294
  15        2.3334
  16        2.3334
  17        2.3559
  18        2.3560
  19        2.5559
  20        2.7229
  21        3.1481
  22        3.1481
  23       10.1548
  24       10.1548
  25       12.6873
  26       12.6873
  27       13.4101
  28       13.4101
  29       14.9511
  30       14.9511
  31       21.8763
  32       21.9207
 
  0.4444444E+00  0.0000000E+00  0.0000000E+00  0.1286008E-03
   1       -3.0293
   2       -1.9670
   3       -0.0077
   4       -0.0077
   5        0.3611
   6        0.5246
   7        0.5246
   8        0.6449
   9        0.9944
  10        0.9944
  11        1.8015
  12        1.8484
  13        1.9715
  14        1.9715
  15        2.2765
  16        2.2765
  17        2.2982
  18        2.2982
  19        2.5832
  20        2.6953
  21        3.1481
  22        3.1481
  23       10.5542
  24       10.5542
  25       12.2438
  26       12.2438
  27       13.5020
  28       13.5020
  29       14.7754
  30       14.7754
  31       22.3175
  32       22.3175
 
  0.4722222E+00  0.0000000E+00  0.0000000E+00  0.1286008E-03
   1       -2.7601
   2       -2.2234
   3        0.0177
   4        0.0177
   5        0.4312
   6        0.5736
   7        0.6319
   8        0.6319
   9        0.8669
  10        0.8669
  11        1.7839
  12        1.8016
  13        2.0448
  14        2.0448
  15        2.1977
  16        2.1977
  17        2.2759
  18        2.2759
  19        2.6110
  20        2.6673
  21        3.1481
  22        3.1481
  23       10.9632
  24       10.9632
  25       11.8084
  26       11.8084
  27       13.5719
  28       13.5719
  29       14.6549
  30       14.6549
  31       22.7324
  32       22.7324
 
  0.5000000E+00  0.0000000E+00  0.0000000E+00  0.6430041E-04
   1       -2.4898
   2       -2.4898
   3        0.0264
   4        0.0264
   5        0.5022
   6        0.5022
   7        0.7460
   8        0.7460
   9        0.7460
  10        0.7460
  11        1.7822
  12        1.7822
  13        2.1203
  14        2.1203
  15        2.1203
  16        2.1203
  17        2.2683
  18        2.2683
  19        2.6391
  20        2.6391
  21        3.1481
  22        3.1481
  23       11.3814
  24       11.3814
  25       11.3814
  26       11.3814
  27       13.5990
  28       13.5990
  29       14.6108
  30       14.6108
  31       23.1644
  32       23.1644
 
  0.2777778E-01  0.2777778E-01  0.0000000E+00  0.2572016E-03
   1       -5.4122
   2       -0.8082
   3       -0.8082
   4       -0.8036
   5       -0.2835
   6       -0.2835
   7       -0.2833
   8        1.3415
   9        1.3506
  10        1.3519
  11        2.3164
  12        2.3207
  13        2.9579
  14        2.9604
  15        2.9604
  16        3.1066
  17        3.1207
  18        3.1207
  19        3.1426
  20        3.1426
  21        3.1443
  22        6.1482
  23        6.1482
  24        6.2422
  25       12.6315
  26       12.7112
  27       12.7112
  28       18.5235
  29       18.7203
  30       18.7203
  31       18.7533
  32       18.7533
 
  0.5555556E-01  0.2777778E-01  0.0000000E+00  0.5144033E-03
   1       -5.3818
   2       -0.8072
   3       -0.7932
   4       -0.7886
   5       -0.2748
   6       -0.2742
   7       -0.2741
   8        1.3323
   9        1.3577
  10        1.3597
  11        2.3083
  12        2.3235
  13        2.9463
  14        2.9479
  15        2.9560
  16        3.0460
  17        3.0578
  18        3.1070
  19        3.1288
  20        3.1426
  21        3.1427
  22        5.9672
  23        6.2378
  24        6.3308
  25       12.6409
  26       12.7212
  27       12.9501
  28       18.2358
  29       18.5073
  30       18.6290
  31       18.7654
  32       18.7852
 
  0.8333333E-01  0.2777778E-01  0.0000000E+00  0.5144033E-03
   1       -5.3312
   2       -0.8062
   3       -0.7683
   4       -0.7639
   5       -0.2603
   6       -0.2588
   7       -0.2587
   8        1.3160
   9        1.3705
  10        1.3725
  11        2.2935
  12        2.3294
  13        2.9229
  14        2.9270
  15        2.9487
  16        2.9499
  17        2.9648
  18        3.0845
  19        3.1061
  20        3.1423
  21        3.1426
  22        5.6928
  23        6.3794
  24        6.4713
  25       12.6566
  26       12.7379
  27       13.3216
  28       17.8805
  29       18.1909
  30       18.4347
  31       18.6570
  32       18.8404
 
  0.1111111E+00  0.2777778E-01  0.0000000E+00  0.5144033E-03
   1       -5.2606
   2       -0.8062
   3       -0.7341
   4       -0.7298
   5       -0.2402
   6       -0.2371
   7       -0.2370
   8        1.2933
   9        1.3886
  10        1.3904
  11        2.2730
  12        2.3377
  13        2.8273
  14        2.8280
  15        2.9003
  16        2.9080
  17        2.9381
  18        3.0539
  19        3.0749
  20        3.1421
  21        3.1427
  22        5.3531
  23        6.5646
  24        6.6557
  25       12.6789
  26       12.7615
  27       13.7982
  28       17.4793
  29       17.8053
  30       18.1859
  31       18.4474
  32       18.9445
 
  0.1388889E+00  0.2777778E-01  0.0000000E+00  0.5144033E-03
   1       -5.1702
   2       -0.8088
   3       -0.6910
   4       -0.6870
   5       -0.2145
   6       -0.2092
   7       -0.2092
   8        1.2645
   9        1.4118
  10        1.4134
  11        2.2471
  12        2.3484
  13        2.6859
  14        2.6867
  15        2.8665
  16        2.8720
  17        2.9235
  18        3.0163
  19        3.0356
  20        3.1421
  21        3.1427
  22        4.9738
  23        6.7853
  24        6.8761
  25       12.7078
  26       12.7923
  27       14.3558
  28       17.0491
  29       17.3764
  30       17.8982
  31       18.1794
  32       19.0780
 
  0.1666667E+00  0.2777778E-01  0.0000000E+00  0.5144033E-03
   1       -5.0602
   2       -0.8160
   3       -0.6398
   4       -0.6360
   5       -0.1834
   6       -0.1750
   7       -0.1750
   8        1.2297
   9        1.4401
  10        1.4413
  11        2.2161
  12        2.3613
  13        2.5319
  14        2.5324
  15        2.8260
  16        2.8308
  17        2.9022
  18        2.9745
  19        2.9887
  20        3.1422
  21        3.1428
  22        4.5756
  23        7.0348
  24        7.1261
  25       12.7437
  26       12.8306
  27       14.9754
  28       16.6015
  29       16.9217
  30       17.5858
  31       17.8730
  32       19.2428
 
  0.1944444E+00  0.2777778E-01  0.0000000E+00  0.5144033E-03
   1       -4.9309
   2       -0.8308
   3       -0.5814
   4       -0.5779
   5       -0.1472
   6       -0.1346
   7       -0.1345
   8        1.1893
   9        1.4733
  10        1.4741
  11        2.1806
  12        2.3701
  13        2.3718
  14        2.3763
  15        2.7794
  16        2.7838
  17        2.8678
  18        2.9351
  19        2.9353
  20        3.1422
  21        3.1428
  22        4.1749
  23        7.3081
  24        7.4005
  25       12.7867
  26       12.8767
  27       15.6435
  28       16.1447
  29       16.4525
  30       17.2600
  31       17.5444
  32       19.4268
 
  0.2222222E+00  0.2777778E-01  0.0000000E+00  0.5144033E-03
   1       -4.7828
   2       -0.8566
   3       -0.5169
   4       -0.5137
   5       -0.1060
   6       -0.0878
   7       -0.0875
   8        1.1437
   9        1.5114
  10        1.5116
  11        2.1412
  12        2.2052
  13        2.2079
  14        2.3934
  15        2.7274
  16        2.7315
  17        2.8140
  18        2.8754
  19        2.9044
  20        3.1423
  21        3.1429
  22        3.7859
  23        7.6012
  24        7.6956
  25       12.8372
  26       12.9309
  27       15.6842
  28       15.9762
  29       16.3498
  30       16.9301
  31       17.2058
  32       19.6415
 
  0.2500000E+00  0.2777778E-01  0.0000000E+00  0.5144033E-03
   1       -4.6165
   2       -0.8981
   3       -0.4476
   4       -0.4448
   5       -0.0602
   6       -0.0345
   7       -0.0341
   8        1.0933
   9        1.5537
  10        1.5542
  11        2.0398
  12        2.0434
  13        2.0986
  14        2.4124
  15        2.6711
  16        2.6748
  17        2.7424
  18        2.8105
  19        2.8782
  20        3.1424
  21        3.1430
  22        3.4224
  23        7.9114
  24        8.0085
  25       12.8950
  26       12.9937
  27       15.2240
  28       15.4974
  29       16.6032
  30       16.8663
  31       17.0868
  32       19.8813
 
  0.2777778E+00  0.2777778E-01  0.0000000E+00  0.5144033E-03
   1       -4.4325
   2       -0.9602
   3       -0.3753
   4       -0.3728
   5       -0.0099
   6        0.0252
   7        0.0258
   8        1.0385
   9        1.6000
  10        1.6017
  11        1.8762
  12        1.8804
  13        2.0538
  14        2.4331
  15        2.6116
  16        2.6151
  17        2.6502
  18        2.7412
  19        2.8514
  20        3.1030
  21        3.1425
  22        3.1430
  23        8.2363
  24        8.3370
  25       12.9598
  26       13.0653
  27       14.7671
  28       15.0195
  29       16.2849
  30       16.5327
  31       17.8487
  32       20.1473
 
  0.3055556E+00  0.2777778E-01  0.0000000E+00  0.5144033E-03
   1       -4.2317
   2       -1.0484
   3       -0.3017
   4       -0.2995
   5        0.0443
   6        0.0914
   7        0.0924
   8        0.9799
   9        1.6502
  10        1.6535
  11        1.7156
  12        1.7203
  13        2.0082
  14        2.4554
  15        2.5219
  16        2.5504
  17        2.5537
  18        2.6682
  19        2.8041
  20        2.8725
  21        3.1426
  22        3.1431
  23        8.5745
  24        8.6796
  25       13.0298
  26       13.1458
  27       14.3173
  28       14.5446
  29       15.9795
  30       16.2103
  31       18.6304
  32       20.4382
 
  0.3333333E+00  0.2777778E-01  0.0000000E+00  0.5144033E-03
   1       -4.0150
   2       -1.1672
   3       -0.2292
   4       -0.2273
   5        0.1023
   6        0.1642
   7        0.1655
   8        0.9177
   9        1.5593
  10        1.5643
  11        1.7033
  12        1.7097
  13        1.9637
  14        2.3485
  15        2.4792
  16        2.4896
  17        2.4925
  18        2.5924
  19        2.6701
  20        2.8138
  21        3.1427
  22        3.1431
  23        8.9246
  24        9.0351
  25       13.0976
  26       13.2350
  27       13.8829
  28       14.0742
  29       15.6910
  30       15.9035
  31       19.4269
  32       20.7424
 
  0.3611111E+00  0.2777778E-01  0.0000000E+00  0.5144033E-03
   1       -3.7838
   2       -1.3195
   3       -0.1603
   4       -0.1587
   5        0.1636
   6        0.2435
   7        0.2454
   8        0.8527
   9        1.4079
  10        1.4131
  11        1.7564
  12        1.7698
  13        1.9244
  14        2.1687
  15        2.4312
  16        2.4338
  17        2.5043
  18        2.5146
  19        2.5585
  20        2.7845
  21        3.1428
  22        3.1431
  23        9.2857
  24        9.4024
  25       13.1148
  26       13.3319
  27       13.5127
  28       13.6096
  29       15.4230
  30       15.6159
  31       20.2318
  32       21.0725
 
  0.3888889E+00  0.2777778E-01  0.0000000E+00  0.5144033E-03
   1       -3.5396
   2       -1.5050
   3       -0.0979
   4       -0.0965
   5        0.2277
   6        0.3296
   7        0.3320
   8        0.7854
   9        1.2622
  10        1.2674
  11        1.7976
  12        1.8337
  13        1.9039
  14        2.0171
  15        2.3779
  16        2.3801
  17        2.4355
  18        2.4643
  19        2.5304
  20        2.7564
  21        3.1429
  22        3.1432
  23        9.6570
  24        9.7808
  25       12.8738
  26       13.1515
  27       13.4136
  28       13.4344
  29       15.1801
  30       15.3512
  31       21.0296
  32       21.4215
 
  0.4166667E+00  0.2777778E-01  0.0000000E+00  0.5144033E-03
   1       -3.2844
   2       -1.7202
   3       -0.0448
   4       -0.0437
   5        0.2942
   6        0.4224
   7        0.4254
   8        0.7162
   9        1.1224
  10        1.1276
  11        1.8000
  12        1.9010
  13        1.9039
  14        1.9310
  15        2.3325
  16        2.3342
  17        2.3559
  18        2.3770
  19        2.5575
  20        2.7282
  21        3.1430
  22        3.1432
  23       10.0377
  24       10.1698
  25       12.4755
  26       12.7005
  27       13.4822
  28       13.5373
  29       14.9690
  30       15.1145
  31       21.7273
  32       21.7892
 
  0.4444444E+00  0.2777778E-01  0.0000000E+00  0.5144033E-03
   1       -3.0207
   2       -1.9594
   3       -0.0042
   4       -0.0034
   5        0.3627
   6        0.5220
   7        0.5256
   8        0.6458
   9        0.9890
  10        0.9941
  11        1.7814
  12        1.8279
  13        1.9715
  14        1.9904
  15        2.2764
  16        2.2934
  17        2.2976
  18        2.2987
  19        2.5853
  20        2.6997
  21        3.1430
  22        3.1432
  23       10.4272
  24       10.5689
  25       12.0582
  26       12.2572
  27       13.5738
  28       13.6299
  29       14.8018
  30       14.9135
  31       22.1738
  32       22.1981
 
  0.4722222E+00  0.2777778E-01  0.0000000E+00  0.5144033E-03
   1       -2.7518
   2       -2.2155
   3        0.0215
   4        0.0219
   5        0.4326
   6        0.5747
   7        0.6285
   8        0.6326
   9        0.8621
  10        0.8669
  11        1.7669
  12        1.7838
  13        2.0447
  14        2.0600
  15        2.1977
  16        2.2126
  17        2.2756
  18        2.2762
  19        2.6136
  20        2.6710
  21        3.1431
  22        3.1432
  23       10.8248
  24       10.9775
  25       11.6416
  26       11.8220
  27       13.6561
  28       13.6929
  29       14.6988
  30       14.7625
  31       22.5737
  32       22.6242
 
  0.5000000E+00  0.2777778E-01  0.0000000E+00  0.2572016E-03
   1       -2.4817
   2       -2.4817
   3        0.0304
   4        0.0304
   5        0.5035
   6        0.5035
   7        0.7419
   8        0.7419
   9        0.7464
  10        0.7464
  11        1.7656
  12        1.7656
  13        2.1203
  14        2.1203
  15        2.1346
  16        2.1346
  17        2.2683
  18        2.2683
  19        2.6423
  20        2.6423
  21        3.1431
  22        3.1431
  23       11.2300
  24       11.2300
  25       11.3953
  26       11.3953
  27       13.7030
  28       13.7030
  29       14.6841
  30       14.6841
  31       22.9919
  32       23.0456
 
  0.5555556E-01  0.5555556E-01  0.0000000E+00  0.2572016E-03
   1       -5.3515
   2       -0.7920
   3       -0.7920
   4       -0.7738
   5       -0.2656
   6       -0.2656
   7       -0.2649
   8        1.3258
   9        1.3622
  10        1.3671
  11        2.3048
  12        2.3219
  13        2.9348
  14        2.9409
  15        2.9409
  16        2.9939
  17        3.0456
  18        3.0456
  19        3.1288
  20        3.1288
  21        3.1356
  22        6.0566
  23        6.0566
  24        6.4165
  25       12.6502
  26       12.9615
  27       12.9615
  28       17.8660
  29       18.5512
  30       18.5512
  31       18.6735
  32       18.6735
 
  0.8333333E-01  0.5555556E-01  0.0000000E+00  0.5144033E-03
   1       -5.3010
   2       -0.7908
   3       -0.7670
   4       -0.7492
   5       -0.2512
   6       -0.2502
   7       -0.2497
   8        1.3114
   9        1.3732
  10        1.3795
  11        2.2926
  12        2.3257
  13        2.9023
  14        2.9059
  15        2.9158
  16        2.9282
  17        2.9648
  18        3.0264
  19        3.1061
  20        3.1288
  21        3.1313
  22        5.7825
  23        6.1973
  24        6.5528
  25       12.6657
  26       12.9806
  27       13.3348
  28       17.4527
  29       18.2334
  30       18.4782
  31       18.6240
  32       18.7475
 
  0.1111111E+00  0.5555556E-01  0.0000000E+00  0.5144033E-03
   1       -5.2305
   2       -0.7906
   3       -0.7326
   4       -0.7154
   5       -0.2312
   6       -0.2287
   7       -0.2283
   8        1.2898
   9        1.3904
  10        1.3968
  11        2.2731
  12        2.3337
  13        2.7900
  14        2.7994
  15        2.8895
  16        2.9078
  17        2.9146
  18        3.0023
  19        3.0749
  20        3.1289
  21        3.1292
  22        5.4443
  23        6.3805
  24        6.7324
  25       12.6877
  26       13.0075
  27       13.8131
  28       17.0134
  29       17.8464
  30       18.2280
  31       18.7253
  32       18.7981
 
  0.1388889E+00  0.5555556E-01  0.0000000E+00  0.5144033E-03
   1       -5.1402
   2       -0.7928
   3       -0.6892
   4       -0.6729
   5       -0.2057
   6       -0.2010
   7       -0.2008
   8        1.2616
   9        1.4132
  10        1.4190
  11        2.2478
  12        2.3445
  13        2.6544
  14        2.6595
  15        2.8562
  16        2.8763
  17        2.8767
  18        2.9764
  19        3.0355
  20        3.1281
  21        3.1289
  22        5.0682
  23        6.5978
  24        6.9481
  25       12.7161
  26       13.0427
  27       14.3722
  28       16.5600
  29       17.4164
  30       17.9390
  31       18.6063
  32       18.8545
 
  0.1666667E+00  0.5555556E-01  0.0000000E+00  0.5144033E-03
   1       -5.0303
   2       -0.7997
   3       -0.6376
   4       -0.6223
   5       -0.1748
   6       -0.1671
   7       -0.1670
   8        1.2273
   9        1.4411
  10        1.4458
  11        2.2175
  12        2.3578
  13        2.5052
  14        2.5060
  15        2.8163
  16        2.8321
  17        2.8343
  18        2.9511
  19        2.9886
  20        3.1276
  21        3.1289
  22        4.6756
  23        6.8424
  24        7.1937
  25       12.7510
  26       13.0863
  27       14.9930
  28       16.1006
  29       16.9609
  30       17.6252
  31       18.3508
  32       19.0108
 
  0.1944444E+00  0.5555556E-01  0.0000000E+00  0.5144033E-03
   1       -4.9013
   2       -0.8139
   3       -0.5787
   4       -0.5646
   5       -0.1388
   6       -0.1272
   7       -0.1267
   8        1.1874
   9        1.4742
  10        1.4772
  11        2.1828
  12        2.3438
  13        2.3498
  14        2.3734
  15        2.7703
  16        2.7731
  17        2.7870
  18        2.9267
  19        2.9350
  20        3.1273
  21        3.1289
  22        4.2837
  23        7.1092
  24        7.4642
  25       12.7925
  26       13.1388
  27       15.6410
  28       15.6618
  29       16.4912
  30       17.2981
  31       18.0532
  32       19.1933
 
  0.2222222E+00  0.5555556E-01  0.0000000E+00  0.5144033E-03
   1       -4.7535
   2       -0.8393
   3       -0.5136
   4       -0.5008
   5       -0.0979
   6       -0.0810
   7       -0.0800
   8        1.1423
   9        1.5121
  10        1.5130
  11        2.1445
  12        2.1793
  13        2.1896
  14        2.3912
  15        2.6992
  16        2.7190
  17        2.7346
  18        2.8753
  19        2.9018
  20        3.1272
  21        3.1289
  22        3.9081
  23        7.3943
  24        7.7558
  25       12.8400
  26       13.2006
  27       15.1857
  28       16.0145
  29       16.3684
  30       16.9671
  31       17.7306
  32       19.4009
 
  0.2500000E+00  0.5555556E-01  0.0000000E+00  0.5144033E-03
   1       -4.5874
   2       -0.8801
   3       -0.4437
   4       -0.4323
   5       -0.0524
   6       -0.0286
   7       -0.0270
   8        1.0924
   9        1.5527
  10        1.5548
  11        2.0147