 running on    8 nodes
 distr:  one band on    1 nodes,    8 groups
 vasp.4.6.28 25Jul05 complex 
 POSCAR found :  1 types and    4 ions
 LDA part: xc-table for Pade appr. of Perdew
 POSCAR, INCAR and KPOINTS ok, starting setup
 FFT: planning ...           1
 reading WAVECAR
 WARNING: random wavefunctions but no delay for mixing, default for NELMDL
 entering main loop
       N       E                     dE             d eps       ncg     rms          rms(c)
DAV:   1     0.364233721897E+03    0.36423E+03   -0.31378E+04 89904   0.347E+03
DAV:   2     0.123337418146E+02   -0.35190E+03   -0.33166E+03 85304   0.491E+02
DAV:   3    -0.174340534172E+02   -0.29768E+02   -0.28987E+02 91608   0.164E+02
DAV:   4    -0.178824240621E+02   -0.44837E+00   -0.44785E+00 96584   0.212E+01
DAV:   5    -0.178833129016E+02   -0.88884E-03   -0.88883E-03 93840   0.923E-01    0.141E+01
DAV:   6    -0.151956822975E+02    0.26876E+01   -0.19472E+01 94336   0.749E+01    0.457E+00
DAV:   7    -0.143712122779E+02    0.82447E+00   -0.30627E+00 96864   0.289E+01    0.147E+00
DAV:   8    -0.143081383688E+02    0.63074E-01   -0.22492E-02106960   0.130E+00    0.518E-01
DAV:   9    -0.143021677908E+02    0.59706E-02   -0.45145E-03113504   0.107E+00    0.359E-02
DAV:  10    -0.143022434901E+02   -0.75699E-04   -0.61900E-04 93464   0.191E-01    0.650E-03
DAV:  11    -0.143022422191E+02    0.12710E-05   -0.38392E-05 95368   0.709E-02    0.463E-03
DAV:  12    -0.143022461610E+02   -0.39419E-05   -0.64379E-07 99024   0.141E-02    0.106E-03
DAV:  13    -0.143022464796E+02   -0.31866E-06   -0.51188E-08 94248   0.335E-03    0.130E-04
DAV:  14    -0.143022464550E+02    0.24648E-07   -0.21391E-09 56008   0.406E-04    0.251E-05
DAV:  15    -0.143022464474E+02    0.75170E-08   -0.14164E-10 51896   0.106E-04
   1 F= -.14302246E+02 E0= -.14302222E+02  d E =-.485305E-04
