   4   4   0   0
  0.1031045E+02  0.3454983E-09  0.3454983E-09  0.3454983E-09  0.5000000E-15
  1.000000000000000E-004
  CAR 
 unknown system                          
     29.43096544     -7.04341314  301      5.08590203      1.00000000
     -7.043  0.0000E+00  0.0000E+00
     -6.922  0.0000E+00  0.0000E+00
     -6.800  0.0000E+00  0.0000E+00
     -6.679  0.0000E+00  0.0000E+00
     -6.557  0.0000E+00  0.0000E+00
     -6.436  0.0000E+00  0.0000E+00
     -6.314  0.0000E+00  0.0000E+00
     -6.192  0.0000E+00  0.0000E+00
     -6.071  0.0000E+00  0.0000E+00
     -5.949  0.0000E+00  0.0000E+00
     -5.828  0.0000E+00  0.0000E+00
     -5.706  0.0000E+00  0.0000E+00
     -5.584  0.0000E+00  0.0000E+00
     -5.463  0.0000E+00  0.0000E+00
     -5.341  0.1204E-01  0.1463E-02
     -5.220  0.5813E-01  0.1105E-01
     -5.098  0.8112E-01  0.2654E-01
     -4.977  0.1037E+00  0.4429E-01
     -4.855  0.1207E+00  0.6667E-01
     -4.733  0.1292E+00  0.9043E-01
     -4.612  0.1564E+00  0.1197E+00
     -4.490  0.1677E+00  0.1477E+00
     -4.369  0.1644E+00  0.1804E+00
     -4.247  0.1921E+00  0.2144E+00
     -4.125  0.1812E+00  0.2525E+00
     -4.004  0.2273E+00  0.2929E+00
     -3.882  0.2401E+00  0.3345E+00
     -3.761  0.1994E+00  0.3765E+00
     -3.639  0.2604E+00  0.4214E+00
     -3.518  0.2763E+00  0.4730E+00
     -3.396  0.2495E+00  0.5195E+00
     -3.274  0.2930E+00  0.5739E+00
     -3.153  0.3251E+00  0.6313E+00
     -3.031  0.2813E+00  0.6869E+00
     -2.910  0.2985E+00  0.7465E+00
     -2.788  0.3579E+00  0.8116E+00
     -2.666  0.3392E+00  0.8751E+00
     -2.545  0.4345E+00  0.9513E+00
     -2.423  0.3802E+00  0.1018E+01
     -2.302  0.3919E+00  0.1098E+01
     -2.180  0.4811E+00  0.1177E+01
     -2.059  0.4540E+00  0.1263E+01
     -1.937  0.5373E+00  0.1357E+01
     -1.815  0.5338E+00  0.1450E+01
     -1.694  0.6232E+00  0.1556E+01
     -1.572  0.6117E+00  0.1663E+01
     -1.451  0.6011E+00  0.1781E+01
     -1.329  0.8254E+00  0.1920E+01
     -1.208  0.7891E+00  0.2059E+01
     -1.086  0.9557E+00  0.2231E+01
     -0.964  0.1243E+01  0.2437E+01
     -0.843  0.1557E+01  0.2705E+01
     -0.721  0.1962E+01  0.3052E+01
     -0.600  0.2729E+01  0.3545E+01
     -0.478  0.2707E+01  0.4053E+01
     -0.356  0.2846E+01  0.4591E+01
     -0.235  0.2977E+01  0.5143E+01
     -0.113  0.3499E+01  0.5754E+01
      0.008  0.4407E+01  0.6533E+01
      0.130  0.4836E+01  0.7420E+01
      0.251  0.5461E+01  0.8439E+01
      0.373  0.5100E+01  0.9380E+01
      0.495  0.4447E+01  0.1024E+02
      0.616  0.4646E+01  0.1110E+02
      0.738  0.4560E+01  0.1194E+02
      0.859  0.4161E+01  0.1273E+02
      0.981  0.5457E+01  0.1372E+02
      1.103  0.6472E+01  0.1482E+02
      1.224  0.6985E+01  0.1605E+02
      1.346  0.6806E+01  0.1728E+02
      1.467  0.8192E+01  0.1873E+02
      1.589  0.8136E+01  0.2025E+02
      1.710  0.8925E+01  0.2186E+02
      1.832  0.8926E+01  0.2368E+02
      1.954  0.6398E+01  0.2493E+02
      2.075  0.5568E+01  0.2598E+02
      2.197  0.5556E+01  0.2698E+02
      2.318  0.6705E+01  0.2816E+02
      2.440  0.7661E+01  0.2958E+02
      2.562  0.8080E+01  0.3106E+02
      2.683  0.7108E+01  0.3244E+02
      2.805  0.6731E+01  0.3368E+02
      2.926  0.6862E+01  0.3491E+02
      3.048  0.7544E+01  0.3628E+02
      3.169  0.9731E+01  0.3799E+02
      3.291  0.1328E+02  0.4045E+02
      3.413  0.5949E+01  0.4174E+02
      3.534  0.1303E+01  0.4206E+02
      3.656  0.1078E+01  0.4223E+02
      3.777  0.8926E+00  0.4240E+02
      3.899  0.8032E+00  0.4255E+02
      4.020  0.8415E+00  0.4272E+02
      4.142  0.7723E+00  0.4288E+02
      4.264  0.8134E+00  0.4303E+02
      4.385  0.7886E+00  0.4318E+02
      4.507  0.7973E+00  0.4333E+02
      4.628  0.9809E+00  0.4349E+02
      4.750  0.6113E+00  0.4361E+02
      4.872  0.8144E+00  0.4376E+02
      4.993  0.7763E+00  0.4389E+02
      5.115  0.6665E+00  0.4402E+02
      5.236  0.6275E+00  0.4415E+02
      5.358  0.7684E+00  0.4430E+02
      5.479  0.6568E+00  0.4441E+02
      5.601  0.7989E+00  0.4455E+02
      5.723  0.6486E+00  0.4467E+02
      5.844  0.7425E+00  0.4480E+02
      5.966  0.5837E+00  0.4491E+02
      6.087  0.6304E+00  0.4503E+02
      6.209  0.5582E+00  0.4516E+02
      6.331  0.6026E+00  0.4527E+02
      6.452  0.8563E+00  0.4540E+02
      6.574  0.6729E+00  0.4553E+02
      6.695  0.6760E+00  0.4563E+02
      6.817  0.7587E+00  0.4575E+02
      6.938  0.5755E+00  0.4586E+02
      7.060  0.4580E+00  0.4596E+02
      7.182  0.5576E+00  0.4608E+02
      7.303  0.6317E+00  0.4619E+02
      7.425  0.6156E+00  0.4629E+02
      7.546  0.7238E+00  0.4640E+02
      7.668  0.4699E+00  0.4648E+02
      7.790  0.4649E+00  0.4658E+02
      7.911  0.4821E+00  0.4668E+02
      8.033  0.5859E+00  0.4677E+02
      8.154  0.4692E+00  0.4686E+02
      8.276  0.3737E+00  0.4693E+02
      8.397  0.3916E+00  0.4702E+02
      8.519  0.4903E+00  0.4711E+02
      8.641  0.4511E+00  0.4717E+02
      8.762  0.4355E+00  0.4725E+02
      8.884  0.2994E+00  0.4731E+02
      9.005  0.4419E+00  0.4739E+02
      9.127  0.3706E+00  0.4745E+02
      9.248  0.2786E+00  0.4751E+02
      9.370  0.2644E+00  0.4756E+02
      9.492  0.4284E+00  0.4763E+02
      9.613  0.4207E+00  0.4769E+02
      9.735  0.6188E+00  0.4780E+02
      9.856  0.7037E+00  0.4793E+02
      9.978  0.7139E+00  0.4806E+02
     10.100  0.6565E+00  0.4819E+02
     10.221  0.8121E+00  0.4833E+02
     10.343  0.6935E+00  0.4845E+02
     10.464  0.7158E+00  0.4859E+02
     10.586  0.7230E+00  0.4872E+02
     10.707  0.7889E+00  0.4887E+02
     10.829  0.7430E+00  0.4901E+02
     10.951  0.8061E+00  0.4915E+02
     11.072  0.6391E+00  0.4927E+02
     11.194  0.6669E+00  0.4940E+02
     11.315  0.7441E+00  0.4953E+02
     11.437  0.6260E+00  0.4964E+02
     11.559  0.6646E+00  0.4977E+02
     11.680  0.6918E+00  0.4988E+02
     11.802  0.6787E+00  0.5000E+02
     11.923  0.6358E+00  0.5011E+02
     12.045  0.6221E+00  0.5022E+02
     12.166  0.6165E+00  0.5033E+02
     12.288  0.5081E+00  0.5043E+02
     12.410  0.6650E+00  0.5055E+02
     12.531  0.6021E+00  0.5065E+02
     12.653  0.5913E+00  0.5075E+02
     12.774  0.6208E+00  0.5085E+02
     12.896  0.4984E+00  0.5095E+02
     13.017  0.5969E+00  0.5105E+02
     13.139  0.6227E+00  0.5116E+02
     13.261  0.6556E+00  0.5127E+02
     13.382  0.8613E+00  0.5142E+02
     13.504  0.7935E+00  0.5157E+02
     13.625  0.7492E+00  0.5170E+02
     13.747  0.6199E+00  0.5182E+02
     13.869  0.5300E+00  0.5193E+02
     13.990  0.7294E+00  0.5206E+02
     14.112  0.9919E+00  0.5225E+02
     14.233  0.8347E+00  0.5239E+02
     14.355  0.9007E+00  0.5255E+02
     14.476  0.1042E+01  0.5273E+02
     14.598  0.8828E+00  0.5288E+02
     14.720  0.9684E+00  0.5304E+02
     14.841  0.7493E+00  0.5320E+02
     14.963  0.7561E+00  0.5335E+02
     15.084  0.8352E+00  0.5350E+02
     15.206  0.9558E+00  0.5369E+02
     15.328  0.7671E+00  0.5383E+02
     15.449  0.8003E+00  0.5398E+02
     15.571  0.1008E+01  0.5414E+02
     15.692  0.8895E+00  0.5430E+02
     15.814  0.9352E+00  0.5450E+02
     15.935  0.7707E+00  0.5464E+02
     16.057  0.8225E+00  0.5479E+02
     16.179  0.9440E+00  0.5496E+02
     16.300  0.1104E+01  0.5515E+02
     16.422  0.8165E+00  0.5531E+02
     16.543  0.8926E+00  0.5548E+02
     16.665  0.8935E+00  0.5563E+02
     16.787  0.9757E+00  0.5581E+02
     16.908  0.7983E+00  0.5597E+02
     17.030  0.1053E+01  0.5616E+02
     17.151  0.8971E+00  0.5633E+02
     17.273  0.8016E+00  0.5649E+02
     17.394  0.9243E+00  0.5666E+02
     17.516  0.1028E+01  0.5684E+02
     17.638  0.9900E+00  0.5701E+02
     17.759  0.1055E+01  0.5719E+02
     17.881  0.8699E+00  0.5737E+02
     18.002  0.8618E+00  0.5753E+02
     18.124  0.1061E+01  0.5772E+02
     18.245  0.8738E+00  0.5788E+02
     18.367  0.1016E+01  0.5808E+02
     18.489  0.1007E+01  0.5826E+02
     18.610  0.8919E+00  0.5844E+02
     18.732  0.9097E+00  0.5861E+02
     18.853  0.1148E+01  0.5881E+02
     18.975  0.1079E+01  0.5899E+02
     19.097  0.9304E+00  0.5919E+02
     19.218  0.9460E+00  0.5937E+02
     19.340  0.1006E+01  0.5957E+02
     19.461  0.1043E+01  0.5976E+02
     19.583  0.1151E+01  0.5997E+02
     19.704  0.9771E+00  0.6015E+02
     19.826  0.8676E+00  0.6034E+02
     19.948  0.9332E+00  0.6051E+02
     20.069  0.1084E+01  0.6071E+02
     20.191  0.7765E+00  0.6085E+02
     20.312  0.1081E+01  0.6104E+02
     20.434  0.9331E+00  0.6121E+02
     20.556  0.9889E+00  0.6137E+02
     20.677  0.7572E+00  0.6151E+02
     20.799  0.8051E+00  0.6166E+02
     20.920  0.7481E+00  0.6180E+02
     21.042  0.7256E+00  0.6193E+02
     21.163  0.6607E+00  0.6205E+02
     21.285  0.5577E+00  0.6216E+02
     21.407  0.5291E+00  0.6225E+02
     21.528  0.5032E+00  0.6235E+02
     21.650  0.4284E+00  0.6244E+02
     21.771  0.4146E+00  0.6251E+02
     21.893  0.5449E+00  0.6261E+02
     22.015  0.2669E+00  0.6268E+02
     22.136  0.4757E+00  0.6275E+02
     22.258  0.4175E+00  0.6283E+02
     22.379  0.2622E+00  0.6288E+02
     22.501  0.3976E+00  0.6295E+02
     22.622  0.3884E+00  0.6302E+02
     22.744  0.1508E+00  0.6305E+02
     22.866  0.3934E+00  0.6312E+02
     22.987  0.2670E+00  0.6318E+02
     23.109  0.1456E+00  0.6321E+02
     23.230  0.2202E+00  0.6326E+02
     23.352  0.2021E+00  0.6331E+02
     23.473  0.1949E+00  0.6335E+02
     23.595  0.2709E+00  0.6339E+02
     23.717  0.1221E+00  0.6343E+02
     23.838  0.8950E-01  0.6345E+02
     23.960  0.2394E+00  0.6350E+02
     24.081  0.1331E+00  0.6352E+02
     24.203  0.1435E+00  0.6355E+02
     24.325  0.1863E+00  0.6358E+02
     24.446  0.1619E+00  0.6361E+02
     24.568  0.1057E+00  0.6363E+02
     24.689  0.2053E+00  0.6367E+02
     24.811  0.9386E-01  0.6369E+02
     24.932  0.1290E+00  0.6371E+02
     25.054  0.1314E+00  0.6373E+02
     25.176  0.1188E+00  0.6375E+02
     25.297  0.7073E-01  0.6377E+02
     25.419  0.1776E+00  0.6379E+02
     25.540  0.1085E+00  0.6381E+02
     25.662  0.6049E-01  0.6382E+02
     25.784  0.1127E+00  0.6384E+02
     25.905  0.8787E-01  0.6385E+02
     26.027  0.4388E-01  0.6386E+02
     26.148  0.8139E-01  0.6388E+02
     26.270  0.7757E-01  0.6390E+02
     26.391  0.5078E-01  0.6391E+02
     26.513  0.5890E-01  0.6391E+02
     26.635  0.8414E-01  0.6393E+02
     26.756  0.6409E-01  0.6394E+02
     26.878  0.3693E-01  0.6395E+02
     26.999  0.2398E-01  0.6395E+02
     27.121  0.6131E-01  0.6397E+02
     27.243  0.8647E-02  0.6397E+02
     27.364  0.3912E-01  0.6398E+02
     27.486  0.2495E-01  0.6398E+02
     27.607  0.4847E-01  0.6399E+02
     27.729  0.3011E-01  0.6400E+02
     27.850  0.2821E-02  0.6400E+02
     27.972  0.0000E+00  0.6400E+02
     28.094  0.0000E+00  0.6400E+02
     28.215  0.0000E+00  0.6400E+02
     28.337  0.0000E+00  0.6400E+02
     28.458  0.0000E+00  0.6400E+02
     28.580  0.0000E+00  0.6400E+02
     28.701  0.0000E+00  0.6400E+02
     28.823  0.0000E+00  0.6400E+02
     28.945  0.0000E+00  0.6400E+02
     29.066  0.0000E+00  0.6400E+02
     29.188  0.0000E+00  0.6400E+02
     29.309  0.0000E+00  0.6400E+02
     29.431  0.0000E+00  0.6400E+02
