   4   4   0   0
  0.1600069E+02  0.4000057E-09  0.4000057E-09  0.4000057E-09  0.5000000E-15
  1.000000000000000E-004
  CAR 
 unknown system                          
     13.45182764     -6.61736264  301      1.61668581      1.00000000
     -6.617  0.0000E+00  0.0000E+00
     -6.550  0.0000E+00  0.0000E+00
     -6.484  0.0000E+00  0.0000E+00
     -6.417  0.0000E+00  0.0000E+00
     -6.350  0.0000E+00  0.0000E+00
     -6.283  0.0000E+00  0.0000E+00
     -6.216  0.0000E+00  0.0000E+00
     -6.149  0.0000E+00  0.0000E+00
     -6.082  0.0000E+00  0.0000E+00
     -6.015  0.0000E+00  0.0000E+00
     -5.948  0.0000E+00  0.0000E+00
     -5.881  0.0000E+00  0.0000E+00
     -5.815  0.0000E+00  0.0000E+00
     -5.748  0.1505E-10  0.1007E-11
     -5.681  0.1730E-01  0.1157E-02
     -5.614  0.1038E+00  0.8098E-02
     -5.547  0.2074E+00  0.2198E-01
     -5.480  0.1382E+00  0.3124E-01
     -5.413  0.1036E+00  0.3818E-01
     -5.346  0.4144E+00  0.6591E-01
     -5.279  0.4144E+00  0.9369E-01
     -5.213  0.5432E-11  0.9375E-01
     -5.146  0.2072E+00  0.1076E+00
     -5.079  0.5183E+00  0.1423E+00
     -5.012  0.4146E+00  0.1701E+00
     -4.945  0.4149E+00  0.1979E+00
     -4.878  0.1384E+00  0.2072E+00
     -4.811  0.4151E+00  0.2349E+00
     -4.744  0.8304E+00  0.2905E+00
     -4.677  0.3682E-08  0.2905E+00
     -4.610  0.1038E+00  0.2975E+00
     -4.544  0.8305E+00  0.3530E+00
     -4.477  0.6229E+00  0.3947E+00
     -4.410  0.4152E+00  0.4225E+00
     -4.343  0.4170E+00  0.4504E+00
     -4.276  0.8654E+00  0.5082E+00
     -4.209  0.3784E+00  0.5336E+00
     -4.142  0.1460E+00  0.5433E+00
     -4.075  0.4440E+00  0.5730E+00
     -4.008  0.1217E+01  0.6545E+00
     -3.941  0.8519E+00  0.7115E+00
     -3.875  0.7431E-01  0.7164E+00
     -3.808  0.1244E+01  0.7997E+00
     -3.741  0.8304E+00  0.8553E+00
     -3.674  0.1505E-03  0.8553E+00
     -3.607  0.3115E+00  0.8762E+00
     -3.540  0.1208E+01  0.9570E+00
     -3.473  0.1053E+01  0.1027E+01
     -3.406  0.6434E+00  0.1070E+01
     -3.339  0.4481E+00  0.1101E+01
     -3.272  0.1213E+01  0.1182E+01
     -3.206  0.1494E+00  0.1192E+01
     -3.139  0.1638E+01  0.1301E+01
     -3.072  0.1527E+01  0.1403E+01
     -3.005  0.4202E-01  0.1407E+01
     -2.938  0.1255E+01  0.1491E+01
     -2.871  0.1321E+01  0.1579E+01
     -2.804  0.4471E-02  0.1580E+01
     -2.737  0.1760E+01  0.1698E+01
     -2.670  0.7205E+00  0.1746E+01
     -2.604  0.7352E+00  0.1795E+01
     -2.537  0.2947E+01  0.1992E+01
     -2.470  0.1633E+01  0.2102E+01
     -2.403  0.6675E+00  0.2147E+01
     -2.336  0.1641E+01  0.2256E+01
     -2.269  0.1007E+01  0.2324E+01
     -2.202  0.2105E+01  0.2464E+01
     -2.135  0.3840E+01  0.2721E+01
     -2.068  0.1621E+01  0.2830E+01
     -2.001  0.4604E+01  0.3138E+01
     -1.935  0.3006E+01  0.3339E+01
     -1.868  0.4120E+01  0.3614E+01
     -1.801  0.6676E+01  0.4061E+01
     -1.734  0.5523E+01  0.4431E+01
     -1.667  0.7601E+01  0.4940E+01
     -1.600  0.6967E+01  0.5407E+01
     -1.533  0.6994E+01  0.5875E+01
     -1.466  0.1177E+02  0.6664E+01
     -1.399  0.1095E+02  0.7398E+01
     -1.332  0.1377E+02  0.8319E+01
     -1.266  0.1414E+02  0.9266E+01
     -1.199  0.1168E+02  0.1005E+02
     -1.132  0.1518E+02  0.1106E+02
     -1.065  0.1295E+02  0.1193E+02
     -0.998  0.1155E+02  0.1270E+02
     -0.931  0.1677E+02  0.1383E+02
     -0.864  0.1986E+02  0.1516E+02
     -0.797  0.2026E+02  0.1651E+02
     -0.730  0.2210E+02  0.1799E+02
     -0.664  0.2646E+02  0.1977E+02
     -0.597  0.2718E+02  0.2159E+02
     -0.530  0.2880E+02  0.2352E+02
     -0.463  0.2069E+02  0.2490E+02
     -0.396  0.1544E+02  0.2594E+02
     -0.329  0.1792E+02  0.2714E+02
     -0.262  0.2302E+02  0.2868E+02
     -0.195  0.2420E+02  0.3030E+02
     -0.128  0.2473E+02  0.3195E+02
     -0.061  0.2031E+02  0.3331E+02
      0.005  0.2018E+02  0.3466E+02
      0.072  0.2121E+02  0.3608E+02
      0.139  0.3381E+02  0.3835E+02
      0.206  0.3554E+02  0.4073E+02
      0.273  0.1681E+02  0.4186E+02
      0.340  0.1582E+01  0.4196E+02
      0.407  0.1248E+01  0.4205E+02
      0.474  0.2791E+01  0.4223E+02
      0.541  0.2798E+01  0.4242E+02
      0.608  0.1140E+01  0.4250E+02
      0.674  0.8901E+00  0.4256E+02
      0.741  0.1050E+01  0.4263E+02
      0.808  0.3260E+01  0.4285E+02
      0.875  0.2203E+01  0.4299E+02
      0.942  0.9894E+00  0.4306E+02
      1.009  0.1836E+01  0.4318E+02
      1.076  0.7765E+00  0.4323E+02
      1.143  0.2180E+00  0.4325E+02
      1.210  0.2378E+01  0.4341E+02
      1.277  0.2844E+01  0.4360E+02
      1.343  0.6328E+00  0.4364E+02
      1.410  0.2570E+01  0.4381E+02
      1.477  0.8034E+00  0.4387E+02
      1.544  0.1495E+01  0.4397E+02
      1.611  0.3835E+00  0.4399E+02
      1.678  0.5665E+00  0.4403E+02
      1.745  0.2171E+01  0.4418E+02
      1.812  0.2341E+01  0.4433E+02
      1.879  0.7517E+00  0.4438E+02
      1.945  0.2723E+01  0.4457E+02
      2.012  0.1280E+01  0.4465E+02
      2.079  0.1211E+01  0.4473E+02
      2.146  0.3882E-10  0.4473E+02
      2.213  0.1396E+01  0.4483E+02
      2.280  0.1074E+01  0.4490E+02
      2.347  0.1928E+01  0.4503E+02
      2.414  0.7704E+00  0.4508E+02
      2.481  0.1242E+01  0.4516E+02
      2.548  0.2159E+01  0.4531E+02
      2.614  0.7301E+00  0.4536E+02
      2.681  0.9220E+00  0.4542E+02
      2.748  0.2011E+01  0.4555E+02
      2.815  0.1321E+01  0.4564E+02
      2.882  0.9257E+00  0.4570E+02
      2.949  0.3199E+00  0.4573E+02
      3.016  0.1307E+01  0.4581E+02
      3.083  0.1165E+01  0.4589E+02
      3.150  0.4208E+00  0.4592E+02
      3.217  0.1228E+01  0.4600E+02
      3.283  0.1373E+01  0.4610E+02
      3.350  0.1644E+01  0.4621E+02
      3.417  0.2018E+01  0.4634E+02
      3.484  0.5811E+00  0.4638E+02
      3.551  0.2061E+01  0.4652E+02
      3.618  0.2643E+00  0.4653E+02
      3.685  0.1210E+01  0.4662E+02
      3.752  0.4767E-01  0.4662E+02
      3.819  0.4216E+00  0.4665E+02
      3.886  0.1935E+01  0.4678E+02
      3.952  0.6876E+00  0.4682E+02
      4.019  0.9661E+00  0.4689E+02
      4.086  0.7235E+00  0.4694E+02
      4.153  0.1651E+01  0.4705E+02
      4.220  0.1976E+01  0.4718E+02
      4.287  0.8972E+00  0.4724E+02
      4.354  0.1479E+01  0.4734E+02
      4.421  0.1086E+01  0.4741E+02
      4.488  0.2311E+01  0.4756E+02
      4.554  0.4661E+00  0.4760E+02
      4.621  0.1848E+01  0.4772E+02
      4.688  0.1640E+01  0.4783E+02
      4.755  0.1686E+01  0.4794E+02
      4.822  0.7446E+00  0.4799E+02
      4.889  0.1305E+01  0.4808E+02
      4.956  0.6495E+00  0.4812E+02
      5.023  0.1040E+01  0.4819E+02
      5.090  0.1958E+01  0.4832E+02
      5.157  0.1778E+01  0.4844E+02
      5.223  0.1657E+01  0.4855E+02
      5.290  0.8292E+00  0.4861E+02
      5.357  0.2256E+01  0.4876E+02
      5.424  0.8585E+00  0.4882E+02
      5.491  0.1398E+01  0.4891E+02
      5.558  0.1101E+01  0.4898E+02
      5.625  0.8418E+00  0.4904E+02
      5.692  0.7197E+00  0.4909E+02
      5.759  0.1392E+01  0.4918E+02
      5.826  0.2130E+01  0.4932E+02
      5.892  0.1229E+01  0.4941E+02
      5.959  0.1772E+01  0.4953E+02
      6.026  0.9590E+00  0.4959E+02
      6.093  0.8305E+00  0.4965E+02
      6.160  0.8303E+00  0.4970E+02
      6.227  0.8305E+00  0.4976E+02
      6.294  0.6212E+00  0.4980E+02
      6.361  0.1363E+01  0.4989E+02
      6.428  0.1959E+01  0.5002E+02
      6.495  0.8305E+00  0.5008E+02
      6.561  0.1275E+01  0.5016E+02
      6.628  0.1420E+01  0.5026E+02
      6.695  0.1216E+01  0.5034E+02
      6.762  0.1073E+01  0.5041E+02
      6.829  0.1862E+01  0.5053E+02
      6.896  0.4388E+00  0.5057E+02
      6.963  0.1617E+01  0.5067E+02
      7.030  0.9022E+00  0.5073E+02
      7.097  0.2844E+01  0.5092E+02
      7.163  0.1251E+01  0.5101E+02
      7.230  0.1166E+01  0.5109E+02
      7.297  0.4735E+00  0.5112E+02
      7.364  0.6731E+00  0.5116E+02
      7.431  0.1178E+01  0.5124E+02
      7.498  0.1549E+01  0.5135E+02
      7.565  0.2421E+01  0.5151E+02
      7.632  0.9583E+00  0.5157E+02
      7.699  0.2048E+01  0.5171E+02
      7.766  0.2901E+01  0.5190E+02
      7.832  0.1693E+01  0.5202E+02
      7.899  0.1285E+01  0.5210E+02
      7.966  0.2479E+01  0.5227E+02
      8.033  0.1118E+01  0.5234E+02
      8.100  0.7790E+00  0.5240E+02
      8.167  0.2577E+01  0.5257E+02
      8.234  0.1829E+01  0.5269E+02
      8.301  0.2406E-05  0.5269E+02
      8.368  0.1764E+01  0.5281E+02
      8.435  0.1052E+01  0.5288E+02
      8.501  0.1476E+01  0.5298E+02
      8.568  0.1898E+01  0.5311E+02
      8.635  0.1505E+01  0.5321E+02
      8.702  0.4618E+00  0.5324E+02
      8.769  0.2283E+01  0.5339E+02
      8.836  0.1736E+01  0.5351E+02
      8.903  0.2092E+01  0.5365E+02
      8.970  0.2409E+01  0.5381E+02
      9.037  0.1629E+01  0.5392E+02
      9.104  0.1639E+01  0.5403E+02
      9.170  0.1225E+01  0.5411E+02
      9.237  0.1722E+01  0.5422E+02
      9.304  0.2041E+01  0.5436E+02
      9.371  0.4330E+00  0.5439E+02
      9.438  0.1228E+01  0.5447E+02
      9.505  0.1402E+01  0.5456E+02
      9.572  0.1984E+01  0.5470E+02
      9.639  0.1395E+01  0.5479E+02
      9.706  0.1363E+01  0.5488E+02
      9.772  0.5117E+00  0.5492E+02
      9.839  0.2003E+01  0.5505E+02
      9.906  0.1637E+01  0.5516E+02
      9.973  0.1591E+01  0.5527E+02
     10.040  0.1519E+01  0.5537E+02
     10.107  0.1811E+01  0.5549E+02
     10.174  0.6783E+00  0.5554E+02
     10.241  0.7913E-01  0.5554E+02
     10.308  0.1167E+01  0.5562E+02
     10.375  0.7355E+00  0.5567E+02
     10.441  0.3227E+00  0.5569E+02
     10.508  0.1874E+00  0.5570E+02
     10.575  0.9752E+00  0.5577E+02
     10.642  0.4831E+00  0.5580E+02
     10.709  0.6170E+00  0.5584E+02
     10.776  0.4063E+00  0.5587E+02
     10.843  0.2443E-06  0.5587E+02
     10.910  0.8305E+00  0.5592E+02
     10.977  0.2396E+00  0.5594E+02
     11.044  0.2418E+00  0.5596E+02
     11.110  0.2455E+00  0.5597E+02
     11.177  0.1381E+00  0.5598E+02
     11.244  0.0000E+00  0.5598E+02
     11.311  0.0000E+00  0.5598E+02
     11.378  0.0000E+00  0.5598E+02
     11.445  0.0000E+00  0.5598E+02
     11.512  0.0000E+00  0.5598E+02
     11.579  0.0000E+00  0.5598E+02
     11.646  0.0000E+00  0.5598E+02
     11.712  0.4235E-05  0.5598E+02
     11.779  0.1384E+00  0.5599E+02
     11.846  0.0000E+00  0.5599E+02
     11.913  0.0000E+00  0.5599E+02
     11.980  0.0000E+00  0.5599E+02
     12.047  0.2906E-02  0.5599E+02
     12.114  0.1009E+00  0.5600E+02
     12.181  0.0000E+00  0.5600E+02
     12.248  0.0000E+00  0.5600E+02
     12.315  0.0000E+00  0.5600E+02
     12.381  0.0000E+00  0.5600E+02
     12.448  0.0000E+00  0.5600E+02
     12.515  0.5027E-05  0.5600E+02
     12.582  0.1730E-01  0.5600E+02
     12.649  0.0000E+00  0.5600E+02
     12.716  0.0000E+00  0.5600E+02
     12.783  0.0000E+00  0.5600E+02
     12.850  0.0000E+00  0.5600E+02
     12.917  0.0000E+00  0.5600E+02
     12.984  0.0000E+00  0.5600E+02
     13.050  0.0000E+00  0.5600E+02
     13.117  0.0000E+00  0.5600E+02
     13.184  0.0000E+00  0.5600E+02
     13.251  0.0000E+00  0.5600E+02
     13.318  0.0000E+00  0.5600E+02
     13.385  0.0000E+00  0.5600E+02
     13.452  0.0000E+00  0.5600E+02
