    4    4    1    1
  0.1600069E+02  0.4000057E-09  0.4000057E-09  0.4000057E-09  0.5000000E-15
  1.000000000000000E-004
  CAR 
 unknown system                          
   44   84   28
 
  0.0000000E+00  0.0000000E+00  0.0000000E+00  0.5787037E-03
   1       -5.7051
   2       -1.8441
   3       -1.8441
   4       -1.8441
   5       -1.5561
   6       -1.5561
   7       -1.5561
   8       -0.6957
   9       -0.6957
  10       -0.6957
  11       -0.1804
  12       -0.1804
  13        0.1642
  14        0.1642
  15        0.1642
  16        0.2603
  17        0.2603
  18        0.2603
  19        0.2603
  20        0.2603
  21        0.2603
  22        3.2973
  23        3.2973
  24        3.2973
  25        6.7903
  26        6.7903
  27        6.7903
  28       12.5396
 
  0.8333333E-01  0.0000000E+00  0.0000000E+00  0.3472222E-02
   1       -5.6370
   2       -1.8480
   3       -1.8170
   4       -1.8170
   5       -1.5418
   6       -1.5408
   7       -1.5408
   8       -0.7107
   9       -0.6829
  10       -0.6829
  11       -0.1940
  12       -0.1746
  13        0.1467
  14        0.1467
  15        0.1583
  16        0.1827
  17        0.1827
  18        0.2394
  19        0.2394
  20        0.2604
  21        0.2604
  22        2.7525
  23        3.4391
  24        3.4391
  25        6.8222
  26        6.8222
  27        7.4799
  28       12.0605
 
  0.1666667E+00  0.0000000E+00  0.0000000E+00  0.3472222E-02
   1       -5.4338
   2       -1.8730
   3       -1.7395
   4       -1.7395
   5       -1.4999
   6       -1.4944
   7       -1.4944
   8       -0.7547
   9       -0.6449
  10       -0.6449
  11       -0.2333
  12       -0.1576
  13       -0.0143
  14       -0.0143
  15        0.0956
  16        0.0956
  17        0.1408
  18        0.1791
  19        0.1791
  20        0.2604
  21        0.2604
  22        1.7238
  23        3.8282
  24        3.8282
  25        6.9202
  26        6.9202
  27        8.9554
  28       11.0580
 
  0.2500000E+00  0.0000000E+00  0.0000000E+00  0.3472222E-02
   1       -5.0988
   2       -1.9703
   3       -1.6239
   4       -1.6239
   5       -1.4330
   6       -1.4162
   7       -1.4162
   8       -0.8245
   9       -0.5827
  10       -0.5827
  11       -0.2932
  12       -0.2655
  13       -0.2655
  14       -0.1306
  15        0.0164
  16        0.0164
  17        0.0869
  18        0.0869
  19        0.1131
  20        0.2606
  21        0.2606
  22        0.7345
  23        4.3985
  24        4.3985
  25        7.0900
  26        7.0900
  27        9.9412
  28        9.9412
 
  0.3333333E+00  0.0000000E+00  0.0000000E+00  0.3472222E-02
   1       -4.6392
   2       -2.2446
   3       -1.4930
   4       -1.4930
   5       -1.3453
   6       -1.3049
   7       -1.3049
   8       -0.9150
   9       -0.5244
  10       -0.5244
  11       -0.4984
  12       -0.4984
  13       -0.3638
  14       -0.0952
  15       -0.0780
  16       -0.0780
  17       -0.0270
  18       -0.0270
  19        0.0098
  20        0.0771
  21        0.2607
  22        0.2607
  23        5.1015
  24        5.1015
  25        7.3378
  26        7.3378
  27        8.8377
  28        8.8377
 
  0.4166667E+00  0.0000000E+00  0.0000000E+00  0.3472222E-02
   1       -4.0695
   2       -2.7649
   3       -1.3826
   4       -1.3826
   5       -1.2426
   6       -1.1595
   7       -1.1595
   8       -1.0198
   9       -0.7663
  10       -0.7663
  11       -0.4272
  12       -0.3950
  13       -0.3950
  14       -0.3499
  15       -0.1615
  16       -0.1615
  17       -0.1518
  18       -0.1518
  19       -0.0538
  20        0.0353
  21        0.2607
  22        0.2607
  23        5.9100
  24        5.9100
  25        7.6562
  26        7.6562
  27        7.7880
  28        7.7880
 
  0.5000000E+00  0.0000000E+00  0.0000000E+00  0.1736111E-02
   1       -3.4206
   2       -3.4206
   3       -1.3377
   4       -1.3377
   5       -1.1316
   6       -1.1316
   7       -0.9795
   8       -0.9795
   9       -0.9795
  10       -0.9795
  11       -0.4479
  12       -0.4479
  13       -0.2773
  14       -0.2773
  15       -0.2773
  16       -0.2773
  17       -0.1965
  18       -0.1965
  19       -0.0093
  20       -0.0093
  21        0.2608
  22        0.2608
  23        6.8088
  24        6.8088
  25        6.8088
  26        6.8088
  27        7.8901
  28        7.8901
 
  0.8333333E-01  0.8333333E-01  0.0000000E+00  0.6944444E-02
   1       -5.5692
   2       -1.8200
   3       -1.8200
   4       -1.7907
   5       -1.5268
   6       -1.5268
   7       -1.5258
   8       -0.7186
   9       -0.6770
  10       -0.6714
  11       -0.1976
  12       -0.1776
  13        0.1244
  14        0.1244
  15        0.1248
  16        0.1299
  17        0.1744
  18        0.1744
  19        0.2393
  20        0.2393
  21        0.2466
  22        2.8873
  23        2.8873
  24        3.5750
  25        6.8548
  26        7.5220
  27        7.5220
  28       11.0471
 
  0.1666667E+00  0.8333333E-01  0.0000000E+00  0.1388889E-01
   1       -5.3666
   2       -1.8425
   3       -1.7402
   4       -1.7158
   5       -1.4857
   6       -1.4813
   7       -1.4806
   8       -0.7580
   9       -0.6427
  10       -0.6374
  11       -0.2315
  12       -0.1620
  13       -0.0575
  14       -0.0518
  15        0.0548
  16        0.0808
  17        0.1033
  18        0.1523
  19        0.1789
  20        0.2392
  21        0.2394
  22        1.8629
  23        3.2490
  24        3.9512
  25        6.9542
  26        7.6502
  27        9.0048
  28        9.8889
 
  0.2500000E+00  0.8333333E-01  0.0000000E+00  0.1388889E-01
   1       -5.0328
   2       -1.9348
   3       -1.6208
   4       -1.6039
   5       -1.4201
   6       -1.4049
   7       -1.4045
   8       -0.8253
   9       -0.5835
  10       -0.5816
  11       -0.3080
  12       -0.2882
  13       -0.2862
  14       -0.1318
  15       -0.0689
  16        0.0046
  17        0.0230
  18        0.0866
  19        0.1167
  20        0.2377
  21        0.2391
  22        0.9074
  23        3.7652
  24        4.5089
  25        7.1244
  26        7.8690
  27        8.7725
  28       10.0226
 
  0.3333333E+00  0.8333333E-01  0.0000000E+00  0.1388889E-01
   1       -4.5752
   2       -2.2019
   3       -1.4848
   4       -1.4752
   5       -1.3342
   6       -1.3000
   7       -1.2955
   8       -0.9134
   9       -0.5634
  10       -0.5362
  11       -0.5213
  12       -0.4979
  13       -0.3395
  14       -0.2657
  15       -0.0915
  16       -0.0862
  17       -0.0716
  18       -0.0275
  19        0.0575
  20        0.2375
  21        0.2388
  22        0.2835
  23        4.3883
  24        5.2018
  25        7.3357
  26        7.7783
  27        8.1755
  28        8.9195
 
  0.4166667E+00  0.8333333E-01  0.0000000E+00  0.1388889E-01
   1       -4.0083
   2       -2.7144
   3       -1.3681
   4       -1.3628
   5       -1.2336
   6       -1.1681
   7       -1.1532
   8       -1.0157
   9       -0.7988
  10       -0.7701
  11       -0.4988
  12       -0.4529
  13       -0.3949
  14       -0.3278
  15       -0.1655
  16       -0.1568
  17       -0.1522
  18       -0.0807
  19       -0.0438
  20        0.0776
  21        0.2377
  22        0.2385
  23        5.0956
  24        6.0029
  25        6.7341
  26        7.7791
  27        7.8720
  28        8.4617
 
  0.5000000E+00  0.8333333E-01  0.0000000E+00  0.6944444E-02
   1       -3.3638
   2       -3.3638
   3       -1.3179
   4       -1.3179
   5       -1.1250
   6       -1.1250
   7       -1.0025
   8       -1.0025
   9       -0.9775
  10       -0.9775
  11       -0.5108
  12       -0.5108
  13       -0.2775
  14       -0.2775
  15       -0.2267
  16       -0.2267
  17       -0.1958
  18       -0.1958
  19        0.0101
  20        0.0101
  21        0.2381
  22        0.2381
  23        5.8792
  24        5.8792
  25        6.8964
  26        6.8964
  27        8.2008
  28        8.2008
 
  0.1666667E+00  0.1666667E+00  0.0000000E+00  0.6944444E-02
   1       -5.1661
   2       -1.7550
   3       -1.7550
   4       -1.6485
   5       -1.4427
   6       -1.4427
   7       -1.4387
   8       -0.7806
   9       -0.6226
  10       -0.6155
  11       -0.2435
  12       -0.1727
  13       -0.1636
  14       -0.1636
  15       -0.1562
  16        0.0374
  17        0.1020
  18        0.1020
  19        0.1784
  20        0.1784
  21        0.2059
  22        2.2129
  23        2.2129
  24        4.2987
  25        7.0560
  26        8.6369
  27        9.1519
  28        9.1519
 
  0.2500000E+00  0.1666667E+00  0.0000000E+00  0.1388889E-01
   1       -4.8361
   2       -1.8331
   3       -1.6234
   4       -1.5483
   5       -1.3812
   6       -1.3704
   7       -1.3696
   8       -0.8340
   9       -0.5834
  10       -0.5714
  11       -0.4181
  12       -0.3603
  13       -0.3187
  14       -0.2819
  15       -0.1204
  16       -0.0305
  17        0.0263
  18        0.0751
  19        0.0857
  20        0.1777
  21        0.1869
  22        1.2639
  23        2.6868
  24        4.8259
  25        7.1774
  26        7.5370
  27        9.3832
  28       10.2638
 
  0.3333333E+00  0.1666667E+00  0.0000000E+00  0.1388889E-01
   1       -4.3846
   2       -2.0791
   3       -1.4708
   4       -1.4288
   5       -1.3009
   6       -1.2810
   7       -1.2680
   8       -0.9118
   9       -0.6641
  10       -0.5734
  11       -0.5580
  12       -0.4935
  13       -0.4928
  14       -0.3136
  15       -0.1117
  16       -0.0658
  17       -0.0643
  18       -0.0285
  19        0.0160
  20        0.1767
  21        0.1789
  22        0.6029
  23        3.2484
  24        5.4934
  25        6.3814
  26        7.5548
  27        9.1618
  28        9.5153
 
  0.4166667E+00  0.1666667E+00  0.0000000E+00  0.1388889E-01
   1       -3.8270
   2       -2.5675
   3       -1.3334
   4       -1.3090
   5       -1.2070
   6       -1.1896
   7       -1.1350
   8       -1.0052
   9       -0.8839
  10       -0.7826
  11       -0.5988
  12       -0.5709
  13       -0.3928
  14       -0.2883
  15       -0.1804
  16       -0.1529
  17       -0.1526
  18       -0.0826
  19        0.0075
  20        0.1758
  21        0.1759
  22        0.2604
  23        3.8913
  24        5.4504
  25        6.2750
  26        7.9235
  27        8.1199
  28        9.0022
 
  0.5000000E+00  0.1666667E+00  0.0000000E+00  0.6944444E-02
   1       -3.1966
   2       -3.1966
   3       -1.2622
   4       -1.2622
   5       -1.1061
   6       -1.1061
   7       -1.0664
   8       -1.0664
   9       -0.9722
  10       -0.9722
  11       -0.6056
  12       -0.6056
  13       -0.2772
  14       -0.2772
  15       -0.1996
  16       -0.1996
  17       -0.1994
  18       -0.1994
  19        0.1020
  20        0.1020
  21        0.1753
  22        0.1753
  23        4.6218
  24        4.6218
  25        7.1542
  26        7.1542
  27        8.4106
  28        8.4106
 
  0.2500000E+00  0.2500000E+00  0.0000000E+00  0.6944444E-02
   1       -4.5132
   2       -1.6792
   3       -1.6792
   4       -1.4688
   5       -1.3162
   6       -1.3162
   7       -1.3093
   8       -0.8637
   9       -0.5806
  10       -0.5646
  11       -0.5646
  12       -0.5375
  13       -0.4827
  14       -0.3031
  15       -0.0869
  16       -0.0719
  17        0.0053
  18        0.0053
  19        0.0845
  20        0.0845
  21        0.1395
  22        1.7004
  23        1.7004
  24        5.3182
  25        6.2514
  26        7.4786
  27       10.6561
  28       10.6562
 
  0.3333333E+00  0.2500000E+00  0.0000000E+00  0.1388889E-01
   1       -4.0729
   2       -1.8924
   3       -1.4978
   4       -1.3754
   5       -1.2456
   6       -1.2352
   7       -1.2246
   8       -0.9187
   9       -0.7850
  10       -0.6894
  11       -0.6394
  12       -0.5867
  13       -0.4734
  14       -0.3267
  15       -0.1553
  16       -0.0819
  17       -0.0500
  18       -0.0294
  19        0.0095
  20        0.0834
  21        0.1091
  22        0.9636
  23        2.2056
  24        5.2005
  25        5.9542
  26        7.7681
  27        9.5554
  28       10.1094
 
  0.4166667E+00  0.2500000E+00  0.0000000E+00  0.1388889E-01
   1       -3.5330
   2       -2.3392
   3       -1.3262
   4       -1.2677
   5       -1.1838
   6       -1.1639
   7       -1.1073
   8       -0.9928
   9       -0.9745
  10       -0.8067
  11       -0.7243
  12       -0.6243
  13       -0.3828
  14       -0.3078
  15       -0.2117
  16       -0.1675
  17       -0.1522
  18       -0.1382
  19        0.0834
  20        0.0931
  21        0.1179
  22        0.5143
  23        2.7912
  24        4.2746
  25        6.7101
  26        8.1719
  27        8.5216
  28        9.3451
 
  0.5000000E+00  0.2500000E+00  0.0000000E+00  0.6944444E-02
   1       -2.9298
   2       -2.9298
   3       -1.2130
   4       -1.2130
   5       -1.1314
   6       -1.1314
   7       -1.0773
   8       -1.0773
   9       -0.9662
  10       -0.9662
  11       -0.6847
  12       -0.6847
  13       -0.2731
  14       -0.2731
  15       -0.2363
  16       -0.2363
  17       -0.2199
  18       -0.2199
  19        0.0858
  20        0.0858
  21        0.2679
  22        0.2679
  23        3.4751
  24        3.4751
  25        7.5697
  26        7.5697
  27        8.6959
  28        8.6959
 
  0.3333333E+00  0.3333333E+00  0.0000000E+00  0.6944444E-02
   1       -3.6514
   2       -1.6720
   3       -1.6720
   4       -1.3345
   5       -1.1691
   6       -1.1691
   7       -1.1629
   8       -0.9427
   9       -0.8502
  10       -0.8502
  11       -0.7333
  12       -0.6134
  13       -0.4292
  14       -0.3563
  15       -0.2120
  16       -0.1322
  17       -0.1322
  18       -0.0288
  19       -0.0288
  20        0.0498
  21        0.1231
  22        1.3821
  23        1.3821
  24        4.1516
  25        6.5595
  26        8.0919
  27       10.0885
  28       10.0885
 
  0.4166667E+00  0.3333333E+00  0.0000000E+00  0.1388889E-01
   1       -3.1416
   2       -2.0593
   3       -1.4659
   4       -1.3103
   5       -1.1065
   6       -1.0962
   7       -1.0735
   8       -0.9858
   9       -0.9713
  10       -0.8457
  11       -0.8199
  12       -0.6628
  13       -0.3567
  14       -0.3546
  15       -0.2608
  16       -0.2138
  17       -0.2134
  18       -0.1472
  19       -0.0246
  20        0.0097
  21        0.2732
  22        0.8230
  23        1.8838
  24        3.2504
  25        7.2890
  26        8.5301
  27        9.0639
  28        9.7823
 
  0.5000000E+00  0.3333333E+00  0.0000000E+00  0.6944444E-02
   1       -2.5855
   2       -2.5855
   3       -1.3366
   4       -1.3366
   5       -1.0469
   6       -1.0469
   7       -1.0429
   8       -1.0429
   9       -0.9631
  10       -0.9631
  11       -0.7414
  12       -0.7414
  13       -0.2998
  14       -0.2998
  15       -0.2655
  16       -0.2655
  17       -0.2599
  18       -0.2599
  19       -0.0133
  20       -0.0133
  21        0.4845
  22        0.4845
  23        2.4984
  24        2.4984
  25        8.1275
  26        8.1275
  27        9.0916
  28        9.0916
 
  0.4166667E+00  0.4166667E+00  0.0000000E+00  0.6944444E-02
   1       -2.6816
   2       -1.7757
   3       -1.7757
   4       -1.3964
   5       -1.0388
   6       -1.0388
   7       -1.0036
   8       -0.9905
   9       -0.9005
  10       -0.8855
  11       -0.8855
  12       -0.7079
  13       -0.3836
  14       -0.3120
  15       -0.3069
  16       -0.2870
  17       -0.2870
  18       -0.1337
  19       -0.1337
  20       -0.0588
  21        0.4770
  22        1.2124
  23        1.2124
  24        2.3980
  25        7.9944
  26        9.0059
  27        9.7339
  28        9.7339
 
  0.5000000E+00  0.4166667E+00  0.0000000E+00  0.6944444E-02
   1       -2.2028
   2       -2.2028
   3       -1.5453
   4       -1.5453
   5       -1.0092
   6       -1.0092
   7       -0.9674
   8       -0.9674
   9       -0.9364
  10       -0.9364
  11       -0.7853
  12       -0.7853
  13       -0.3574
  14       -0.3574
  15       -0.3278
  16       -0.3278
  17       -0.2310
  18       -0.2310
  19       -0.1060
  20       -0.1060
  21        0.7664
  22        0.7664
  23        1.7243
  24        1.7243
  25        8.8128
  26        8.8128
  27        9.6068
  28        9.6068
 
  0.5000000E+00  0.5000000E+00  0.0000000E+00  0.1736111E-02
   1       -1.8386
   2       -1.8386
   3       -1.8386
   4       -1.8386
   5       -0.9827
   6       -0.9827
   7       -0.9827
   8       -0.9827
   9       -0.8441
  10       -0.8441
  11       -0.8441
  12       -0.8441
  13       -0.3708
  14       -0.3708
  15       -0.3708
  16       -0.3708
  17       -0.1803
  18       -0.1803
  19       -0.1803
  20       -0.1803
  21        1.1594
  22        1.1594
  23        1.1594
  24        1.1594
  25        9.6136
  26        9.6136
  27        9.6136
  28        9.6136
 
  0.8333333E-01  0.8333333E-01  0.8333333E-01  0.4629630E-02
   1       -5.5015
   2       -1.7931
   3       -1.7931
   4       -1.7931
   5       -1.5120
   6       -1.5120
   7       -1.5120
   8       -0.7257
   9       -0.6663
  10       -0.6663
  11       -0.1903
  12       -0.1903
  13        0.0965
  14        0.0965
  15        0.0965
  16        0.1144
  17        0.1144
  18        0.1144
  19        0.2366
  20        0.2366
  21        0.2366
  22        3.0147
  23        3.0147
  24        3.0147
  25        7.5644
  26        7.5644
  27        7.5644
  28       11.1309
 
  0.1666667E+00  0.8333333E-01  0.8333333E-01  0.1388889E-01
   1       -5.2996
   2       -1.8133
   3       -1.7162
   4       -1.7162
   5       -1.4716
   6       -1.4675
   7       -1.4675
   8       -0.7612
   9       -0.6370
  10       -0.6343
  11       -0.2260
  12       -0.1688
  13       -0.0895
  14       -0.0895
  15        0.0106
  16        0.0676
  17        0.0713
  18        0.0713
  19        0.2095
  20        0.2300
  21        0.2300
  22        1.9888
  23        3.3614
  24        3.3614
  25        7.6927
  26        7.6927
  27        9.0529
  28        9.9720
 
  0.2500000E+00  0.8333333E-01  0.8333333E-01  0.1388889E-01
   1       -4.9672
   2       -1.9014
   3       -1.6013
   4       -1.6013
   5       -1.4070
   6       -1.3930
   7       -1.3930
   8       -0.8255
   9       -0.5847
  10       -0.5818
  11       -0.3277
  12       -0.3277
  13       -0.2761
  14       -0.1393
  15       -0.1347
  16       -0.0079
  17        0.0014
  18        0.0014
  19        0.1707
  20        0.2247
  21        0.2247
  22        1.0402
  23        3.8635
  24        3.8635
  25        7.9009
  26        7.9009
  27        8.8683
  28        8.8683
 
  0.3333333E+00  0.8333333E-01  0.8333333E-01  0.1388889E-01
   1       -4.5116
   2       -2.1616
   3       -1.4685
   4       -1.4685
   5       -1.3226
   6       -1.2907
   7       -1.2907
   8       -0.9109
   9       -0.5716
  10       -0.5716
  11       -0.5310
  12       -0.5100
  13       -0.3467
  14       -0.3135
  15       -0.1044
  16       -0.0905
  17       -0.0859
  18       -0.0859
  19        0.1238
  20        0.2216
  21        0.2216
  22        0.3916
  23        4.4759
  24        4.4759
  25        7.7248
  26        7.7248
  27        8.3328
  28        8.3328
 
  0.4166667E+00  0.8333333E-01  0.8333333E-01  0.1388889E-01
   1       -3.9480
   2       -2.6658
   3       -1.3494
   4       -1.3494
   5       -1.2238
   6       -1.1662
   7       -1.1662
   8       -1.0107
   9       -0.7952
  10       -0.7952
  11       -0.5252
  12       -0.5062
  13       -0.4214
  14       -0.2742
  15       -0.2117
  16       -0.1654
  17       -0.1654
  18       -0.0392
  19        0.0492
  20        0.0713
  21        0.2202
  22        0.2202
  23        5.1757
  24        5.1757
  25        6.8147
  26        6.8147
  27        8.7224
  28        8.7224
 
  0.5000000E+00  0.8333333E-01  0.8333333E-01  0.6944444E-02
   1       -3.3083
   2       -3.3083
   3       -1.2978
   4       -1.2978
   5       -1.1174
   6       -1.1174
   7       -1.0531
   8       -1.0531
   9       -0.9461
  10       -0.9461
  11       -0.5455
  12       -0.5455
  13       -0.3200
  14       -0.3200
  15       -0.1992
  16       -0.1992
  17       -0.1483
  18       -0.1483
  19        0.0159
  20        0.0159
  21        0.2197
  22        0.2197
  23        5.9291
  24        5.9291
  25        5.9826
  26        5.9826
  27        9.0756
  28        9.0756
 
  0.1666667E+00  0.1666667E+00  0.8333333E-01  0.1388889E-01
   1       -5.1001
   2       -1.7301
   3       -1.7301
   4       -1.6483
   5       -1.4291
   6       -1.4291
   7       -1.4259
   8       -0.7821
   9       -0.6192
  10       -0.6151
  11       -0.2304
  12       -0.2060
  13       -0.1926
  14       -0.1926
  15       -0.1664
  16        0.0106
  17        0.0307
  18        0.0307
  19        0.2060
  20        0.2060
  21        0.2109
  22        2.3164
  23        2.3164
  24        3.6752
  25        7.8099
  26        8.7355
  27        9.1863
  28        9.1863
 
  0.2500000E+00  0.1666667E+00  0.8333333E-01  0.2777778E-01
   1       -4.7717
   2       -1.8061
   3       -1.6059
   4       -1.5478
   5       -1.3675
   6       -1.3578
   7       -1.3569
   8       -0.8321
   9       -0.5849
  10       -0.5762
  11       -0.4324
  12       -0.3925
  13       -0.3489
  14       -0.2634
  15       -0.1278
  16       -0.0536
  17       -0.0450
  18       -0.0225
  19        0.1702
  20        0.1911
  21        0.1920
  22        1.3564
  23        2.7734
  24        4.1437
  25        7.4731
  26        8.1470
  27        8.9735
  28        9.5733
 
  0.3333333E+00  0.1666667E+00  0.8333333E-01  0.2777778E-01
   1       -4.3228
   2       -2.0465
   3       -1.4614
   4       -1.4284
   5       -1.2872
   6       -1.2702
   7       -1.2611
   8       -0.9065
   9       -0.6632
  10       -0.5987
  11       -0.5618
  12       -0.5202
  13       -0.5140
  14       -0.2791
  15       -0.1429
  16       -0.1269
  17       -0.0975
  18       -0.0699
  19        0.1182
  20        0.1786
  21        0.1789
  22        0.6632
  23        3.3240
  24        4.7276
  25        6.4577
  26        7.9856
  27        8.4596
  28        9.8711
 
  0.4166667E+00  0.1666667E+00  0.8333333E-01  0.2777778E-01
   1       -3.7693
   2       -2.5253
   3       -1.3237
   4       -1.3036
   5       -1.1942
   6       -1.1937
   7       -1.1584
   8       -0.9967
   9       -0.8566
  10       -0.7889
  11       -0.6166
  12       -0.5792
  13       -0.4378
  14       -0.2476
  15       -0.2238
  16       -0.1925
  17       -0.1737
  18        0.0007
  19        0.0355
  20        0.1716
  21        0.1721
  22        0.2682
  23        3.9598
  24        5.3580
  25        5.5745
  26        7.0428
  27        8.9215
  28       10.0697
 
  0.5000000E+00  0.1666667E+00  0.8333333E-01  0.1388889E-01
   1       -3.1452
   2       -3.1452
   3       -1.2418
   4       -1.2418
   5       -1.1353
   6       -1.1353
   7       -1.0950
   8       -1.0950
   9       -0.9181
  10       -0.9181
  11       -0.6175
  12       -0.6175
  13       -0.3481
  14       -0.3481
  15       -0.2141
  16       -0.2141
  17       -0.0989
  18       -0.0989
  19        0.0913
  20        0.0913
  21        0.1697
  22        0.1697
  23        4.6842
  24        4.6842
  25        6.1896
  26        6.1896
  27        9.5009
  28        9.5009
 
  0.2500000E+00  0.2500000E+00  0.8333333E-01  0.1388889E-01
   1       -4.4510
   2       -1.6644
   3       -1.6644
   4       -1.4733
   5       -1.3008
   6       -1.3008
   7       -1.2949
   8       -0.8578
   9       -0.5827
  10       -0.5730
  11       -0.5730
  12       -0.5518
  13       -0.5059
  14       -0.2749
  15       -0.1202
  16       -0.0832
  17       -0.0832
  18       -0.0809
  19        0.1451
  20        0.1451
  21        0.1562
  22        1.7720
  23        1.7720
  24        4.5720
  25        6.3278
  26        8.3650
  27        9.4060
  28        9.4060
 
  0.3333333E+00  0.2500000E+00  0.8333333E-01  0.2777778E-01
   1       -4.0144
   2       -1.8752
   3       -1.5023
   4       -1.3889
   5       -1.2269
   6       -1.2195
   7       -1.2091
   8       -0.9081
   9       -0.7723
  10       -0.6921
  11       -0.6487
  12       -0.5887
  13       -0.5070
  14       -0.2800
  15       -0.1862
  16       -0.1736
  17       -0.1404
  18       -0.0000
  19        0.0828
  20        0.1194
  21        0.1262
  22        1.0078
  23        2.2665
  24        5.0470
  25        5.3535
  26        8.3617
  27        8.7298
  28        9.9266
 
  0.4166667E+00  0.2500000E+00  0.8333333E-01  0.2777778E-01
   1       -3.4804
   2       -2.3097
   3       -1.3523
   4       -1.2998
   5       -1.1677
   6       -1.1438
   7       -1.1207
   8       -0.9776
   9       -0.9147
  10       -0.7885
  11       -0.7253
  12       -0.6265
  13       -0.4467
  14       -0.2745
  15       -0.2390
  16       -0.2287
  17       -0.2067
  18       -0.0072
  19        0.1039
  20        0.1068
  21        0.1070
  22        0.5240
  23        2.8464
  24        4.3202
  25        5.8127
  26        7.4123
  27        9.2212
  28       10.5720
 
  0.5000000E+00  0.2500000E+00  0.8333333E-01  0.1388889E-01
   1       -2.8867
   2       -2.8867
   3       -1.2584
   4       -1.2584
   5       -1.1405
   6       -1.1405
   7       -1.0586
   8       -1.0586
   9       -0.8991
  10       -0.8991
  11       -0.6862
  12       -0.6862
  13       -0.3687
  14       -0.3687
  15       -0.2495
  16       -0.2495
  17       -0.1232
  18       -0.1232
  19        0.0998
  20        0.0998
  21        0.2589
  22        0.2589
  23        3.5269
  24        3.5269
  25        6.5621
  26        6.5621
  27        9.8389
  28        9.8389
 
  0.3333333E+00  0.3333333E+00  0.8333333E-01  0.1388889E-01
   1       -3.5984
   2       -1.6810
   3       -1.6810
   4       -1.3658
   5       -1.1439
   6       -1.1408
   7       -1.1408
   8       -0.9248
   9       -0.8344
  10       -0.8344
  11       -0.7198
  12       -0.6138
  13       -0.4887
  14       -0.2862
  15       -0.2495
  16       -0.2165
  17       -0.2165
  18        0.0456
  19        0.0456
  20        0.0767
  21        0.1119
  22        1.4198
  23        1.4198
  24        4.1897
  25        5.6872
  26        8.8684
  27        8.8684
  28        9.1227
 
  0.4166667E+00  0.3333333E+00  0.8333333E-01  0.2777778E-01
   1       -3.0980
   2       -2.0514
   3       -1.5096
   4       -1.3626
   5       -1.0771
   6       -1.0719
   7       -1.0432
   8       -0.9601
   9       -0.9271
  10       -0.8114
  11       -0.8013
  12       -0.6616
  13       -0.4549
  14       -0.3084
  15       -0.2988
  16       -0.2698
  17       -0.2464
  18       -0.0486
  19        0.0225
  20        0.0391
  21        0.2612
  22        0.8331
  23        1.9202
  24        3.2907
  25        6.3214
  26        7.9139
  27        9.4996
  28        9.6415
 
  0.5000000E+00  0.3333333E+00  0.8333333E-01  0.1388889E-01
   1       -2.5569
   2       -2.5569
   3       -1.4010
   4       -1.4010
   5       -1.0339
   6       -1.0339
   7       -1.0107
   8       -1.0107
   9       -0.8893
  10       -0.8893
  11       -0.7379
  12       -0.7379
  13       -0.3936
  14       -0.3936
  15       -0.3075
  16       -0.3075
  17       -0.1562
  18       -0.1562
  19        0.0201
  20        0.0201
  21        0.4770
  22        0.4770
  23        2.5365
  24        2.5365
  25        7.0650
  26        7.0650
  27       10.2498
  28       10.2503
 
  0.4166667E+00  0.4166667E+00  0.8333333E-01  0.1388889E-01
   1       -2.6529
   2       -1.7984
   3       -1.7984
   4       -1.4571
   5       -0.9871
   6       -0.9823
   7       -0.9823
   8       -0.9520
   9       -0.8722
  10       -0.8722
  11       -0.8329
  12       -0.7036
  13       -0.4558
  14       -0.3541
  15       -0.3499
  16       -0.3499
  17       -0.2285
  18       -0.0703
  19       -0.0703
  20       -0.0213
  21        0.4658
  22        1.2259
  23        1.2259
  24        2.4291
  25        6.9493
  26        8.5392
  27        8.5392
  28       10.1421
 
  0.5000000E+00  0.4166667E+00  0.8333333E-01  0.1388889E-01
   1       -2.1971
   2       -2.1971
   3       -1.5964
   4       -1.5964
   5       -0.9583
   6       -0.9583
   7       -0.9230
   8       -0.9230
   9       -0.8925
  10       -0.8925
  11       -0.7785
  12       -0.7785
  13       -0.4210
  14       -0.4210
  15       -0.3750
  16       -0.3750
  17       -0.1628
  18       -0.1628
  19       -0.0610
  20       -0.0610
  21        0.7622
  22        0.7622
  23        1.7453
  24        1.7453
  25        7.6891
  26        7.6891
  27        9.2829
  28        9.2829
 
  0.5000000E+00  0.5000000E+00  0.8333333E-01  0.3472222E-02
   1       -1.8628
   2       -1.8628
   3       -1.8628
   4       -1.8628
   5       -0.9152
   6       -0.9152
   7       -0.9152
   8       -0.9152
   9       -0.8333
  10       -0.8333
  11       -0.8333
  12       -0.8333
  13       -0.4215
  14       -0.4215
  15       -0.4215
  16       -0.4215
  17       -0.1285
  18       -0.1285
  19       -0.1285
  20       -0.1285
  21        1.1645
  22        1.1645
  23        1.1645
  24        1.1645
  25        8.4290
  26        8.4290
  27        8.4290
  28        8.4290
 
  0.1666667E+00  0.1666667E+00  0.1666667E+00  0.4629630E-02
   1       -4.9033
   2       -1.6605
   3       -1.6605
   4       -1.6605
   5       -1.3874
   6       -1.3874
   7       -1.3874
   8       -0.7945
   9       -0.6073
  10       -0.6073
  11       -0.3035
  12       -0.3035
  13       -0.3035
  14       -0.1936
  15       -0.1936
  16       -0.0557
  17       -0.0557
  18       -0.0557
  19        0.2137
  20        0.2137
  21        0.2137
  22        2.6007
  23        2.6007
  24        2.6007
  25        8.8398
  26        8.8398
  27        8.8398
  28        9.4750
 
  0.2500000E+00  0.1666667E+00  0.1666667E+00  0.1388889E-01