 vasp.4.6.28 25Jul05 complex 
 executed on             LinuxIFC date 2016.07.15  16:21:12
 running on    4 nodes
 distr:  one band on    1 nodes,    4 groups


--------------------------------------------------------------------------------------------------------


 INCAR:
 POTCAR:   PAW_PBE Cu 05Jan2001                   
 POTCAR:   PAW_PBE Cu 05Jan2001                   
   VRHFIN =Cu: d10 p1                                                           
   LEXCH  = PE                                                                  
   EATOM  =  1390.9800 eV,  102.2341 Ry                                         
                                                                                
   TITEL  = PAW_PBE Cu 05Jan2001                                                
   LULTRA =        F    use ultrasoft PP ?                                      
   IUNSCR =        1    unscreen: 0-lin 1-nonlin 2-no                           
   RPACOR =    2.000    partial core radius                                     
   POMASS =   63.546; ZVAL   =   11.000    mass and valenz                      
   RCORE  =    2.300    outmost cutoff radius                                   
   RWIGS  =    2.480; RWIGS  =    1.312    wigner-seitz radius (au A)           
   ENMAX  =  273.214; ENMIN  =  204.910 eV                                      
   RCLOC  =    1.712    cutoff for local pot                                    
   LCOR   =        T    correct aug charges                                     
   LPAW   =        T    paw PP                                                  
   EAUG   =  516.456                                                            
   DEXC   =    -.008                                                            
   RMAX   =    2.789    core radius for proj-oper                               
   RAUG   =    1.300    factor for augmentation sphere                          
   RDEP   =    2.302    radius for radial grids                                 
   QCUT   =   -4.481; QGAM   =    8.962    optimization parameters              
                                                                                
   Description                                                                  
     l     E      TYP  RCUT    TYP  RCUT                                        
     2   .000     23  2.300                                                     
     2   .000     23  2.300                                                     
     0   .000     23  2.300                                                     
     0   .000     23  2.300                                                     
     1  -.200     23  2.300                                                     
     1   .000     23  2.300                                                     
     3   .000      7   .000                                                     
  local pseudopotential read in
  partial core-charges read in
  atomic valenz-charges read in
  non local Contribution for L=           2  read in
    real space projection operators read in
  non local Contribution for L=           2  read in
    real space projection operators read in
  non local Contribution for L=           0  read in
    real space projection operators read in
  non local Contribution for L=           0  read in
    real space projection operators read in
  non local Contribution for L=           1  read in
    real space projection operators read in
  non local Contribution for L=           1  read in
    real space projection operators read in
    PAW grid and wavefunctions read in
 
   number of l-projection  operators is LMAX  =           6
   number of lm-projection operators is LMMAX =          18
 
 PAW_PBE Cu 05Jan2001                   :
 energy of atom  1       EATOM=-1390.9800
 kinetic energy error for atom=    0.0032 (will be added to EATOM!!)
 
 EXHCAR: internal setup
 exchange correlation table for  LEXCH =        8
   RHO(1)=    0.500       N(1)  =     2000
   RHO(2)=  100.500       N(2)  =     4000
 
 POSCAR: Cu                                      
  positions in direct lattice
  velocities in cartesian coordinates
 


--------------------------------------------------------------------------------------------------------


 ion  position               nearest neighbor table
   1  0.000  0.000  0.000-   2 2.83   3 2.83   4 2.83   3 2.83   4 2.83   2 2.83   4 2.83   4 2.83
                             2 2.83   3 2.83   3 2.83   2 2.83
   2  0.500  0.500  0.000-   1 2.83   3 2.83   4 2.83   3 2.83   4 2.83   1 2.83   3 2.83   3 2.83
                             1 2.83   4 2.83   4 2.83   1 2.83
   3  0.500  0.000  0.500-   1 2.83   2 2.83   4 2.83   1 2.83   2 2.83   2 2.83   4 2.83   2 2.83
                             1 2.83   4 2.83   1 2.83   4 2.83
   4  0.000  0.500  0.500-   1 2.83   2 2.83   3 2.83   1 2.83   2 2.83   1 2.83   3 2.83   1 2.83
                             2 2.83   3 2.83   2 2.83   3 2.83
 
  LATTYP: Found a simple cubic cell.
 ALAT       =     4.0000573929
  
  Lattice vectors:
  
 A1 = (   4.0000573929,   0.0000000000,   0.0000000000)
 A2 = (   0.0000000000,   4.0000573929,   0.0000000000)
 A3 = (   0.0000000000,   0.0000000000,   4.0000573929)
 Subroutine PRICEL returns following result:
 
  LATTYP: Found a face centered cubic cell.
 ALAT       =     4.0000573929
  
  Lattice vectors:
  
 A1 = (   2.0000286965,   2.0000286965,  -0.0000000000)
 A2 = (   2.0000286965,   0.0000000000,  -2.0000286965)
 A3 = (   0.0000000000,   2.0000286965,  -2.0000286965)
 
   4 primitive cells build up your supercell.
 

Analysis of symmetry for initial positions (statically):

 Routine SETGRP: Setting up the symmetry group for a 
 simple cubic supercell.


 Subroutine GETGRP returns: Found 48 space group operations
 (whereof 48 operations were pure point group operations)
 out of a pool of 48 trial point group operations.


The static configuration has the point symmetry O_h .

Analysis of symmetry for dynamics (positions and initial velocities):

 Subroutine DYNSYM returns: Found 48 space group operations
 (whereof 48 operations were pure point group operations)
 out of a pool of 48 trial space group operations
 (whereof 48 operations were pure point group operations)
 and found also     4 'primitive' translations


The dynamic configuration has the point symmetry O_h .
 
 
 KPOINTS: Automatic mesh                          

Automatic generation of k-mesh.
 generate k-points for:  12  12  12
 
 Subroutine IBZKPT returns following result:
 ===========================================
 
 Found     84 irreducible k-points:
 
 Following reciprocal coordinates:
            Coordinates               Weight
  0.000000  0.000000  0.000000      1.000000
  0.083333  0.000000  0.000000      6.000000
  0.166667  0.000000  0.000000      6.000000
  0.250000  0.000000  0.000000      6.000000
  0.333333  0.000000  0.000000      6.000000
  0.416667  0.000000  0.000000      6.000000
  0.500000  0.000000  0.000000      3.000000
  0.083333  0.083333  0.000000     12.000000
  0.166667  0.083333  0.000000     24.000000
  0.250000  0.083333  0.000000     24.000000
  0.333333  0.083333  0.000000     24.000000
  0.416667  0.083333  0.000000     24.000000
  0.500000  0.083333  0.000000     12.000000
  0.166667  0.166667  0.000000     12.000000
  0.250000  0.166667  0.000000     24.000000
  0.333333  0.166667  0.000000     24.000000
  0.416667  0.166667  0.000000     24.000000
  0.500000  0.166667  0.000000     12.000000
  0.250000  0.250000  0.000000     12.000000
  0.333333  0.250000  0.000000     24.000000
  0.416667  0.250000  0.000000     24.000000
  0.500000  0.250000  0.000000     12.000000
  0.333333  0.333333  0.000000     12.000000
  0.416667  0.333333  0.000000     24.000000
  0.500000  0.333333  0.000000     12.000000
  0.416667  0.416667  0.000000     12.000000
  0.500000  0.416667  0.000000     12.000000
  0.500000  0.500000  0.000000      3.000000
  0.083333  0.083333  0.083333      8.000000
  0.166667  0.083333  0.083333     24.000000
  0.250000  0.083333  0.083333     24.000000
  0.333333  0.083333  0.083333     24.000000
  0.416667  0.083333  0.083333     24.000000
  0.500000  0.083333  0.083333     12.000000
  0.166667  0.166667  0.083333     24.000000
  0.250000  0.166667  0.083333     48.000000
  0.333333  0.166667  0.083333     48.000000
  0.416667  0.166667  0.083333     48.000000
  0.500000  0.166667  0.083333     24.000000
  0.250000  0.250000  0.083333     24.000000
  0.333333  0.250000  0.083333     48.000000
  0.416667  0.250000  0.083333     48.000000
  0.500000  0.250000  0.083333     24.000000
  0.333333  0.333333  0.083333     24.000000
  0.416667  0.333333  0.083333     48.000000
  0.500000  0.333333  0.083333     24.000000
  0.416667  0.416667  0.083333     24.000000
  0.500000  0.416667  0.083333     24.000000
  0.500000  0.500000  0.083333      6.000000
  0.166667  0.166667  0.166667      8.000000
  0.250000  0.166667  0.166667     24.000000
  0.333333  0.166667  0.166667     24.000000
  0.416667  0.166667  0.166667     24.000000
  0.500000  0.166667  0.166667     12.000000
  0.250000  0.250000  0.166667     24.000000
  0.333333  0.250000  0.166667     48.000000
  0.416667  0.250000  0.166667     48.000000
  0.500000  0.250000  0.166667     24.000000
  0.333333  0.333333  0.166667     24.000000
  0.416667  0.333333  0.166667     48.000000
  0.500000  0.333333  0.166667     24.000000
  0.416667  0.416667  0.166667     24.000000
  0.500000  0.416667  0.166667     24.000000
  0.500000  0.500000  0.166667      6.000000
  0.250000  0.250000  0.250000      8.000000
  0.333333  0.250000  0.250000     24.000000
  0.416667  0.250000  0.250000     24.000000
  0.500000  0.250000  0.250000     12.000000
  0.333333  0.333333  0.250000     24.000000
  0.416667  0.333333  0.250000     48.000000
  0.500000  0.333333  0.250000     24.000000
  0.416667  0.416667  0.250000     24.000000
  0.500000  0.416667  0.250000     24.000000
  0.500000  0.500000  0.250000      6.000000
  0.333333  0.333333  0.333333      8.000000
  0.416667  0.333333  0.333333     24.000000
  0.500000  0.333333  0.333333     12.000000
  0.416667  0.416667  0.333333     24.000000
  0.500000  0.416667  0.333333     24.000000
  0.500000  0.500000  0.333333      6.000000
  0.416667  0.416667  0.416667      8.000000
  0.500000  0.416667  0.416667     12.000000
  0.500000  0.500000  0.416667      6.000000
  0.500000  0.500000  0.500000      1.000000
 
 Following cartesian coordinates:
            Coordinates               Weight
  0.000000  0.000000  0.000000      1.000000
  0.022916  0.000000  0.000000      6.000000
  0.045833  0.000000  0.000000      6.000000
  0.068749  0.000000  0.000000      6.000000
  0.091665  0.000000  0.000000      6.000000
  0.114582  0.000000  0.000000      6.000000
  0.137498  0.000000  0.000000      3.000000
  0.022916  0.022916  0.000000     12.000000
  0.045833  0.022916  0.000000     24.000000
  0.068749  0.022916  0.000000     24.000000
  0.091665  0.022916  0.000000     24.000000
  0.114582  0.022916  0.000000     24.000000
  0.137498  0.022916  0.000000     12.000000
  0.045833  0.045833  0.000000     12.000000
  0.068749  0.045833  0.000000     24.000000
  0.091665  0.045833  0.000000     24.000000
  0.114582  0.045833  0.000000     24.000000
  0.137498  0.045833  0.000000     12.000000
  0.068749  0.068749  0.000000     12.000000
  0.091665  0.068749  0.000000     24.000000
  0.114582  0.068749  0.000000     24.000000
  0.137498  0.068749  0.000000     12.000000
  0.091665  0.091665  0.000000     12.000000
  0.114582  0.091665  0.000000     24.000000
  0.137498  0.091665  0.000000     12.000000
  0.114582  0.114582  0.000000     12.000000
  0.137498  0.114582  0.000000     12.000000
  0.137498  0.137498  0.000000      3.000000
  0.022916  0.022916  0.022916      8.000000
  0.045833  0.022916  0.022916     24.000000
  0.068749  0.022916  0.022916     24.000000
  0.091665  0.022916  0.022916     24.000000
  0.114582  0.022916  0.022916     24.000000
  0.137498  0.022916  0.022916     12.000000
  0.045833  0.045833  0.022916     24.000000
  0.068749  0.045833  0.022916     48.000000
  0.091665  0.045833  0.022916     48.000000
  0.114582  0.045833  0.022916     48.000000
  0.137498  0.045833  0.022916     24.000000
  0.068749  0.068749  0.022916     24.000000
  0.091665  0.068749  0.022916     48.000000
  0.114582  0.068749  0.022916     48.000000
  0.137498  0.068749  0.022916     24.000000
  0.091665  0.091665  0.022916     24.000000
  0.114582  0.091665  0.022916     48.000000
  0.137498  0.091665  0.022916     24.000000
  0.114582  0.114582  0.022916     24.000000
  0.137498  0.114582  0.022916     24.000000
  0.137498  0.137498  0.022916      6.000000
  0.045833  0.045833  0.045833      8.000000
  0.068749  0.045833  0.045833     24.000000
  0.091665  0.045833  0.045833     24.000000
  0.114582  0.045833  0.045833     24.000000
  0.137498  0.045833  0.045833     12.000000
  0.068749  0.068749  0.045833     24.000000
  0.091665  0.068749  0.045833     48.000000
  0.114582  0.068749  0.045833     48.000000
  0.137498  0.068749  0.045833     24.000000
  0.091665  0.091665  0.045833     24.000000
  0.114582  0.091665  0.045833     48.000000
  0.137498  0.091665  0.045833     24.000000
  0.114582  0.114582  0.045833     24.000000
  0.137498  0.114582  0.045833     24.000000
  0.137498  0.137498  0.045833      6.000000
  0.068749  0.068749  0.068749      8.000000
  0.091665  0.068749  0.068749     24.000000
  0.114582  0.068749  0.068749     24.000000
  0.137498  0.068749  0.068749     12.000000
  0.091665  0.091665  0.068749     24.000000
  0.114582  0.091665  0.068749     48.000000
  0.137498  0.091665  0.068749     24.000000
  0.114582  0.114582  0.068749     24.000000
  0.137498  0.114582  0.068749     24.000000
  0.137498  0.137498  0.068749      6.000000
  0.091665  0.091665  0.091665      8.000000
  0.114582  0.091665  0.091665     24.000000
  0.137498  0.091665  0.091665     12.000000
  0.114582  0.114582  0.091665     24.000000
  0.137498  0.114582  0.091665     24.000000
  0.137498  0.137498  0.091665      6.000000
  0.114582  0.114582  0.114582      8.000000
  0.137498  0.114582  0.114582     12.000000
  0.137498  0.137498  0.114582      6.000000
  0.137498  0.137498  0.137498      1.000000
 


--------------------------------------------------------------------------------------------------------




 Dimension of arrays:
   k-Points           NKPTS =     84   number of bands    NBANDS=     28
   number of dos      NEDOS =    301   number of ions     NIONS =      4
   non local maximal  LDIM  =      6   non local SUM 2l+1 LMDIM =     18
   total plane-waves  NPLWV =  27000
   max r-space proj   IRMAX =      1   max aug-charges    IRDMAX= 118632
   dimension x,y,z NGX =    30 NGY =   30 NGZ =   30
   dimension x,y,z NGXF=    60 NGYF=   60 NGZF=   60
   support grid    NGXF=   120 NGYF=  120 NGZF=  120
   ions per type =               4
 NGX,Y,Z   is equivalent  to a cutoff of  12.47, 12.47, 12.47 a.u.
 NGXF,Y,Z  is equivalent  to a cutoff of  24.94, 24.94, 24.94 a.u.


 I would recommend the setting:
   dimension x,y,z NGX =    29 NGY =   29 NGZ =   29
 SYSTEM =  unknown system                          
 POSCAR =  Cu                                      

 Startparameter for this run:
   NWRITE =      2    write-flag & timer
   PREC   = accura    medium, high low
   ISTART =      0    job   : 0-new  1-cont  2-samecut
   ICHARG =      2    charge: 1-file 2-atom 10-const
   ISPIN  =      1    spin polarized calculation?
   LNONCOLLINEAR =      F non collinear calculations
   LSORBIT =      F    spin-orbit coupling
   INIWAV =      1    electr: 0-lowe 1-rand  2-diag
   LASPH  =      F    aspherical Exc in radial PAW
   METAGGA=      F    non-selfconsistent MetaGGA calc.

 Electronic Relaxation 1
   ENCUT  =  500.0 eV  36.75 Ry    6.06 a.u.   7.29  7.29  7.29*2*pi/ulx,y,z
   ENINI  =  500.0     initial cutoff
   ENAUG  =  516.5 eV  augmentation charge cutoff
   NELM   =     60;   NELMIN=  2; NELMDL=  0     # of ELM steps 
   EDIFF  = 0.1E-07   stopping-criterion for ELM
   LREAL  =      F    real-space projection
   LCOMPAT=      F    compatible to vasp.4.4
   LREAL_COMPAT= F    compatible to vasp.4.5.1-3
   GGA_COMPAT  = T    GGA compatible to vasp.4.4-vasp.4.6
   LMAXPAW     = -100 max onsite density
   LMAXMIX     =    2 max onsite mixed and CHGCAR
   VOSKOWN=      0    Vosko Wilk Nusair interpolation
   ROPT   =    0.00000
 Ionic relaxation
   EDIFFG = 0.1E-06   stopping-criterion for IOM
   NSW    =      0    number of steps for IOM
   NBLOCK =      1;   KBLOCK =      1    inner block; outer block 
   IBRION =     -1    ionic relax: 0-MD 1-quasi-New 2-CG
   NFREE  =      0    steps in history (QN), initial steepest desc. (CG)
   ISIF   =      2    stress and relaxation
   IWAVPR =     10    prediction:  0-non 1-charg 2-wave 3-comb
   ISYM   =      2    0-nonsym 1-usesym 2-fastsym
   LCORR  =      T    Harris-Foulkes like correction to forces

   POTIM  =   0.50    time-step for ionic-motion
   TEIN   =    0.0    initial temperature
   TEBEG  =    0.0;   TEEND  =   0.0 temperature during run
   SMASS  =  -3.00    Nose mass-parameter (am)
   estimated Nose-frequenzy (Omega)   =  0.10E-29 period in steps =****** mass=  -0.366E-27a.u.
   NPACO  =    256;   APACO  = 16.0  distance and # of slots for P.C.
   PSTRESS=    0.0 pullay stress

  Mass of Ions in am
   POMASS =  63.55
  Ionic Valenz
   ZVAL   =  11.00
  Atomic Wigner-Seitz radii
   RWIGS  =  -1.00
   NELECT =      44.0000    total number of electrons
   NUPDOWN=      -1.0000    fix difference up-down

 DOS related values:
   EMIN   =  10.00;   EMAX   =-10.00  energy-range for DOS
   ISMEAR =     0;   SIGMA  =   0.01  broadening in eV -4-tet -1-fermi 0-gaus

 Electronic relaxation 2 (details)
   IALGO  =     38    algorithm
   LDIAG  =      T    sub-space diagonalisation
   IMIX   =      4    mixing-type and parameters
     AMIX     =   0.40;   BMIX     =  1.00
     AMIX_MAG =   1.60;   BMIX_MAG =  1.00
     AMIN     =   0.10
     WC   =   100.;   INIMIX=   1;  MIXPRE=   1

 Intra band minimization:
   WEIMIN = 0.0000     energy-eigenvalue tresh-hold
   EBREAK =  0.96E-10  absolut break condition
   DEPER  =   0.30     relativ break condition  

   TIME   =   0.10     timestep for ELM

  volume/ion in A,a.u.               =      16.00       107.98
  Fermi-wavevector in a.u.,eV,Ry     =   1.444861 28.403852  2.087624

 Second variation
   LSECVAR=     F    do a second variation
 
 Write flags
   LWAVE  =      F    write WAVECAR
   LCHARG =      F    write CHGCAR
   LVTOT  =      F    write LOCPOT, local potential
   LELF   =      F    write electronic localiz. function (ELF)
   LORBIT =      0    0 simple, 1 ext, 2 COOP (PROOUT)


 Dipole corrections
   IDIPOL =      0    1-x, 2-y, 3-z
   LDIPOL =      F    correct potential



--------------------------------------------------------------------------------------------------------


 Static calculation
 charge density will be updated during run
 non-spin polarized calculation
 Variant of blocked Davidson
 Davidson routine will perform the subspace rotation
 performe sub-space diagonalisation
    after iterative eigenvector-optimisation
 modified Broyden-mixing scheme, WC =      100.0
 initial mixing is a Kerker type mixing with AMIX =  0.4000 and BMIX =      1.0000
 Hartree-type preconditioning will be used
 using additional bands            6
 reciprocal scheme for non local part
 use partial core corrections
 calculate Harris-corrections to forces 
   (improved forces if not selfconsistent)
 use gradient corrections 
 use of overlap-Matrix (Vanderbilt PP)
 Gauss-broadening in eV      SIGMA  =   0.01


--------------------------------------------------------------------------------------------------------


  energy-cutoff  :      500.00
  volume of cell :       64.00
      direct lattice vectors                 reciprocal lattice vectors
     4.000057393  0.000000000  0.000000000     0.249996413  0.000000000  0.000000000
     0.000000000  4.000057393  0.000000000     0.000000000  0.249996413  0.000000000
     0.000000000  0.000000000  4.000057393     0.000000000  0.000000000  0.249996413

  length of vectors
     4.000057393  4.000057393  4.000057393     0.249996413  0.249996413  0.249996413


 
 k-points in units of 2pi/SCALE and weight: Automatic mesh                          
   0.00000000  0.00000000  0.00000000       0.001
   0.02291634  0.00000000  0.00000000       0.003
   0.04583268  0.00000000  0.00000000       0.003
   0.06874901  0.00000000  0.00000000       0.003
   0.09166535  0.00000000  0.00000000       0.003
   0.11458169  0.00000000  0.00000000       0.003
   0.13749803  0.00000000  0.00000000       0.002
   0.02291634  0.02291634  0.00000000       0.007
   0.04583268  0.02291634  0.00000000       0.014
   0.06874901  0.02291634  0.00000000       0.014
   0.09166535  0.02291634  0.00000000       0.014
   0.11458169  0.02291634  0.00000000       0.014
   0.13749803  0.02291634  0.00000000       0.007
   0.04583268  0.04583268  0.00000000       0.007
   0.06874901  0.04583268  0.00000000       0.014
   0.09166535  0.04583268  0.00000000       0.014
   0.11458169  0.04583268  0.00000000       0.014
   0.13749803  0.04583268  0.00000000       0.007
   0.06874901  0.06874901  0.00000000       0.007
   0.09166535  0.06874901  0.00000000       0.014
   0.11458169  0.06874901  0.00000000       0.014
   0.13749803  0.06874901  0.00000000       0.007
   0.09166535  0.09166535  0.00000000       0.007
   0.11458169  0.09166535  0.00000000       0.014
   0.13749803  0.09166535  0.00000000       0.007
   0.11458169  0.11458169  0.00000000       0.007
   0.13749803  0.11458169  0.00000000       0.007
   0.13749803  0.13749803  0.00000000       0.002
   0.02291634  0.02291634  0.02291634       0.005
   0.04583268  0.02291634  0.02291634       0.014
   0.06874901  0.02291634  0.02291634       0.014
   0.09166535  0.02291634  0.02291634       0.014
   0.11458169  0.02291634  0.02291634       0.014
   0.13749803  0.02291634  0.02291634       0.007
   0.04583268  0.04583268  0.02291634       0.014
   0.06874901  0.04583268  0.02291634       0.028
   0.09166535  0.04583268  0.02291634       0.028
   0.11458169  0.04583268  0.02291634       0.028
   0.13749803  0.04583268  0.02291634       0.014
   0.06874901  0.06874901  0.02291634       0.014
   0.09166535  0.06874901  0.02291634       0.028
   0.11458169  0.06874901  0.02291634       0.028
   0.13749803  0.06874901  0.02291634       0.014
   0.09166535  0.09166535  0.02291634       0.014
   0.11458169  0.09166535  0.02291634       0.028
   0.13749803  0.09166535  0.02291634       0.014
   0.11458169  0.11458169  0.02291634       0.014
   0.13749803  0.11458169  0.02291634       0.014
   0.13749803  0.13749803  0.02291634       0.003
   0.04583268  0.04583268  0.04583268       0.005
   0.06874901  0.04583268  0.04583268       0.014
   0.09166535  0.04583268  0.04583268       0.014
   0.11458169  0.04583268  0.04583268       0.014
   0.13749803  0.04583268  0.04583268       0.007
   0.06874901  0.06874901  0.04583268       0.014
   0.09166535  0.06874901  0.04583268       0.028
   0.11458169  0.06874901  0.04583268       0.028
   0.13749803  0.06874901  0.04583268       0.014
   0.09166535  0.09166535  0.04583268       0.014
   0.11458169  0.09166535  0.04583268       0.028
   0.13749803  0.09166535  0.04583268       0.014
   0.11458169  0.11458169  0.04583268       0.014
   0.13749803  0.11458169  0.04583268       0.014
   0.13749803  0.13749803  0.04583268       0.003
   0.06874901  0.06874901  0.06874901       0.005
   0.09166535  0.06874901  0.06874901       0.014
   0.11458169  0.06874901  0.06874901       0.014
   0.13749803  0.06874901  0.06874901       0.007
   0.09166535  0.09166535  0.06874901       0.014
   0.11458169  0.09166535  0.06874901       0.028
   0.13749803  0.09166535  0.06874901       0.014
   0.11458169  0.11458169  0.06874901       0.014
   0.13749803  0.11458169  0.06874901       0.014
   0.13749803  0.13749803  0.06874901       0.003
   0.09166535  0.09166535  0.09166535       0.005
   0.11458169  0.09166535  0.09166535       0.014
   0.13749803  0.09166535  0.09166535       0.007
   0.11458169  0.11458169  0.09166535       0.014
   0.13749803  0.11458169  0.09166535       0.014
   0.13749803  0.13749803  0.09166535       0.003
   0.11458169  0.11458169  0.11458169       0.005
   0.13749803  0.11458169  0.11458169       0.007
   0.13749803  0.13749803  0.11458169       0.003
   0.13749803  0.13749803  0.13749803       0.001
 
 k-points in reciprocal lattice and weights: Automatic mesh                          
   0.00000000  0.00000000  0.00000000       0.001
   0.08333333  0.00000000  0.00000000       0.003
   0.16666667  0.00000000  0.00000000       0.003
   0.25000000  0.00000000  0.00000000       0.003
   0.33333333  0.00000000  0.00000000       0.003
   0.41666667  0.00000000  0.00000000       0.003
   0.50000000  0.00000000  0.00000000       0.002
   0.08333333  0.08333333  0.00000000       0.007
   0.16666667  0.08333333  0.00000000       0.014
   0.25000000  0.08333333  0.00000000       0.014
   0.33333333  0.08333333  0.00000000       0.014
   0.41666667  0.08333333  0.00000000       0.014
   0.50000000  0.08333333  0.00000000       0.007
   0.16666667  0.16666667  0.00000000       0.007
   0.25000000  0.16666667  0.00000000       0.014
   0.33333333  0.16666667  0.00000000       0.014
   0.41666667  0.16666667  0.00000000       0.014
   0.50000000  0.16666667  0.00000000       0.007
   0.25000000  0.25000000  0.00000000       0.007
   0.33333333  0.25000000  0.00000000       0.014
   0.41666667  0.25000000  0.00000000       0.014
   0.50000000  0.25000000  0.00000000       0.007
   0.33333333  0.33333333  0.00000000       0.007
   0.41666667  0.33333333  0.00000000       0.014
   0.50000000  0.33333333  0.00000000       0.007
   0.41666667  0.41666667  0.00000000       0.007
   0.50000000  0.41666667  0.00000000       0.007
   0.50000000  0.50000000  0.00000000       0.002
   0.08333333  0.08333333  0.08333333       0.005
   0.16666667  0.08333333  0.08333333       0.014
   0.25000000  0.08333333  0.08333333       0.014
   0.33333333  0.08333333  0.08333333       0.014
   0.41666667  0.08333333  0.08333333       0.014
   0.50000000  0.08333333  0.08333333       0.007
   0.16666667  0.16666667  0.08333333       0.014
   0.25000000  0.16666667  0.08333333       0.028
   0.33333333  0.16666667  0.08333333       0.028
   0.41666667  0.16666667  0.08333333       0.028
   0.50000000  0.16666667  0.08333333       0.014
   0.25000000  0.25000000  0.08333333       0.014
   0.33333333  0.25000000  0.08333333       0.028
   0.41666667  0.25000000  0.08333333       0.028
   0.50000000  0.25000000  0.08333333       0.014
   0.33333333  0.33333333  0.08333333       0.014
   0.41666667  0.33333333  0.08333333       0.028
   0.50000000  0.33333333  0.08333333       0.014
   0.41666667  0.41666667  0.08333333       0.014
   0.50000000  0.41666667  0.08333333       0.014
   0.50000000  0.50000000  0.08333333       0.003
   0.16666667  0.16666667  0.16666667       0.005
   0.25000000  0.16666667  0.16666667       0.014
   0.33333333  0.16666667  0.16666667       0.014
   0.41666667  0.16666667  0.16666667       0.014
   0.50000000  0.16666667  0.16666667       0.007
   0.25000000  0.25000000  0.16666667       0.014
   0.33333333  0.25000000  0.16666667       0.028
   0.41666667  0.25000000  0.16666667       0.028
   0.50000000  0.25000000  0.16666667       0.014
   0.33333333  0.33333333  0.16666667       0.014
   0.41666667  0.33333333  0.16666667       0.028
   0.50000000  0.33333333  0.16666667       0.014
   0.41666667  0.41666667  0.16666667       0.014
   0.50000000  0.41666667  0.16666667       0.014
   0.50000000  0.50000000  0.16666667       0.003
   0.25000000  0.25000000  0.25000000       0.005
   0.33333333  0.25000000  0.25000000       0.014
   0.41666667  0.25000000  0.25000000       0.014
   0.50000000  0.25000000  0.25000000       0.007
   0.33333333  0.33333333  0.25000000       0.014
   0.41666667  0.33333333  0.25000000       0.028
   0.50000000  0.33333333  0.25000000       0.014
   0.41666667  0.41666667  0.25000000       0.014
   0.50000000  0.41666667  0.25000000       0.014
   0.50000000  0.50000000  0.25000000       0.003
   0.33333333  0.33333333  0.33333333       0.005
   0.41666667  0.33333333  0.33333333       0.014
   0.50000000  0.33333333  0.33333333       0.007
   0.41666667  0.41666667  0.33333333       0.014
   0.50000000  0.41666667  0.33333333       0.014
   0.50000000  0.50000000  0.33333333       0.003
   0.41666667  0.41666667  0.41666667       0.005
   0.50000000  0.41666667  0.41666667       0.007
   0.50000000  0.50000000  0.41666667       0.003
   0.50000000  0.50000000  0.50000000       0.001
 
 position of ions in fractional coordinates (direct lattice) 
   0.00000000  0.00000000  0.00000000
   0.50000000  0.50000000  0.00000000
   0.50000000  0.00000000  0.50000000
   0.00000000  0.50000000  0.50000000
 
 position of ions in cartesian coordinates  (Angst):
   0.00000000  0.00000000  0.00000000
   2.00002870  2.00002870  0.00000000
   2.00002870  0.00000000  2.00002870
   0.00000000  2.00002870  2.00002870
 


--------------------------------------------------------------------------------------------------------


 k-point  1 :  0.00000.00000.0000  plane waves:   1647
 k-point  2 :  0.08330.00000.0000  plane waves:   1643
 k-point  3 :  0.16670.00000.0000  plane waves:   1631
 k-point  4 :  0.25000.00000.0000  plane waves:   1639
 k-point  5 :  0.33330.00000.0000  plane waves:   1630
 k-point  6 :  0.41670.00000.0000  plane waves:   1630
 k-point  7 :  0.50000.00000.0000  plane waves:   1622
 k-point  8 :  0.08330.08330.0000  plane waves:   1637
 k-point  9 :  0.16670.08330.0000  plane waves:   1626
 k-point 10 :  0.25000.08330.0000  plane waves:   1627
 k-point 11 :  0.33330.08330.0000  plane waves:   1632
 k-point 12 :  0.41670.08330.0000  plane waves:   1630
 k-point 13 :  0.50000.08330.0000  plane waves:   1626
 k-point 14 :  0.16670.16670.0000  plane waves:   1638
 k-point 15 :  0.25000.16670.0000  plane waves:   1621
 k-point 16 :  0.33330.16670.0000  plane waves:   1627
 k-point 17 :  0.41670.16670.0000  plane waves:   1621
 k-point 18 :  0.50000.16670.0000  plane waves:   1622
 k-point 19 :  0.25000.25000.0000  plane waves:   1628
 k-point 20 :  0.33330.25000.0000  plane waves:   1621
 k-point 21 :  0.41670.25000.0000  plane waves:   1625
 k-point 22 :  0.50000.25000.0000  plane waves:   1624
 k-point 23 :  0.33330.33330.0000  plane waves:   1614
 k-point 24 :  0.41670.33330.0000  plane waves:   1625
 k-point 25 :  0.50000.33330.0000  plane waves:   1622
 k-point 26 :  0.41670.41670.0000  plane waves:   1636
 k-point 27 :  0.50000.41670.0000  plane waves:   1624
 k-point 28 :  0.50000.50000.0000  plane waves:   1628
 k-point 29 :  0.08330.08330.0833  plane waves:   1644
 k-point 30 :  0.16670.08330.0833  plane waves:   1634
 k-point 31 :  0.25000.08330.0833  plane waves:   1630
 k-point 32 :  0.33330.08330.0833  plane waves:   1627
 k-point 33 :  0.41670.08330.0833  plane waves:   1627
 k-point 34 :  0.50000.08330.0833  plane waves:   1626
 k-point 35 :  0.16670.16670.0833  plane waves:   1632
 k-point 36 :  0.25000.16670.0833  plane waves:   1630
 k-point 37 :  0.33330.16670.0833  plane waves:   1628
 k-point 38 :  0.41670.16670.0833  plane waves:   1617
 k-point 39 :  0.50000.16670.0833  plane waves:   1624
 k-point 40 :  0.25000.25000.0833  plane waves:   1620
 k-point 41 :  0.33330.25000.0833  plane waves:   1620
 k-point 42 :  0.41670.25000.0833  plane waves:   1623
 k-point 43 :  0.50000.25000.0833  plane waves:   1622
 k-point 44 :  0.33330.33330.0833  plane waves:   1620
 k-point 45 :  0.41670.33330.0833  plane waves:   1626
 k-point 46 :  0.50000.33330.0833  plane waves:   1620
 k-point 47 :  0.41670.41670.0833  plane waves:   1632
 k-point 48 :  0.50000.41670.0833  plane waves:   1632
 k-point 49 :  0.50000.50000.0833  plane waves:   1640
 k-point 50 :  0.16670.16670.1667  plane waves:   1629
 k-point 51 :  0.25000.16670.1667  plane waves:   1630
 k-point 52 :  0.33330.16670.1667  plane waves:   1636
 k-point 53 :  0.41670.16670.1667  plane waves:   1621
 k-point 54 :  0.50000.16670.1667  plane waves:   1622
 k-point 55 :  0.25000.25000.1667  plane waves:   1623
 k-point 56 :  0.33330.25000.1667  plane waves:   1619
 k-point 57 :  0.41670.25000.1667  plane waves:   1620
 k-point 58 :  0.50000.25000.1667  plane waves:   1626
 k-point 59 :  0.33330.33330.1667  plane waves:   1619
 k-point 60 :  0.41670.33330.1667  plane waves:   1628
 k-point 61 :  0.50000.33330.1667  plane waves:   1626
 k-point 62 :  0.41670.41670.1667  plane waves:   1620
 k-point 63 :  0.50000.41670.1667  plane waves:   1630
 k-point 64 :  0.50000.50000.1667  plane waves:   1616
 k-point 65 :  0.25000.25000.2500  plane waves:   1637
 k-point 66 :  0.33330.25000.2500  plane waves:   1620
 k-point 67 :  0.41670.25000.2500  plane waves:   1623
 k-point 68 :  0.50000.25000.2500  plane waves:   1622
 k-point 69 :  0.33330.33330.2500  plane waves:   1627
 k-point 70 :  0.41670.33330.2500  plane waves:   1634
 k-point 71 :  0.50000.33330.2500  plane waves:   1626
 k-point 72 :  0.41670.41670.2500  plane waves:   1623
 k-point 73 :  0.50000.41670.2500  plane waves:   1628
 k-point 74 :  0.50000.50000.2500  plane waves:   1624
 k-point 75 :  0.33330.33330.3333  plane waves:   1628
 k-point 76 :  0.41670.33330.3333  plane waves:   1618
 k-point 77 :  0.50000.33330.3333  plane waves:   1626
 k-point 78 :  0.41670.41670.3333  plane waves:   1625
 k-point 79 :  0.50000.41670.3333  plane waves:   1618
 k-point 80 :  0.50000.50000.3333  plane waves:   1620
 k-point 81 :  0.41670.41670.4167  plane waves:   1634
 k-point 82 :  0.50000.41670.4167  plane waves:   1618
 k-point 83 :  0.50000.50000.4167  plane waves:   1612
 k-point 84 :  0.50000.50000.5000  plane waves:   1640

 maximum and minimum number of plane-waves per node :   1647  1612

 maximum number of plane-waves:   1647
 maximal index in each direction: 
   IXMAX=  7   IYMAX=  7   IZMAX=  7
   IXMIN= -7   IYMIN= -7   IZMIN= -7

 NGX is ok and might be reduce to  30
 NGY is ok and might be reduce to  30
 NGZ is ok and might be reduce to  30

 parallel 3dFFT wavefunction:
    minimum data exchange during FFTs selected (reduces bandwidth)
 parallel 3dFFT charge:
    minimum data exchange during FFTs selected (reduces bandwidth)

 For storing wavefunctions   61.21 MBYTES are necessary
 For predicting wavefunctions    2.10 MBYTES are necessary
Broyden mixing: mesh for mixing (old mesh)
   NGX = 15   NGY = 15   NGZ = 15
  (NGX  = 60   NGY  = 60   NGZ  = 60)
 gives a total of   3375 points
 initial charge density was supplied:
 charge density of overlapping atoms calculated
 number of electron   44.0000000 magnetization 
 keeping initial charge density in first step


--------------------------------------------------------------------------------------------------------


 Maximum index for augmentation-charges        28843 (set IRDMAX)


--------------------------------------------------------------------------------------------------------


 First call to EWALD:  gamma=   0.443
 Maximum number of real-space cells 3x 3x 3
 Maximum number of reciprocal cells 3x 3x 3

    FEWALD:  VPU time    0.00: CPU time    0.00


----------------------------------------- Iteration    1(   1)  ---------------------------------------


    POTLOK:  VPU time    0.12: CPU time    0.12
    SETDIJ:  VPU time    0.30: CPU time    0.30
    EDDAV :  VPU time   11.60: CPU time   11.63
    DOS   :  VPU time    0.00: CPU time   -0.00
    ------------------------------------------
      LOOP:  VPU time   12.03: CPU time   12.06

 eigenvalue-minimisations  :  4712
 total energy-change (2. order) : 0.2705933E+03  (-0.2069664E+04)
 number of electron   44.0000000 magnetization 
 augmentation part    44.0000000 magnetization 

 Free energy of the ion-electron system (eV)
  ---------------------------------------------------
  alpha Z        PSCENC =       319.39250915
  Ewald energy   TEWEN  =     -3994.21553490
  -1/2 Hartree   DENC   =     -1541.34731413
  -V(xc)+E(xc)   XCENC  =       172.71061060
  PAW double counting   =      4328.20916945    -4904.30802700
  entropy T*S    EENTRO =        -0.00007269
  eigenvalues    EBANDS =       326.24463649
  atomic energy  EATOM  =      5563.90732063
  ---------------------------------------------------
  free energy    TOTEN  =       270.59329761 eV

  energy without entropy =      270.59337030  energy(sigma->0) =      270.59333395


--------------------------------------------------------------------------------------------------------




----------------------------------------- Iteration    1(   2)  ---------------------------------------


    EDDAV :  VPU time   11.62: CPU time   11.63
    DOS   :  VPU time    0.00: CPU time   -0.00
    ------------------------------------------
      LOOP:  VPU time   11.63: CPU time   11.64

 eigenvalue-minimisations  :  4716
 total energy-change (2. order) :-0.2718331E+03  (-0.2637433E+03)
 number of electron   44.0000000 magnetization 
 augmentation part    44.0000000 magnetization 

 Free energy of the ion-electron system (eV)
  ---------------------------------------------------
  alpha Z        PSCENC =       319.39250915
  Ewald energy   TEWEN  =     -3994.21553490
  -1/2 Hartree   DENC   =     -1541.34731413
  -V(xc)+E(xc)   XCENC  =       172.71061060
  PAW double counting   =      4328.20916945    -4904.30802700
  entropy T*S    EENTRO =        -0.00033428
  eigenvalues    EBANDS =        54.41179237
  atomic energy  EATOM  =      5563.90732063
  ---------------------------------------------------
  free energy    TOTEN  =        -1.23980810 eV

  energy without entropy =       -1.23947382  energy(sigma->0) =       -1.23964096


--------------------------------------------------------------------------------------------------------




----------------------------------------- Iteration    1(   3)  ---------------------------------------


    EDDAV :  VPU time   12.03: CPU time   12.04
    DOS   :  VPU time    0.00: CPU time   -0.00
    ------------------------------------------
      LOOP:  VPU time   12.04: CPU time   12.05

 eigenvalue-minimisations  :  4996
 total energy-change (2. order) :-0.1499773E+02  (-0.1457250E+02)
 number of electron   44.0000000 magnetization 
 augmentation part    44.0000000 magnetization 

 Free energy of the ion-electron system (eV)
  ---------------------------------------------------
  alpha Z        PSCENC =       319.39250915
  Ewald energy   TEWEN  =     -3994.21553490
  -1/2 Hartree   DENC   =     -1541.34731413
  -V(xc)+E(xc)   XCENC  =       172.71061060
  PAW double counting   =      4328.20916945    -4904.30802700
  entropy T*S    EENTRO =        -0.00024555
  eigenvalues    EBANDS =        39.41397744
  atomic energy  EATOM  =      5563.90732063
  ---------------------------------------------------
  free energy    TOTEN  =       -16.23753430 eV

  energy without entropy =      -16.23728875  energy(sigma->0) =      -16.23741153


--------------------------------------------------------------------------------------------------------




----------------------------------------- Iteration    1(   4)  ---------------------------------------


    EDDAV :  VPU time   12.14: CPU time   12.15
    DOS   :  VPU time    0.00: CPU time   -0.00
    ------------------------------------------
      LOOP:  VPU time   12.16: CPU time   12.16

 eigenvalue-minimisations  :  5032
 total energy-change (2. order) :-0.1457066E+00  (-0.1456074E+00)
 number of electron   44.0000000 magnetization 
 augmentation part    44.0000000 magnetization 

 Free energy of the ion-electron system (eV)
  ---------------------------------------------------
  alpha Z        PSCENC =       319.39250915
  Ewald energy   TEWEN  =     -3994.21553490
  -1/2 Hartree   DENC   =     -1541.34731413
  -V(xc)+E(xc)   XCENC  =       172.71061060
  PAW double counting   =      4328.20916945    -4904.30802700
  entropy T*S    EENTRO =        -0.00024144
  eigenvalues    EBANDS =        39.26826670
  atomic energy  EATOM  =      5563.90732063
  ---------------------------------------------------
  free energy    TOTEN  =       -16.38324093 eV

  energy without entropy =      -16.38299949  energy(sigma->0) =      -16.38312021


--------------------------------------------------------------------------------------------------------




----------------------------------------- Iteration    1(   5)  ---------------------------------------


    EDDAV :  VPU time   12.07: CPU time   12.07
    DOS   :  VPU time    0.00: CPU time   -0.00
    CHARGE:  VPU time    0.68: CPU time    0.68
    MIXING:  VPU time    0.00: CPU time    0.00
    ------------------------------------------
      LOOP:  VPU time   12.76: CPU time   12.77

 eigenvalue-minimisations  :  4976
 total energy-change (2. order) :-0.3800290E-03  (-0.3800201E-03)
 number of electron   44.0000003 magnetization 
 augmentation part    27.0482058 magnetization 

 Broyden mixing:
  rms(total) = 0.12610E+01    rms(broyden)= 0.12610E+01
  rms(prec ) = 0.29229E+01
  weight for this iteration     100.00

 Free energy of the ion-electron system (eV)
  ---------------------------------------------------
  alpha Z        PSCENC =       319.39250915
  Ewald energy   TEWEN  =     -3994.21553490
  -1/2 Hartree   DENC   =     -1541.34731413
  -V(xc)+E(xc)   XCENC  =       172.71061060
  PAW double counting   =      4328.20916945    -4904.30802700
  entropy T*S    EENTRO =        -0.00024137
  eigenvalues    EBANDS =        39.26788661
  atomic energy  EATOM  =      5563.90732063
  ---------------------------------------------------
  free energy    TOTEN  =       -16.38362096 eV

  energy without entropy =      -16.38337959  energy(sigma->0) =      -16.38350028


--------------------------------------------------------------------------------------------------------




----------------------------------------- Iteration    1(   6)  ---------------------------------------


    POTLOK:  VPU time    0.15: CPU time    0.15
    SETDIJ:  VPU time    0.28: CPU time    0.28
    EDDAV :  VPU time   11.92: CPU time   11.93
    DOS   :  VPU time   -0.00: CPU time   -0.00
    CHARGE:  VPU time    0.63: CPU time    0.63
    MIXING:  VPU time    0.01: CPU time    0.01
    ------------------------------------------
      LOOP:  VPU time   13.00: CPU time   13.01

 eigenvalue-minimisations  :  4936
 total energy-change (2. order) : 0.8572123E+00  (-0.3435730E+01)
 number of electron   44.0000004 magnetization 
 augmentation part    30.3733989 magnetization 

 Broyden mixing:
  rms(total) = 0.83222E+00    rms(broyden)= 0.83220E+00
  rms(prec ) = 0.17457E+01
  weight for this iteration     100.00

 eigenvalues of (default mixing * dielectric matrix)
  average eigenvalue GAMMA=   0.6020
  0.6020

 Free energy of the ion-electron system (eV)
  ---------------------------------------------------
  alpha Z        PSCENC =       319.39250915
  Ewald energy   TEWEN  =     -3994.21553490
  -1/2 Hartree   DENC   =     -1439.57563743
  -V(xc)+E(xc)   XCENC  =       167.74475082
  PAW double counting   =      4168.52404146    -4711.25060288
  entropy T*S    EENTRO =        -0.00032754
  eigenvalues    EBANDS =       -90.05292800
  atomic energy  EATOM  =      5563.90732063
  ---------------------------------------------------
  free energy    TOTEN  =       -15.52640868 eV

  energy without entropy =      -15.52608114  energy(sigma->0) =      -15.52624491


--------------------------------------------------------------------------------------------------------




----------------------------------------- Iteration    1(   7)  ---------------------------------------


    POTLOK:  VPU time    0.12: CPU time    0.12
    SETDIJ:  VPU time    0.27: CPU time    0.27
    EDDAV :  VPU time   12.15: CPU time   12.16
    DOS   :  VPU time    0.00: CPU time   -0.00
    CHARGE:  VPU time    0.63: CPU time    0.63
    MIXING:  VPU time    0.00: CPU time    0.01
    ------------------------------------------
      LOOP:  VPU time   13.20: CPU time   13.21

 eigenvalue-minimisations  :  5052
 total energy-change (2. order) : 0.1887283E+01  (-0.7484881E+00)
 number of electron   44.0000003 magnetization 
 augmentation part    29.0565483 magnetization 

 Broyden mixing:
  rms(total) = 0.62676E-01    rms(broyden)= 0.62647E-01
  rms(prec ) = 0.13450E+00
  weight for this iteration     100.00

 eigenvalues of (default mixing * dielectric matrix)
  average eigenvalue GAMMA=   1.2123
  1.8118  0.6128

 Free energy of the ion-electron system (eV)
  ---------------------------------------------------
  alpha Z        PSCENC =       319.39250915
  Ewald energy   TEWEN  =     -3994.21553490
  -1/2 Hartree   DENC   =     -1475.95374384
  -V(xc)+E(xc)   XCENC  =       169.60588291
  PAW double counting   =      4247.03135744    -4813.82001219
  entropy T*S    EENTRO =        -0.00004043
  eigenvalues    EBANDS =       -29.58686444
  atomic energy  EATOM  =      5563.90732063
  ---------------------------------------------------
  free energy    TOTEN  =       -13.63912566 eV

  energy without entropy =      -13.63908523  energy(sigma->0) =      -13.63910544


--------------------------------------------------------------------------------------------------------




----------------------------------------- Iteration    1(   8)  ---------------------------------------


    POTLOK:  VPU time    0.12: CPU time    0.12
    SETDIJ:  VPU time    0.28: CPU time    0.28
    EDDAV :  VPU time   12.57: CPU time   12.58
    DOS   :  VPU time    0.00: CPU time   -0.00
    CHARGE:  VPU time    0.63: CPU time    0.64
    MIXING:  VPU time    0.00: CPU time    0.00
    ------------------------------------------
      LOOP:  VPU time   13.62: CPU time   13.63

 eigenvalue-minimisations  :  5288
 total energy-change (2. order) :-0.2223851E-02  (-0.1756114E-01)
 number of electron   44.0000003 magnetization 
 augmentation part    28.8824311 magnetization 

 Broyden mixing:
  rms(total) = 0.99317E-01    rms(broyden)= 0.99313E-01
  rms(prec ) = 0.23323E+00
  weight for this iteration     100.00

 eigenvalues of (default mixing * dielectric matrix)
  average eigenvalue GAMMA=   1.4579
  0.6471  0.9893  2.7374

 Free energy of the ion-electron system (eV)
  ---------------------------------------------------
  alpha Z        PSCENC =       319.39250915
  Ewald energy   TEWEN  =     -3994.21553490
  -1/2 Hartree   DENC   =     -1471.98517186
  -V(xc)+E(xc)   XCENC  =       169.48909907
  PAW double counting   =      4270.60417222    -4845.99745054
  entropy T*S    EENTRO =        -0.00012923
  eigenvalues    EBANDS =       -24.83616405
  atomic energy  EATOM  =      5563.90732063
  ---------------------------------------------------
  free energy    TOTEN  =       -13.64134951 eV

  energy without entropy =      -13.64122028  energy(sigma->0) =      -13.64128490


--------------------------------------------------------------------------------------------------------




----------------------------------------- Iteration    1(   9)  ---------------------------------------


    POTLOK:  VPU time    0.12: CPU time    0.12
    SETDIJ:  VPU time    0.28: CPU time    0.28
    EDDAV :  VPU time   12.09: CPU time   12.13
    DOS   :  VPU time    0.00: CPU time   -0.00
    CHARGE:  VPU time    0.63: CPU time    0.63
    MIXING:  VPU time    0.01: CPU time    0.01
    ------------------------------------------
      LOOP:  VPU time   13.14: CPU time   13.18

 eigenvalue-minimisations  :  5016
 total energy-change (2. order) : 0.1879986E-01  (-0.8547574E-02)
 number of electron   44.0000003 magnetization 
 augmentation part    29.0520776 magnetization 

 Broyden mixing:
  rms(total) = 0.14440E-01    rms(broyden)= 0.14439E-01
  rms(prec ) = 0.33276E-01
  weight for this iteration     100.00

 eigenvalues of (default mixing * dielectric matrix)
  average eigenvalue GAMMA=   1.5239
  0.6594  0.8660  2.6275  1.9429

 Free energy of the ion-electron system (eV)
  ---------------------------------------------------
  alpha Z        PSCENC =       319.39250915
  Ewald energy   TEWEN  =     -3994.21553490
  -1/2 Hartree   DENC   =     -1463.92507474
  -V(xc)+E(xc)   XCENC  =       169.12257531
  PAW double counting   =      4269.19759394    -4845.04785456
  entropy T*S    EENTRO =        -0.00004043
  eigenvalues    EBANDS =       -32.05404406
  atomic energy  EATOM  =      5563.90732063
  ---------------------------------------------------
  free energy    TOTEN  =       -13.62254965 eV

  energy without entropy =      -13.62250922  energy(sigma->0) =      -13.62252944


--------------------------------------------------------------------------------------------------------




----------------------------------------- Iteration    1(  10)  ---------------------------------------


    POTLOK:  VPU time    0.12: CPU time    0.13
    SETDIJ:  VPU time    0.28: CPU time    0.28
    EDDAV :  VPU time   11.94: CPU time   11.96
    DOS   :  VPU time    0.00: CPU time   -0.00
    CHARGE:  VPU time    1.09: CPU time    1.10
    MIXING:  VPU time    0.01: CPU time    0.01
    ------------------------------------------
      LOOP:  VPU time   13.46: CPU time   13.49

 eigenvalue-minimisations  :  5160
 total energy-change (2. order) : 0.2779048E-03  (-0.1923487E-03)
 number of electron   44.0000003 magnetization 
 augmentation part    29.0352987 magnetization 

 Broyden mixing:
  rms(total) = 0.29402E-02    rms(broyden)= 0.29402E-02
  rms(prec ) = 0.65338E-02
  weight for this iteration     100.00

 eigenvalues of (default mixing * dielectric matrix)
  average eigenvalue GAMMA=   1.5328
  2.5347  2.5347  0.6570  1.0066  0.9309

 Free energy of the ion-electron system (eV)
  ---------------------------------------------------
  alpha Z        PSCENC =       319.39250915
  Ewald energy   TEWEN  =     -3994.21553490
  -1/2 Hartree   DENC   =     -1464.81403388
  -V(xc)+E(xc)   XCENC  =       169.16366630
  PAW double counting   =      4270.52928787    -4846.29770194
  entropy T*S    EENTRO =        -0.00004043
  eigenvalues    EBANDS =       -31.28774455
  atomic energy  EATOM  =      5563.90732063
  ---------------------------------------------------
  free energy    TOTEN  =       -13.62227175 eV

  energy without entropy =      -13.62223131  energy(sigma->0) =      -13.62225153


--------------------------------------------------------------------------------------------------------




----------------------------------------- Iteration    1(  11)  ---------------------------------------


    POTLOK:  VPU time    0.11: CPU time    0.11
    SETDIJ:  VPU time    0.23: CPU time    0.23
    EDDAV :  VPU time    8.45: CPU time    8.45
    DOS   :  VPU time   -0.00: CPU time   -0.00
    CHARGE:  VPU time    0.42: CPU time    0.42
    MIXING:  VPU time    0.00: CPU time    0.00
    ------------------------------------------
      LOOP:  VPU time    9.23: CPU time    9.23

 eigenvalue-minimisations  :  4988
 total energy-change (2. order) : 0.9963972E-05  (-0.6917106E-05)
 number of electron   44.0000003 magnetization 
 augmentation part    29.0314211 magnetization 

 Broyden mixing:
  rms(total) = 0.35419E-03    rms(broyden)= 0.35398E-03
  rms(prec ) = 0.83184E-03
  weight for this iteration     100.00

 eigenvalues of (default mixing * dielectric matrix)
  average eigenvalue GAMMA=   1.4943
  2.5901  2.5901  0.6573  0.9349  0.9349  1.2587

 Free energy of the ion-electron system (eV)
  ---------------------------------------------------
  alpha Z        PSCENC =       319.39250915
  Ewald energy   TEWEN  =     -3994.21553490
  -1/2 Hartree   DENC   =     -1465.11046991
  -V(xc)+E(xc)   XCENC  =       169.17706834
  PAW double counting   =      4271.93940241    -4847.58802114
  entropy T*S    EENTRO =        -0.00004043
  eigenvalues    EBANDS =       -31.12449593
  atomic energy  EATOM  =      5563.90732063
  ---------------------------------------------------
  free energy    TOTEN  =       -13.62226178 eV

  energy without entropy =      -13.62222135  energy(sigma->0) =      -13.62224157


--------------------------------------------------------------------------------------------------------




----------------------------------------- Iteration    1(  12)  ---------------------------------------


    POTLOK:  VPU time    0.07: CPU time    0.08
    SETDIJ:  VPU time    0.16: CPU time    0.16
    EDDAV :  VPU time    5.06: CPU time    5.06
    DOS   :  VPU time    0.00: CPU time   -0.00
    CHARGE:  VPU time    0.42: CPU time    0.42
    MIXING:  VPU time    0.00: CPU time    0.00
    ------------------------------------------
      LOOP:  VPU time    5.73: CPU time    5.74

 eigenvalue-minimisations  :  4908
 total energy-change (2. order) :-0.2260374E-05  (-0.2044168E-06)
 number of electron   44.0000003 magnetization 
 augmentation part    29.0314710 magnetization 

 Broyden mixing:
  rms(total) = 0.14105E-03    rms(broyden)= 0.14103E-03
  rms(prec ) = 0.29457E-03
  weight for this iteration     100.00

 eigenvalues of (default mixing * dielectric matrix)
  average eigenvalue GAMMA=   1.6617
  2.7580  2.7580  2.5265  0.6574  0.8964  1.0176  1.0176

 Free energy of the ion-electron system (eV)
  ---------------------------------------------------
  alpha Z        PSCENC =       319.39250915
  Ewald energy   TEWEN  =     -3994.21553490
  -1/2 Hartree   DENC   =     -1465.06997029
  -V(xc)+E(xc)   XCENC  =       169.17541787
  PAW double counting   =      4272.01348345    -4847.69248558
  entropy T*S    EENTRO =        -0.00004043
  eigenvalues    EBANDS =       -31.13296395
  atomic energy  EATOM  =      5563.90732063
  ---------------------------------------------------
  free energy    TOTEN  =       -13.62226404 eV

  energy without entropy =      -13.62222361  energy(sigma->0) =      -13.62224383


--------------------------------------------------------------------------------------------------------




----------------------------------------- Iteration    1(  13)  ---------------------------------------


    POTLOK:  VPU time    0.07: CPU time    0.08
    SETDIJ:  VPU time    0.16: CPU time    0.16
    EDDAV :  VPU time    3.84: CPU time    3.84
    DOS   :  VPU time    0.00: CPU time   -0.00
    CHARGE:  VPU time    0.43: CPU time    0.43
    MIXING:  VPU time    0.00: CPU time    0.00
    ------------------------------------------
      LOOP:  VPU time    4.52: CPU time    4.52

 eigenvalue-minimisations  :  3236
 total energy-change (2. order) :-0.7673116E-06  (-0.1325335E-08)
 number of electron   44.0000003 magnetization 
 augmentation part    29.0314812 magnetization 

 Broyden mixing:
  rms(total) = 0.92460E-04    rms(broyden)= 0.92460E-04
  rms(prec ) = 0.20946E-03
  weight for this iteration     100.00

 eigenvalues of (default mixing * dielectric matrix)
  average eigenvalue GAMMA=   1.5629
  2.8318  2.5494  2.5494  0.6574  1.0603  1.0603  0.8973  0.8973

 Free energy of the ion-electron system (eV)
  ---------------------------------------------------
  alpha Z        PSCENC =       319.39250915
  Ewald energy   TEWEN  =     -3994.21553490
  -1/2 Hartree   DENC   =     -1465.06448983
  -V(xc)+E(xc)   XCENC  =       169.17513218
  PAW double counting   =      4271.95774285    -4847.64238386
  entropy T*S    EENTRO =        -0.00004043
  eigenvalues    EBANDS =       -31.13252059
  atomic energy  EATOM  =      5563.90732063
  ---------------------------------------------------
  free energy    TOTEN  =       -13.62226481 eV

  energy without entropy =      -13.62222438  energy(sigma->0) =      -13.62224459


--------------------------------------------------------------------------------------------------------




----------------------------------------- Iteration    1(  14)  ---------------------------------------


    POTLOK:  VPU time    0.07: CPU time    0.08
    SETDIJ:  VPU time    0.16: CPU time    0.16
    EDDAV :  VPU time    4.81: CPU time    4.82
    DOS   :  VPU time    0.00: CPU time   -0.00
    CHARGE:  VPU time    0.42: CPU time    0.42
    MIXING:  VPU time    0.00: CPU time    0.00
    ------------------------------------------
      LOOP:  VPU time    5.49: CPU time    5.49

 eigenvalue-minimisations  :  4456
 total energy-change (2. order) : 0.1332319E-07  (-0.6030451E-08)
 number of electron   44.0000003 magnetization 
 augmentation part    29.0316215 magnetization 

 Broyden mixing:
  rms(total) = 0.54336E-05    rms(broyden)= 0.54295E-05
  rms(prec ) = 0.12821E-04
  weight for this iteration     100.00

 eigenvalues of (default mixing * dielectric matrix)
  average eigenvalue GAMMA=   1.5840
  2.8576  2.6135  2.4921  1.6457  0.6574  0.9016  0.9824  0.9824  1.1233

 Free energy of the ion-electron system (eV)
  ---------------------------------------------------
  alpha Z        PSCENC =       319.39250915
  Ewald energy   TEWEN  =     -3994.21553490
  -1/2 Hartree   DENC   =     -1465.06017860
  -V(xc)+E(xc)   XCENC  =       169.17492474
  PAW double counting   =      4271.95549647    -4847.63848374
  entropy T*S    EENTRO =        -0.00004043
  eigenvalues    EBANDS =       -31.13827811
  atomic energy  EATOM  =      5563.90732063
  ---------------------------------------------------
  free energy    TOTEN  =       -13.62226480 eV

  energy without entropy =      -13.62222436  energy(sigma->0) =      -13.62224458


--------------------------------------------------------------------------------------------------------




----------------------------------------- Iteration    1(  15)  ---------------------------------------


    POTLOK:  VPU time    0.07: CPU time    0.08
    SETDIJ:  VPU time    0.16: CPU time    0.16
    EDDAV :  VPU time    3.36: CPU time    3.36
    DOS   :  VPU time    0.00: CPU time   -0.00
    CHARGE:  VPU time    0.42: CPU time    0.42
    MIXING:  VPU time    0.00: CPU time    0.01
    ------------------------------------------
      LOOP:  VPU time    4.04: CPU time    4.04

 eigenvalue-minimisations  :  2488
 total energy-change (2. order) : 0.1841545E-07  (-0.1314862E-09)
 number of electron   44.0000003 magnetization 
 augmentation part    29.0316292 magnetization 

 Broyden mixing:
  rms(total) = 0.16029E-05    rms(broyden)= 0.16020E-05
  rms(prec ) = 0.32168E-05
  weight for this iteration     100.00

 eigenvalues of (default mixing * dielectric matrix)
  average eigenvalue GAMMA=   1.6370
  2.7667  2.7667  2.6452  2.5351  0.6574  1.1135  0.9049  1.0429  0.9690  0.9690

 Free energy of the ion-electron system (eV)
  ---------------------------------------------------
  alpha Z        PSCENC =       319.39250915
  Ewald energy   TEWEN  =     -3994.21553490
  -1/2 Hartree   DENC   =     -1465.06001758
  -V(xc)+E(xc)   XCENC  =       169.17491726
  PAW double counting   =      4271.95473887    -4847.63762826
  entropy T*S    EENTRO =        -0.00004043
  eigenvalues    EBANDS =       -31.13852952
  atomic energy  EATOM  =      5563.90732063
  ---------------------------------------------------
  free energy    TOTEN  =       -13.62226478 eV

  energy without entropy =      -13.62222435  energy(sigma->0) =      -13.62224456


--------------------------------------------------------------------------------------------------------




----------------------------------------- Iteration    1(  16)  ---------------------------------------


    POTLOK:  VPU time    0.07: CPU time    0.07
    SETDIJ:  VPU time    0.16: CPU time    0.16
    EDDAV :  VPU time    3.35: CPU time    3.35
    DOS   :  VPU time    0.00: CPU time   -0.00
    ------------------------------------------
      LOOP:  VPU time    3.59: CPU time    3.60

 eigenvalue-minimisations  :  2472
 total energy-change (2. order) : 0.4190042E-08  (-0.1202758E-10)
 number of electron   44.0000003 magnetization 
 augmentation part    29.0316292 magnetization 

 Free energy of the ion-electron system (eV)
  ---------------------------------------------------
  alpha Z        PSCENC =       319.39250915
  Ewald energy   TEWEN  =     -3994.21553490
  -1/2 Hartree   DENC   =     -1465.05979563
  -V(xc)+E(xc)   XCENC  =       169.17490808
  PAW double counting   =      4271.95417198    -4847.63716839
  entropy T*S    EENTRO =        -0.00004043
  eigenvalues    EBANDS =       -31.13863526
  atomic energy  EATOM  =      5563.90732063
  ---------------------------------------------------
  free energy    TOTEN  =       -13.62226477 eV

  energy without entropy =      -13.62222434  energy(sigma->0) =      -13.62224456


--------------------------------------------------------------------------------------------------------




 average (electrostatic) potential at core
  the test charge radii are     1.0053
  (the norm of the test charge is              1.0000)
       1 -41.5577       2 -41.5577       3 -41.5577       4 -41.5577
 
 
 
 E-fermi :   1.6167     XC(G=0): -11.1186     alpha+bet : -7.1086
   add alpha+bet to get absolut eigen values

 k-point   1 :       0.0000    0.0000    0.0000
  band No.  band energies     occupation 
      1      -5.7051      2.00000
      2      -1.8441      2.00000
      3      -1.8441      2.00000
      4      -1.8441      2.00000
      5      -1.5561      2.00000
      6      -1.5561      2.00000
      7      -1.5561      2.00000
      8      -0.6957      2.00000
      9      -0.6957      2.00000
     10      -0.6957      2.00000
     11      -0.1804      2.00000
     12      -0.1804      2.00000
     13       0.1642      2.00000
     14       0.1642      2.00000
     15       0.1642      2.00000
     16       0.2603      2.00000
     17       0.2603      2.00000
     18       0.2603      2.00000
     19       0.2603      2.00000
     20       0.2603      2.00000
     21       0.2603      2.00000
     22       3.2973      0.00000
     23       3.2973      0.00000
     24       3.2973      0.00000
     25       6.7903      0.00000
     26       6.7903      0.00000
     27       6.7903      0.00000
     28      12.5396      0.00000

 k-point   2 :       0.0833    0.0000    0.0000
  band No.  band energies     occupation 
      1      -5.6370      2.00000
      2      -1.8480      2.00000
      3      -1.8170      2.00000
      4      -1.8170      2.00000
      5      -1.5418      2.00000
      6      -1.5408      2.00000
      7      -1.5408      2.00000
      8      -0.7107      2.00000
      9      -0.6829      2.00000
     10      -0.6829      2.00000
     11      -0.1940      2.00000
     12      -0.1746      2.00000
     13       0.1467      2.00000
     14       0.1467      2.00000
     15       0.1583      2.00000
     16       0.1827      2.00000
     17       0.1827      2.00000
     18       0.2394      2.00000
     19       0.2394      2.00000
     20       0.2604      2.00000
     21       0.2604      2.00000
     22       2.7525      0.00000
     23       3.4391      0.00000
     24       3.4391      0.00000
     25       6.8222      0.00000
     26       6.8222      0.00000
     27       7.4799      0.00000
     28      12.0605      0.00000

 k-point   3 :       0.1667    0.0000    0.0000
  band No.  band energies     occupation 
      1      -5.4338      2.00000
      2      -1.8730      2.00000
      3      -1.7395      2.00000
      4      -1.7395      2.00000
      5      -1.4999      2.00000
      6      -1.4944      2.00000
      7      -1.4944      2.00000
      8      -0.7547      2.00000
      9      -0.6449      2.00000
     10      -0.6449      2.00000
     11      -0.2333      2.00000
     12      -0.1576      2.00000
     13      -0.0143      2.00000
     14      -0.0143      2.00000
     15       0.0956      2.00000
     16       0.0956      2.00000
     17       0.1408      2.00000
     18       0.1791      2.00000
     19       0.1791      2.00000
     20       0.2604      2.00000
     21       0.2604      2.00000
     22       1.7238      0.00000
     23       3.8282      0.00000
     24       3.8282      0.00000
     25       6.9202      0.00000
     26       6.9202      0.00000
     27       8.9554      0.00000
     28      11.0580      0.00000

 k-point   4 :       0.2500    0.0000    0.0000
  band No.  band energies     occupation 
      1      -5.0988      2.00000
      2      -1.9703      2.00000
      3      -1.6239      2.00000
      4      -1.6239      2.00000
      5      -1.4330      2.00000
      6      -1.4162      2.00000
      7      -1.4162      2.00000
      8      -0.8245      2.00000
      9      -0.5827      2.00000
     10      -0.5827      2.00000
     11      -0.2932      2.00000
     12      -0.2655      2.00000
     13      -0.2655      2.00000
     14      -0.1306      2.00000
     15       0.0164      2.00000
     16       0.0164      2.00000
     17       0.0869      2.00000
     18       0.0869      2.00000
     19       0.1131      2.00000
     20       0.2606      2.00000
     21       0.2606      2.00000
     22       0.7345      2.00000
     23       4.3985      0.00000
     24       4.3985      0.00000
     25       7.0900      0.00000
     26       7.0900      0.00000
     27       9.9412      0.00000
     28       9.9412      0.00000

 k-point   5 :       0.3333    0.0000    0.0000
  band No.  band energies     occupation 
      1      -4.6392      2.00000
      2      -2.2446      2.00000
      3      -1.4930      2.00000
      4      -1.4930      2.00000
      5      -1.3453      2.00000
      6      -1.3049      2.00000
      7      -1.3049      2.00000
      8      -0.9150      2.00000
      9      -0.5244      2.00000
     10      -0.5244      2.00000
     11      -0.4984      2.00000
     12      -0.4984      2.00000
     13      -0.3638      2.00000
     14      -0.0952      2.00000
     15      -0.0780      2.00000
     16      -0.0780      2.00000
     17      -0.0270      2.00000
     18      -0.0270      2.00000
     19       0.0098      2.00000
     20       0.0771      2.00000
     21       0.2607      2.00000
     22       0.2607      2.00000
     23       5.1015      0.00000
     24       5.1015      0.00000
     25       7.3378      0.00000
     26       7.3378      0.00000
     27       8.8377      0.00000
     28       8.8377      0.00000

 k-point   6 :       0.4167    0.0000    0.0000
  band No.  band energies     occupation 
      1      -4.0695      2.00000
      2      -2.7649      2.00000
      3      -1.3826      2.00000
      4      -1.3826      2.00000
      5      -1.2426      2.00000
      6      -1.1595      2.00000
      7      -1.1595      2.00000
      8      -1.0198      2.00000
      9      -0.7663      2.00000
     10      -0.7663      2.00000
     11      -0.4272      2.00000
     12      -0.3950      2.00000
     13      -0.3950      2.00000
     14      -0.3499      2.00000
     15      -0.1615      2.00000
     16      -0.1615      2.00000
     17      -0.1518      2.00000
     18      -0.1518      2.00000
     19      -0.0538      2.00000
     20       0.0353      2.00000
     21       0.2607      2.00000
     22       0.2607      2.00000
     23       5.9100      0.00000
     24       5.9100      0.00000
     25       7.6562      0.00000
     26       7.6562      0.00000
     27       7.7880      0.00000
     28       7.7880      0.00000

 k-point   7 :       0.5000    0.0000    0.0000
  band No.  band energies     occupation 
      1      -3.4206      2.00000
      2      -3.4206      2.00000
      3      -1.3377      2.00000
      4      -1.3377      2.00000
      5      -1.1316      2.00000
      6      -1.1316      2.00000
      7      -0.9795      2.00000
      8      -0.9795      2.00000
      9      -0.9795      2.00000
     10      -0.9795      2.00000
     11      -0.4479      2.00000
     12      -0.4479      2.00000
     13      -0.2773      2.00000
     14      -0.2773      2.00000
     15      -0.2773      2.00000
     16      -0.2773      2.00000
     17      -0.1965      2.00000
     18      -0.1965      2.00000
     19      -0.0093      2.00000
     20      -0.0093      2.00000
     21       0.2608      2.00000
     22       0.2608      2.00000
     23       6.8088      0.00000
     24       6.8088      0.00000
     25       6.8088      0.00000
     26       6.8088      0.00000
     27       7.8901      0.00000
     28       7.8901      0.00000

 k-point   8 :       0.0833    0.0833    0.0000
  band No.  band energies     occupation 
      1      -5.5692      2.00000
      2      -1.8200      2.00000
      3      -1.8200      2.00000
      4      -1.7907      2.00000
      5      -1.5268      2.00000
      6      -1.5268      2.00000
      7      -1.5258      2.00000
      8      -0.7186      2.00000
      9      -0.6770      2.00000
     10      -0.6714      2.00000
     11      -0.1976      2.00000
     12      -0.1776      2.00000
     13       0.1244      2.00000
     14       0.1244      2.00000
     15       0.1248      2.00000
     16       0.1299      2.00000
     17       0.1744      2.00000
     18       0.1744      2.00000
     19       0.2393      2.00000
     20       0.2393      2.00000
     21       0.2466      2.00000
     22       2.8873      0.00000
     23       2.8873      0.00000
     24       3.5750      0.00000
     25       6.8548      0.00000
     26       7.5220      0.00000
     27       7.5220      0.00000
     28      11.0471      0.00000

 k-point   9 :       0.1667    0.0833    0.0000
  band No.  band energies     occupation 
      1      -5.3666      2.00000
      2      -1.8425      2.00000
      3      -1.7402      2.00000
      4      -1.7158      2.00000
      5      -1.4857      2.00000
      6      -1.4813      2.00000
      7      -1.4806      2.00000
      8      -0.7580      2.00000
      9      -0.6427      2.00000
     10      -0.6374      2.00000
     11      -0.2315      2.00000
     12      -0.1620      2.00000
     13      -0.0575      2.00000
     14      -0.0518      2.00000
     15       0.0548      2.00000
     16       0.0808      2.00000
     17       0.1033      2.00000
     18       0.1523      2.00000
     19       0.1789      2.00000
     20       0.2392      2.00000
     21       0.2394      2.00000
     22       1.8629      0.00000
     23       3.2490      0.00000
     24       3.9512      0.00000
     25       6.9542      0.00000
     26       7.6502      0.00000
     27       9.0048      0.00000
     28       9.8889      0.00000

 k-point  10 :       0.2500    0.0833    0.0000
  band No.  band energies     occupation 
      1      -5.0328      2.00000
      2      -1.9348      2.00000
      3      -1.6208      2.00000
      4      -1.6039      2.00000
      5      -1.4201      2.00000
      6      -1.4049      2.00000
      7      -1.4045      2.00000
      8      -0.8253      2.00000
      9      -0.5835      2.00000
     10      -0.5816      2.00000
     11      -0.3080      2.00000
     12      -0.2882      2.00000
     13      -0.2862      2.00000
     14      -0.1318      2.00000
     15      -0.0689      2.00000
     16       0.0046      2.00000
     17       0.0230      2.00000
     18       0.0866      2.00000
     19       0.1167      2.00000
     20       0.2377      2.00000
     21       0.2391      2.00000
     22       0.9074      2.00000
     23       3.7652      0.00000
     24       4.5089      0.00000
     25       7.1244      0.00000
     26       7.8690      0.00000
     27       8.7725      0.00000
     28      10.0226      0.00000

 k-point  11 :       0.3333    0.0833    0.0000
  band No.  band energies     occupation 
      1      -4.5752      2.00000
      2      -2.2019      2.00000
      3      -1.4848      2.00000
      4      -1.4752      2.00000
      5      -1.3342      2.00000
      6      -1.3000      2.00000
      7      -1.2955      2.00000
      8      -0.9134      2.00000
      9      -0.5634      2.00000
     10      -0.5362      2.00000
     11      -0.5213      2.00000
     12      -0.4979      2.00000
     13      -0.3395      2.00000
     14      -0.2657      2.00000
     15      -0.0915      2.00000
     16      -0.0862      2.00000
     17      -0.0716      2.00000
     18      -0.0275      2.00000
     19       0.0575      2.00000
     20       0.2375      2.00000
     21       0.2388      2.00000
     22       0.2835      2.00000
     23       4.3883      0.00000
     24       5.2018      0.00000
     25       7.3357      0.00000
     26       7.7783      0.00000
     27       8.1755      0.00000
     28       8.9195      0.00000

 k-point  12 :       0.4167    0.0833    0.0000
  band No.  band energies     occupation 
      1      -4.0083      2.00000
      2      -2.7144      2.00000
      3      -1.3681      2.00000
      4      -1.3628      2.00000
      5      -1.2336      2.00000
      6      -1.1681      2.00000
      7      -1.1532      2.00000
      8      -1.0157      2.00000
      9      -0.7988      2.00000
     10      -0.7701      2.00000
     11      -0.4988      2.00000
     12      -0.4529      2.00000
     13      -0.3949      2.00000
     14      -0.3278      2.00000
     15      -0.1655      2.00000
     16      -0.1568      2.00000
     17      -0.1522      2.00000
     18      -0.0807      2.00000
     19      -0.0438      2.00000
     20       0.0776      2.00000
     21       0.2377      2.00000
     22       0.2385      2.00000
     23       5.0956      0.00000
     24       6.0029      0.00000
     25       6.7341      0.00000
     26       7.7791      0.00000
     27       7.8720      0.00000
     28       8.4617      0.00000

 k-point  13 :       0.5000    0.0833    0.0000
  band No.  band energies     occupation 
      1      -3.3638      2.00000
      2      -3.3638      2.00000
      3      -1.3179      2.00000
      4      -1.3179      2.00000
      5      -1.1250      2.00000
      6      -1.1250      2.00000
      7      -1.0025      2.00000
      8      -1.0025      2.00000
      9      -0.9775      2.00000
     10      -0.9775      2.00000
     11      -0.5108      2.00000
     12      -0.5108      2.00000
     13      -0.2775      2.00000
     14      -0.2775      2.00000
     15      -0.2267      2.00000
     16      -0.2267      2.00000
     17      -0.1958      2.00000
     18      -0.1958      2.00000
     19       0.0101      2.00000
     20       0.0101      2.00000
     21       0.2381      2.00000
     22       0.2381      2.00000
     23       5.8792      0.00000
     24       5.8792      0.00000
     25       6.8964      0.00000
     26       6.8964      0.00000
     27       8.2008      0.00000
     28       8.2008      0.00000

 k-point  14 :       0.1667    0.1667    0.0000
  band No.  band energies     occupation 
      1      -5.1661      2.00000
      2      -1.7550      2.00000
      3      -1.7550      2.00000
      4      -1.6485      2.00000
      5      -1.4427      2.00000
      6      -1.4427      2.00000
      7      -1.4387      2.00000
      8      -0.7806      2.00000
      9      -0.6226      2.00000
     10      -0.6155      2.00000
     11      -0.2435      2.00000
     12      -0.1727      2.00000
     13      -0.1636      2.00000
     14      -0.1636      2.00000
     15      -0.1562      2.00000
     16       0.0374      2.00000
     17       0.1020      2.00000
     18       0.1020      2.00000
     19       0.1784      2.00000
     20       0.1784      2.00000
     21       0.2059      2.00000
     22       2.2129      0.00000
     23       2.2129      0.00000
     24       4.2987      0.00000
     25       7.0560      0.00000
     26       8.6369      0.00000
     27       9.1519      0.00000
     28       9.1519      0.00000

 k-point  15 :       0.2500    0.1667    0.0000
  band No.  band energies     occupation 
      1      -4.8361      2.00000
      2      -1.8331      2.00000
      3      -1.6234      2.00000
      4      -1.5483      2.00000
      5      -1.3812      2.00000
      6      -1.3704      2.00000
      7      -1.3696      2.00000
      8      -0.8340      2.00000
      9      -0.5834      2.00000
     10      -0.5714      2.00000
     11      -0.4181      2.00000
     12      -0.3603      2.00000
     13      -0.3187      2.00000
     14      -0.2819      2.00000
     15      -0.1204      2.00000
     16      -0.0305      2.00000
     17       0.0263      2.00000
     18       0.0751      2.00000
     19       0.0857      2.00000
     20       0.1777      2.00000
     21       0.1869      2.00000
     22       1.2639      2.00000
     23       2.6868      0.00000
     24       4.8259      0.00000
     25       7.1774      0.00000
     26       7.5370      0.00000
     27       9.3832      0.00000
     28      10.2638      0.00000

 k-point  16 :       0.3333    0.1667    0.0000
  band No.  band energies     occupation 
      1      -4.3846      2.00000
      2      -2.0791      2.00000
      3      -1.4708      2.00000
      4      -1.4288      2.00000
      5      -1.3009      2.00000
      6      -1.2810      2.00000
      7      -1.2680      2.00000
      8      -0.9118      2.00000
      9      -0.6641      2.00000
     10      -0.5734      2.00000
     11      -0.5580      2.00000
     12      -0.4935      2.00000
     13      -0.4928      2.00000
     14      -0.3136      2.00000
     15      -0.1117      2.00000
     16      -0.0658      2.00000
     17      -0.0643      2.00000
     18      -0.0285      2.00000
     19       0.0160      2.00000
     20       0.1767      2.00000
     21       0.1789      2.00000
     22       0.6029      2.00000
     23       3.2484      0.00000
     24       5.4934      0.00000
     25       6.3814      0.00000
     26       7.5548      0.00000
     27       9.1618      0.00000
     28       9.5153      0.00000

 k-point  17 :       0.4167    0.1667    0.0000
  band No.  band energies     occupation 
      1      -3.8270      2.00000
      2      -2.5675      2.00000
      3      -1.3334      2.00000
      4      -1.3090      2.00000
      5      -1.2070      2.00000
      6      -1.1896      2.00000
      7      -1.1350      2.00000
      8      -1.0052      2.00000
      9      -0.8839      2.00000
     10      -0.7826      2.00000
     11      -0.5988      2.00000
     12      -0.5709      2.00000
     13      -0.3928      2.00000
     14      -0.2883      2.00000
     15      -0.1804      2.00000
     16      -0.1529      2.00000
     17      -0.1526      2.00000
     18      -0.0826      2.00000
     19       0.0075      2.00000
     20       0.1758      2.00000
     21       0.1759      2.00000
     22       0.2604      2.00000
     23       3.8913      0.00000
     24       5.4504      0.00000
     25       6.2750      0.00000
     26       7.9235      0.00000
     27       8.1199      0.00000
     28       9.0022      0.00000

 k-point  18 :       0.5000    0.1667    0.0000
  band No.  band energies     occupation 
      1      -3.1966      2.00000
      2      -3.1966      2.00000
      3      -1.2622      2.00000
      4      -1.2622      2.00000
      5      -1.1061      2.00000
      6      -1.1061      2.00000
      7      -1.0664      2.00000
      8      -1.0664      2.00000
      9      -0.9722      2.00000
     10      -0.9722      2.00000
     11      -0.6056      2.00000
     12      -0.6056      2.00000
     13      -0.2772      2.00000
     14      -0.2772      2.00000
     15      -0.1996      2.00000
     16      -0.1996      2.00000
     17      -0.1994      2.00000
     18      -0.1994      2.00000
     19       0.1020      2.00000
     20       0.1020      2.00000
     21       0.1753      2.00000
     22       0.1753      2.00000
     23       4.6218      0.00000
     24       4.6218      0.00000
     25       7.1542      0.00000
     26       7.1542      0.00000
[...]
     14      -0.4608      2.00000
     15      -0.4608      2.00000
     16      -0.4608      2.00000
     17       0.0474      2.00000
     18       0.0474      2.00000
     19       0.0474      2.00000
     20       0.0474      2.00000
     21       1.2117      2.00000
     22       1.2117      2.00000
     23       1.2117      2.00000
     24       1.2117      2.00000
     25       5.9492      0.00000
     26       5.9492      0.00000
     27       5.9492      0.00000
     28       5.9492      0.00000

 k-point  75 :       0.3333    0.3333    0.3333
  band No.  band energies     occupation 
      1      -2.8958      2.00000
      2      -1.7689      2.00000
      3      -1.7689      2.00000
      4      -1.7689      2.00000
      5      -0.8968      2.00000
      6      -0.8968      2.00000
      7      -0.8968      2.00000
      8      -0.6389      2.00000
      9      -0.6389      2.00000
     10      -0.6087      2.00000
     11      -0.5843      2.00000
     12      -0.5843      2.00000
     13      -0.5843      2.00000
     14      -0.5041      2.00000
     15      -0.5041      2.00000
     16      -0.5041      2.00000
     17       0.0082      2.00000
     18       0.0082      2.00000
     19       0.1854      2.00000
     20       0.1854      2.00000
     21       0.1854      2.00000
     22       2.0240      0.00000
     23       2.0240      0.00000
     24       2.0240      0.00000
     25       5.3552      0.00000
     26       5.3552      0.00000
     27       5.3552      0.00000
     28       8.4568      0.00000

 k-point  76 :       0.4167    0.3333    0.3333
  band No.  band energies     occupation 
      1      -2.5665      2.00000
      2      -1.9881      2.00000
      3      -1.7908      2.00000
      4      -1.7908      2.00000
      5      -0.8598      2.00000
      6      -0.8598      2.00000
      7      -0.7976      2.00000
      8      -0.6689      2.00000
      9      -0.6420      2.00000
     10      -0.5722      2.00000
     11      -0.5494      2.00000
     12      -0.5494      2.00000
     13      -0.5228      2.00000
     14      -0.4731      2.00000
     15      -0.4643      2.00000
     16      -0.4643      2.00000
     17       0.0863      2.00000
     18       0.1106      2.00000
     19       0.1674      2.00000
     20       0.1674      2.00000
     21       0.1781      2.00000
     22       1.1630      2.00000
     23       2.3501      0.00000
     24       2.3501      0.00000
     25       4.5787      0.00000
     26       4.5787      0.00000
     27       5.9387      0.00000
     28       7.4913      0.00000

 k-point  77 :       0.5000    0.3333    0.3333
  band No.  band energies     occupation 
      1      -2.2553      2.00000
      2      -2.2553      2.00000
      3      -1.7986      2.00000
      4      -1.7986      2.00000
      5      -0.8492      2.00000
      6      -0.8492      2.00000
      7      -0.7200      2.00000
      8      -0.7200      2.00000
      9      -0.6193      2.00000
     10      -0.6193      2.00000
     11      -0.5630      2.00000
     12      -0.5630      2.00000
     13      -0.4660      2.00000
     14      -0.4660      2.00000
     15      -0.4132      2.00000
     16      -0.4132      2.00000
     17       0.1443      2.00000
     18       0.1443      2.00000
     19       0.1539      2.00000
     20       0.1539      2.00000
     21       0.5054      2.00000
     22       0.5054      2.00000
     23       2.5316      0.00000
     24       2.5316      0.00000
     25       4.2444      0.00000
     26       4.2444      0.00000
     27       6.6517      0.00000
     28       6.6517      0.00000

 k-point  78 :       0.4167    0.4167    0.3333
  band No.  band energies     occupation 
      1      -2.3459      2.00000
      2      -1.9601      2.00000
      3      -1.9601      2.00000
      4      -1.8644      2.00000
      5      -0.8124      2.00000
      6      -0.7818      2.00000
      7      -0.7818      2.00000
      8      -0.6813      2.00000
      9      -0.6647      2.00000
     10      -0.6112      2.00000
     11      -0.6112      2.00000
     12      -0.6000      2.00000
     13      -0.3419      2.00000
     14      -0.3419      2.00000
     15      -0.3224      2.00000
     16      -0.2293      2.00000
     17       0.0627      2.00000
     18       0.1584      2.00000
     19       0.1634      2.00000
     20       0.1634      2.00000
     21       0.2933      2.00000
     22       1.4884      2.00000
     23       1.4884      2.00000
     24       2.2973      0.00000
     25       4.1871      0.00000
     26       5.0700      0.00000
     27       5.0700      0.00000
     28       6.5440      0.00000

 k-point  79 :       0.5000    0.4167    0.3333
  band No.  band energies     occupation 
      1      -2.1431      2.00000
      2      -2.1431      2.00000
      3      -1.9203      2.00000
      4      -1.9203      2.00000
      5      -0.7859      2.00000
      6      -0.7859      2.00000
      7      -0.7210      2.00000
      8      -0.7210      2.00000
      9      -0.6513      2.00000
     10      -0.6513      2.00000
     11      -0.6219      2.00000
     12      -0.6219      2.00000
     13      -0.2623      2.00000
     14      -0.2623      2.00000
     15      -0.2334      2.00000
     16      -0.2334      2.00000
     17       0.1238      2.00000
     18       0.1238      2.00000
     19       0.1459      2.00000
     20       0.1459      2.00000
     21       0.7660      2.00000
     22       0.7660      2.00000
     23       1.9216      0.00000
     24       1.9216      0.00000
     25       4.4314      0.00000
     26       4.4314      0.00000
     27       5.7344      0.00000
     28       5.7344      0.00000

 k-point  80 :       0.5000    0.5000    0.3333
  band No.  band energies     occupation 
      1      -2.0335      2.00000
      2      -2.0335      2.00000
      3      -2.0335      2.00000
      4      -2.0335      2.00000
      5      -0.7405      2.00000
      6      -0.7405      2.00000
      7      -0.7405      2.00000
      8      -0.7405      2.00000
      9      -0.6541      2.00000
     10      -0.6541      2.00000
     11      -0.6541      2.00000
     12      -0.6541      2.00000
     13      -0.1659      2.00000
     14      -0.1659      2.00000
     15      -0.1659      2.00000
     16      -0.1659      2.00000
     17       0.1153      2.00000
     18       0.1153      2.00000
     19       0.1153      2.00000
     20       0.1153      2.00000
     21       1.2629      2.00000
     22       1.2629      2.00000
     23       1.2629      2.00000
     24       1.2629      2.00000
     25       4.9808      0.00000
     26       4.9808      0.00000
     27       4.9808      0.00000
     28       4.9808      0.00000

 k-point  81 :       0.4167    0.4167    0.4167
  band No.  band energies     occupation 
      1      -2.2284      2.00000
      2      -1.9926      2.00000
      3      -1.9926      2.00000
      4      -1.9926      2.00000
      5      -0.7546      2.00000
      6      -0.7546      2.00000
      7      -0.7546      2.00000
      8      -0.6884      2.00000
      9      -0.6884      2.00000
     10      -0.6547      2.00000
     11      -0.6547      2.00000
     12      -0.6547      2.00000
     13      -0.1436      2.00000
     14      -0.1436      2.00000
     15      -0.1436      2.00000
     16       0.1272      2.00000
     17       0.1272      2.00000
     18       0.1766      2.00000
     19       0.1766      2.00000
     20       0.1766      2.00000
     21       0.3312      2.00000
     22       1.6556      0.00000
     23       1.6556      0.00000
     24       1.6556      0.00000
     25       4.3592      0.00000
     26       4.3592      0.00000
     27       4.3592      0.00000
     28       5.6325      0.00000

 k-point  82 :       0.5000    0.4167    0.4167
  band No.  band energies     occupation 
      1      -2.1125      2.00000
      2      -2.1125      2.00000
      3      -2.0039      2.00000
      4      -2.0039      2.00000
      5      -0.7439      2.00000
      6      -0.7439      2.00000
      7      -0.7124      2.00000
      8      -0.7124      2.00000
      9      -0.6850      2.00000
     10      -0.6850      2.00000
     11      -0.6709      2.00000
     12      -0.6709      2.00000
     13      -0.0575      2.00000
     14      -0.0575      2.00000
     15       0.0176      2.00000
     16       0.0176      2.00000
     17       0.1661      2.00000
     18       0.1661      2.00000
     19       0.1682      2.00000
     20       0.1682      2.00000
     21       0.9382      2.00000
     22       0.9382      2.00000
     23       1.7460      0.00000
     24       1.7460      0.00000
     25       4.0811      0.00000
     26       4.0811      0.00000
     27       4.8901      0.00000
     28       4.8901      0.00000

 k-point  83 :       0.5000    0.5000    0.4167
  band No.  band energies     occupation 
      1      -2.0674      2.00000
      2      -2.0674      2.00000
      3      -2.0674      2.00000
      4      -2.0674      2.00000
      5      -0.7167      2.00000
      6      -0.7167      2.00000
      7      -0.7167      2.00000
      8      -0.7167      2.00000
      9      -0.6945      2.00000
     10      -0.6945      2.00000
     11      -0.6945      2.00000
     12      -0.6945      2.00000
     13       0.0776      2.00000
     14       0.0776      2.00000
     15       0.0776      2.00000
     16       0.0776      2.00000
     17       0.1586      2.00000
     18       0.1586      2.00000
     19       0.1586      2.00000
     20       0.1586      2.00000
     21       1.3327      2.00000
     22       1.3327      2.00000
     23       1.3327      2.00000
     24       1.3327      2.00000
     25       4.2934      0.00000
     26       4.2934      0.00000
     27       4.2934      0.00000
     28       4.2934      0.00000

 k-point  84 :       0.5000    0.5000    0.5000
  band No.  band energies     occupation 
      1      -2.0792      2.00000
      2      -2.0792      2.00000
      3      -2.0792      2.00000
      4      -2.0792      2.00000
      5      -0.7082      2.00000
      6      -0.7082      2.00000
      7      -0.7082      2.00000
      8      -0.7082      2.00000
      9      -0.7082      2.00000
     10      -0.7082      2.00000
     11      -0.7082      2.00000
     12      -0.7082      2.00000
     13       0.1735      2.00000
     14       0.1735      2.00000
     15       0.1735      2.00000
     16       0.1735      2.00000
     17       0.1735      2.00000
     18       0.1735      2.00000
     19       0.1735      2.00000
     20       0.1735      2.00000
     21       1.3734      2.00000
     22       1.3734      2.00000
     23       1.3734      2.00000
     24       1.3734      2.00000
     25       4.0319      0.00000
     26       4.0319      0.00000
     27       4.0319      0.00000
     28       4.0319      0.00000


--------------------------------------------------------------------------------------------------------


 soft charge-density along one line, spin component           1
         0         1         2         3         4         5         6         7         8         9
 total charge-density along one line
 
 pseudopotential strength for first ion, spin component:           1
 -7.611  -0.000  -0.000  -0.000   0.000   0.270   0.000   0.000
 -0.000  -7.611   0.000  -0.000   0.000   0.000   0.270  -0.000
 -0.000   0.000  -7.597   0.000  -0.000   0.000  -0.000   0.264
 -0.000  -0.000   0.000  -7.611  -0.000   0.000  -0.000  -0.000
  0.000   0.000  -0.000  -0.000  -7.597  -0.000  -0.000   0.000
  0.270   0.000   0.000   0.000  -0.000   1.448  -0.000  -0.000
  0.000   0.270  -0.000  -0.000  -0.000  -0.000   1.448   0.000
  0.000  -0.000   0.264  -0.000   0.000  -0.000   0.000   1.451
  0.000  -0.000  -0.000   0.270   0.000  -0.000   0.000   0.000
 -0.000  -0.000   0.000   0.000   0.264   0.000   0.000  -0.000
 -0.000   0.000  -0.000   0.000  -0.000  -0.000   0.000  -0.000
  0.000  -0.000   0.000  -0.000   0.000  -0.000   0.000  -0.000
  0.000  -0.000  -0.000  -0.000  -0.000  -0.000   0.000   0.000
 -0.000   0.000  -0.000   0.000  -0.000  -0.000  -0.000   0.000
  0.000  -0.000  -0.000  -0.000   0.000  -0.000  -0.000   0.000
 -0.000   0.000   0.000   0.000   0.000   0.000  -0.000  -0.000
  0.000  -0.000   0.000  -0.000   0.000  -0.000   0.000  -0.000
 -0.000   0.000   0.000   0.000  -0.000   0.000  -0.000  -0.000
 total augmentation occupancy for first ion, spin component:           1
  1.855  -0.007  -0.011   0.000  -0.010  -0.034   0.004  -0.002  -0.003   0.008   0.025  -0.005  -0.000   0.000   0.000  -0.000
 -0.007   1.922  -0.001  -0.006  -0.005   0.004  -0.074   0.002   0.006  -0.001   0.048   0.004  -0.000  -0.000   0.000   0.000
 -0.011  -0.001   1.895   0.004  -0.015  -0.002   0.002  -0.056  -0.003   0.020  -0.016  -0.034   0.000  -0.000  -0.000  -0.000
  0.000  -0.006   0.004   1.910   0.002  -0.003   0.006  -0.003  -0.054   0.003   0.021  -0.000   0.000   0.000   0.000  -0.000
 -0.010  -0.005  -0.015   0.002   1.925   0.008  -0.001   0.020   0.003  -0.102   0.059   0.023  -0.000  -0.000  -0.000   0.000
 -0.034   0.004  -0.002  -0.003   0.008   0.047  -0.001   0.010   0.002  -0.004   0.017   0.009  -0.000  -0.000   0.000   0.000
  0.004  -0.074   0.002   0.006  -0.001  -0.001   0.034  -0.002  -0.003   0.005  -0.013   0.006  -0.000   0.000  -0.000   0.000
 -0.002   0.002  -0.056  -0.003   0.020   0.010  -0.002   0.035   0.000  -0.003   0.076  -0.007  -0.000  -0.000  -0.000   0.000
 -0.003   0.006  -0.003  -0.054   0.003   0.002  -0.003   0.000   0.028  -0.005   0.001   0.004   0.000   0.000  -0.000   0.000
  0.008  -0.001   0.020   0.003  -0.102  -0.004   0.005  -0.003  -0.005   0.032  -0.056   0.008  -0.000  -0.000   0.000   0.000
  0.025   0.048  -0.016   0.021   0.059   0.017  -0.013   0.076   0.001  -0.056   1.019  -0.228  -0.000  -0.000  -0.000  -0.000
 -0.005   0.004  -0.034  -0.000   0.023   0.009   0.006  -0.007   0.004   0.008  -0.228   0.077  -0.000  -0.000   0.000   0.000
 -0.000  -0.000   0.000   0.000  -0.000  -0.000  -0.000  -0.000   0.000  -0.000  -0.000  -0.000   0.101   0.014  -0.011  -0.006
  0.000  -0.000  -0.000   0.000  -0.000  -0.000   0.000  -0.000   0.000  -0.000  -0.000  -0.000   0.014   0.066  -0.001  -0.001
  0.000   0.000  -0.000   0.000  -0.000   0.000  -0.000  -0.000  -0.000   0.000  -0.000   0.000  -0.011  -0.001   0.160  -0.000
 -0.000   0.000  -0.000  -0.000   0.000   0.000   0.000   0.000   0.000   0.000  -0.000   0.000  -0.006  -0.001  -0.000   0.000
 -0.000  -0.000  -0.000   0.000   0.000   0.000   0.000   0.000  -0.000   0.000  -0.000   0.000  -0.001  -0.004  -0.000   0.000
 -0.000   0.000  -0.000   0.000  -0.000  -0.000  -0.000  -0.000  -0.000   0.000  -0.000  -0.000  -0.000  -0.000  -0.011   0.000


------------------------ aborting loop because EDIFF is reached ----------------------------------------




--------------------------------------------------------------------------------------------------------


    CHARGE:  VPU time    0.43: CPU time    0.43
    FORLOC:  VPU time    0.00: CPU time    0.00
    FORNL :  VPU time    1.63: CPU time    1.63
    STRESS:  VPU time    3.69: CPU time    3.69
    FORCOR:  VPU time    0.07: CPU time    0.07
    FORHAR:  VPU time    0.02: CPU time    0.02
    MIXING:  VPU time    0.00: CPU time    0.00


--------------------------------------------------------------------------------------------------------



  FREE ENERGIE OF THE ION-ELECTRON SYSTEM (eV)
  ---------------------------------------------------
  free  energy   TOTEN  =       -13.622265 eV

  energy  without entropy=      -13.622224  energy(sigma->0) =      -13.622245
 

  FORCE on cell =-STRESS in cart. coord.  units (eV/reduce length):
  Direction    X        Y        Z        XY       YZ       ZX
  --------------------------------------------------------------------------------------
  Alpha Z    319.39    319.39    319.39
  Ewald    -1331.41  -1331.41  -1331.41      0.00      0.00      0.00
  Hartree    488.35    488.35    488.35     -0.00     -0.00     -0.00
  E(xc)     -248.92   -248.92   -248.92     -0.00     -0.00      0.00
  Local      388.50    388.50    388.50      0.00     -0.00     -0.00
  n-local   -152.36   -157.57   -158.50      0.25      1.76      0.59
  augment    223.90    223.90    223.90     -0.00     -0.00     -0.00
  Kinetic    315.65    307.86    302.80     -2.55      0.53     -0.89
  -------------------------------------------------------------------------------------
  Total       -7.55     -7.55     -7.55      0.00      0.00      0.00
  in kB     -189.11   -189.11   -189.11      0.00      0.00      0.00
  external pressure =     -189.11 kB  Pullay stress =        0.00 kB


 VOLUME and BASIS-vectors are now :
 -----------------------------------------------------------------------------
  energy-cutoff  :      500.00
  volume of cell :       64.00
      direct lattice vectors                 reciprocal lattice vectors
     4.000057393  0.000000000  0.000000000     0.249996413  0.000000000  0.000000000
     0.000000000  4.000057393  0.000000000     0.000000000  0.249996413  0.000000000
     0.000000000  0.000000000  4.000057393     0.000000000  0.000000000  0.249996413

  length of vectors
     4.000057393  4.000057393  4.000057393     0.249996413  0.249996413  0.249996413


 FORCES acting on ions
    electron-ion (+dipol)            ewald-force                    non-local-force                 convergence-correction
 -----------------------------------------------------------------------------------------------
   -.128E-13 -.231E-13 -.587E-13   0.290E-14 -.511E-14 0.235E-14   0.775E-25 -.103E-24 0.969E-25   -.967E-13 0.560E-14 -.800E-13
   0.282E-12 0.353E-11 -.243E-11   0.118E-13 0.598E-14 0.249E-14   -.129E-25 -.207E-24 0.000E+00   0.303E-13 0.134E-14 -.743E-13
   0.278E-12 -.282E-13 -.650E-12   -.227E-14 -.612E-14 -.355E-14   -.129E-25 0.517E-25 0.878E-25   0.189E-13 -.469E-14 0.594E-13
   -.130E-13 0.272E-12 0.243E-12   -.118E-13 0.497E-14 -.341E-14   -.388E-25 -.517E-25 -.258E-25   -.936E-13 -.530E-14 0.789E-13
 -----------------------------------------------------------------------------------------------
   0.534E-12 0.375E-11 -.290E-11   0.581E-15 -.282E-15 -.212E-14   0.129E-25 -.310E-24 0.159E-24   -.141E-12 -.306E-14 -.160E-13
 
 
 POSITION                                       TOTAL-FORCE (eV/Angst)
 -----------------------------------------------------------------------------------
      0.00000      0.00000      0.00000         0.000000      0.000000     -0.000000
      2.00003      2.00003      0.00000         0.000000      0.000000     -0.000000
      2.00003      0.00000      2.00003        -0.000000      0.000000     -0.000000
      0.00000      2.00003      2.00003         0.000000      0.000000     -0.000000
 -----------------------------------------------------------------------------------
    total drift:                                0.000000      0.000000     -0.000000


--------------------------------------------------------------------------------------------------------



 mean value of Nose-termostat <S>:     1.000 mean value of <T> :     0.000
 mean temperature <T/S>/<1/S>  :     0.000

     LOOP+:  VPU time  165.51: CPU time  165.72
  
  
 General timing and accounting informations for this job:
 ========================================================
  
                  Total CPU time used (sec):      168.348
                            User time (sec):      138.295
                          System time (sec):       30.053
                         Elapsed time (sec):      168.552
  
                   Maximum memory used (kb):      321324.
                   Average memory used (kb):           0.
  
                          Minor page faults:        45317
                          Major page faults:            0
                 Voluntary context switches:          859
