<?xml version="1.0" encoding="ISO-8859-1"?>
<modeling>
 <generator>
  <i name="program" type="string">vasp</i>
  <i name="version" type="string">4.6.28 </i>
  <i name="subversion" type="string">25Jul05 complex  parallel</i>
  <i name="platform" type="string">LinuxIFC</i>
  <i name="date" type="string">2016 07 15</i>
  <i name="time" type="string">16:21:12</i>
 </generator>
 <incar>
  <i type="string" name="PREC">accurate</i>
  <i type="int" name="IALGO">    38</i>
  <i type="logical" name="ADDGRID"> T  </i>
  <i name="EDIFF">      0.00000001</i>
  <i type="int" name="IBRION">    -1</i>
  <i name="ENCUT">    500.00000000</i>
  <i type="logical" name="LREAL"> F  </i>
  <i type="int" name="ISMEAR">     0</i>
  <i name="SIGMA">      0.01000000</i>
  <i type="logical" name="LWAVE"> F  </i>
  <i type="logical" name="LCHARG"> F  </i>
 </incar>
 <kpoints>
  <generation param="Auto">
   <i name="subdivisionlength">     50.00000000</i>
   <v type="int" name="divisions">      12      12      12</v>
   <v name="usershift">      0.00000000      0.00000000      0.00000000</v>
   <v name="genvec1">      0.08333333      0.00000000      0.00000000</v>
   <v name="genvec2">      0.00000000      0.08333333      0.00000000</v>
   <v name="genvec3">      0.00000000      0.00000000      0.08333333</v>
   <v name="shift">      0.00000000      0.00000000      0.00000000</v>
  </generation>
  <varray name="kpointlist" >
   <v>       0.00000000      0.00000000      0.00000000</v>
   <v>       0.08333333      0.00000000      0.00000000</v>
   <v>       0.16666667      0.00000000      0.00000000</v>
   <v>       0.25000000      0.00000000      0.00000000</v>
   <v>       0.33333333      0.00000000      0.00000000</v>
   <v>       0.41666667      0.00000000      0.00000000</v>
   <v>       0.50000000      0.00000000      0.00000000</v>
   <v>       0.08333333      0.08333333      0.00000000</v>
   <v>       0.16666667      0.08333333      0.00000000</v>
   <v>       0.25000000      0.08333333      0.00000000</v>
   <v>       0.33333333      0.08333333      0.00000000</v>
   <v>       0.41666667      0.08333333      0.00000000</v>
   <v>       0.50000000      0.08333333      0.00000000</v>
   <v>       0.16666667      0.16666667      0.00000000</v>
   <v>       0.25000000      0.16666667      0.00000000</v>
   <v>       0.33333333      0.16666667      0.00000000</v>
   <v>       0.41666667      0.16666667      0.00000000</v>
   <v>       0.50000000      0.16666667      0.00000000</v>
   <v>       0.25000000      0.25000000      0.00000000</v>
   <v>       0.33333333      0.25000000      0.00000000</v>
   <v>       0.41666667      0.25000000      0.00000000</v>
   <v>       0.50000000      0.25000000      0.00000000</v>
   <v>       0.33333333      0.33333333      0.00000000</v>
   <v>       0.41666667      0.33333333      0.00000000</v>
   <v>       0.50000000      0.33333333      0.00000000</v>
   <v>       0.41666667      0.41666667      0.00000000</v>
   <v>       0.50000000      0.41666667      0.00000000</v>
   <v>       0.50000000      0.50000000      0.00000000</v>
   <v>       0.08333333      0.08333333      0.08333333</v>
   <v>       0.16666667      0.08333333      0.08333333</v>
   <v>       0.25000000      0.08333333      0.08333333</v>
   <v>       0.33333333      0.08333333      0.08333333</v>
   <v>       0.41666667      0.08333333      0.08333333</v>
   <v>       0.50000000      0.08333333      0.08333333</v>
   <v>       0.16666667      0.16666667      0.08333333</v>
   <v>       0.25000000      0.16666667      0.08333333</v>
   <v>       0.33333333      0.16666667      0.08333333</v>
   <v>       0.41666667      0.16666667      0.08333333</v>
   <v>       0.50000000      0.16666667      0.08333333</v>
   <v>       0.25000000      0.25000000      0.08333333</v>
   <v>       0.33333333      0.25000000      0.08333333</v>
   <v>       0.41666667      0.25000000      0.08333333</v>
   <v>       0.50000000      0.25000000      0.08333333</v>
   <v>       0.33333333      0.33333333      0.08333333</v>
   <v>       0.41666667      0.33333333      0.08333333</v>
   <v>       0.50000000      0.33333333      0.08333333</v>
   <v>       0.41666667      0.41666667      0.08333333</v>
   <v>       0.50000000      0.41666667      0.08333333</v>
   <v>       0.50000000      0.50000000      0.08333333</v>
   <v>       0.16666667      0.16666667      0.16666667</v>
   <v>       0.25000000      0.16666667      0.16666667</v>
   <v>       0.33333333      0.16666667      0.16666667</v>
   <v>       0.41666667      0.16666667      0.16666667</v>
   <v>       0.50000000      0.16666667      0.16666667</v>
   <v>       0.25000000      0.25000000      0.16666667</v>
   <v>       0.33333333      0.25000000      0.16666667</v>
   <v>       0.41666667      0.25000000      0.16666667</v>
   <v>       0.50000000      0.25000000      0.16666667</v>
   <v>       0.33333333      0.33333333      0.16666667</v>
   <v>       0.41666667      0.33333333      0.16666667</v>
   <v>       0.50000000      0.33333333      0.16666667</v>
   <v>       0.41666667      0.41666667      0.16666667</v>
   <v>       0.50000000      0.41666667      0.16666667</v>
   <v>       0.50000000      0.50000000      0.16666667</v>
   <v>       0.25000000      0.25000000      0.25000000</v>
   <v>       0.33333333      0.25000000      0.25000000</v>
   <v>       0.41666667      0.25000000      0.25000000</v>
   <v>       0.50000000      0.25000000      0.25000000</v>
   <v>       0.33333333      0.33333333      0.25000000</v>
   <v>       0.41666667      0.33333333      0.25000000</v>
   <v>       0.50000000      0.33333333      0.25000000</v>
   <v>       0.41666667      0.41666667      0.25000000</v>
   <v>       0.50000000      0.41666667      0.25000000</v>
   <v>       0.50000000      0.50000000      0.25000000</v>
   <v>       0.33333333      0.33333333      0.33333333</v>
   <v>       0.41666667      0.33333333      0.33333333</v>
   <v>       0.50000000      0.33333333      0.33333333</v>
   <v>       0.41666667      0.41666667      0.33333333</v>
   <v>       0.50000000      0.41666667      0.33333333</v>
   <v>       0.50000000      0.50000000      0.33333333</v>
   <v>       0.41666667      0.41666667      0.41666667</v>
   <v>       0.50000000      0.41666667      0.41666667</v>
   <v>       0.50000000      0.50000000      0.41666667</v>
   <v>       0.50000000      0.50000000      0.50000000</v>
  </varray>
  <varray name="weights" >
   <v>       0.00057870</v>
   <v>       0.00347222</v>
   <v>       0.00347222</v>
   <v>       0.00347222</v>
   <v>       0.00347222</v>
   <v>       0.00347222</v>
   <v>       0.00173611</v>
   <v>       0.00694444</v>
   <v>       0.01388889</v>
   <v>       0.01388889</v>
   <v>       0.01388889</v>
   <v>       0.01388889</v>
   <v>       0.00694444</v>
   <v>       0.00694444</v>
   <v>       0.01388889</v>
   <v>       0.01388889</v>
   <v>       0.01388889</v>
   <v>       0.00694444</v>
   <v>       0.00694444</v>
   <v>       0.01388889</v>
   <v>       0.01388889</v>
   <v>       0.00694444</v>
   <v>       0.00694444</v>
   <v>       0.01388889</v>
   <v>       0.00694444</v>
   <v>       0.00694444</v>
   <v>       0.00694444</v>
   <v>       0.00173611</v>
   <v>       0.00462963</v>
   <v>       0.01388889</v>
   <v>       0.01388889</v>
   <v>       0.01388889</v>
   <v>       0.01388889</v>
   <v>       0.00694444</v>
   <v>       0.01388889</v>
   <v>       0.02777778</v>
   <v>       0.02777778</v>
   <v>       0.02777778</v>
   <v>       0.01388889</v>
   <v>       0.01388889</v>
   <v>       0.02777778</v>
   <v>       0.02777778</v>
   <v>       0.01388889</v>
   <v>       0.01388889</v>
   <v>       0.02777778</v>
   <v>       0.01388889</v>
   <v>       0.01388889</v>
   <v>       0.01388889</v>
   <v>       0.00347222</v>
   <v>       0.00462963</v>
   <v>       0.01388889</v>
   <v>       0.01388889</v>
   <v>       0.01388889</v>
   <v>       0.00694444</v>
   <v>       0.01388889</v>
   <v>       0.02777778</v>
   <v>       0.02777778</v>
   <v>       0.01388889</v>
   <v>       0.01388889</v>
   <v>       0.02777778</v>
   <v>       0.01388889</v>
   <v>       0.01388889</v>
   <v>       0.01388889</v>
   <v>       0.00347222</v>
   <v>       0.00462963</v>
   <v>       0.01388889</v>
   <v>       0.01388889</v>
   <v>       0.00694444</v>
   <v>       0.01388889</v>
   <v>       0.02777778</v>
   <v>       0.01388889</v>
   <v>       0.01388889</v>
   <v>       0.01388889</v>
   <v>       0.00347222</v>
   <v>       0.00462963</v>
   <v>       0.01388889</v>
   <v>       0.00694444</v>
   <v>       0.01388889</v>
   <v>       0.01388889</v>
   <v>       0.00347222</v>
   <v>       0.00462963</v>
   <v>       0.00694444</v>
   <v>       0.00347222</v>
   <v>       0.00057870</v>
  </varray>
 </kpoints>
 <parameters>
  <separator name="general" >
   <i type="string" name="SYSTEM">unknown system</i>
   <i type="logical" name="LCOMPAT"> F  </i>
  </separator>
  <separator name="electronic" >
   <i type="string" name="PREC">accura</i>
   <i name="ENMAX">    500.00000000</i>
   <i name="ENAUG">    516.45600000</i>
   <i name="EDIFF">      0.00000001</i>
   <i type="int" name="IALGO">    38</i>
   <i type="int" name="IWAVPR">    10</i>
   <i type="int" name="NBANDS">    26</i>
   <i name="NELECT">     44.00000000</i>
   <separator name="electronic smearing" >
    <i type="int" name="ISMEAR">     0</i>
    <i name="SIGMA">      0.01000000</i>
   </separator>
   <separator name="electronic projectors" >
    <i type="logical" name="LREAL"> F  </i>
    <v name="ROPT">      0.00000000</v>
    <i type="int" name="LMAXPAW">  -100</i>
    <i type="int" name="LMAXMIX">     2</i>
   </separator>
   <separator name="electronic startup" >
    <i type="int" name="ISTART">     0</i>
    <i type="int" name="ICHARG">     2</i>
    <i type="int" name="INIWAV">     1</i>
   </separator>
   <separator name="electronic spin" >
    <i type="int" name="ISPIN">     1</i>
    <i type="logical" name="LNONCOLLINEAR"> F  </i>
    <v name="MAGMOM">      1.00000000      1.00000000      1.00000000      1.00000000</v>
    <i name="NUPDOWN">     -1.00000000</i>
    <i type="logical" name="LSORBIT"> F  </i>
    <v name="SAXIS">      0.00000000      0.00000000      1.00000000</v>
    <i type="logical" name="LSPIRAL"> F  </i>
    <v name="QSPIRAL">      0.00000000      0.00000000      0.00000000</v>
    <i type="logical" name="LZEROZ"> F  </i>
   </separator>
   <separator name="electronic exchange-correlation" >
    <i type="string" name="GGA">--</i>
    <i type="int" name="VOSKOWN">     0</i>
    <i type="logical" name="LASPH"> F  </i>
    <i type="logical" name="LMETAGGA"> F  </i>
    <i type="string" name="GGA2">--</i>
   </separator>
   <separator name="electronic convergence" >
    <i type="int" name="NELM">    60</i>
    <i type="int" name="NELMDL">     0</i>
    <i type="int" name="NELMIN">     2</i>
    <i name="ENINI">    500.00000000</i>
    <separator name="electronic convergence detail" >
     <i type="logical" name="LDIAG"> T  </i>
     <i name="WEIMIN">      0.00000000</i>
     <i name="EBREAK">      0.00000000</i>
     <i name="DEPER">      0.30000000</i>
     <i type="int" name="NRMM">     4</i>
     <i name="TIME">      0.10000000</i>
    </separator>
   </separator>
   <separator name="electronic mixer" >
    <i name="AMIX">      0.40000000</i>
    <i name="BMIX">      1.00000000</i>
    <i name="AMIN">      0.10000000</i>
    <i name="AMIX_MAG">      1.60000000</i>
    <i name="BMIX_MAG">      1.00000000</i>
    <separator name="electronic mixer details" >
     <i type="int" name="IMIX">     4</i>
     <i type="int" name="MAXMIX">   -45</i>
     <i name="WC">    100.00000000</i>
     <i type="int" name="INIMIX">     1</i>
     <i type="int" name="MIXPRE">     1</i>
     <i type="int" name="MREMOVE">     5</i>
    </separator>
   </separator>
   <separator name="electronic dipolcorrection" >
    <i type="int" name="IDIPOL">     0</i>
    <i type="logical" name="LDIPOL"> F  </i>
    <v name="DIPOL">   -100.00000000</v>
    <i name="EFIELD">      0.00000000</i>
   </separator>
  </separator>
  <separator name="grids" >
   <i type="int" name="NGX">    30</i>
   <i type="int" name="NGY">    30</i>
   <i type="int" name="NGZ">    30</i>
   <i type="int" name="NGXF">    60</i>
   <i type="int" name="NGYF">    60</i>
   <i type="int" name="NGZF">    60</i>
   <i type="logical" name="ADDGRID"> T  </i>
  </separator>
  <separator name="ionic" >
   <i type="int" name="NSW">     0</i>
   <i type="int" name="IBRION">    -1</i>
   <i type="int" name="ISIF">     2</i>
   <i name="PSTRESS">      0.00000000</i>
   <i name="EDIFFG">      0.00000010</i>
   <i type="int" name="NFREE">     0</i>
   <i name="POTIM">      0.50000000</i>
   <i name="SMASS">     -3.00000000</i>
  </separator>
  <separator name="ionic md" >
   <i name="TEBEG">      0.00010000</i>
   <i name="TEEND">      0.00010000</i>
   <i type="int" name="NBLOCK">     1</i>
   <i type="int" name="KBLOCK">     1</i>
   <i type="int" name="NPACO">   256</i>
   <i name="APACO">     16.00000000</i>
  </separator>
  <separator name="symmetry" >
   <i type="int" name="ISYM">     2</i>
   <i name="SYMPREC">      0.00001000</i>
  </separator>
  <separator name="dos" >
   <i type="logical" name="LORBIT"> F  </i>
   <v name="RWIGS">     -1.00000000</v>
   <i type="int" name="NEDOS">   301</i>
   <i name="EMIN">     10.00000000</i>
   <i name="EMAX">    -10.00000000</i>
  </separator>
  <separator name="writing" >
   <i type="int" name="NWRITE">     2</i>
   <i type="logical" name="LWAVE"> F  </i>
   <i type="logical" name="LCHARG"> F  </i>
   <i type="logical" name="LPARD"> F  </i>
   <i type="logical" name="LVTOT"> F  </i>
   <i type="logical" name="LELF"> F  </i>
   <i type="logical" name="LOPTICS"> F  </i>
   <i name="STM">      0.00000000</i>
  </separator>
  <separator name="performance" >
   <i type="int" name="NPAR">     4</i>
   <i type="int" name="NSIM">     4</i>
   <i type="int" name="NBLK">   160</i>
   <i type="logical" name="LPLANE"> T  </i>
   <i type="logical" name="LCRITICAL_MEM"> F  </i>
   <i type="logical" name="LSCALAPACK"> F  </i>
   <i type="logical" name="LSCALU"> F  </i>
   <i type="logical" name="LASYNC"> F  </i>
  </separator>
  <separator name="miscellaneous" >
   <i type="int" name="IDIOT">     3</i>
   <i type="logical" name="LMUSIC"> F  </i>
   <v name="POMASS">     63.54600000</v>
   <i type="logical" name="LCORR"> T  </i>
  </separator>
  <i type="logical" name="LREAL_COMPAT"> F  </i>
  <i type="logical" name="GGA_COMPAT"> T  </i>
  <i type="logical" name="LBERRY"> F  </i>
  <i type="int" name="ICORELEVEL">     0</i>
  <i type="logical" name="LDAU"> F  </i>
  <i type="int" name="I_CONSTRAINED_M">     0</i>
 </parameters>
 <atominfo>
  <atoms>       4</atoms>
  <types>       1</types>
  <array name="atoms" >
   <dimension dim="1">ion</dimension>
   <field type="string">element</field>
   <field type="int">atomtype</field>
   <set>
    <rc><c>Cu</c><c>   1</c></rc>
    <rc><c>Cu</c><c>   1</c></rc>
    <rc><c>Cu</c><c>   1</c></rc>
    <rc><c>Cu</c><c>   1</c></rc>
   </set>
  </array>
  <array name="atomtypes" >
   <dimension dim="1">type</dimension>
   <field type="int">atomspertype</field>
   <field type="string">element</field>
   <field>mass</field>
   <field>valence</field>
   <field type="string">pseudopotential</field>
   <set>
    <rc><c>   4</c><c>Cu</c><c>     63.54600000</c><c>     11.00000000</c><c> PAW_PBE Cu 05Jan2001                   </c></rc>
   </set>
  </array>
 </atominfo>
 <structure name="initialpos" >
  <crystal>
   <varray name="basis" >
    <v>       4.00005739      0.00000000      0.00000000</v>
    <v>       0.00000000      4.00005739      0.00000000</v>
    <v>       0.00000000      0.00000000      4.00005739</v>
   </varray>
   <i name="volume">     64.00275490</i>
   <varray name="rec_basis" >
    <v>       0.24999641      0.00000000      0.00000000</v>
    <v>       0.00000000      0.24999641      0.00000000</v>
    <v>       0.00000000      0.00000000      0.24999641</v>
   </varray>
  </crystal>
  <varray name="positions" >
   <v>       0.00000000      0.00000000      0.00000000</v>
   <v>       0.50000000      0.50000000      0.00000000</v>
   <v>       0.50000000      0.00000000      0.50000000</v>
   <v>       0.00000000      0.50000000      0.50000000</v>
  </varray>
 </structure>
 <calculation>
  <scstep>
   <time name="dav">   11.60   11.63</time>
   <time name="total">   12.03   12.06</time>
   <energy>
    <i name="alphaZ">    319.39250915</i>
    <i name="ewald">  -3994.21553490</i>
    <i name="hartreedc">  -1541.34731413</i>
    <i name="XCdc">    172.71061060</i>
    <i name="pawpsdc">   4328.20916945</i>
    <i name="pawaedc">  -4904.30802700</i>
    <i name="eentropy">     -0.00007269</i>
    <i name="bandstr">    326.24463649</i>
    <i name="atom">   5563.90732063</i>
    <i name="e_fr_energy">    270.59329761</i>
    <i name="e_wo_entrp">    270.59337030</i>
    <i name="e_0_energy">    270.59333395</i>
   </energy>
  </scstep>
  <scstep>
   <time name="dav">   11.62   11.63</time>
   <time name="total">   11.63   11.64</time>
   <energy>
    <i name="e_fr_energy">     -1.23980810</i>
    <i name="e_wo_entrp">     -1.23947382</i>
    <i name="e_0_energy">     -1.23964096</i>
   </energy>
  </scstep>
  <scstep>
   <time name="dav">   12.03   12.04</time>
   <time name="total">   12.04   12.05</time>
   <energy>
    <i name="e_fr_energy">    -16.23753430</i>
    <i name="e_wo_entrp">    -16.23728875</i>
    <i name="e_0_energy">    -16.23741153</i>
   </energy>
  </scstep>
  <scstep>
   <time name="dav">   12.14   12.15</time>
   <time name="total">   12.16   12.16</time>
   <energy>
    <i name="e_fr_energy">    -16.38324093</i>
    <i name="e_wo_entrp">    -16.38299949</i>
    <i name="e_0_energy">    -16.38312021</i>
   </energy>
  </scstep>
  <scstep>
   <time name="dav">   12.07   12.07</time>
   <time name="total">   12.76   12.77</time>
   <energy>
    <i name="e_fr_energy">    -16.38362096</i>
    <i name="e_wo_entrp">    -16.38337959</i>
    <i name="e_0_energy">    -16.38350028</i>
   </energy>
  </scstep>
  <scstep>
   <time name="dav">   11.92   11.93</time>
   <time name="total">   13.00   13.01</time>
   <energy>
    <i name="e_fr_energy">    -15.52640868</i>
    <i name="e_wo_entrp">    -15.52608114</i>
    <i name="e_0_energy">    -15.52624491</i>
   </energy>
  </scstep>
  <scstep>
   <time name="dav">   12.15   12.16</time>
   <time name="total">   13.20   13.21</time>
   <energy>
    <i name="e_fr_energy">    -13.63912566</i>
    <i name="e_wo_entrp">    -13.63908523</i>
    <i name="e_0_energy">    -13.63910544</i>
   </energy>
  </scstep>
  <scstep>
   <time name="dav">   12.57   12.58</time>
   <time name="total">   13.62   13.63</time>
   <energy>
    <i name="e_fr_energy">    -13.64134951</i>
    <i name="e_wo_entrp">    -13.64122028</i>
    <i name="e_0_energy">    -13.64128490</i>
   </energy>
  </scstep>
  <scstep>
   <time name="dav">   12.09   12.13</time>
   <time name="total">   13.14   13.18</time>
   <energy>
    <i name="e_fr_energy">    -13.62254965</i>
    <i name="e_wo_entrp">    -13.62250922</i>
    <i name="e_0_energy">    -13.62252944</i>
   </energy>
  </scstep>
  <scstep>
   <time name="dav">   11.94   11.96</time>
   <time name="total">   13.46   13.49</time>
   <energy>
    <i name="e_fr_energy">    -13.62227175</i>
    <i name="e_wo_entrp">    -13.62223131</i>
    <i name="e_0_energy">    -13.62225153</i>
   </energy>
  </scstep>
  <scstep>
   <time name="dav">    8.45    8.45</time>
   <time name="total">    9.23    9.23</time>
   <energy>
    <i name="e_fr_energy">    -13.62226178</i>
    <i name="e_wo_entrp">    -13.62222135</i>
    <i name="e_0_energy">    -13.62224157</i>
   </energy>
  </scstep>
  <scstep>
   <time name="dav">    5.06    5.06</time>
   <time name="total">    5.73    5.74</time>
   <energy>
    <i name="e_fr_energy">    -13.62226404</i>
    <i name="e_wo_entrp">    -13.62222361</i>
    <i name="e_0_energy">    -13.62224383</i>
   </energy>
  </scstep>
  <scstep>
   <time name="dav">    3.84    3.84</time>
   <time name="total">    4.52    4.52</time>
   <energy>
    <i name="e_fr_energy">    -13.62226481</i>
    <i name="e_wo_entrp">    -13.62222438</i>
    <i name="e_0_energy">    -13.62224459</i>
   </energy>
  </scstep>
  <scstep>
   <time name="dav">    4.81    4.82</time>
   <time name="total">    5.49    5.49</time>
   <energy>
    <i name="e_fr_energy">    -13.62226480</i>
    <i name="e_wo_entrp">    -13.62222436</i>
    <i name="e_0_energy">    -13.62224458</i>
   </energy>
  </scstep>
  <scstep>
   <time name="dav">    3.36    3.36</time>
   <time name="total">    4.04    4.04</time>
   <energy>
    <i name="e_fr_energy">    -13.62226478</i>
    <i name="e_wo_entrp">    -13.62222435</i>
    <i name="e_0_energy">    -13.62224456</i>
   </energy>
  </scstep>
  <scstep>
   <time name="dav">    3.35    3.35</time>
   <time name="total">    3.59    3.60</time>
   <energy>
    <i name="alphaZ">    319.39250915</i>
    <i name="ewald">  -3994.21553490</i>
    <i name="hartreedc">  -1465.05979563</i>
    <i name="XCdc">    169.17490808</i>
    <i name="pawpsdc">   4271.95417198</i>
    <i name="pawaedc">  -4847.63716839</i>
    <i name="eentropy">     -0.00004043</i>
    <i name="bandstr">    -31.13863526</i>
    <i name="atom">   5563.90732063</i>
    <i name="e_fr_energy">    -13.62226477</i>
    <i name="e_wo_entrp">    -13.62222434</i>
    <i name="e_0_energy">    -13.62224456</i>
   </energy>
  </scstep>
  <structure>
   <crystal>
    <varray name="basis" >
     <v>       4.00005739      0.00000000      0.00000000</v>
     <v>       0.00000000      4.00005739      0.00000000</v>
     <v>       0.00000000      0.00000000      4.00005739</v>
    </varray>
    <i name="volume">     64.00275490</i>
    <varray name="rec_basis" >
     <v>       0.24999641      0.00000000      0.00000000</v>
     <v>       0.00000000      0.24999641      0.00000000</v>
     <v>       0.00000000      0.00000000      0.24999641</v>
    </varray>
   </crystal>
   <varray name="positions" >
    <v>       0.00000000      0.00000000      0.00000000</v>
    <v>       0.50000000      0.50000000      0.00000000</v>
    <v>       0.50000000      0.00000000      0.50000000</v>
    <v>       0.00000000      0.50000000      0.50000000</v>
   </varray>
  </structure>
  <varray name="forces" >
   <v>       0.00000000      0.00000000     -0.00000000</v>
   <v>       0.00000000      0.00000000     -0.00000000</v>
   <v>      -0.00000000      0.00000000     -0.00000000</v>
   <v>       0.00000000      0.00000000     -0.00000000</v>
  </varray>
  <varray name="stress" >
   <v>    -189.11253177     -0.00000000      0.00000000</v>
   <v>       0.00000000   -189.11253177     -0.00000000</v>
   <v>       0.00000000      0.00000000   -189.11253177</v>
  </varray>
  <energy>
   <i name="e_fr_energy">    -13.62226477</i>
   <i name="e_wo_entrp">    -13.62224456</i>
   <i name="e_0_energy">     -0.00004043</i>
  </energy>
  <eigenvalues>
   <array>
    <dimension dim="1">band</dimension>
    <dimension dim="2">kpoint</dimension>
    <dimension dim="3">spin</dimension>
    <field>eigene</field>
    <field>occ</field>
    <set>
     <set comment="spin 1">
      <set comment="kpoint 1">
       <r>  -5.7051  1.0000</r>
       <r>  -1.8441  1.0000</r>
       <r>  -1.8441  1.0000</r>
       <r>  -1.8441  1.0000</r>
       <r>  -1.5561  1.0000</r>
       <r>  -1.5561  1.0000</r>
       <r>  -1.5561  1.0000</r>
       <r>  -0.6957  1.0000</r>
       <r>  -0.6957  1.0000</r>
       <r>  -0.6957  1.0000</r>
       <r>  -0.1804  1.0000</r>
       <r>  -0.1804  1.0000</r>
       <r>   0.1642  1.0000</r>
       <r>   0.1642  1.0000</r>
       <r>   0.1642  1.0000</r>
       <r>   0.2603  1.0000</r>
       <r>   0.2603  1.0000</r>
       <r>   0.2603  1.0000</r>
       <r>   0.2603  1.0000</r>
       <r>   0.2603  1.0000</r>
       <r>   0.2603  1.0000</r>
       <r>   3.2973  0.0000</r>
       <r>   3.2973  0.0000</r>
       <r>   3.2973  0.0000</r>
       <r>   6.7903  0.0000</r>
       <r>   6.7903  0.0000</r>
       <r>   6.7903  0.0000</r>
       <r>  12.5396  0.0000</r>
      </set>
      <set comment="kpoint 2">
       <r>  -5.6370  1.0000</r>
       <r>  -1.8480  1.0000</r>
       <r>  -1.8170  1.0000</r>
       <r>  -1.8170  1.0000</r>
       <r>  -1.5418  1.0000</r>
       <r>  -1.5408  1.0000</r>
       <r>  -1.5408  1.0000</r>
       <r>  -0.7107  1.0000</r>
       <r>  -0.6829  1.0000</r>
       <r>  -0.6829  1.0000</r>
       <r>  -0.1940  1.0000</r>
       <r>  -0.1746  1.0000</r>
       <r>   0.1467  1.0000</r>
       <r>   0.1467  1.0000</r>
       <r>   0.1583  1.0000</r>
       <r>   0.1827  1.0000</r>
       <r>   0.1827  1.0000</r>
       <r>   0.2394  1.0000</r>
       <r>   0.2394  1.0000</r>
       <r>   0.2604  1.0000</r>
       <r>   0.2604  1.0000</r>
       <r>   2.7525  0.0000</r>
       <r>   3.4391  0.0000</r>
       <r>   3.4391  0.0000</r>
       <r>   6.8222  0.0000</r>
       <r>   6.8222  0.0000</r>
       <r>   7.4799  0.0000</r>
       <r>  12.0605  0.0000</r>
      </set>
      <set comment="kpoint 3">
       <r>  -5.4338  1.0000</r>
       <r>  -1.8730  1.0000</r>
       <r>  -1.7395  1.0000</r>
       <r>  -1.7395  1.0000</r>
       <r>  -1.4999  1.0000</r>
       <r>  -1.4944  1.0000</r>
       <r>  -1.4944  1.0000</r>
       <r>  -0.7547  1.0000</r>
       <r>  -0.6449  1.0000</r>
       <r>  -0.6449  1.0000</r>
       <r>  -0.2333  1.0000</r>
       <r>  -0.1576  1.0000</r>
       <r>  -0.0143  1.0000</r>
       <r>  -0.0143  1.0000</r>
       <r>   0.0956  1.0000</r>
       <r>   0.0956  1.0000</r>
       <r>   0.1408  1.0000</r>
       <r>   0.1791  1.0000</r>
       <r>   0.1791  1.0000</r>
       <r>   0.2604  1.0000</r>
       <r>   0.2604  1.0000</r>
       <r>   1.7238  0.0000</r>
       <r>   3.8282  0.0000</r>
       <r>   3.8282  0.0000</r>
       <r>   6.9202  0.0000</r>
       <r>   6.9202  0.0000</r>
       <r>   8.9554  0.0000</r>
       <r>  11.0580  0.0000</r>
      </set>
      <set comment="kpoint 4">
       <r>  -5.0988  1.0000</r>
       <r>  -1.9703  1.0000</r>
       <r>  -1.6239  1.0000</r>
       <r>  -1.6239  1.0000</r>
       <r>  -1.4330  1.0000</r>
       <r>  -1.4162  1.0000</r>
       <r>  -1.4162  1.0000</r>
       <r>  -0.8245  1.0000</r>
       <r>  -0.5827  1.0000</r>
       <r>  -0.5827  1.0000</r>
       <r>  -0.2932  1.0000</r>
       <r>  -0.2655  1.0000</r>
       <r>  -0.2655  1.0000</r>
       <r>  -0.1306  1.0000</r>
       <r>   0.0164  1.0000</r>
       <r>   0.0164  1.0000</r>
       <r>   0.0869  1.0000</r>
       <r>   0.0869  1.0000</r>
       <r>   0.1131  1.0000</r>
       <r>   0.2606  1.0000</r>
       <r>   0.2606  1.0000</r>
       <r>   0.7345  1.0000</r>
       <r>   4.3985  0.0000</r>
       <r>   4.3985  0.0000</r>
       <r>   7.0900  0.0000</r>
       <r>   7.0900  0.0000</r>
       <r>   9.9412  0.0000</r>
       <r>   9.9412  0.0000</r>
      </set>
      <set comment="kpoint 5">
       <r>  -4.6392  1.0000</r>
       <r>  -2.2446  1.0000</r>
       <r>  -1.4930  1.0000</r>
       <r>  -1.4930  1.0000</r>
       <r>  -1.3453  1.0000</r>
       <r>  -1.3049  1.0000</r>
       <r>  -1.3049  1.0000</r>
       <r>  -0.9150  1.0000</r>
       <r>  -0.5244  1.0000</r>
       <r>  -0.5244  1.0000</r>
       <r>  -0.4984  1.0000</r>
       <r>  -0.4984  1.0000</r>
       <r>  -0.3638  1.0000</r>
       <r>  -0.0952  1.0000</r>
       <r>  -0.0780  1.0000</r>
       <r>  -0.0780  1.0000</r>
       <r>  -0.0270  1.0000</r>
       <r>  -0.0270  1.0000</r>
       <r>   0.0098  1.0000</r>
       <r>   0.0771  1.0000</r>
       <r>   0.2607  1.0000</r>
       <r>   0.2607  1.0000</r>
       <r>   5.1015  0.0000</r>
       <r>   5.1015  0.0000</r>
       <r>   7.3378  0.0000</r>
       <r>   7.3378  0.0000</r>
       <r>   8.8377  0.0000</r>
       <r>   8.8377  0.0000</r>
      </set>
      <set comment="kpoint 6">
       <r>  -4.0695  1.0000</r>
       <r>  -2.7649  1.0000</r>
       <r>  -1.3826  1.0000</r>
       <r>  -1.3826  1.0000</r>
       <r>  -1.2426  1.0000</r>
       <r>  -1.1595  1.0000</r>
       <r>  -1.1595  1.0000</r>
       <r>  -1.0198  1.0000</r>
       <r>  -0.7663  1.0000</r>
       <r>  -0.7663  1.0000</r>
       <r>  -0.4272  1.0000</r>
       <r>  -0.3950  1.0000</r>
       <r>  -0.3950  1.0000</r>
       <r>  -0.3499  1.0000</r>
       <r>  -0.1615  1.0000</r>
       <r>  -0.1615  1.0000</r>
       <r>  -0.1518  1.0000</r>
       <r>  -0.1518  1.0000</r>
       <r>  -0.0538  1.0000</r>
       <r>   0.0353  1.0000</r>
       <r>   0.2607  1.0000</r>
       <r>   0.2607  1.0000</r>
       <r>   5.9100  0.0000</r>
       <r>   5.9100  0.0000</r>
       <r>   7.6562  0.0000</r>
       <r>   7.6562  0.0000</r>
       <r>   7.7880  0.0000</r>
       <r>   7.7880  0.0000</r>
      </set>
      <set comment="kpoint 7">
       <r>  -3.4206  1.0000</r>
       <r>  -3.4206  1.0000</r>
       <r>  -1.3377  1.0000</r>
       <r>  -1.3377  1.0000</r>
       <r>  -1.1316  1.0000</r>
       <r>  -1.1316  1.0000</r>
       <r>  -0.9795  1.0000</r>
       <r>  -0.9795  1.0000</r>
       <r>  -0.9795  1.0000</r>
       <r>  -0.9795  1.0000</r>
       <r>  -0.4479  1.0000</r>
       <r>  -0.4479  1.0000</r>
       <r>  -0.2773  1.0000</r>
       <r>  -0.2773  1.0000</r>
       <r>  -0.2773  1.0000</r>
       <r>  -0.2773  1.0000</r>
       <r>  -0.1965  1.0000</r>
       <r>  -0.1965  1.0000</r>
       <r>  -0.0093  1.0000</r>
       <r>  -0.0093  1.0000</r>
       <r>   0.2608  1.0000</r>
       <r>   0.2608  1.0000</r>
       <r>   6.8088  0.0000</r>
       <r>   6.8088  0.0000</r>
       <r>   6.8088  0.0000</r>
       <r>   6.8088  0.0000</r>
       <r>   7.8901  0.0000</r>
       <r>   7.8901  0.0000</r>
      </set>
      <set comment="kpoint 8">
       <r>  -5.5692  1.0000</r>
       <r>  -1.8200  1.0000</r>
       <r>  -1.8200  1.0000</r>
       <r>  -1.7907  1.0000</r>
       <r>  -1.5268  1.0000</r>
       <r>  -1.5268  1.0000</r>
       <r>  -1.5258  1.0000</r>
       <r>  -0.7186  1.0000</r>
       <r>  -0.6770  1.0000</r>
       <r>  -0.6714  1.0000</r>
       <r>  -0.1976  1.0000</r>
       <r>  -0.1776  1.0000</r>
       <r>   0.1244  1.0000</r>
       <r>   0.1244  1.0000</r>
       <r>   0.1248  1.0000</r>
       <r>   0.1299  1.0000</r>
       <r>   0.1744  1.0000</r>
       <r>   0.1744  1.0000</r>
       <r>   0.2393  1.0000</r>
       <r>   0.2393  1.0000</r>
       <r>   0.2466  1.0000</r>
       <r>   2.8873  0.0000</r>
       <r>   2.8873  0.0000</r>
       <r>   3.5750  0.0000</r>
       <r>   6.8548  0.0000</r>
       <r>   7.5220  0.0000</r>
       <r>   7.5220  0.0000</r>
       <r>  11.0471  0.0000</r>
      </set>
      <set comment="kpoint 9">
       <r>  -5.3666  1.0000</r>
       <r>  -1.8425  1.0000</r>
       <r>  -1.7402  1.0000</r>
       <r>  -1.7158  1.0000</r>
       <r>  -1.4857  1.0000</r>
       <r>  -1.4813  1.0000</r>
       <r>  -1.4806  1.0000</r>
       <r>  -0.7580  1.0000</r>
       <r>  -0.6427  1.0000</r>
       <r>  -0.6374  1.0000</r>
       <r>  -0.2315  1.0000</r>
       <r>  -0.1620  1.0000</r>
       <r>  -0.0575  1.0000</r>
       <r>  -0.0518  1.0000</r>
       <r>   0.0548  1.0000</r>
       <r>   0.0808  1.0000</r>
       <r>   0.1033  1.0000</r>
       <r>   0.1523  1.0000</r>
       <r>   0.1789  1.0000</r>
       <r>   0.2392  1.0000</r>
       <r>   0.2394  1.0000</r>
       <r>   1.8629  0.0000</r>
       <r>   3.2490  0.0000</r>
       <r>   3.9512  0.0000</r>
       <r>   6.9542  0.0000</r>
       <r>   7.6502  0.0000</r>
       <r>   9.0048  0.0000</r>
       <r>   9.8889  0.0000</r>
      </set>
      <set comment="kpoint 10">
       <r>  -5.0328  1.0000</r>
       <r>  -1.9348  1.0000</r>
       <r>  -1.6208  1.0000</r>
       <r>  -1.6039  1.0000</r>
       <r>  -1.4201  1.0000</r>
       <r>  -1.4049  1.0000</r>
       <r>  -1.4045  1.0000</r>
       <r>  -0.8253  1.0000</r>
       <r>  -0.5835  1.0000</r>
       <r>  -0.5816  1.0000</r>
       <r>  -0.3080  1.0000</r>
       <r>  -0.2882  1.0000</r>
       <r>  -0.2862  1.0000</r>
       <r>  -0.1318  1.0000</r>
       <r>  -0.0689  1.0000</r>
       <r>   0.0046  1.0000</r>
       <r>   0.0230  1.0000</r>
       <r>   0.0866  1.0000</r>
       <r>   0.1167  1.0000</r>
       <r>   0.2377  1.0000</r>
       <r>   0.2391  1.0000</r>
       <r>   0.9074  1.0000</r>
       <r>   3.7652  0.0000</r>
       <r>   4.5089  0.0000</r>
       <r>   7.1244  0.0000</r>
       <r>   7.8690  0.0000</r>
       <r>   8.7725  0.0000</r>
       <r>  10.0226  0.0000</r>
      </set>
      <set comment="kpoint 11">
       <r>  -4.5752  1.0000</r>
       <r>  -2.2019  1.0000</r>
       <r>  -1.4848  1.0000</r>
       <r>  -1.4752  1.0000</r>
       <r>  -1.3342  1.0000</r>
       <r>  -1.3000  1.0000</r>
       <r>  -1.2955  1.0000</r>
       <r>  -0.9134  1.0000</r>
       <r>  -0.5634  1.0000</r>
       <r>  -0.5362  1.0000</r>
       <r>  -0.5213  1.0000</r>
       <r>  -0.4979  1.0000</r>
       <r>  -0.3395  1.0000</r>
       <r>  -0.2657  1.0000</r>
       <r>  -0.0915  1.0000</r>
       <r>  -0.0862  1.0000</r>
       <r>  -0.0716  1.0000</r>
       <r>  -0.0275  1.0000</r>
       <r>   0.0575  1.0000</r>
       <r>   0.2375  1.0000</r>
       <r>   0.2388  1.0000</r>
       <r>   0.2835  1.0000</r>
       <r>   4.3883  0.0000</r>
       <r>   5.2018  0.0000</r>
       <r>   7.3357  0.0000</r>
       <r>   7.7783  0.0000</r>
       <r>   8.1755  0.0000</r>
       <r>   8.9195  0.0000</r>
      </set>
      <set comment="kpoint 12">
       <r>  -4.0083  1.0000</r>
       <r>  -2.7144  1.0000</r>
       <r>  -1.3681  1.0000</r>
       <r>  -1.3628  1.0000</r>
       <r>  -1.2336  1.0000</r>
       <r>  -1.1681  1.0000</r>
       <r>  -1.1532  1.0000</r>
       <r>  -1.0157  1.0000</r>
       <r>  -0.7988  1.0000</r>
       <r>  -0.7701  1.0000</r>
       <r>  -0.4988  1.0000</r>
       <r>  -0.4529  1.0000</r>
       <r>  -0.3949  1.0000</r>
       <r>  -0.3278  1.0000</r>
       <r>  -0.1655  1.0000</r>
       <r>  -0.1568  1.0000</r>
       <r>  -0.1522  1.0000</r>
       <r>  -0.0807  1.0000</r>
       <r>  -0.0438  1.0000</r>
       <r>   0.0776  1.0000</r>
       <r>   0.2377  1.0000</r>
       <r>   0.2385  1.0000</r>
       <r>   5.0956  0.0000</r>
       <r>   6.0029  0.0000</r>
       <r>   6.7341  0.0000</r>
       <r>   7.7791  0.0000</r>
       <r>   7.8720  0.0000</r>
       <r>   8.4617  0.0000</r>
      </set>
      <set comment="kpoint 13">
       <r>  -3.3638  1.0000</r>
       <r>  -3.3638  1.0000</r>
       <r>  -1.3179  1.0000</r>
       <r>  -1.3179  1.0000</r>
       <r>  -1.1250  1.0000</r>
       <r>  -1.1250  1.0000</r>
       <r>  -1.0025  1.0000</r>
       <r>  -1.0025  1.0000</r>
       <r>  -0.9775  1.0000</r>
       <r>  -0.9775  1.0000</r>
       <r>  -0.5108  1.0000</r>
       <r>  -0.5108  1.0000</r>
       <r>  -0.2775  1.0000</r>
       <r>  -0.2775  1.0000</r>
       <r>  -0.2267  1.0000</r>
       <r>  -0.2267  1.0000</r>
       <r>  -0.1958  1.0000</r>
       <r>  -0.1958  1.0000</r>
       <r>   0.0101  1.0000</r>
       <r>   0.0101  1.0000</r>
       <r>   0.2381  1.0000</r>
       <r>   0.2381  1.0000</r>
       <r>   5.8792  0.0000</r>
       <r>   5.8792  0.0000</r>
       <r>   6.8964  0.0000</r>
       <r>   6.8964  0.0000</r>
       <r>   8.2008  0.0000</r>
       <r>   8.2008  0.0000</r>
      </set>
      <set comment="kpoint 14">
       <r>  -5.1661  1.0000</r>
       <r>  -1.7550  1.0000</r>
       <r>  -1.7550  1.0000</r>
       <r>  -1.6485  1.0000</r>
       <r>  -1.4427  1.0000</r>
       <r>  -1.4427  1.0000</r>
       <r>  -1.4387  1.0000</r>
       <r>  -0.7806  1.0000</r>
       <r>  -0.6226  1.0000</r>
       <r>  -0.6155  1.0000</r>
       <r>  -0.2435  1.0000</r>
       <r>  -0.1727  1.0000</r>
       <r>  -0.1636  1.0000</r>
       <r>  -0.1636  1.0000</r>
       <r>  -0.1562  1.0000</r>
       <r>   0.0374  1.0000</r>
       <r>   0.1020  1.0000</r>
       <r>   0.1020  1.0000</r>
       <r>   0.1784  1.0000</r>
       <r>   0.1784  1.0000</r>
       <r>   0.2059  1.0000</r>
       <r>   2.2129  0.0000</r>
       <r>   2.2129  0.0000</r>
       <r>   4.2987  0.0000</r>
       <r>   7.0560  0.0000</r>
       <r>   8.6369  0.0000</r>
       <r>   9.1519  0.0000</r>
       <r>   9.1519  0.0000</r>
      </set>
      <set comment="kpoint 15">
       <r>  -4.8361  1.0000</r>
       <r>  -1.8331  1.0000</r>
       <r>  -1.6234  1.0000</r>
       <r>  -1.5483  1.0000</r>
       <r>  -1.3812  1.0000</r>
       <r>  -1.3704  1.0000</r>
       <r>  -1.3696  1.0000</r>
       <r>  -0.8340  1.0000</r>
       <r>  -0.5834  1.0000</r>
       <r>  -0.5714  1.0000</r>
       <r>  -0.4181  1.0000</r>
       <r>  -0.3603  1.0000</r>
       <r>  -0.3187  1.0000</r>
       <r>  -0.2819  1.0000</r>
       <r>  -0.1204  1.0000</r>
       <r>  -0.0305  1.0000</r>
       <r>   0.0263  1.0000</r>
       <r>   0.0751  1.0000</r>
       <r>   0.0857  1.0000</r>
       <r>   0.1777  1.0000</r>
       <r>   0.1869  1.0000</r>
       <r>   1.2639  1.0000</r>
       <r>   2.6868  0.0000</r>
       <r>   4.8259  0.0000</r>
       <r>   7.1774  0.0000</r>
       <r>   7.5370  0.0000</r>
       <r>   9.3832  0.0000</r>
       <r>  10.2638  0.0000</r>
      </set>
      <set comment="kpoint 16">
       <r>  -4.3846  1.0000</r>
       <r>  -2.0791  1.0000</r>
       <r>  -1.4708  1.0000</r>
       <r>  -1.4288  1.0000</r>
       <r>  -1.3009  1.0000</r>
       <r>  -1.2810  1.0000</r>
       <r>  -1.2680  1.0000</r>
       <r>  -0.9118  1.0000</r>
       <r>  -0.6641  1.0000</r>
       <r>  -0.5734  1.0000</r>
       <r>  -0.5580  1.0000</r>
       <r>  -0.4935  1.0000</r>
       <r>  -0.4928  1.0000</r>
       <r>  -0.3136  1.0000</r>
       <r>  -0.1117  1.0000</r>
       <r>  -0.0658  1.0000</r>
       <r>  -0.0643  1.0000</r>
       <r>  -0.0285  1.0000</r>
       <r>   0.0160  1.0000</r>
       <r>   0.1767  1.0000</r>
       <r>   0.1789  1.0000</r>
       <r>   0.6029  1.0000</r>
       <r>   3.2484  0.0000</r>
       <r>   5.4934  0.0000</r>
       <r>   6.3814  0.0000</r>
       <r>   7.5548  0.0000</r>
       <r>   9.1618  0.0000</r>
       <r>   9.5153  0.0000</r>
      </set>
      <set comment="kpoint 17">
       <r>  -3.8270  1.0000</r>
       <r>  -2.5675  1.0000</r>
       <r>  -1.3334  1.0000</r>
       <r>  -1.3090  1.0000</r>
       <r>  -1.2070  1.0000</r>
       <r>  -1.1896  1.0000</r>
       <r>  -1.1350  1.0000</r>
       <r>  -1.0052  1.0000</r>
       <r>  -0.8839  1.0000</r>
       <r>  -0.7826  1.0000</r>
       <r>  -0.5988  1.0000</r>
       <r>  -0.5709  1.0000</r>
       <r>  -0.3928  1.0000</r>
       <r>  -0.2883  1.0000</r>
       <r>  -0.1804  1.0000</r>
       <r>  -0.1529  1.0000</r>
       <r>  -0.1526  1.0000</r>
       <r>  -0.0826  1.0000</r>
       <r>   0.0075  1.0000</r>
       <r>   0.1758  1.0000</r>
       <r>   0.1759  1.0000</r>
       <r>   0.2604  1.0000</r>
       <r>   3.8913  0.0000</r>
       <r>   5.4504  0.0000</r>
       <r>   6.2750  0.0000</r>
       <r>   7.9235  0.0000</r>
       <r>   8.1199  0.0000</r>
       <r>   9.0022  0.0000</r>
      </set>
      <set comment="kpoint 18">
       <r>  -3.1966  1.0000</r>
       <r>  -3.1966  1.0000</r>
       <r>  -1.2622  1.0000</r>
       <r>  -1.2622  1.0000</r>
       <r>  -1.1061  1.0000</r>
       <r>  -1.1061  1.0000</r>
       <r>  -1.0664  1.0000</r>
       <r>  -1.0664  1.0000</r>
       <r>  -0.9722  1.0000</r>
       <r>  -0.9722  1.0000</r>
       <r>  -0.6056  1.0000</r>
       <r>  -0.6056  1.0000</r>
       <r>  -0.2772  1.0000</r>
       <r>  -0.2772  1.0000</r>
       <r>  -0.1996  1.0000</r>
       <r>  -0.1996  1.0000</r>
       <r>  -0.1994  1.0000</r>
       <r>  -0.1994  1.0000</r>
       <r>   0.1020  1.0000</r>
       <r>   0.1020  1.0000</r>
       <r>   0.1753  1.0000</r>
       <r>   0.1753  1.0000</r>
       <r>   4.6218  0.0000</r>
       <r>   4.6218  0.0000</r>
       <r>   7.1542  0.0000</r>
       <r>   7.1542  0.0000</r>
       <r>   8.4106  0.0000</r>
       <r>   8.4106  0.0000</r>
      </set>
      <set comment="kpoint 19">
       <r>  -4.5132  1.0000</r>
       <r>  -1.6792  1.0000</r>
       <r>  -1.6792  1.0000</r>
       <r>  -1.4688  1.0000</r>
       <r>  -1.3162  1.0000</r>
       <r>  -1.3162  1.0000</r>
       <r>  -1.3093  1.0000</r>
       <r>  -0.8637  1.0000</r>
       <r>  -0.5806  1.0000</r>
       <r>  -0.5646  1.0000</r>
       <r>  -0.5646  1.0000</r>
       <r>  -0.5375  1.0000</r>
       <r>  -0.4827  1.0000</r>
       <r>  -0.3031  1.0000</r>
       <r>  -0.0869  1.0000</r>
       <r>  -0.0719  1.0000</r>
       <r>   0.0053  1.0000</r>
       <r>   0.0053  1.0000</r>
       <r>   0.0845  1.0000</r>
       <r>   0.0845  1.0000</r>
       <r>   0.1395  1.0000</r>
       <r>   1.7004  0.0000</r>
       <r>   1.7004  0.0000</r>
       <r>   5.3182  0.0000</r>
       <r>   6.2514  0.0000</r>
       <r>   7.4786  0.0000</r>
       <r>  10.6561  0.0000</r>
       <r>  10.6562  0.0000</r>
      </set>
      <set comment="kpoint 20">
       <r>  -4.0729  1.0000</r>
       <r>  -1.8924  1.0000</r>
       <r>  -1.4978  1.0000</r>
       <r>  -1.3754  1.0000</r>
       <r>  -1.2456  1.0000</r>
       <r>  -1.2352  1.0000</r>
       <r>  -1.2246  1.0000</r>
       <r>  -0.9187  1.0000</r>
       <r>  -0.7850  1.0000</r>
       <r>  -0.6894  1.0000</r>
       <r>  -0.6394  1.0000</r>
       <r>  -0.5867  1.0000</r>
       <r>  -0.4734  1.0000</r>
       <r>  -0.3267  1.0000</r>
       <r>  -0.1553  1.0000</r>
       <r>  -0.0819  1.0000</r>
       <r>  -0.0500  1.0000</r>
       <r>  -0.0294  1.0000</r>
       <r>   0.0095  1.0000</r>
       <r>   0.0834  1.0000</r>
       <r>   0.1091  1.0000</r>
       <r>   0.9636  1.0000</r>
       <r>   2.2056  0.0000</r>
       <r>   5.2005  0.0000</r>
       <r>   5.9542  0.0000</r>
       <r>   7.7681  0.0000</r>
       <r>   9.5554  0.0000</r>
       <r>  10.1094  0.0000</r>
      </set>
      <set comment="kpoint 21">
       <r>  -3.5330  1.0000</r>
       <r>  -2.3392  1.0000</r>
       <r>  -1.3262  1.0000</r>
       <r>  -1.2677  1.0000</r>
       <r>  -1.1838  1.0000</r>
       <r>  -1.1639  1.0000</r>
       <r>  -1.1073  1.0000</r>
       <r>  -0.9928  1.0000</r>
       <r>  -0.9745  1.0000</r>
       <r>  -0.8067  1.0000</r>
       <r>  -0.7243  1.0000</r>
       <r>  -0.6243  1.0000</r>
       <r>  -0.3828  1.0000</r>
       <r>  -0.3078  1.0000</r>
       <r>  -0.2117  1.0000</r>
       <r>  -0.1675  1.0000</r>
       <r>  -0.1522  1.0000</r>
       <r>  -0.1382  1.0000</r>
       <r>   0.0834  1.0000</r>
       <r>   0.0931  1.0000</r>
       <r>   0.1179  1.0000</r>
       <r>   0.5143  1.0000</r>
       <r>   2.7912  0.0000</r>
       <r>   4.2746  0.0000</r>
       <r>   6.7101  0.0000</r>
       <r>   8.1719  0.0000</r>
       <r>   8.5216  0.0000</r>
       <r>   9.3451  0.0000</r>
      </set>
      <set comment="kpoint 22">
       <r>  -2.9298  1.0000</r>
       <r>  -2.9298  1.0000</r>
       <r>  -1.2130  1.0000</r>
       <r>  -1.2130  1.0000</r>
       <r>  -1.1314  1.0000</r>
       <r>  -1.1314  1.0000</r>
       <r>  -1.0773  1.0000</r>
       <r>  -1.0773  1.0000</r>
       <r>  -0.9662  1.0000</r>
       <r>  -0.9662  1.0000</r>
       <r>  -0.6847  1.0000</r>
       <r>  -0.6847  1.0000</r>
       <r>  -0.2731  1.0000</r>
       <r>  -0.2731  1.0000</r>
       <r>  -0.2363  1.0000</r>
       <r>  -0.2363  1.0000</r>
       <r>  -0.2199  1.0000</r>
       <r>  -0.2199  1.0000</r>
       <r>   0.0858  1.0000</r>
       <r>   0.0858  1.0000</r>
       <r>   0.2679  1.0000</r>
       <r>   0.2679  1.0000</r>
       <r>   3.4751  0.0000</r>
       <r>   3.4751  0.0000</r>
       <r>   7.5697  0.0000</r>
       <r>   7.5697  0.0000</r>
       <r>   8.6959  0.0000</r>
       <r>   8.6959  0.0000</r>
      </set>
      <set comment="kpoint 23">
       <r>  -3.6514  1.0000</r>
       <r>  -1.6720  1.0000</r>
       <r>  -1.6720  1.0000</r>
       <r>  -1.3345  1.0000</r>
       <r>  -1.1691  1.0000</r>
       <r>  -1.1691  1.0000</r>
       <r>  -1.1629  1.0000</r>
       <r>  -0.9427  1.0000</r>
       <r>  -0.8502  1.0000</r>
       <r>  -0.8502  1.0000</r>
       <r>  -0.7333  1.0000</r>
       <r>  -0.6134  1.0000</r>
       <r>  -0.4292  1.0000</r>
       <r>  -0.3563  1.0000</r>
       <r>  -0.2120  1.0000</r>
       <r>  -0.1322  1.0000</r>
       <r>  -0.1322  1.0000</r>
       <r>  -0.0288  1.0000</r>
       <r>  -0.0288  1.0000</r>
       <r>   0.0498  1.0000</r>
       <r>   0.1231  1.0000</r>
       <r>   1.3821  1.0000</r>
       <r>   1.3821  1.0000</r>
       <r>   4.1516  0.0000</r>
       <r>   6.5595  0.0000</r>
       <r>   8.0919  0.0000</r>
       <r>  10.0885  0.0000</r>
       <r>  10.0885  0.0000</r>
      </set>
      <set comment="kpoint 24">
       <r>  -3.1416  1.0000</r>
       <r>  -2.0593  1.0000</r>
       <r>  -1.4659  1.0000</r>
       <r>  -1.3103  1.0000</r>
       <r>  -1.1065  1.0000</r>
       <r>  -1.0962  1.0000</r>
       <r>  -1.0735  1.0000</r>
       <r>  -0.9858  1.0000</r>
       <r>  -0.9713  1.0000</r>
       <r>  -0.8457  1.0000</r>
       <r>  -0.8199  1.0000</r>
       <r>  -0.6628  1.0000</r>
       <r>  -0.3567  1.0000</r>
       <r>  -0.3546  1.0000</r>
       <r>  -0.2608  1.0000</r>
       <r>  -0.2138  1.0000</r>
       <r>  -0.2134  1.0000</r>
       <r>  -0.1472  1.0000</r>
       <r>  -0.0246  1.0000</r>
       <r>   0.0097  1.0000</r>
       <r>   0.2732  1.0000</r>
       <r>   0.8230  1.0000</r>
       <r>   1.8838  0.0000</r>
       <r>   3.2504  0.0000</r>
       <r>   7.2890  0.0000</r>
       <r>   8.5301  0.0000</r>
       <r>   9.0639  0.0000</r>
       <r>   9.7823  0.0000</r>
      </set>
      <set comment="kpoint 25">
       <r>  -2.5855  1.0000</r>
       <r>  -2.5855  1.0000</r>
       <r>  -1.3366  1.0000</r>
       <r>  -1.3366  1.0000</r>
       <r>  -1.0469  1.0000</r>
       <r>  -1.0469  1.0000</r>
       <r>  -1.0429  1.0000</r>
       <r>  -1.0429  1.0000</r>
       <r>  -0.9631  1.0000</r>
       <r>  -0.9631  1.0000</r>
       <r>  -0.7414  1.0000</r>
       <r>  -0.7414  1.0000</r>
       <r>  -0.2998  1.0000</r>
       <r>  -0.2998  1.0000</r>
       <r>  -0.2655  1.0000</r>
       <r>  -0.2655  1.0000</r>
       <r>  -0.2599  1.0000</r>
       <r>  -0.2599  1.0000</r>
       <r>  -0.0133  1.0000</r>
       <r>  -0.0133  1.0000</r>
       <r>   0.4845  1.0000</r>
       <r>   0.4845  1.0000</r>
       <r>   2.4984  0.0000</r>
       <r>   2.4984  0.0000</r>
       <r>   8.1275  0.0000</r>
       <r>   8.1275  0.0000</r>
       <r>   9.0916  0.0000</r>
       <r>   9.0916  0.0000</r>
      </set>
      <set comment="kpoint 26">
       <r>  -2.6816  1.0000</r>
       <r>  -1.7757  1.0000</r>
       <r>  -1.7757  1.0000</r>
       <r>  -1.3964  1.0000</r>
       <r>  -1.0388  1.0000</r>
       <r>  -1.0388  1.0000</r>
       <r>  -1.0036  1.0000</r>
       <r>  -0.9905  1.0000</r>
       <r>  -0.9005  1.0000</r>
       <r>  -0.8855  1.0000</r>
       <r>  -0.8855  1.0000</r>
       <r>  -0.7079  1.0000</r>
       <r>  -0.3836  1.0000</r>
       <r>  -0.3120  1.0000</r>
       <r>  -0.3069  1.0000</r>
       <r>  -0.2870  1.0000</r>
       <r>  -0.2870  1.0000</r>
       <r>  -0.1337  1.0000</r>
       <r>  -0.1337  1.0000</r>
       <r>  -0.0588  1.0000</r>
       <r>   0.4770  1.0000</r>
       <r>   1.2124  1.0000</r>
       <r>   1.2124  1.0000</r>
       <r>   2.3980  0.0000</r>
       <r>   7.9944  0.0000</r>
       <r>   9.0059  0.0000</r>
       <r>   9.7339  0.0000</r>
       <r>   9.7339  0.0000</r>
      </set>
      <set comment="kpoint 27">
       <r>  -2.2028  1.0000</r>
       <r>  -2.2028  1.0000</r>
       <r>  -1.5453  1.0000</r>
       <r>  -1.5453  1.0000</r>
       <r>  -1.0092  1.0000</r>
       <r>  -1.0092  1.0000</r>
       <r>  -0.9674  1.0000</r>
       <r>  -0.9674  1.0000</r>
       <r>  -0.9364  1.0000</r>
       <r>  -0.9364  1.0000</r>
       <r>  -0.7853  1.0000</r>
       <r>  -0.7853  1.0000</r>
       <r>  -0.3574  1.0000</r>
       <r>  -0.3574  1.0000</r>
       <r>  -0.3278  1.0000</r>
       <r>  -0.3278  1.0000</r>
       <r>  -0.2310  1.0000</r>
       <r>  -0.2310  1.0000</r>
       <r>  -0.1060  1.0000</r>
       <r>  -0.1060  1.0000</r>
       <r>   0.7664  1.0000</r>
       <r>   0.7664  1.0000</r>
       <r>   1.7243  0.0000</r>
       <r>   1.7243  0.0000</r>
       <r>   8.8128  0.0000</r>
       <r>   8.8128  0.0000</r>
       <r>   9.6068  0.0000</r>
       <r>   9.6068  0.0000</r>
      </set>
      <set comment="kpoint 28">
       <r>  -1.8386  1.0000</r>
       <r>  -1.8386  1.0000</r>
       <r>  -1.8386  1.0000</r>
       <r>  -1.8386  1.0000</r>
       <r>  -0.9827  1.0000</r>
       <r>  -0.9827  1.0000</r>
       <r>  -0.9827  1.0000</r>
       <r>  -0.9827  1.0000</r>
       <r>  -0.8441  1.0000</r>
       <r>  -0.8441  1.0000</r>
       <r>  -0.8441  1.0000</r>
       <r>  -0.8441  1.0000</r>
       <r>  -0.3708  1.0000</r>
       <r>  -0.3708  1.0000</r>
       <r>  -0.3708  1.0000</r>
       <r>  -0.3708  1.0000</r>
       <r>  -0.1803  1.0000</r>
       <r>  -0.1803  1.0000</r>
       <r>  -0.1803  1.0000</r>
       <r>  -0.1803  1.0000</r>
       <r>   1.1594  1.0000</r>
       <r>   1.1594  1.0000</r>
       <r>   1.1594  1.0000</r>
       <r>   1.1594  1.0000</r>
       <r>   9.6136  0.0000</r>
       <r>   9.6136  0.0000</r>
       <r>   9.6136  0.0000</r>
       <r>   9.6136  0.0000</r>
      </set>
      <set comment="kpoint 29">
       <r>  -5.5015  1.0000</r>
       <r>  -1.7931  1.0000</r>
       <r>  -1.7931  1.0000</r>
       <r>  -1.7931  1.0000</r>
       <r>  -1.5120  1.0000</r>
       <r>  -1.5120  1.0000</r>
       <r>  -1.5120  1.0000</r>
       <r>  -0.7257  1.0000</r>
       <r>  -0.6663  1.0000</r>
       <r>  -0.6663  1.0000</r>
       <r>  -0.1903  1.0000</r>
       <r>  -0.1903  1.0000</r>
       <r>   0.0965  1.0000</r>
       <r>   0.0965  1.0000</r>
       <r>   0.0965  1.0000</r>
       <r>   0.1144  1.0000</r>
       <r>   0.1144  1.0000</r>
       <r>   0.1144  1.0000</r>
       <r>   0.2366  1.0000</r>
       <r>   0.2366  1.0000</r>
       <r>   0.2366  1.0000</r>
       <r>   3.0147  0.0000</r>
       <r>   3.0147  0.0000</r>
       <r>   3.0147  0.0000</r>
       <r>   7.5644  0.0000</r>
       <r>   7.5644  0.0000</r>
       <r>   7.5644  0.0000</r>
       <r>  11.1309  0.0000</r>
      </set>
      <set comment="kpoint 30">
       <r>  -5.2996  1.0000</r>
       <r>  -1.8133  1.0000</r>
       <r>  -1.7162  1.0000</r>
       <r>  -1.7162  1.0000</r>
       <r>  -1.4716  1.0000</r>
       <r>  -1.4675  1.0000</r>
       <r>  -1.4675  1.0000</r>
       <r>  -0.7612  1.0000</r>
       <r>  -0.6370  1.0000</r>
       <r>  -0.6343  1.0000</r>
       <r>  -0.2260  1.0000</r>
       <r>  -0.1688  1.0000</r>
       <r>  -0.0895  1.0000</r>
       <r>  -0.0895  1.0000</r>
       <r>   0.0106  1.0000</r>
       <r>   0.0676  1.0000</r>
       <r>   0.0713  1.0000</r>
       <r>   0.0713  1.0000</r>
       <r>   0.2095  1.0000</r>
       <r>   0.2300  1.0000</r>
       <r>   0.2300  1.0000</r>
       <r>   1.9888  0.0000</r>
       <r>   3.3614  0.0000</r>
       <r>   3.3614  0.0000</r>
       <r>   7.6927  0.0000</r>
       <r>   7.6927  0.0000</r>
       <r>   9.0529  0.0000</r>
       <r>   9.9720  0.0000</r>
      </set>
      <set comment="kpoint 31">
       <r>  -4.9672  1.0000</r>
       <r>  -1.9014  1.0000</r>
       <r>  -1.6013  1.0000</r>
       <r>  -1.6013  1.0000</r>
       <r>  -1.4070  1.0000</r>
       <r>  -1.3930  1.0000</r>
       <r>  -1.3930  1.0000</r>
       <r>  -0.8255  1.0000</r>
       <r>  -0.5847  1.0000</r>
       <r>  -0.5818  1.0000</r>
       <r>  -0.3277  1.0000</r>
       <r>  -0.3277  1.0000</r>
       <r>  -0.2761  1.0000</r>
       <r>  -0.1393  1.0000</r>
       <r>  -0.1347  1.0000</r>
       <r>  -0.0079  1.0000</r>
       <r>   0.0014  1.0000</r>
       <r>   0.0014  1.0000</r>
       <r>   0.1707  1.0000</r>
       <r>   0.2247  1.0000</r>
       <r>   0.2247  1.0000</r>
       <r>   1.0402  1.0000</r>
       <r>   3.8635  0.0000</r>
       <r>   3.8635  0.0000</r>
       <r>   7.9009  0.0000</r>
       <r>   7.9009  0.0000</r>
       <r>   8.8683  0.0000</r>
       <r>   8.8683  0.0000</r>
      </set>
      <set comment="kpoint 32">
       <r>  -4.5116  1.0000</r>
       <r>  -2.1616  1.0000</r>
       <r>  -1.4685  1.0000</r>
       <r>  -1.4685  1.0000</r>
       <r>  -1.3226  1.0000</r>
       <r>  -1.2907  1.0000</r>
       <r>  -1.2907  1.0000</r>
       <r>  -0.9109  1.0000</r>
       <r>  -0.5716  1.0000</r>
       <r>  -0.5716  1.0000</r>
       <r>  -0.5310  1.0000</r>
       <r>  -0.5100  1.0000</r>
       <r>  -0.3467  1.0000</r>
       <r>  -0.3135  1.0000</r>
       <r>  -0.1044  1.0000</r>
       <r>  -0.0905  1.0000</r>
       <r>  -0.0859  1.0000</r>
       <r>  -0.0859  1.0000</r>
       <r>   0.1238  1.0000</r>
       <r>   0.2216  1.0000</r>
       <r>   0.2216  1.0000</r>
       <r>   0.3916  1.0000</r>
       <r>   4.4759  0.0000</r>
       <r>   4.4759  0.0000</r>
       <r>   7.7248  0.0000</r>
       <r>   7.7248  0.0000</r>
       <r>   8.3328  0.0000</r>
       <r>   8.3328  0.0000</r>
      </set>
      <set comment="kpoint 33">
       <r>  -3.9480  1.0000</r>
       <r>  -2.6658  1.0000</r>
       <r>  -1.3494  1.0000</r>
       <r>  -1.3494  1.0000</r>
       <r>  -1.2238  1.0000</r>
       <r>  -1.1662  1.0000</r>
       <r>  -1.1662  1.0000</r>
       <r>  -1.0107  1.0000</r>
       <r>  -0.7952  1.0000</r>
       <r>  -0.7952  1.0000</r>
       <r>  -0.5252  1.0000</r>
       <r>  -0.5062  1.0000</r>
       <r>  -0.4214  1.0000</r>
       <r>  -0.2742  1.0000</r>
       <r>  -0.2117  1.0000</r>
       <r>  -0.1654  1.0000</r>
       <r>  -0.1654  1.0000</r>
       <r>  -0.0392  1.0000</r>
       <r>   0.0492  1.0000</r>
       <r>   0.0713  1.0000</r>
       <r>   0.2202  1.0000</r>
       <r>   0.2202  1.0000</r>
       <r>   5.1757  0.0000</r>
       <r>   5.1757  0.0000</r>
       <r>   6.8147  0.0000</r>
       <r>   6.8147  0.0000</r>
       <r>   8.7224  0.0000</r>
       <r>   8.7224  0.0000</r>
      </set>
      <set comment="kpoint 34">
       <r>  -3.3083  1.0000</r>
       <r>  -3.3083  1.0000</r>
       <r>  -1.2978  1.0000</r>
       <r>  -1.2978  1.0000</r>
       <r>  -1.1174  1.0000</r>
       <r>  -1.1174  1.0000</r>
       <r>  -1.0531  1.0000</r>
       <r>  -1.0531  1.0000</r>
       <r>  -0.9461  1.0000</r>
       <r>  -0.9461  1.0000</r>
       <r>  -0.5455  1.0000</r>
       <r>  -0.5455  1.0000</r>
       <r>  -0.3200  1.0000</r>
       <r>  -0.3200  1.0000</r>
       <r>  -0.1992  1.0000</r>
       <r>  -0.1992  1.0000</r>
       <r>  -0.1483  1.0000</r>
       <r>  -0.1483  1.0000</r>
       <r>   0.0159  1.0000</r>
       <r>   0.0159  1.0000</r>
       <r>   0.2197  1.0000</r>
       <r>   0.2197  1.0000</r>
       <r>   5.9291  0.0000</r>
       <r>   5.9291  0.0000</r>
       <r>   5.9826  0.0000</r>
       <r>   5.9826  0.0000</r>
       <r>   9.0756  0.0000</r>
       <r>   9.0756  0.0000</r>
      </set>
      <set comment="kpoint 35">
       <r>  -5.1001  1.0000</r>
       <r>  -1.7301  1.0000</r>
       <r>  -1.7301  1.0000</r>
       <r>  -1.6483  1.0000</r>
       <r>  -1.4291  1.0000</r>
       <r>  -1.4291  1.0000</r>
       <r>  -1.4259  1.0000</r>
       <r>  -0.7821  1.0000</r>
       <r>  -0.6192  1.0000</r>
       <r>  -0.6151  1.0000</r>
       <r>  -0.2304  1.0000</r>
       <r>  -0.2060  1.0000</r>
       <r>  -0.1926  1.0000</r>
       <r>  -0.1926  1.0000</r>
       <r>  -0.1664  1.0000</r>
       <r>   0.0106  1.0000</r>
       <r>   0.0307  1.0000</r>
       <r>   0.0307  1.0000</r>
       <r>   0.2060  1.0000</r>
       <r>   0.2060  1.0000</r>
       <r>   0.2109  1.0000</r>
       <r>   2.3164  0.0000</r>
       <r>   2.3164  0.0000</r>
       <r>   3.6752  0.0000</r>
       <r>   7.8099  0.0000</r>
       <r>   8.7355  0.0000</r>
       <r>   9.1863  0.0000</r>
       <r>   9.1863  0.0000</r>
      </set>
      <set comment="kpoint 36">
       <r>  -4.7717  1.0000</r>
       <r>  -1.8061  1.0000</r>
       <r>  -1.6059  1.0000</r>
       <r>  -1.5478  1.0000</r>
       <r>  -1.3675  1.0000</r>
       <r>  -1.3578  1.0000</r>
       <r>  -1.3569  1.0000</r>
       <r>  -0.8321  1.0000</r>
       <r>  -0.5849  1.0000</r>
       <r>  -0.5762  1.0000</r>
       <r>  -0.4324  1.0000</r>
       <r>  -0.3925  1.0000</r>
       <r>  -0.3489  1.0000</r>
       <r>  -0.2634  1.0000</r>
       <r>  -0.1278  1.0000</r>
       <r>  -0.0536  1.0000</r>
       <r>  -0.0450  1.0000</r>
       <r>  -0.0225  1.0000</r>
       <r>   0.1702  1.0000</r>
       <r>   0.1911  1.0000</r>
       <r>   0.1920  1.0000</r>
       <r>   1.3564  1.0000</r>
       <r>   2.7734  0.0000</r>
       <r>   4.1437  0.0000</r>
       <r>   7.4731  0.0000</r>
       <r>   8.1470  0.0000</r>
       <r>   8.9735  0.0000</r>
       <r>   9.5733  0.0000</r>
      </set>
      <set comment="kpoint 37">
       <r>  -4.3228  1.0000</r>
       <r>  -2.0465  1.0000</r>
       <r>  -1.4614  1.0000</r>
       <r>  -1.4284  1.0000</r>
       <r>  -1.2872  1.0000</r>
       <r>  -1.2702  1.0000</r>
       <r>  -1.2611  1.0000</r>
       <r>  -0.9065  1.0000</r>
       <r>  -0.6632  1.0000</r>
       <r>  -0.5987  1.0000</r>
       <r>  -0.5618  1.0000</r>
       <r>  -0.5202  1.0000</r>
       <r>  -0.5140  1.0000</r>
       <r>  -0.2791  1.0000</r>
       <r>  -0.1429  1.0000</r>
       <r>  -0.1269  1.0000</r>
       <r>  -0.0975  1.0000</r>
       <r>  -0.0699  1.0000</r>
       <r>   0.1182  1.0000</r>
       <r>   0.1786  1.0000</r>
       <r>   0.1789  1.0000</r>
       <r>   0.6632  1.0000</r>
       <r>   3.3240  0.0000</r>
       <r>   4.7276  0.0000</r>
       <r>   6.4577  0.0000</r>
       <r>   7.9856  0.0000</r>
       <r>   8.4596  0.0000</r>
       <r>   9.8711  0.0000</r>
      </set>
      <set comment="kpoint 38">
       <r>  -3.7693  1.0000</r>
       <r>  -2.5253  1.0000</r>
       <r>  -1.3237  1.0000</r>
       <r>  -1.3036  1.0000</r>
       <r>  -1.1942  1.0000</r>
       <r>  -1.1937  1.0000</r>
       <r>  -1.1584  1.0000</r>
       <r>  -0.9967  1.0000</r>
       <r>  -0.8566  1.0000</r>
       <r>  -0.7889  1.0000</r>
       <r>  -0.6166  1.0000</r>
       <r>  -0.5792  1.0000</r>
       <r>  -0.4378  1.0000</r>
       <r>  -0.2476  1.0000</r>
       <r>  -0.2238  1.0000</r>
       <r>  -0.1925  1.0000</r>
       <r>  -0.1737  1.0000</r>
       <r>   0.0007  1.0000</r>
       <r>   0.0355  1.0000</r>
       <r>   0.1716  1.0000</r>
       <r>   0.1721  1.0000</r>
       <r>   0.2682  1.0000</r>
       <r>   3.9598  0.0000</r>
       <r>   5.3580  0.0000</r>
       <r>   5.5745  0.0000</r>
       <r>   7.0428  0.0000</r>
       <r>   8.9215  0.0000</r>
       <r>  10.0697  0.0000</r>
      </set>
      <set comment="kpoint 39">
       <r>  -3.1452  1.0000</r>
       <r>  -3.1452  1.0000</r>
       <r>  -1.2418  1.0000</r>
       <r>  -1.2418  1.0000</r>
       <r>  -1.1353  1.0000</r>
       <r>  -1.1353  1.0000</r>
       <r>  -1.0950  1.0000</r>
       <r>  -1.0950  1.0000</r>
       <r>  -0.9181  1.0000</r>
       <r>  -0.9181  1.0000</r>
       <r>  -0.6175  1.0000</r>
       <r>  -0.6175  1.0000</r>
       <r>  -0.3481  1.0000</r>
       <r>  -0.3481  1.0000</r>
       <r>  -0.2141  1.0000</r>
       <r>  -0.2141  1.0000</r>
       <r>  -0.0989  1.0000</r>
       <r>  -0.0989  1.0000</r>
       <r>   0.0913  1.0000</r>
       <r>   0.0913  1.0000</r>
       <r>   0.1697  1.0000</r>
       <r>   0.1697  1.0000</r>
       <r>   4.6842  0.0000</r>
       <r>   4.6842  0.0000</r>
       <r>   6.1896  0.0000</r>
       <r>   6.1896  0.0000</r>
       <r>   9.5009  0.0000</r>
       <r>   9.5009  0.0000</r>
      </set>
      <set comment="kpoint 40">
       <r>  -4.4510  1.0000</r>
       <r>  -1.6644  1.0000</r>
       <r>  -1.6644  1.0000</r>
       <r>  -1.4733  1.0000</r>
       <r>  -1.3008  1.0000</r>
       <r>  -1.3008  1.0000</r>
       <r>  -1.2949  1.0000</r>
       <r>  -0.8578  1.0000</r>
       <r>  -0.5827  1.0000</r>
       <r>  -0.5730  1.0000</r>
       <r>  -0.5730  1.0000</r>
       <r>  -0.5518  1.0000</r>
       <r>  -0.5059  1.0000</r>
       <r>  -0.2749  1.0000</r>
       <r>  -0.1202  1.0000</r>
       <r>  -0.0832  1.0000</r>
       <r>  -0.0832  1.0000</r>
       <r>  -0.0809  1.0000</r>
       <r>   0.1451  1.0000</r>
       <r>   0.1451  1.0000</r>
       <r>   0.1562  1.0000</r>
       <r>   1.7720  0.0000</r>
       <r>   1.7720  0.0000</r>
       <r>   4.5720  0.0000</r>
       <r>   6.3278  0.0000</r>
       <r>   8.3650  0.0000</r>
       <r>   9.4060  0.0000</r>
       <r>   9.4060  0.0000</r>
      </set>
      <set comment="kpoint 41">
       <r>  -4.0144  1.0000</r>
       <r>  -1.8752  1.0000</r>
       <r>  -1.5023  1.0000</r>
       <r>  -1.3889  1.0000</r>
       <r>  -1.2269  1.0000</r>
       <r>  -1.2195  1.0000</r>
       <r>  -1.2091  1.0000</r>
       <r>  -0.9081  1.0000</r>
       <r>  -0.7723  1.0000</r>
       <r>  -0.6921  1.0000</r>
       <r>  -0.6487  1.0000</r>
       <r>  -0.5887  1.0000</r>
       <r>  -0.5070  1.0000</r>
       <r>  -0.2800  1.0000</r>
       <r>  -0.1862  1.0000</r>
       <r>  -0.1736  1.0000</r>
       <r>  -0.1404  1.0000</r>
       <r>  -0.0000  1.0000</r>
       <r>   0.0828  1.0000</r>
       <r>   0.1194  1.0000</r>
       <r>   0.1262  1.0000</r>
       <r>   1.0078  1.0000</r>
       <r>   2.2665  0.0000</r>
       <r>   5.0470  0.0000</r>
       <r>   5.3535  0.0000</r>
       <r>   8.3617  0.0000</r>
       <r>   8.7298  0.0000</r>
       <r>   9.9266  0.0000</r>
      </set>
      <set comment="kpoint 42">
       <r>  -3.4804  1.0000</r>
       <r>  -2.3097  1.0000</r>
       <r>  -1.3523  1.0000</r>
       <r>  -1.2998  1.0000</r>
       <r>  -1.1677  1.0000</r>
       <r>  -1.1438  1.0000</r>
       <r>  -1.1207  1.0000</r>
       <r>  -0.9776  1.0000</r>
       <r>  -0.9147  1.0000</r>
       <r>  -0.7885  1.0000</r>
       <r>  -0.7253  1.0000</r>
       <r>  -0.6265  1.0000</r>
       <r>  -0.4467  1.0000</r>
       <r>  -0.2745  1.0000</r>
       <r>  -0.2390  1.0000</r>
       <r>  -0.2287  1.0000</r>
       <r>  -0.2067  1.0000</r>
       <r>  -0.0072  1.0000</r>
       <r>   0.1039  1.0000</r>
       <r>   0.1068  1.0000</r>
       <r>   0.1070  1.0000</r>
       <r>   0.5240  1.0000</r>
       <r>   2.8464  0.0000</r>
       <r>   4.3202  0.0000</r>
       <r>   5.8127  0.0000</r>
       <r>   7.4123  0.0000</r>
       <r>   9.2212  0.0000</r>
       <r>  10.5720  0.0000</r>
      </set>
      <set comment="kpoint 43">
       <r>  -2.8867  1.0000</r>
       <r>  -2.8867  1.0000</r>
       <r>  -1.2584  1.0000</r>
       <r>  -1.2584  1.0000</r>
       <r>  -1.1405  1.0000</r>
       <r>  -1.1405  1.0000</r>
       <r>  -1.0586  1.0000</r>
       <r>  -1.0586  1.0000</r>
       <r>  -0.8991  1.0000</r>
       <r>  -0.8991  1.0000</r>
       <r>  -0.6862  1.0000</r>
       <r>  -0.6862  1.0000</r>
       <r>  -0.3687  1.0000</r>
       <r>  -0.3687  1.0000</r>
       <r>  -0.2495  1.0000</r>
       <r>  -0.2495  1.0000</r>
       <r>  -0.1232  1.0000</r>
       <r>  -0.1232  1.0000</r>
       <r>   0.0998  1.0000</r>
       <r>   0.0998  1.0000</r>
       <r>   0.2589  1.0000</r>
       <r>   0.2589  1.0000</r>
       <r>   3.5269  0.0000</r>
       <r>   3.5269  0.0000</r>
       <r>   6.5621  0.0000</r>
       <r>   6.5621  0.0000</r>
       <r>   9.8389  0.0000</r>
       <r>   9.8389  0.0000</r>
      </set>
      <set comment="kpoint 44">
       <r>  -3.5984  1.0000</r>
       <r>  -1.6810  1.0000</r>
       <r>  -1.6810  1.0000</r>
       <r>  -1.3658  1.0000</r>
       <r>  -1.1439  1.0000</r>
       <r>  -1.1408  1.0000</r>
       <r>  -1.1408  1.0000</r>
       <r>  -0.9248  1.0000</r>
       <r>  -0.8344  1.0000</r>
       <r>  -0.8344  1.0000</r>
       <r>  -0.7198  1.0000</r>
       <r>  -0.6138  1.0000</r>
       <r>  -0.4887  1.0000</r>
       <r>  -0.2862  1.0000</r>
       <r>  -0.2495  1.0000</r>
       <r>  -0.2165  1.0000</r>
       <r>  -0.2165  1.0000</r>
       <r>   0.0456  1.0000</r>
       <r>   0.0456  1.0000</r>
       <r>   0.0767  1.0000</r>
       <r>   0.1119  1.0000</r>
       <r>   1.4198  1.0000</r>
       <r>   1.4198  1.0000</r>
       <r>   4.1897  0.0000</r>
       <r>   5.6872  0.0000</r>
       <r>   8.8684  0.0000</r>
       <r>   8.8684  0.0000</r>
       <r>   9.1227  0.0000</r>
      </set>
      <set comment="kpoint 45">
       <r>  -3.0980  1.0000</r>
       <r>  -2.0514  1.0000</r>
       <r>  -1.5096  1.0000</r>
       <r>  -1.3626  1.0000</r>
       <r>  -1.0771  1.0000</r>
       <r>  -1.0719  1.0000</r>
       <r>  -1.0432  1.0000</r>
       <r>  -0.9601  1.0000</r>
       <r>  -0.9271  1.0000</r>
       <r>  -0.8114  1.0000</r>
       <r>  -0.8013  1.0000</r>
       <r>  -0.6616  1.0000</r>
       <r>  -0.4549  1.0000</r>
       <r>  -0.3084  1.0000</r>
       <r>  -0.2988  1.0000</r>
       <r>  -0.2698  1.0000</r>
       <r>  -0.2464  1.0000</r>
       <r>  -0.0486  1.0000</r>
       <r>   0.0225  1.0000</r>
       <r>   0.0391  1.0000</r>
       <r>   0.2612  1.0000</r>
       <r>   0.8331  1.0000</r>
       <r>   1.9202  0.0000</r>
       <r>   3.2907  0.0000</r>
       <r>   6.3214  0.0000</r>
       <r>   7.9139  0.0000</r>
       <r>   9.4996  0.0000</r>
       <r>   9.6415  0.0000</r>
      </set>
      <set comment="kpoint 46">
       <r>  -2.5569  1.0000</r>
       <r>  -2.5569  1.0000</r>
       <r>  -1.4010  1.0000</r>
       <r>  -1.4010  1.0000</r>
       <r>  -1.0339  1.0000</r>
       <r>  -1.0339  1.0000</r>
       <r>  -1.0107  1.0000</r>
       <r>  -1.0107  1.0000</r>
       <r>  -0.8893  1.0000</r>
       <r>  -0.8893  1.0000</r>
       <r>  -0.7379  1.0000</r>
       <r>  -0.7379  1.0000</r>
       <r>  -0.3936  1.0000</r>
       <r>  -0.3936  1.0000</r>
       <r>  -0.3075  1.0000</r>
       <r>  -0.3075  1.0000</r>
       <r>  -0.1562  1.0000</r>
       <r>  -0.1562  1.0000</r>
       <r>   0.0201  1.0000</r>
       <r>   0.0201  1.0000</r>
       <r>   0.4770  1.0000</r>
       <r>   0.4770  1.0000</r>
       <r>   2.5365  0.0000</r>
       <r>   2.5365  0.0000</r>
       <r>   7.0650  0.0000</r>
       <r>   7.0650  0.0000</r>
       <r>  10.2498  0.0000</r>
       <r>  10.2503  0.0000</r>
      </set>
      <set comment="kpoint 47">
       <r>  -2.6529  1.0000</r>
       <r>  -1.7984  1.0000</r>
       <r>  -1.7984  1.0000</r>
       <r>  -1.4571  1.0000</r>
       <r>  -0.9871  1.0000</r>
       <r>  -0.9823  1.0000</r>
       <r>  -0.9823  1.0000</r>
       <r>  -0.9520  1.0000</r>
       <r>  -0.8722  1.0000</r>
       <r>  -0.8722  1.0000</r>
       <r>  -0.8329  1.0000</r>
       <r>  -0.7036  1.0000</r>
       <r>  -0.4558  1.0000</r>
       <r>  -0.3541  1.0000</r>
       <r>  -0.3499  1.0000</r>
       <r>  -0.3499  1.0000</r>
       <r>  -0.2285  1.0000</r>
       <r>  -0.0703  1.0000</r>
       <r>  -0.0703  1.0000</r>
       <r>  -0.0213  1.0000</r>
       <r>   0.4658  1.0000</r>
       <r>   1.2259  1.0000</r>
       <r>   1.2259  1.0000</r>
       <r>   2.4291  0.0000</r>
       <r>   6.9493  0.0000</r>
       <r>   8.5392  0.0000</r>
       <r>   8.5392  0.0000</r>
       <r>  10.1421  0.0000</r>
      </set>
      <set comment="kpoint 48">
       <r>  -2.1971  1.0000</r>
       <r>  -2.1971  1.0000</r>
       <r>  -1.5964  1.0000</r>
       <r>  -1.5964  1.0000</r>
       <r>  -0.9583  1.0000</r>
       <r>  -0.9583  1.0000</r>
       <r>  -0.9230  1.0000</r>
       <r>  -0.9230  1.0000</r>
       <r>  -0.8925  1.0000</r>
       <r>  -0.8925  1.0000</r>
       <r>  -0.7785  1.0000</r>
       <r>  -0.7785  1.0000</r>
       <r>  -0.4210  1.0000</r>
       <r>  -0.4210  1.0000</r>
       <r>  -0.3750  1.0000</r>
       <r>  -0.3750  1.0000</r>
       <r>  -0.1628  1.0000</r>
       <r>  -0.1628  1.0000</r>
       <r>  -0.0610  1.0000</r>
       <r>  -0.0610  1.0000</r>
       <r>   0.7622  1.0000</r>
       <r>   0.7622  1.0000</r>
       <r>   1.7453  0.0000</r>
       <r>   1.7453  0.0000</r>
       <r>   7.6891  0.0000</r>
       <r>   7.6891  0.0000</r>
       <r>   9.2829  0.0000</r>
       <r>   9.2829  0.0000</r>
      </set>
      <set comment="kpoint 49">
       <r>  -1.8628  1.0000</r>
       <r>  -1.8628  1.0000</r>
       <r>  -1.8628  1.0000</r>
       <r>  -1.8628  1.0000</r>
       <r>  -0.9152  1.0000</r>
       <r>  -0.9152  1.0000</r>
       <r>  -0.9152  1.0000</r>
       <r>  -0.9152  1.0000</r>
       <r>  -0.8333  1.0000</r>
       <r>  -0.8333  1.0000</r>
       <r>  -0.8333  1.0000</r>
       <r>  -0.8333  1.0000</r>
       <r>  -0.4215  1.0000</r>
       <r>  -0.4215  1.0000</r>
       <r>  -0.4215  1.0000</r>
       <r>  -0.4215  1.0000</r>
       <r>  -0.1285  1.0000</r>
       <r>  -0.1285  1.0000</r>
       <r>  -0.1285  1.0000</r>
       <r>  -0.1285  1.0000</r>
       <r>   1.1645  1.0000</r>
       <r>   1.1645  1.0000</r>
       <r>   1.1645  1.0000</r>
       <r>   1.1645  1.0000</r>
       <r>   8.4290  0.0000</r>
       <r>   8.4290  0.0000</r>
       <r>   8.4290  0.0000</r>
       <r>   8.4290  0.0000</r>
      </set>
      <set comment="kpoint 50">
       <r>  -4.9033  1.0000</r>
       <r>  -1.6605  1.0000</r>
       <r>  -1.6605  1.0000</r>
       <r>  -1.6605  1.0000</r>
       <r>  -1.3874  1.0000</r>
       <r>  -1.3874  1.0000</r>
       <r>  -1.3874  1.0000</r>
       <r>  -0.7945  1.0000</r>
       <r>  -0.6073  1.0000</r>
       <r>  -0.6073  1.0000</r>
       <r>  -0.3035  1.0000</r>
       <r>  -0.3035  1.0000</r>
       <r>  -0.3035  1.0000</r>
       <r>  -0.1936  1.0000</r>
       <r>  -0.1936  1.0000</r>
       <r>  -0.0557  1.0000</r>
       <r>  -0.0557  1.0000</r>
       <r>  -0.0557  1.0000</r>
       <r>   0.2137  1.0000</r>
       <r>   0.2137  1.0000</r>
       <r>   0.2137  1.0000</r>
       <r>   2.6007  0.0000</r>
       <r>   2.6007  0.0000</r>
       <r>   2.6007  0.0000</r>
       <r>   8.8398  0.0000</r>
       <r>   8.8398  0.0000</r>
       <r>   8.8398  0.0000</r>
       <r>   9.4750  0.0000</r>
      </set>
      <set comment="kpoint 51">
       <r>  -4.5801  1.0000</r>
       <r>  -1.7315  1.0000</r>
       <r>  -1.5598  1.0000</r>
       <r>  -1.5598  1.0000</r>
       <r>  -1.3250  1.0000</r>
       <r>  -1.3176  1.0000</r>
       <r>  -1.3176  1.0000</r>
       <r>  -0.8311  1.0000</r>
       <r>  -0.5865  1.0000</r>
       <r>  -0.5832  1.0000</r>
       <r>  -0.4811  1.0000</r>
       <r>  -0.4811  1.0000</r>
       <r>  -0.4514  1.0000</r>
       <r>  -0.2228  1.0000</r>
       <r>  -0.1422  1.0000</r>
       <r>  -0.1388  1.0000</r>
       <r>  -0.1145  1.0000</r>
       <r>  -0.1145  1.0000</r>
       <r>   0.1980  1.0000</r>
       <r>   0.1980  1.0000</r>
       <r>   0.2014  1.0000</r>
       <r>   1.6086  0.8750</r>
       <r>   3.0193  0.0000</r>
       <r>   3.0193  0.0000</r>
       <r>   7.7277  0.0000</r>
       <r>   7.7277  0.0000</r>
       <r>   9.2723  0.0000</r>
       <r>   9.6918  0.0000</r>
      </set>
      <set comment="kpoint 52">
       <r>  -4.1395  1.0000</r>
       <r>  -1.9566  1.0000</r>
       <r>  -1.4448  1.0000</r>
       <r>  -1.4448  1.0000</r>
       <r>  -1.2443  1.0000</r>
       <r>  -1.2311  1.0000</r>
       <r>  -1.2311  1.0000</r>
       <r>  -0.8924  1.0000</r>
       <r>  -0.6634  1.0000</r>
       <r>  -0.6634  1.0000</r>
       <r>  -0.5981  1.0000</r>
       <r>  -0.5753  1.0000</r>
       <r>  -0.5437  1.0000</r>
       <r>  -0.2365  1.0000</r>
       <r>  -0.2171  1.0000</r>
       <r>  -0.1729  1.0000</r>
       <r>  -0.1729  1.0000</r>
       <r>  -0.0732  1.0000</r>
       <r>   0.1710  1.0000</r>
       <r>   0.1757  1.0000</r>
       <r>   0.1757  1.0000</r>
       <r>   0.8507  1.0000</r>
       <r>   3.5405  0.0000</r>
       <r>   3.5405  0.0000</r>
       <r>   6.6832  0.0000</r>
       <r>   6.6832  0.0000</r>
       <r>   9.7959  0.0000</r>
       <r>  10.0683  0.0000</r>
      </set>
      <set comment="kpoint 53">
       <r>  -3.5993  1.0000</r>
       <r>  -2.4055  1.0000</r>
       <r>  -1.3287  1.0000</r>
       <r>  -1.3287  1.0000</r>
       <r>  -1.1714  1.0000</r>
       <r>  -1.1714  1.0000</r>
       <r>  -1.1535  1.0000</r>
       <r>  -0.9712  1.0000</r>
       <r>  -0.8010  1.0000</r>
       <r>  -0.8010  1.0000</r>
       <r>  -0.6656  1.0000</r>
       <r>  -0.6033  1.0000</r>
       <r>  -0.4874  1.0000</r>
       <r>  -0.3298  1.0000</r>
       <r>  -0.2301  1.0000</r>
       <r>  -0.2301  1.0000</r>
       <r>  -0.1304  1.0000</r>
       <r>  -0.0034  1.0000</r>
       <r>   0.1239  1.0000</r>
       <r>   0.1592  1.0000</r>
       <r>   0.1592  1.0000</r>
       <r>   0.3555  1.0000</r>
       <r>   4.1467  0.0000</r>
       <r>   4.1467  0.0000</r>
       <r>   5.7604  0.0000</r>
       <r>   5.7604  0.0000</r>
       <r>  10.4406  0.0000</r>
       <r>  10.5550  0.0000</r>
      </set>
      <set comment="kpoint 54">
       <r>  -2.9959  1.0000</r>
       <r>  -2.9959  1.0000</r>
       <r>  -1.2503  1.0000</r>
       <r>  -1.2503  1.0000</r>
       <r>  -1.1819  1.0000</r>
       <r>  -1.1819  1.0000</r>
       <r>  -1.0603  1.0000</r>
       <r>  -1.0603  1.0000</r>
       <r>  -0.8479  1.0000</r>
       <r>  -0.8479  1.0000</r>
       <r>  -0.6502  1.0000</r>
       <r>  -0.6502  1.0000</r>
       <r>  -0.4152  1.0000</r>
       <r>  -0.4152  1.0000</r>
       <r>  -0.2565  1.0000</r>
       <r>  -0.2565  1.0000</r>
       <r>   0.0522  1.0000</r>
       <r>   0.0522  1.0000</r>
       <r>   0.0641  1.0000</r>
       <r>   0.0641  1.0000</r>
       <r>   0.1534  1.0000</r>
       <r>   0.1534  1.0000</r>
       <r>   4.6722  0.0000</r>
       <r>   4.6722  0.0000</r>
       <r>   5.1290  0.0000</r>
       <r>   5.1290  0.0000</r>
       <r>  10.9753  0.0000</r>
       <r>  10.9753  0.0000</r>
      </set>
      <set comment="kpoint 55">
       <r>  -4.2664  1.0000</r>
       <r>  -1.6280  1.0000</r>
       <r>  -1.6280  1.0000</r>
       <r>  -1.5008  1.0000</r>
       <r>  -1.2519  1.0000</r>
       <r>  -1.2519  1.0000</r>
       <r>  -1.2486  1.0000</r>
       <r>  -0.8427  1.0000</r>
       <r>  -0.6012  1.0000</r>
       <r>  -0.6012  1.0000</r>
       <r>  -0.5877  1.0000</r>
       <r>  -0.5775  1.0000</r>
       <r>  -0.5685  1.0000</r>
       <r>  -0.2080  1.0000</r>
       <r>  -0.1984  1.0000</r>
       <r>  -0.1984  1.0000</r>
       <r>  -0.1962  1.0000</r>
       <r>  -0.1038  1.0000</r>
       <r>   0.1837  1.0000</r>
       <r>   0.1912  1.0000</r>
       <r>   0.1912  1.0000</r>
       <r>   1.9782  0.0000</r>
       <r>   1.9782  0.0000</r>
       <r>   3.3945  0.0000</r>
       <r>   6.5541  0.0000</r>
       <r>   8.1055  0.0000</r>
       <r>   8.1055  0.0000</r>
       <r>   9.9680  0.0000</r>
      </set>
      <set comment="kpoint 56">
       <r>  -3.8417  1.0000</r>
       <r>  -1.8320  1.0000</r>
       <r>  -1.5202  1.0000</r>
       <r>  -1.4417  1.0000</r>
       <r>  -1.1680  1.0000</r>
       <r>  -1.1673  1.0000</r>
       <r>  -1.1587  1.0000</r>
       <r>  -0.8759  1.0000</r>
       <r>  -0.7386  1.0000</r>
       <r>  -0.7010  1.0000</r>
       <r>  -0.6706  1.0000</r>
       <r>  -0.5955  1.0000</r>
       <r>  -0.5573  1.0000</r>
       <r>  -0.2911  1.0000</r>
       <r>  -0.2582  1.0000</r>
       <r>  -0.2451  1.0000</r>
       <r>  -0.1918  1.0000</r>
       <r>  -0.0247  1.0000</r>
       <r>   0.1575  1.0000</r>
       <r>   0.1628  1.0000</r>
       <r>   0.1636  1.0000</r>
       <r>   1.1473  1.0000</r>
       <r>   2.4435  0.0000</r>
       <r>   3.8615  0.0000</r>
       <r>   5.5252  0.0000</r>
       <r>   7.0503  0.0000</r>
       <r>   8.6150  0.0000</r>
       <r>  10.3660  0.0000</r>
      </set>
      <set comment="kpoint 57">
       <r>  -3.3270  1.0000</r>
       <r>  -2.2296  1.0000</r>
       <r>  -1.4296  1.0000</r>
       <r>  -1.3930  1.0000</r>
       <r>  -1.1122  1.0000</r>
       <r>  -1.0934  1.0000</r>
       <r>  -1.0798  1.0000</r>
       <r>  -0.9296  1.0000</r>
       <r>  -0.8076  1.0000</r>
       <r>  -0.7458  1.0000</r>
       <r>  -0.7285  1.0000</r>
       <r>  -0.6337  1.0000</r>
       <r>  -0.5180  1.0000</r>
       <r>  -0.3807  1.0000</r>
       <r>  -0.3050  1.0000</r>
       <r>  -0.2919  1.0000</r>
       <r>  -0.1116  1.0000</r>
       <r>   0.0754  1.0000</r>
       <r>   0.1093  1.0000</r>
       <r>   0.1338  1.0000</r>
       <r>   0.1362  1.0000</r>
       <r>   0.5730  1.0000</r>
       <r>   3.0017  0.0000</r>
       <r>   4.1946  0.0000</r>
       <r>   4.8671  0.0000</r>
       <r>   6.1185  0.0000</r>
       <r>   9.2496  0.0000</r>
       <r>  10.8782  0.0000</r>
      </set>
      <set comment="kpoint 58">
       <r>  -2.7639  1.0000</r>
       <r>  -2.7639  1.0000</r>
       <r>  -1.3809  1.0000</r>
       <r>  -1.3809  1.0000</r>
       <r>  -1.0931  1.0000</r>
       <r>  -1.0931  1.0000</r>
       <r>  -0.9987  1.0000</r>
       <r>  -0.9987  1.0000</r>
       <r>  -0.7890  1.0000</r>
       <r>  -0.7890  1.0000</r>
       <r>  -0.6916  1.0000</r>
       <r>  -0.6916  1.0000</r>
       <r>  -0.4583  1.0000</r>
       <r>  -0.4583  1.0000</r>
       <r>  -0.3201  1.0000</r>
       <r>  -0.3201  1.0000</r>
       <r>   0.0151  1.0000</r>
       <r>   0.0151  1.0000</r>
       <r>   0.1251  1.0000</r>
       <r>   0.1251  1.0000</r>
       <r>   0.2375  1.0000</r>
       <r>   0.2375  1.0000</r>
       <r>   3.6484  0.0000</r>
       <r>   3.6484  0.0000</r>
       <r>   5.3252  0.0000</r>
       <r>   5.3252  0.0000</r>
       <r>  10.0033  0.0000</r>
       <r>  10.0033  0.0000</r>
      </set>
      <set comment="kpoint 59">
       <r>  -3.4438  1.0000</r>
       <r>  -1.7053  1.0000</r>
       <r>  -1.7053  1.0000</r>
       <r>  -1.4553  1.0000</r>
       <r>  -1.0872  1.0000</r>
       <r>  -1.0641  1.0000</r>
       <r>  -1.0641  1.0000</r>
       <r>  -0.8676  1.0000</r>
       <r>  -0.7871  1.0000</r>
       <r>  -0.7871  1.0000</r>
       <r>  -0.6853  1.0000</r>
       <r>  -0.6160  1.0000</r>
       <r>  -0.5588  1.0000</r>
       <r>  -0.3312  1.0000</r>
       <r>  -0.3312  1.0000</r>
       <r>  -0.3304  1.0000</r>
       <r>  -0.1854  1.0000</r>
       <r>   0.0801  1.0000</r>
       <r>   0.1263  1.0000</r>
       <r>   0.1293  1.0000</r>
       <r>   0.1293  1.0000</r>
       <r>   1.5366  1.0000</r>
       <r>   1.5366  1.0000</r>
       <r>   4.0257  0.0000</r>
       <r>   4.7808  0.0000</r>
       <r>   7.5502  0.0000</r>
       <r>   7.5502  0.0000</r>
       <r>  10.7616  0.0000</r>
      </set>
      <set comment="kpoint 60">
       <r>  -2.9733  1.0000</r>
       <r>  -2.0324  1.0000</r>
       <r>  -1.6019  1.0000</r>
       <r>  -1.4831  1.0000</r>
       <r>  -1.0232  1.0000</r>
       <r>  -0.9853  1.0000</r>
       <r>  -0.9714  1.0000</r>
       <r>  -0.8769  1.0000</r>
       <r>  -0.8051  1.0000</r>
       <r>  -0.7837  1.0000</r>
       <r>  -0.7032  1.0000</r>
       <r>  -0.6594  1.0000</r>
       <r>  -0.5383  1.0000</r>
       <r>  -0.4167  1.0000</r>
       <r>  -0.3797  1.0000</r>
       <r>  -0.3686  1.0000</r>
       <r>  -0.1331  1.0000</r>
       <r>   0.0654  1.0000</r>
       <r>   0.0945  1.0000</r>
       <r>   0.0947  1.0000</r>
       <r>   0.2255  1.0000</r>
       <r>   0.8722  1.0000</r>
       <r>   2.0275  0.0000</r>
       <r>   3.3665  0.0000</r>
       <r>   5.1202  0.0000</r>
       <r>   6.6083  0.0000</r>
       <r>   8.1752  0.0000</r>
       <r>   9.7827  0.0000</r>
      </set>
      <set comment="kpoint 61">
       <r>  -2.4786  1.0000</r>
       <r>  -2.4786  1.0000</r>
[...]
       <r>   1.1809  1.0000</r>
       <r>   1.1809  1.0000</r>
       <r>   1.1809  1.0000</r>
       <r>   7.1145  0.0000</r>
       <r>   7.1145  0.0000</r>
       <r>   7.1145  0.0000</r>
       <r>   7.1145  0.0000</r>
      </set>
      <set comment="kpoint 65">
       <r>  -3.9662  1.0000</r>
       <r>  -1.5868  1.0000</r>
       <r>  -1.5868  1.0000</r>
       <r>  -1.5868  1.0000</r>
       <r>  -1.1705  1.0000</r>
       <r>  -1.1705  1.0000</r>
       <r>  -1.1705  1.0000</r>
       <r>  -0.8269  1.0000</r>
       <r>  -0.6489  1.0000</r>
       <r>  -0.6489  1.0000</r>
       <r>  -0.6489  1.0000</r>
       <r>  -0.5940  1.0000</r>
       <r>  -0.5940  1.0000</r>
       <r>  -0.2868  1.0000</r>
       <r>  -0.2868  1.0000</r>
       <r>  -0.2868  1.0000</r>
       <r>  -0.1252  1.0000</r>
       <r>  -0.1252  1.0000</r>
       <r>   0.1982  1.0000</r>
       <r>   0.1982  1.0000</r>
       <r>   0.1982  1.0000</r>
       <r>   2.3000  0.0000</r>
       <r>   2.3000  0.0000</r>
       <r>   2.3000  0.0000</r>
       <r>   6.9224  0.0000</r>
       <r>   6.9224  0.0000</r>
       <r>   6.9224  0.0000</r>
       <r>  11.7408  0.0000</r>
      </set>
      <set comment="kpoint 66">
       <r>  -3.5642  1.0000</r>
       <r>  -1.7818  1.0000</r>
       <r>  -1.5526  1.0000</r>
       <r>  -1.5526  1.0000</r>
       <r>  -1.0800  1.0000</r>
       <r>  -1.0800  1.0000</r>
       <r>  -1.0711  1.0000</r>
       <r>  -0.8239  1.0000</r>
       <r>  -0.7126  1.0000</r>
       <r>  -0.6922  1.0000</r>
       <r>  -0.6922  1.0000</r>
       <r>  -0.6080  1.0000</r>
       <r>  -0.5922  1.0000</r>
       <r>  -0.3771  1.0000</r>
       <r>  -0.3449  1.0000</r>
       <r>  -0.3449  1.0000</r>
       <r>  -0.1080  1.0000</r>
       <r>  -0.0395  1.0000</r>
       <r>   0.1784  1.0000</r>
       <r>   0.1784  1.0000</r>
       <r>   0.1910  1.0000</r>
       <r>   1.3906  1.0000</r>
       <r>   2.7187  0.0000</r>
       <r>   2.7187  0.0000</r>
       <r>   5.8801  0.0000</r>
       <r>   5.8801  0.0000</r>
       <r>   7.4239  0.0000</r>
       <r>  10.6423  0.0000</r>
      </set>
      <set comment="kpoint 67">
       <r>  -3.0867  1.0000</r>
       <r>  -2.1215  1.0000</r>
       <r>  -1.5297  1.0000</r>
       <r>  -1.5297  1.0000</r>
       <r>  -1.0248  1.0000</r>
       <r>  -1.0248  1.0000</r>
       <r>  -0.9692  1.0000</r>
       <r>  -0.8430  1.0000</r>
       <r>  -0.7316  1.0000</r>
       <r>  -0.6946  1.0000</r>
       <r>  -0.6946  1.0000</r>
       <r>  -0.6465  1.0000</r>
       <r>  -0.5687  1.0000</r>
       <r>  -0.4580  1.0000</r>
       <r>  -0.3856  1.0000</r>
       <r>  -0.3856  1.0000</r>
       <r>   0.0051  1.0000</r>
       <r>   0.0410  1.0000</r>
       <r>   0.1516  1.0000</r>
       <r>   0.1516  1.0000</r>
       <r>   0.1608  1.0000</r>
       <r>   0.7119  1.0000</r>
       <r>   3.2012  0.0000</r>
       <r>   3.2012  0.0000</r>
       <r>   5.0179  0.0000</r>
       <r>   5.0179  0.0000</r>
       <r>   8.0506  0.0000</r>
       <r>   9.6615  0.0000</r>
      </set>
      <set comment="kpoint 68">
       <r>  -2.5814  1.0000</r>
       <r>  -2.5814  1.0000</r>
       <r>  -1.5214  1.0000</r>
       <r>  -1.5214  1.0000</r>
       <r>  -1.0126  1.0000</r>
       <r>  -1.0126  1.0000</r>
       <r>  -0.8892  1.0000</r>
       <r>  -0.8892  1.0000</r>
       <r>  -0.7012  1.0000</r>
       <r>  -0.7012  1.0000</r>
       <r>  -0.6799  1.0000</r>
       <r>  -0.6799  1.0000</r>
       <r>  -0.5233  1.0000</r>
       <r>  -0.5233  1.0000</r>
       <r>  -0.4043  1.0000</r>
       <r>  -0.4043  1.0000</r>
       <r>   0.1095  1.0000</r>
       <r>   0.1095  1.0000</r>
       <r>   0.1393  1.0000</r>
       <r>   0.1393  1.0000</r>
       <r>   0.2636  1.0000</r>
       <r>   0.2636  1.0000</r>
       <r>   3.5221  0.0000</r>
       <r>   3.5221  0.0000</r>
       <r>   4.5693  0.0000</r>
       <r>   4.5693  0.0000</r>
       <r>   8.7973  0.0000</r>
       <r>   8.7973  0.0000</r>
      </set>
      <set comment="kpoint 69">
       <r>  -3.2010  1.0000</r>
       <r>  -1.7378  1.0000</r>
       <r>  -1.7378  1.0000</r>
       <r>  -1.5919  1.0000</r>
       <r>  -0.9998  1.0000</r>
       <r>  -0.9689  1.0000</r>
       <r>  -0.9689  1.0000</r>
       <r>  -0.7628  1.0000</r>
       <r>  -0.7038  1.0000</r>
       <r>  -0.7038  1.0000</r>
       <r>  -0.6387  1.0000</r>
       <r>  -0.6229  1.0000</r>
       <r>  -0.6105  1.0000</r>
       <r>  -0.4308  1.0000</r>
       <r>  -0.4308  1.0000</r>
       <r>  -0.4205  1.0000</r>
       <r>  -0.0845  1.0000</r>
       <r>   0.0357  1.0000</r>
       <r>   0.1667  1.0000</r>
       <r>   0.1771  1.0000</r>
       <r>   0.1771  1.0000</r>
       <r>   1.7387  0.0000</r>
       <r>   1.7387  0.0000</r>
       <r>   3.0395  0.0000</r>
       <r>   4.9171  0.0000</r>
       <r>   6.3683  0.0000</r>
       <r>   6.3683  0.0000</r>
       <r>   9.5475  0.0000</r>
      </set>
      <set comment="kpoint 70">
       <r>  -2.7862  1.0000</r>
       <r>  -2.0107  1.0000</r>
       <r>  -1.7011  1.0000</r>
       <r>  -1.6309  1.0000</r>
       <r>  -0.9455  1.0000</r>
       <r>  -0.9208  1.0000</r>
       <r>  -0.8496  1.0000</r>
       <r>  -0.7201  1.0000</r>
       <r>  -0.7049  1.0000</r>
       <r>  -0.6600  1.0000</r>
       <r>  -0.6428  1.0000</r>
       <r>  -0.6008  1.0000</r>
       <r>  -0.5881  1.0000</r>
       <r>  -0.5062  1.0000</r>
       <r>  -0.4676  1.0000</r>
       <r>  -0.4637  1.0000</r>
       <r>  -0.0199  1.0000</r>
       <r>   0.1420  1.0000</r>
       <r>   0.1468  1.0000</r>
       <r>   0.1475  1.0000</r>
       <r>   0.1684  1.0000</r>
       <r>   0.9681  1.0000</r>
       <r>   2.1920  0.0000</r>
       <r>   3.1495  0.0000</r>
       <r>   4.4296  0.0000</r>
       <r>   5.4640  0.0000</r>
       <r>   6.9819  0.0000</r>
       <r>   8.5723  0.0000</r>
      </set>
      <set comment="kpoint 71">
       <r>  -2.3709  1.0000</r>
       <r>  -2.3709  1.0000</r>
       <r>  -1.6670  1.0000</r>
       <r>  -1.6670  1.0000</r>
       <r>  -0.9208  1.0000</r>
       <r>  -0.9208  1.0000</r>
       <r>  -0.7430  1.0000</r>
       <r>  -0.7430  1.0000</r>
       <r>  -0.7016  1.0000</r>
       <r>  -0.7016  1.0000</r>
       <r>  -0.5802  1.0000</r>
       <r>  -0.5802  1.0000</r>
       <r>  -0.5644  1.0000</r>
       <r>  -0.5644  1.0000</r>
       <r>  -0.4829  1.0000</r>
       <r>  -0.4829  1.0000</r>
       <r>   0.0824  1.0000</r>
       <r>   0.0824  1.0000</r>
       <r>   0.1300  1.0000</r>
       <r>   0.1300  1.0000</r>
       <r>   0.4427  1.0000</r>
       <r>   0.4427  1.0000</r>
       <r>   2.7270  0.0000</r>
       <r>   2.7270  0.0000</r>
       <r>   4.7504  0.0000</r>
       <r>   4.7504  0.0000</r>
       <r>   7.7171  0.0000</r>
       <r>   7.7171  0.0000</r>
      </set>
      <set comment="kpoint 72">
       <r>  -2.4650  1.0000</r>
       <r>  -1.9102  1.0000</r>
       <r>  -1.9102  1.0000</r>
       <r>  -1.7268  1.0000</r>
       <r>  -0.8788  1.0000</r>
       <r>  -0.8194  1.0000</r>
       <r>  -0.8194  1.0000</r>
       <r>  -0.6899  1.0000</r>
       <r>  -0.6154  1.0000</r>
       <r>  -0.6002  1.0000</r>
       <r>  -0.6002  1.0000</r>
       <r>  -0.5865  1.0000</r>
       <r>  -0.5252  1.0000</r>
       <r>  -0.5230  1.0000</r>
       <r>  -0.5230  1.0000</r>
       <r>  -0.5068  1.0000</r>
       <r>  -0.0227  1.0000</r>
       <r>   0.1107  1.0000</r>
       <r>   0.1107  1.0000</r>
       <r>   0.1138  1.0000</r>
       <r>   0.3737  1.0000</r>
       <r>   1.3536  1.0000</r>
       <r>   1.3536  1.0000</r>
       <r>   2.5506  0.0000</r>
       <r>   4.6678  0.0000</r>
       <r>   6.0515  0.0000</r>
       <r>   6.0515  0.0000</r>
       <r>   7.6071  0.0000</r>
      </set>
      <set comment="kpoint 73">
       <r>  -2.1650  1.0000</r>
       <r>  -2.1650  1.0000</r>
       <r>  -1.8181  1.0000</r>
       <r>  -1.8181  1.0000</r>
       <r>  -0.8366  1.0000</r>
       <r>  -0.8366  1.0000</r>
       <r>  -0.7392  1.0000</r>
       <r>  -0.7392  1.0000</r>
       <r>  -0.6018  1.0000</r>
       <r>  -0.6018  1.0000</r>
       <r>  -0.5550  1.0000</r>
       <r>  -0.5550  1.0000</r>
       <r>  -0.5384  1.0000</r>
       <r>  -0.5384  1.0000</r>
       <r>  -0.4883  1.0000</r>
       <r>  -0.4883  1.0000</r>
       <r>   0.0414  1.0000</r>
       <r>   0.0414  1.0000</r>
       <r>   0.0937  1.0000</r>
       <r>   0.0937  1.0000</r>
       <r>   0.7410  1.0000</r>
       <r>   0.7410  1.0000</r>
       <r>   1.8874  0.0000</r>
       <r>   1.8874  0.0000</r>
       <r>   5.2694  0.0000</r>
       <r>   5.2694  0.0000</r>
       <r>   6.7667  0.0000</r>
       <r>   6.7667  0.0000</r>
      </set>
      <set comment="kpoint 74">
       <r>  -1.9812  1.0000</r>
       <r>  -1.9812  1.0000</r>
       <r>  -1.9812  1.0000</r>
       <r>  -1.9812  1.0000</r>
       <r>  -0.7741  1.0000</r>
       <r>  -0.7741  1.0000</r>
       <r>  -0.7741  1.0000</r>
       <r>  -0.7741  1.0000</r>
       <r>  -0.5903  1.0000</r>
       <r>  -0.5903  1.0000</r>
       <r>  -0.5903  1.0000</r>
       <r>  -0.5903  1.0000</r>
       <r>  -0.4608  1.0000</r>
       <r>  -0.4608  1.0000</r>
       <r>  -0.4608  1.0000</r>
       <r>  -0.4608  1.0000</r>
       <r>   0.0474  1.0000</r>
       <r>   0.0474  1.0000</r>
       <r>   0.0474  1.0000</r>
       <r>   0.0474  1.0000</r>
       <r>   1.2117  1.0000</r>
       <r>   1.2117  1.0000</r>
       <r>   1.2117  1.0000</r>
       <r>   1.2117  1.0000</r>
       <r>   5.9492  0.0000</r>
       <r>   5.9492  0.0000</r>
       <r>   5.9492  0.0000</r>
       <r>   5.9492  0.0000</r>
      </set>
      <set comment="kpoint 75">
       <r>  -2.8958  1.0000</r>
       <r>  -1.7689  1.0000</r>
       <r>  -1.7689  1.0000</r>
       <r>  -1.7689  1.0000</r>
       <r>  -0.8968  1.0000</r>
       <r>  -0.8968  1.0000</r>
       <r>  -0.8968  1.0000</r>
       <r>  -0.6389  1.0000</r>
       <r>  -0.6389  1.0000</r>
       <r>  -0.6087  1.0000</r>
       <r>  -0.5843  1.0000</r>
       <r>  -0.5843  1.0000</r>
       <r>  -0.5843  1.0000</r>
       <r>  -0.5041  1.0000</r>
       <r>  -0.5041  1.0000</r>
       <r>  -0.5041  1.0000</r>
       <r>   0.0082  1.0000</r>
       <r>   0.0082  1.0000</r>
       <r>   0.1854  1.0000</r>
       <r>   0.1854  1.0000</r>
       <r>   0.1854  1.0000</r>
       <r>   2.0240  0.0000</r>
       <r>   2.0240  0.0000</r>
       <r>   2.0240  0.0000</r>
       <r>   5.3552  0.0000</r>
       <r>   5.3552  0.0000</r>
       <r>   5.3552  0.0000</r>
       <r>   8.4568  0.0000</r>
      </set>
      <set comment="kpoint 76">
       <r>  -2.5665  1.0000</r>
       <r>  -1.9881  1.0000</r>
       <r>  -1.7908  1.0000</r>
       <r>  -1.7908  1.0000</r>
       <r>  -0.8598  1.0000</r>
       <r>  -0.8598  1.0000</r>
       <r>  -0.7976  1.0000</r>
       <r>  -0.6689  1.0000</r>
       <r>  -0.6420  1.0000</r>
       <r>  -0.5722  1.0000</r>
       <r>  -0.5494  1.0000</r>
       <r>  -0.5494  1.0000</r>
       <r>  -0.5228  1.0000</r>
       <r>  -0.4731  1.0000</r>
       <r>  -0.4643  1.0000</r>
       <r>  -0.4643  1.0000</r>
       <r>   0.0863  1.0000</r>
       <r>   0.1106  1.0000</r>
       <r>   0.1674  1.0000</r>
       <r>   0.1674  1.0000</r>
       <r>   0.1781  1.0000</r>
       <r>   1.1630  1.0000</r>
       <r>   2.3501  0.0000</r>
       <r>   2.3501  0.0000</r>
       <r>   4.5787  0.0000</r>
       <r>   4.5787  0.0000</r>
       <r>   5.9387  0.0000</r>
       <r>   7.4913  0.0000</r>
      </set>
      <set comment="kpoint 77">
       <r>  -2.2553  1.0000</r>
       <r>  -2.2553  1.0000</r>
       <r>  -1.7986  1.0000</r>
       <r>  -1.7986  1.0000</r>
       <r>  -0.8492  1.0000</r>
       <r>  -0.8492  1.0000</r>
       <r>  -0.7200  1.0000</r>
       <r>  -0.7200  1.0000</r>
       <r>  -0.6193  1.0000</r>
       <r>  -0.6193  1.0000</r>
       <r>  -0.5630  1.0000</r>
       <r>  -0.5630  1.0000</r>
       <r>  -0.4660  1.0000</r>
       <r>  -0.4660  1.0000</r>
       <r>  -0.4132  1.0000</r>
       <r>  -0.4132  1.0000</r>
       <r>   0.1443  1.0000</r>
       <r>   0.1443  1.0000</r>
       <r>   0.1539  1.0000</r>
       <r>   0.1539  1.0000</r>
       <r>   0.5054  1.0000</r>
       <r>   0.5054  1.0000</r>
       <r>   2.5316  0.0000</r>
       <r>   2.5316  0.0000</r>
       <r>   4.2444  0.0000</r>
       <r>   4.2444  0.0000</r>
       <r>   6.6517  0.0000</r>
       <r>   6.6517  0.0000</r>
      </set>
      <set comment="kpoint 78">
       <r>  -2.3459  1.0000</r>
       <r>  -1.9601  1.0000</r>
       <r>  -1.9601  1.0000</r>
       <r>  -1.8644  1.0000</r>
       <r>  -0.8124  1.0000</r>
       <r>  -0.7818  1.0000</r>
       <r>  -0.7818  1.0000</r>
       <r>  -0.6813  1.0000</r>
       <r>  -0.6647  1.0000</r>
       <r>  -0.6112  1.0000</r>
       <r>  -0.6112  1.0000</r>
       <r>  -0.6000  1.0000</r>
       <r>  -0.3419  1.0000</r>
       <r>  -0.3419  1.0000</r>
       <r>  -0.3224  1.0000</r>
       <r>  -0.2293  1.0000</r>
       <r>   0.0627  1.0000</r>
       <r>   0.1584  1.0000</r>
       <r>   0.1634  1.0000</r>
       <r>   0.1634  1.0000</r>
       <r>   0.2933  1.0000</r>
       <r>   1.4884  1.0000</r>
       <r>   1.4884  1.0000</r>
       <r>   2.2973  0.0000</r>
       <r>   4.1871  0.0000</r>
       <r>   5.0700  0.0000</r>
       <r>   5.0700  0.0000</r>
       <r>   6.5440  0.0000</r>
      </set>
      <set comment="kpoint 79">
       <r>  -2.1431  1.0000</r>
       <r>  -2.1431  1.0000</r>
       <r>  -1.9203  1.0000</r>
       <r>  -1.9203  1.0000</r>
       <r>  -0.7859  1.0000</r>
       <r>  -0.7859  1.0000</r>
       <r>  -0.7210  1.0000</r>
       <r>  -0.7210  1.0000</r>
       <r>  -0.6513  1.0000</r>
       <r>  -0.6513  1.0000</r>
       <r>  -0.6219  1.0000</r>
       <r>  -0.6219  1.0000</r>
       <r>  -0.2623  1.0000</r>
       <r>  -0.2623  1.0000</r>
       <r>  -0.2334  1.0000</r>
       <r>  -0.2334  1.0000</r>
       <r>   0.1238  1.0000</r>
       <r>   0.1238  1.0000</r>
       <r>   0.1459  1.0000</r>
       <r>   0.1459  1.0000</r>
       <r>   0.7660  1.0000</r>
       <r>   0.7660  1.0000</r>
       <r>   1.9216  0.0000</r>
       <r>   1.9216  0.0000</r>
       <r>   4.4314  0.0000</r>
       <r>   4.4314  0.0000</r>
       <r>   5.7344  0.0000</r>
       <r>   5.7344  0.0000</r>
      </set>
      <set comment="kpoint 80">
       <r>  -2.0335  1.0000</r>
       <r>  -2.0335  1.0000</r>
       <r>  -2.0335  1.0000</r>
       <r>  -2.0335  1.0000</r>
       <r>  -0.7405  1.0000</r>
       <r>  -0.7405  1.0000</r>
       <r>  -0.7405  1.0000</r>
       <r>  -0.7405  1.0000</r>
       <r>  -0.6541  1.0000</r>
       <r>  -0.6541  1.0000</r>
       <r>  -0.6541  1.0000</r>
       <r>  -0.6541  1.0000</r>
       <r>  -0.1659  1.0000</r>
       <r>  -0.1659  1.0000</r>
       <r>  -0.1659  1.0000</r>
       <r>  -0.1659  1.0000</r>
       <r>   0.1153  1.0000</r>
       <r>   0.1153  1.0000</r>
       <r>   0.1153  1.0000</r>
       <r>   0.1153  1.0000</r>
       <r>   1.2629  1.0000</r>
       <r>   1.2629  1.0000</r>
       <r>   1.2629  1.0000</r>
       <r>   1.2629  1.0000</r>
       <r>   4.9808  0.0000</r>
       <r>   4.9808  0.0000</r>
       <r>   4.9808  0.0000</r>
       <r>   4.9808  0.0000</r>
      </set>
      <set comment="kpoint 81">
       <r>  -2.2284  1.0000</r>
       <r>  -1.9926  1.0000</r>
       <r>  -1.9926  1.0000</r>
       <r>  -1.9926  1.0000</r>
       <r>  -0.7546  1.0000</r>
       <r>  -0.7546  1.0000</r>
       <r>  -0.7546  1.0000</r>
       <r>  -0.6884  1.0000</r>
       <r>  -0.6884  1.0000</r>
       <r>  -0.6547  1.0000</r>
       <r>  -0.6547  1.0000</r>
       <r>  -0.6547  1.0000</r>
       <r>  -0.1436  1.0000</r>
       <r>  -0.1436  1.0000</r>
       <r>  -0.1436  1.0000</r>
       <r>   0.1272  1.0000</r>
       <r>   0.1272  1.0000</r>
       <r>   0.1766  1.0000</r>
       <r>   0.1766  1.0000</r>
       <r>   0.1766  1.0000</r>
       <r>   0.3312  1.0000</r>
       <r>   1.6556  0.0000</r>
       <r>   1.6556  0.0000</r>
       <r>   1.6556  0.0000</r>
       <r>   4.3592  0.0000</r>
       <r>   4.3592  0.0000</r>
       <r>   4.3592  0.0000</r>
       <r>   5.6325  0.0000</r>
      </set>
      <set comment="kpoint 82">
       <r>  -2.1125  1.0000</r>
       <r>  -2.1125  1.0000</r>
       <r>  -2.0039  1.0000</r>
       <r>  -2.0039  1.0000</r>
       <r>  -0.7439  1.0000</r>
       <r>  -0.7439  1.0000</r>
       <r>  -0.7124  1.0000</r>
       <r>  -0.7124  1.0000</r>
       <r>  -0.6850  1.0000</r>
       <r>  -0.6850  1.0000</r>
       <r>  -0.6709  1.0000</r>
       <r>  -0.6709  1.0000</r>
       <r>  -0.0575  1.0000</r>
       <r>  -0.0575  1.0000</r>
       <r>   0.0176  1.0000</r>
       <r>   0.0176  1.0000</r>
       <r>   0.1661  1.0000</r>
       <r>   0.1661  1.0000</r>
       <r>   0.1682  1.0000</r>
       <r>   0.1682  1.0000</r>
       <r>   0.9382  1.0000</r>
       <r>   0.9382  1.0000</r>
       <r>   1.7460  0.0000</r>
       <r>   1.7460  0.0000</r>
       <r>   4.0811  0.0000</r>
       <r>   4.0811  0.0000</r>
       <r>   4.8901  0.0000</r>
       <r>   4.8901  0.0000</r>
      </set>
      <set comment="kpoint 83">
       <r>  -2.0674  1.0000</r>
       <r>  -2.0674  1.0000</r>
       <r>  -2.0674  1.0000</r>
       <r>  -2.0674  1.0000</r>
       <r>  -0.7167  1.0000</r>
       <r>  -0.7167  1.0000</r>
       <r>  -0.7167  1.0000</r>
       <r>  -0.7167  1.0000</r>
       <r>  -0.6945  1.0000</r>
       <r>  -0.6945  1.0000</r>
       <r>  -0.6945  1.0000</r>
       <r>  -0.6945  1.0000</r>
       <r>   0.0776  1.0000</r>
       <r>   0.0776  1.0000</r>
       <r>   0.0776  1.0000</r>
       <r>   0.0776  1.0000</r>
       <r>   0.1586  1.0000</r>
       <r>   0.1586  1.0000</r>
       <r>   0.1586  1.0000</r>
       <r>   0.1586  1.0000</r>
       <r>   1.3327  1.0000</r>
       <r>   1.3327  1.0000</r>
       <r>   1.3327  1.0000</r>
       <r>   1.3327  1.0000</r>
       <r>   4.2934  0.0000</r>
       <r>   4.2934  0.0000</r>
       <r>   4.2934  0.0000</r>
       <r>   4.2934  0.0000</r>
      </set>
      <set comment="kpoint 84">
       <r>  -2.0792  1.0000</r>
       <r>  -2.0792  1.0000</r>
       <r>  -2.0792  1.0000</r>
       <r>  -2.0792  1.0000</r>
       <r>  -0.7082  1.0000</r>
       <r>  -0.7082  1.0000</r>
       <r>  -0.7082  1.0000</r>
       <r>  -0.7082  1.0000</r>
       <r>  -0.7082  1.0000</r>
       <r>  -0.7082  1.0000</r>
       <r>  -0.7082  1.0000</r>
       <r>  -0.7082  1.0000</r>
       <r>   0.1735  1.0000</r>
       <r>   0.1735  1.0000</r>
       <r>   0.1735  1.0000</r>
       <r>   0.1735  1.0000</r>
       <r>   0.1735  1.0000</r>
       <r>   0.1735  1.0000</r>
       <r>   0.1735  1.0000</r>
       <r>   0.1735  1.0000</r>
       <r>   1.3734  1.0000</r>
       <r>   1.3734  1.0000</r>
       <r>   1.3734  1.0000</r>
       <r>   1.3734  1.0000</r>
       <r>   4.0319  0.0000</r>
       <r>   4.0319  0.0000</r>
       <r>   4.0319  0.0000</r>
       <r>   4.0319  0.0000</r>
      </set>
     </set>
    </set>
   </array>
  </eigenvalues>
 </calculation>
 <structure name="finalpos" >
  <crystal>
   <varray name="basis" >
    <v>       4.00005739      0.00000000      0.00000000</v>
    <v>       0.00000000      4.00005739      0.00000000</v>
    <v>       0.00000000      0.00000000      4.00005739</v>
   </varray>
   <i name="volume">     64.00275490</i>
   <varray name="rec_basis" >
    <v>       0.24999641      0.00000000      0.00000000</v>
    <v>       0.00000000      0.24999641      0.00000000</v>
    <v>       0.00000000      0.00000000      0.24999641</v>
   </varray>
  </crystal>
  <varray name="positions" >
   <v>       0.00000000      0.00000000      0.00000000</v>
   <v>       0.50000000      0.50000000      0.00000000</v>
   <v>       0.50000000      0.00000000      0.50000000</v>
   <v>       0.00000000      0.50000000      0.50000000</v>
  </varray>
 </structure>
</modeling>
