   4   4   0   0
  0.1472692E+02  0.3890965E-09  0.3890965E-09  0.3890965E-09  0.5000000E-15
  1.000000000000000E-004
  CAR 
 unknown system                          
     14.59868442     -6.65598638  301      2.11678004      1.00000000
     -6.656  0.0000E+00  0.0000E+00
     -6.585  0.0000E+00  0.0000E+00
     -6.514  0.0000E+00  0.0000E+00
     -6.443  0.0000E+00  0.0000E+00
     -6.373  0.0000E+00  0.0000E+00
     -6.302  0.0000E+00  0.0000E+00
     -6.231  0.0000E+00  0.0000E+00
     -6.160  0.0000E+00  0.0000E+00
     -6.089  0.0000E+00  0.0000E+00
     -6.018  0.0000E+00  0.0000E+00
     -5.947  0.0000E+00  0.0000E+00
     -5.877  0.0000E+00  0.0000E+00
     -5.806  0.0000E+00  0.0000E+00
     -5.735  0.1167E-11  0.8270E-13
     -5.664  0.1285E-01  0.9102E-03
     -5.593  0.7711E-01  0.6373E-02
     -5.522  0.1552E+00  0.1737E-01
     -5.452  0.1144E+00  0.2547E-01
     -5.381  0.2712E+00  0.4469E-01
     -5.310  0.4010E+00  0.7310E-01
     -5.239  0.1687E-07  0.7374E-01
     -5.168  0.1542E+00  0.8466E-01
     -5.097  0.3896E+00  0.1123E+00
     -5.026  0.3883E+00  0.1398E+00
     -4.956  0.3147E+00  0.1621E+00
     -4.885  0.3194E+00  0.1847E+00
     -4.814  0.6167E+00  0.2285E+00
     -4.743  0.3631E-03  0.2285E+00
     -4.672  0.2561E+00  0.2467E+00
     -4.601  0.8331E+00  0.3057E+00
     -4.531  0.3750E+00  0.3323E+00
     -4.460  0.3086E+00  0.3541E+00
     -4.389  0.6816E+00  0.4024E+00
     -4.318  0.2432E+00  0.4197E+00
     -4.247  0.3078E+00  0.4415E+00
     -4.176  0.3858E+00  0.4688E+00
     -4.105  0.9903E+00  0.5390E+00
     -4.035  0.3456E+00  0.5635E+00
     -3.964  0.9235E+00  0.6289E+00
     -3.893  0.6167E+00  0.6727E+00
     -3.822  0.5204E-01  0.6764E+00
     -3.751  0.7150E+00  0.7271E+00
     -3.680  0.6172E+00  0.7711E+00
     -3.609  0.9085E+00  0.8355E+00
     -3.539  0.3535E+00  0.8625E+00
     -3.468  0.9251E+00  0.9294E+00
     -3.397  0.8309E-01  0.9353E+00
     -3.326  0.1449E+01  0.1038E+01
     -3.255  0.9226E+00  0.1104E+01
     -3.184  0.3009E+00  0.1126E+01
     -3.114  0.9242E+00  0.1192E+01
     -3.043  0.7174E+00  0.1243E+01
     -2.972  0.1438E+00  0.1253E+01
     -2.901  0.1499E+01  0.1359E+01
     -2.830  0.7294E+00  0.1412E+01
     -2.759  0.1453E+01  0.1515E+01
     -2.688  0.1290E+01  0.1608E+01
     -2.618  0.6256E+00  0.1653E+01
     -2.547  0.6787E+00  0.1701E+01
     -2.476  0.1471E+01  0.1805E+01
     -2.405  0.7509E+00  0.1858E+01
     -2.334  0.1318E+01  0.1952E+01
     -2.263  0.1420E+01  0.2053E+01
     -2.193  0.2198E+01  0.2209E+01
     -2.122  0.1887E+01  0.2342E+01
     -2.051  0.9962E+00  0.2413E+01
     -1.980  0.1793E+01  0.2541E+01
     -1.909  0.3491E+01  0.2789E+01
     -1.838  0.3173E+01  0.3015E+01
     -1.767  0.2310E+01  0.3179E+01
     -1.697  0.4627E+01  0.3508E+01
     -1.626  0.4825E+01  0.3851E+01
     -1.555  0.5711E+01  0.4256E+01
     -1.484  0.5345E+01  0.4636E+01
     -1.413  0.8292E+01  0.5227E+01
     -1.342  0.4307E+01  0.5536E+01
     -1.271  0.9697E+01  0.6224E+01
     -1.201  0.9216E+01  0.6879E+01
     -1.130  0.1227E+02  0.7753E+01
     -1.059  0.1349E+02  0.8710E+01
     -0.988  0.1078E+02  0.9483E+01
     -0.917  0.1193E+02  0.1033E+02
     -0.846  0.1128E+02  0.1113E+02
     -0.776  0.1032E+02  0.1187E+02
     -0.705  0.1193E+02  0.1271E+02
     -0.634  0.1497E+02  0.1377E+02
     -0.563  0.1651E+02  0.1495E+02
     -0.492  0.1643E+02  0.1612E+02
     -0.421  0.1847E+02  0.1743E+02
     -0.350  0.2240E+02  0.1902E+02
     -0.280  0.2281E+02  0.2064E+02
     -0.209  0.2902E+02  0.2271E+02
     -0.138  0.1916E+02  0.2408E+02
     -0.067  0.1545E+02  0.2518E+02
      0.004  0.1552E+02  0.2629E+02
      0.075  0.1479E+02  0.2734E+02
      0.146  0.2002E+02  0.2877E+02
      0.216  0.2113E+02  0.3027E+02
      0.287  0.2026E+02  0.3171E+02
      0.358  0.1950E+02  0.3310E+02
      0.429  0.1831E+02  0.3441E+02
      0.500  0.1977E+02  0.3581E+02
      0.571  0.1974E+02  0.3722E+02
      0.641  0.3532E+02  0.3973E+02
      0.712  0.2251E+02  0.4133E+02
      0.783  0.6648E+01  0.4181E+02
      0.854  0.3339E+01  0.4205E+02
      0.925  0.1443E+01  0.4215E+02
      0.996  0.1531E+01  0.4226E+02
      1.067  0.3062E+01  0.4248E+02
      1.137  0.9765E+00  0.4255E+02
      1.208  0.1586E+01  0.4266E+02
      1.279  0.1021E+01  0.4273E+02
      1.350  0.3237E+01  0.4296E+02
      1.421  0.1088E+01  0.4304E+02
      1.492  0.1329E+01  0.4314E+02
      1.562  0.8210E+00  0.4320E+02
      1.633  0.1173E+01  0.4328E+02
      1.704  0.7398E+00  0.4333E+02
      1.775  0.2709E+01  0.4352E+02
      1.846  0.2829E+01  0.4373E+02
      1.917  0.8622E+00  0.4379E+02
      1.988  0.6744E+00  0.4383E+02
      2.058  0.1618E+01  0.4395E+02
      2.129  0.8363E+00  0.4401E+02
      2.200  0.9238E+00  0.4408E+02
      2.271  0.8307E+00  0.4413E+02
      2.342  0.2133E+01  0.4429E+02
      2.413  0.1641E+01  0.4440E+02
      2.484  0.1796E+01  0.4453E+02
      2.554  0.1799E+01  0.4466E+02
      2.625  0.4091E+00  0.4469E+02
      2.696  0.1441E+01  0.4479E+02
      2.767  0.1426E-10  0.4479E+02
      2.838  0.7122E+00  0.4484E+02
      2.909  0.1604E+01  0.4496E+02
      2.979  0.2064E+01  0.4510E+02
      3.050  0.1786E+01  0.4523E+02
      3.121  0.1712E+01  0.4535E+02
      3.192  0.1473E+00  0.4536E+02
      3.263  0.9269E+00  0.4543E+02
      3.334  0.1613E+01  0.4554E+02
      3.405  0.1242E+01  0.4563E+02
      3.475  0.1144E+01  0.4571E+02
      3.546  0.4385E-03  0.4571E+02
      3.617  0.8225E+00  0.4577E+02
      3.688  0.1572E+01  0.4588E+02
      3.759  0.6151E+00  0.4593E+02
      3.830  0.2381E+01  0.4610E+02
      3.901  0.1038E+01  0.4617E+02
      3.971  0.1891E+01  0.4631E+02
      4.042  0.4304E+00  0.4634E+02
      4.113  0.9541E+00  0.4640E+02
      4.184  0.6167E+00  0.4645E+02
      4.255  0.1016E+01  0.4652E+02
      4.326  0.9877E+00  0.4659E+02
      4.396  0.2549E+00  0.4661E+02
      4.467  0.1292E+01  0.4670E+02
      4.538  0.5091E+00  0.4674E+02
      4.609  0.1920E+01  0.4687E+02
      4.680  0.5334E+00  0.4691E+02
      4.751  0.8472E+00  0.4697E+02
      4.822  0.1104E+01  0.4705E+02
      4.892  0.9015E+00  0.4712E+02
      4.963  0.1540E+01  0.4722E+02
      5.034  0.1216E+01  0.4731E+02
      5.105  0.6307E+00  0.4736E+02
      5.176  0.9224E+00  0.4742E+02
      5.247  0.1979E+01  0.4756E+02
      5.317  0.5850E+00  0.4760E+02
      5.388  0.1531E+01  0.4771E+02
      5.459  0.6170E+00  0.4776E+02
      5.530  0.1850E+01  0.4789E+02
      5.601  0.1290E+01  0.4798E+02
      5.672  0.2358E+01  0.4815E+02
      5.743  0.5166E+00  0.4818E+02
      5.813  0.1845E+01  0.4831E+02
      5.884  0.5964E+00  0.4836E+02
      5.955  0.2310E+01  0.4852E+02
      6.026  0.1554E+01  0.4863E+02
      6.097  0.1534E+00  0.4864E+02
      6.168  0.5843E+00  0.4868E+02
      6.239  0.9234E+00  0.4875E+02
      6.309  0.2619E+01  0.4894E+02
      6.380  0.1766E+01  0.4906E+02
      6.451  0.7782E+00  0.4912E+02
      6.522  0.4553E+00  0.4915E+02
      6.593  0.8874E+00  0.4922E+02
      6.664  0.1270E+01  0.4931E+02
      6.734  0.1439E+01  0.4942E+02
      6.805  0.1130E+01  0.4950E+02
      6.876  0.1795E+01  0.4962E+02
      6.947  0.9190E+00  0.4969E+02
      7.018  0.8493E+00  0.4975E+02
      7.089  0.1702E+01  0.4987E+02
      7.160  0.4324E+00  0.4991E+02
      7.230  0.1433E+01  0.5001E+02
      7.301  0.1218E+01  0.5009E+02
      7.372  0.2403E+00  0.5011E+02
      7.443  0.7704E+00  0.5017E+02
      7.514  0.1765E+01  0.5029E+02
      7.585  0.9825E+00  0.5036E+02
      7.655  0.1364E+01  0.5046E+02
      7.726  0.3291E+00  0.5048E+02
      7.797  0.7198E+00  0.5054E+02
      7.868  0.2622E+01  0.5072E+02
      7.939  0.1143E+01  0.5081E+02
      8.010  0.4050E+00  0.5084E+02
      8.081  0.1846E+01  0.5097E+02
      8.151  0.1227E+01  0.5105E+02
      8.222  0.9930E+00  0.5112E+02
      8.293  0.1766E+01  0.5125E+02
      8.364  0.1999E+01  0.5139E+02
      8.435  0.1360E+01  0.5149E+02
      8.506  0.8402E+00  0.5155E+02
      8.577  0.6663E+00  0.5160E+02
      8.647  0.1332E+01  0.5169E+02
      8.718  0.1892E+01  0.5183E+02
      8.789  0.2136E+01  0.5198E+02
      8.860  0.1832E+01  0.5211E+02
      8.931  0.7787E+00  0.5216E+02
      9.002  0.2159E+01  0.5232E+02
      9.072  0.1833E+01  0.5245E+02
      9.143  0.1837E+01  0.5258E+02
      9.214  0.1529E+01  0.5269E+02
      9.285  0.1289E+01  0.5278E+02
      9.356  0.6265E+00  0.5282E+02
      9.427  0.2085E+01  0.5297E+02
      9.498  0.1615E+01  0.5309E+02
      9.568  0.8359E+00  0.5314E+02
      9.639  0.1216E+01  0.5323E+02
      9.710  0.1894E+01  0.5337E+02
      9.781  0.1045E+01  0.5344E+02
      9.852  0.1116E+01  0.5352E+02
      9.923  0.2430E+01  0.5369E+02
      9.994  0.1444E+01  0.5380E+02
     10.064  0.1286E+01  0.5389E+02
     10.135  0.2762E+01  0.5408E+02
     10.206  0.1856E+01  0.5421E+02
     10.277  0.1345E+00  0.5423E+02
     10.348  0.1046E+01  0.5430E+02
     10.419  0.2732E+01  0.5449E+02
     10.489  0.9981E+00  0.5456E+02
     10.560  0.1233E+01  0.5465E+02
     10.631  0.8719E+00  0.5471E+02
     10.702  0.2488E+01  0.5489E+02
     10.773  0.2024E+01  0.5503E+02
     10.844  0.8477E+00  0.5509E+02
     10.915  0.4281E+00  0.5512E+02
     10.985  0.1191E+01  0.5521E+02
     11.056  0.9251E+00  0.5527E+02
     11.127  0.4918E+00  0.5531E+02
     11.198  0.2438E+01  0.5548E+02
     11.269  0.9250E+00  0.5555E+02
     11.340  0.3174E+00  0.5557E+02
     11.410  0.1525E+01  0.5568E+02
     11.481  0.3077E+00  0.5570E+02
     11.552  0.3084E+00  0.5572E+02
     11.623  0.1123E+00  0.5573E+02
     11.694  0.8128E+00  0.5579E+02
     11.765  0.8805E+00  0.5585E+02
     11.836  0.6585E+00  0.5590E+02
     11.906  0.4235E-03  0.5590E+02
     11.977  0.6163E+00  0.5594E+02
     12.048  0.0000E+00  0.5594E+02
     12.119  0.0000E+00  0.5594E+02
     12.190  0.4708E-16  0.5594E+02
     12.261  0.1734E+00  0.5595E+02
     12.332  0.1891E+00  0.5597E+02
     12.402  0.7139E-01  0.5597E+02
     12.473  0.0000E+00  0.5597E+02
     12.544  0.0000E+00  0.5597E+02
     12.615  0.2573E-11  0.5597E+02
     12.686  0.3082E+00  0.5599E+02
     12.757  0.0000E+00  0.5599E+02
     12.827  0.0000E+00  0.5599E+02
     12.898  0.0000E+00  0.5599E+02
     12.969  0.0000E+00  0.5599E+02
     13.040  0.0000E+00  0.5599E+02
     13.111  0.0000E+00  0.5599E+02
     13.182  0.3427E-02  0.5599E+02
     13.253  0.7367E-01  0.5600E+02
     13.323  0.0000E+00  0.5600E+02
     13.394  0.0000E+00  0.5600E+02
     13.465  0.0000E+00  0.5600E+02
     13.536  0.0000E+00  0.5600E+02
     13.607  0.1728E-05  0.5600E+02
     13.678  0.1285E-01  0.5600E+02
     13.748  0.0000E+00  0.5600E+02
     13.819  0.0000E+00  0.5600E+02
     13.890  0.0000E+00  0.5600E+02
     13.961  0.0000E+00  0.5600E+02
     14.032  0.0000E+00  0.5600E+02
     14.103  0.0000E+00  0.5600E+02
     14.174  0.0000E+00  0.5600E+02
     14.244  0.0000E+00  0.5600E+02
     14.315  0.0000E+00  0.5600E+02
     14.386  0.0000E+00  0.5600E+02
     14.457  0.0000E+00  0.5600E+02
     14.528  0.0000E+00  0.5600E+02
     14.599  0.0000E+00  0.5600E+02
