    4    4    1    1
  0.1472692E+02  0.3890965E-09  0.3890965E-09  0.3890965E-09  0.5000000E-15
  1.000000000000000E-004
  CAR 
 unknown system                          
   44   84   28
 
  0.0000000E+00  0.0000000E+00  0.0000000E+00  0.4551661E-03
   1       -5.6899
   2       -1.6567
   3       -1.6567
   4       -1.6567
   5       -1.3298
   6       -1.3298
   7       -1.3298
   8       -0.3472
   9       -0.3472
  10       -0.3472
  11        0.2397
  12        0.2397
  13        0.6314
  14        0.6314
  15        0.6314
  16        0.7408
  17        0.7408
  18        0.7408
  19        0.7408
  20        0.7408
  21        0.7408
  22        3.7757
  23        3.7757
  24        3.7757
  25        7.8014
  26        7.8014
  27        7.8014
  28       13.6326
 
  0.7692308E-01  0.0000000E+00  0.0000000E+00  0.2730997E-02
   1       -5.6283
   2       -1.6595
   3       -1.6310
   4       -1.6310
   5       -1.3159
   6       -1.3150
   7       -1.3150
   8       -0.3619
   9       -0.3348
  10       -0.3348
  11        0.2264
  12        0.2453
  13        0.6142
  14        0.6142
  15        0.6256
  16        0.6612
  17        0.6612
  18        0.7202
  19        0.7202
  20        0.7408
  21        0.7408
  22        3.3106
  23        3.9125
  24        3.9125
  25        7.8292
  26        7.8292
  27        8.3961
  28       13.1937
 
  0.1538462E+00  0.0000000E+00  0.0000000E+00  0.2730997E-02
   1       -5.4446
   2       -1.6784
   3       -1.5571
   4       -1.5571
   5       -1.2752
   6       -1.2707
   7       -1.2707
   8       -0.4052
   9       -0.2982
  10       -0.2982
  11        0.1876
  12        0.2618
  13        0.4581
  14        0.4581
  15        0.5638
  16        0.5638
  17        0.6086
  18        0.6609
  19        0.6609
  20        0.7409
  21        0.7409
  22        2.3638
  23        4.2872
  24        4.2872
  25        7.9145
  26        7.9145
  27        9.7408
  28       12.2464
 
  0.2307692E+00  0.0000000E+00  0.0000000E+00  0.2730997E-02
   1       -5.1415
   2       -1.7505
   3       -1.4446
   4       -1.4446
   5       -1.2098
   6       -1.1960
   7       -1.1960
   8       -0.4743
   9       -0.2379
  10       -0.2379
  11        0.1276
  12        0.1960
  13        0.1960
  14        0.2883
  15        0.4848
  16        0.4848
  17        0.5692
  18        0.5692
  19        0.5814
  20        0.7410
  21        0.7410
  22        1.3932
  23        4.8344
  24        4.8344
  25        8.0626
  26        8.0626
  27       11.1661
  28       11.1661
 
  0.3076923E+00  0.0000000E+00  0.0000000E+00  0.2730997E-02
   1       -4.7247
   2       -1.9534
   3       -1.3115
   4       -1.3115
   5       -1.1231
   6       -1.0899
   7       -1.0899
   8       -0.5648
   9       -0.1557
  10       -0.1557
  11       -0.0783
  12       -0.0783
  13        0.0541
  14        0.3233
  15        0.3872
  16        0.3872
  17        0.4539
  18        0.4539
  19        0.5457
  20        0.6108
  21        0.7411
  22        0.7411
  23        5.5060
  24        5.5060
  25        8.2816
  26        8.2816
  27       10.0821
  28       10.0821
 
  0.3846154E+00  0.0000000E+00  0.0000000E+00  0.2730997E-02
   1       -4.2048
   2       -2.3692
   3       -1.1857
   4       -1.1857
   5       -1.0198
   6       -0.9514
   7       -0.9514
   8       -0.6713
   9       -0.3394
  10       -0.3394
  11       -0.0539
  12       -0.0539
  13       -0.0191
  14        0.1395
  15        0.2910
  16        0.2910
  17        0.3252
  18        0.3252
  19        0.3648
  20        0.5036
  21        0.7412
  22        0.7412
  23        6.2745
  24        6.2745
  25        8.5793
  26        8.5793
  27        9.0370
  28        9.0370
 
  0.4615385E+00  0.0000000E+00  0.0000000E+00  0.2730997E-02
   1       -3.6024
   2       -2.9608
   3       -1.1057
   4       -1.1057
   5       -0.9057
   6       -0.7872
   7       -0.7797
   8       -0.7797
   9       -0.5751
  10       -0.5751
  11       -0.0680
  12       -0.0455
  13        0.0638
  14        0.0638
  15        0.1923
  16        0.1923
  17        0.2278
  18        0.2278
  19        0.4104
  20        0.4576
  21        0.7413
  22        0.7413
  23        7.1250
  24        7.1250
  25        8.0483
  26        8.0483
  27        8.9413
  28        8.9413
 
  0.7692308E-01  0.7692308E-01  0.0000000E+00  0.5461994E-02
   1       -5.5670
   2       -1.6332
   3       -1.6332
   4       -1.6059
   5       -1.3015
   6       -1.3015
   7       -1.3007
   8       -0.3698
   9       -0.3291
  10       -0.3236
  11        0.2228
  12        0.2422
  13        0.5958
  14        0.5958
  15        0.5976
  16        0.6010
  17        0.6500
  18        0.6500
  19        0.7202
  20        0.7202
  21        0.7275
  22        3.4425
  23        3.4425
  24        4.0434
  25        7.8575
  26        8.4319
  27        8.4319
  28       12.2582
 
  0.1538462E+00  0.7692308E-01  0.0000000E+00  0.1092399E-01
   1       -5.3838
   2       -1.6502
   3       -1.5575
   4       -1.5339
   5       -1.2614
   6       -1.2578
   7       -1.2574
   8       -0.4089
   9       -0.2959
  10       -0.2901
  11        0.1890
  12        0.2570
  13        0.4160
  14        0.4180
  15        0.5328
  16        0.5490
  17        0.5717
  18        0.6244
  19        0.6608
  20        0.7202
  21        0.7203
  22        2.4992
  23        3.7971
  24        4.4055
  25        7.9443
  26        8.5412
  27        9.7845
  28       11.1496
 
  0.2307692E+00  0.7692308E-01  0.0000000E+00  0.1092399E-01
   1       -5.0817
   2       -1.7188
   3       -1.4421
   4       -1.4243
   5       -1.1971
   6       -1.1848
   7       -1.1843
   8       -0.4757
   9       -0.2368
  10       -0.2364
  11        0.1329
  12        0.1546
  13        0.1706
  14        0.2860
  15        0.4167
  16        0.4725
  17        0.4910
  18        0.5689
  19        0.5885
  20        0.7187
  21        0.7200
  22        1.5565
  23        4.3030
  24        4.9401
  25        8.0948
  26        8.7298
  27       10.0559
  28       11.2406
 
  0.3076923E+00  0.7692308E-01  0.0000000E+00  0.1092399E-01
   1       -4.6664
   2       -1.9164
   3       -1.3049
   4       -1.2934
   5       -1.1119
   6       -1.0834
   7       -1.0800
   8       -0.5642
   9       -0.1688
  10       -0.1551
  11       -0.1169
  12       -0.0927
  13        0.0702
  14        0.2292
  15        0.3249
  16        0.3780
  17        0.3933
  18        0.4536
  19        0.5354
  20        0.7184
  21        0.7199
  22        0.8597
  23        4.9114
  24        5.6015
  25        8.3154
  26        9.0048
  27        9.0244
  28       10.1565
 
  0.3846154E+00  0.7692308E-01  0.0000000E+00  0.1092399E-01
   1       -4.1486
   2       -2.3262
   3       -1.1740
   4       -1.1671
   5       -1.0104
   6       -0.9546
   7       -0.9440
   8       -0.6685
   9       -0.3730
  10       -0.3458
  11       -0.1188
  12       -0.0537
  13        0.0012
  14        0.0438
  15        0.2854
  16        0.2962
  17        0.3248
  18        0.3715
  19        0.4141
  20        0.5632
  21        0.7186
  22        0.7196
  23        5.5975
  24        6.3624
  25        8.0519
  26        8.6333
  27        9.1128
  28        9.3610
 
  0.4615385E+00  0.7692308E-01  0.0000000E+00  0.1092399E-01
   1       -3.5494
   2       -2.9122
   3       -1.0887
   4       -1.0858
   5       -0.8984
   6       -0.7958
   7       -0.7822
   8       -0.7757
   9       -0.6014
  10       -0.5755
  11       -0.1291
  12       -0.1182
  13        0.0637
  14        0.1170
  15        0.1921
  16        0.2262
  17        0.2303
  18        0.2481
  19        0.4239
  20        0.4818
  21        0.7189
  22        0.7193
  23        6.3504
  24        7.1684
  25        7.2073
  26        8.1267
  27        9.0262
  28        9.4741
 
  0.1538462E+00  0.1538462E+00  0.0000000E+00  0.5461994E-02
   1       -5.2024
   2       -1.5687
   3       -1.5687
   4       -1.4675
   5       -1.2199
   6       -1.2199
   7       -1.2173
   8       -0.4322
   9       -0.2762
  10       -0.2667
  11        0.1767
  12        0.2602
  13        0.2896
  14        0.3125
  15        0.3125
  16        0.5052
  17        0.5712
  18        0.5712
  19        0.6604
  20        0.6604
  21        0.6878
  22        2.8433
  23        2.8433
  24        4.7388
  25        8.0355
  26        9.9166
  27        9.9166
  28        9.9345
 
  0.2307692E+00  0.1538462E+00  0.0000000E+00  0.1092399E-01
   1       -4.9033
   2       -1.6268
   3       -1.4439
   4       -1.3665
   5       -1.1589
   6       -1.1508
   7       -1.1500
   8       -0.4864
   9       -0.2308
  10       -0.2263
  11        0.0458
  12        0.0905
  13        0.1359
  14        0.1598
  15        0.2919
  16        0.4360
  17        0.4946
  18        0.5470
  19        0.5681
  20        0.6597
  21        0.6692
  22        1.9109
  23        3.3102
  24        5.2430
  25        8.1920
  26        8.7936
  27       10.1377
  28       11.4613
 
  0.3076923E+00  0.1538462E+00  0.0000000E+00  0.1092399E-01
   1       -4.4927
   2       -1.8092
   3       -1.2939
   4       -1.2437
   5       -1.0783
   6       -1.0617
   7       -1.0510
   8       -0.5655
   9       -0.2187
  10       -0.1940
  11       -0.1495
  12       -0.1379
  13       -0.0286
  14        0.0920
  15        0.3431
  16        0.3502
  17        0.3995
  18        0.4526
  19        0.4936
  20        0.6589
  21        0.6610
  22        1.2038
  23        3.8586
  24        5.8787
  25        7.7369
  26        8.4328
  27       10.3768
  28       10.4280
 
  0.3846154E+00  0.1538462E+00  0.0000000E+00  0.1092399E-01
   1       -3.9818
   2       -2.2008
   3       -1.1467
   4       -1.1161
   5       -0.9825
   6       -0.9607
   7       -0.9224
   8       -0.6617
   9       -0.4617
  10       -0.3660
  11       -0.1863
  12       -0.1830
  13       -0.0510
  14        0.0905
  15        0.2669
  16        0.3023
  17        0.3240
  18        0.4017
  19        0.4080
  20        0.6578
  21        0.6580
  22        0.7933
  23        4.4762
  24        6.6197
  25        6.7869
  26        8.7520
  27        9.3369
  28       10.2951
 
  0.4615385E+00  0.1538462E+00  0.0000000E+00  0.1092399E-01
   1       -3.3925
   2       -2.7692
   3       -1.0427
   4       -1.0281
   5       -0.8769
   6       -0.8419
   7       -0.7678
   8       -0.7641
   9       -0.6732
  10       -0.5774
  11       -0.2366
  12       -0.2172
  13        0.0646
  14        0.1601
  15        0.1919
  16        0.2179
  17        0.2314
  18        0.2765
  19        0.4876
  20        0.5962
  21        0.6569
  22        0.6572
  23        5.1646
  24        5.9316
  25        7.4496
  26        8.3581
  27        9.1702
  28        9.6926
 
  0.2307692E+00  0.2307692E+00  0.0000000E+00  0.5461994E-02
   1       -4.6097
   2       -1.4853
   3       -1.4853
   4       -1.2804
   5       -1.0949
   6       -1.0949
   7       -1.0932
   8       -0.5188
   9       -0.2211
  10       -0.1926
  11       -0.1057
  12       -0.1057
  13       -0.0443
  14        0.1145
  15        0.3305
  16        0.3773
  17        0.4765
  18        0.4765
  19        0.5670
  20        0.5670
  21        0.6229
  22        2.3484
  23        2.3484
  24        5.7121
  25        7.6179
  26        8.3682
  27       11.7989
  28       11.8002
 
  0.3076923E+00  0.2307692E+00  0.0000000E+00  0.1092399E-01
   1       -4.2076
   2       -1.6436
   3       -1.3129
   4       -1.1763
   5       -1.0224
   6       -1.0184
   7       -1.0048
   8       -0.5772
   9       -0.3516
  10       -0.2594
  11       -0.2168
  12       -0.2160
  13       -0.1294
  14        0.0833
  15        0.3035
  16        0.3863
  17        0.4016
  18        0.4267
  19        0.4514
  20        0.5658
  21        0.5929
  22        1.5862
  23        2.8471
  24        6.3158
  25        6.5585
  26        8.6182
  27       10.7354
  28       11.3863
 
  0.3846154E+00  0.2307692E+00  0.0000000E+00  0.1092399E-01
   1       -3.7094
   2       -2.0051
   3       -1.1379
   4       -1.0582
   5       -0.9502
   6       -0.9365
   7       -0.8885
   8       -0.6560
   9       -0.5699
  10       -0.4026
  11       -0.3462
  12       -0.2375
  13       -0.0398
  14        0.0842
  15        0.2323
  16        0.2914
  17        0.3237
  18        0.3427
  19        0.4962
  20        0.5650
  21        0.5765
  22        1.0827
  23        3.4098
  24        5.6124
  25        7.0303
  26        8.9599
  27        9.7010
  28       10.6245
 
  0.4615385E+00  0.2307692E+00  0.0000000E+00  0.1092399E-01
   1       -3.1387
   2       -2.5415
   3       -0.9987
   4       -0.9393
   5       -0.9139
   6       -0.8427
   7       -0.7587
   8       -0.7470
   9       -0.7469
  10       -0.5830
  11       -0.3431
  12       -0.2909
  13        0.0700
  14        0.1406
  15        0.1936
  16        0.1951
  17        0.2175
  18        0.2370
  19        0.5655
  20        0.5686
  21        0.6178
  22        0.7917
  23        4.0487
  24        4.7785
  25        7.8396
  26        8.7327
  27        9.4034
  28        9.9573
 
  0.3076923E+00  0.3076923E+00  0.0000000E+00  0.5461994E-02
   1       -3.8191
   2       -1.4411
   3       -1.4411
   4       -1.1087
   5       -0.9515
   6       -0.9443
   7       -0.9443
   8       -0.6076
   9       -0.4588
  10       -0.4588
  11       -0.3269
  12       -0.2367
  13       -0.0847
  14        0.0538
  15        0.2422
  16        0.3414
  17        0.3414
  18        0.4509
  19        0.4509
  20        0.4996
  21        0.5348
  22        2.0149
  23        2.0149
  24        5.4984
  25        6.8881
  26        8.8916
  27       11.2218
  28       11.2218
 
  0.3846154E+00  0.3076923E+00  0.0000000E+00  0.1092399E-01
   1       -3.3416
   2       -1.7620
   3       -1.2351
   4       -1.0480
   5       -0.8816
   6       -0.8738
   7       -0.8451
   8       -0.6581
   9       -0.6244
  10       -0.4799
  11       -0.4579
  12       -0.2757
  13       -0.0119
  14        0.0446
  15        0.1814
  16        0.2506
  17        0.2633
  18        0.3257
  19        0.4524
  20        0.4947
  21        0.6283
  22        1.4173
  23        2.5064
  24        4.5663
  25        7.5752
  26        9.2606
  27       10.1939
  28       11.0262
 
  0.4615385E+00  0.3076923E+00  0.0000000E+00  0.1092399E-01
   1       -2.8018
   2       -2.2482
   3       -1.0739
   4       -1.0140
   5       -0.8281
   6       -0.7983
   7       -0.7509
   8       -0.7273
   9       -0.7241
  10       -0.5955
  11       -0.4264
  12       -0.3456
  13        0.0853
  14        0.0855
  15        0.1515
  16        0.1677
  17        0.1777
  18        0.2007
  19        0.4580
  20        0.4707
  21        0.7956
  22        1.0359
  23        3.0820
  24        3.7633
  25        8.3620
  26        9.2377
  27        9.7348
  28       10.3222
 
  0.3846154E+00  0.3846154E+00  0.0000000E+00  0.5461994E-02
   1       -2.8966
   2       -1.5080
   3       -1.5080
   4       -1.0781
   5       -0.7966
   6       -0.7966
   7       -0.7891
   8       -0.6741
   9       -0.5809
  10       -0.5809
  11       -0.5315
  12       -0.3186
  13        0.0128
  14        0.0398
  15        0.1251
  16        0.1787
  17        0.1787
  18        0.3328
  19        0.3328
  20        0.4268
  21        0.7973
  22        1.8143
  23        1.8143
  24        3.6638
  25        8.2370
  26        9.6616
  27       10.8039
  28       10.8039
 
  0.4615385E+00  0.3846154E+00  0.0000000E+00  0.1092399E-01
   1       -2.4061
   2       -1.9209
   3       -1.2914
   4       -1.1497
   5       -0.7479
   6       -0.7125
   7       -0.7091
   8       -0.7052
   9       -0.6521
  10       -0.6180
  11       -0.4873
  12       -0.3902
  13        0.0280
  14        0.0923
  15        0.0932
  16        0.1122
  17        0.1177
  18        0.2179
  19        0.3489
  20        0.3787
  21        1.0186
  22        1.3356
  23        2.3019
  24        2.9112
  25        9.0021
  26        9.8604
  27       10.1706
  28       10.7939
 
  0.4615385E+00  0.4615385E+00  0.0000000E+00  0.5461994E-02
   1       -1.9901
   2       -1.6041
   3       -1.6041
   4       -1.3416
   5       -0.6972
   6       -0.6972
   7       -0.6954
   8       -0.6524
   9       -0.6116
  10       -0.5404
  11       -0.5404
  12       -0.4489
  13        0.0066
  14        0.0423
  15        0.0423
  16        0.0437
  17        0.1722
  18        0.2506
  19        0.2506
  20        0.3038
  21        1.3111
  22        1.7207
  23        1.7207
  24        2.2340
  25        9.7479
  26       10.5899
  27       10.5899
  28       10.7163
 
  0.7692308E-01  0.7692308E-01  0.7692308E-01  0.3641329E-02
   1       -5.5058
   2       -1.6077
   3       -1.6077
   4       -1.6077
   5       -1.2873
   6       -1.2873
   7       -1.2873
   8       -0.3772
   9       -0.3185
  10       -0.3185
  11        0.2297
  12        0.2297
  13        0.5739
  14        0.5739
  15        0.5739
  16        0.5835
  17        0.5835
  18        0.5835
  19        0.7164
  20        0.7164
  21        0.7164
  22        3.5674
  23        3.5674
  24        3.5674
  25        8.4681
  26        8.4681
  27        8.4681
  28       12.3351
 
  0.1538462E+00  0.7692308E-01  0.7692308E-01  0.1092399E-01
   1       -5.3232
   2       -1.6229
   3       -1.5341
   4       -1.5341
   5       -1.2479
   6       -1.2446
   7       -1.2446
   8       -0.4127
   9       -0.2897
  10       -0.2868
  11        0.1937
  12        0.2499
  13        0.3815
  14        0.3815
  15        0.4914
  16        0.5400
  17        0.5403
  18        0.5403
  19        0.6869
  20        0.7102
  21        0.7102
  22        2.6227
  23        3.9072
  24        3.9072
  25        8.5789
  26        8.5789
  27        9.8283
  28       11.2238
 
  0.2307692E+00  0.7692308E-01  0.7692308E-01  0.1092399E-01
   1       -5.0222
   2       -1.6883
   3       -1.4220
   4       -1.4220
   5       -1.1845
   6       -1.1731
   7       -1.1731
   8       -0.4768
   9       -0.2371
  10       -0.2345
  11        0.1319
  12        0.1319
  13        0.1408
  14        0.2822
  15        0.3485
  16        0.4671
  17        0.4694
  18        0.4694
  19        0.6457
  20        0.7055
  21        0.7055
  22        1.6880
  23        4.3989
  24        4.3989
  25        8.7687
  26        8.7687
  27       10.1305
  28       10.1305
 
  0.3076923E+00  0.7692308E-01  0.7692308E-01  0.1092399E-01
   1       -4.6085
   2       -1.8811
   3       -1.2877
   4       -1.2877
   5       -1.1005
   6       -1.0735
   7       -1.0735
   8       -0.5630
   9       -0.1743
  10       -0.1629
  11       -0.1287
  12       -0.1287
  13        0.0887
  14        0.1402
  15        0.3248
  16        0.3702
  17        0.3783
  18        0.3783
  19        0.5974
  20        0.7027
  21        0.7027
  22        0.9848
  23        4.9961
  24        4.9961
  25        8.9801
  26        8.9801
  27        9.1667
  28        9.1667
 
  0.3846154E+00  0.7692308E-01  0.7692308E-01  0.1092399E-01
   1       -4.0931
   2       -2.2848
   3       -1.1564
   4       -1.1564
   5       -1.0006
   6       -0.9489
   7       -0.9489
   8       -0.6649
   9       -0.3751
  10       -0.3751
  11       -0.1420
  12       -0.0738
  13       -0.0666
  14        0.0884
  15        0.2588
  16        0.2865
  17        0.2865
  18        0.3751
  19        0.5441
  20        0.5776
  21        0.7012
  22        0.7012
  23        5.6732
  24        5.6732
  25        8.1225
  26        8.1225
  27        9.4448
  28        9.4448
 
  0.4615385E+00  0.7692308E-01  0.7692308E-01  0.1092399E-01
   1       -3.4972
   2       -2.8647
   3       -1.0687
   4       -1.0687
   5       -0.8904
   6       -0.8032
   7       -0.8032
   8       -0.7763
   9       -0.5888
  10       -0.5888
  11       -0.1616
  12       -0.1613
  13        0.0295
  14        0.1425
  15        0.1828
  16        0.2252
  17        0.2252
  18        0.3424
  19        0.4303
  20        0.4876
  21        0.7006
  22        0.7006
  23        6.4160
  24        6.4160
  25        7.2442
  26        7.2442
  27        9.9063
  28        9.9063
 
  0.1538462E+00  0.1538462E+00  0.7692308E-01  0.1092399E-01
   1       -5.1425
   2       -1.5444
   3       -1.5444
   4       -1.4669
   5       -1.2070
   6       -1.2070
   7       -1.2049
   8       -0.4347
   9       -0.2714
  10       -0.2658
  11        0.1882
  12        0.2497
  13        0.2571
  14        0.2812
  15        0.2812
  16        0.4802
  17        0.5028
  18        0.5028
  19        0.6841
  20        0.6841
  21        0.6908
  22        2.9455
  23        2.9455
  24        4.2144
  25        8.6927
  26        9.9592
  27        9.9592
  28       10.0099
 
  0.2307692E+00  0.1538462E+00  0.7692308E-01  0.2184797E-01
   1       -4.8447
   2       -1.6008
   3       -1.4246
   4       -1.3651
   5       -1.1462
   6       -1.1388
   7       -1.1384
   8       -0.4860
   9       -0.2319
  10       -0.2276
  11        0.0276
  12        0.0580
  13        0.1265
  14        0.1509
  15        0.2844
  16        0.4142
  17        0.4296
  18        0.4471
  19        0.6467
  20        0.6709
  21        0.6726
  22        2.0052
  23        3.3952
  24        4.6720
  25        8.7908
  26        8.9698
  27       10.1266
  28       10.4045
 
  0.3076923E+00  0.1538462E+00  0.7692308E-01  0.2184797E-01
   1       -4.4360
   2       -1.7796
   3       -1.2803
   4       -1.2415
   5       -1.0659
   6       -1.0511
   7       -1.0435
   8       -0.5623
   9       -0.2242
  10       -0.1967
  11       -0.1664
  12       -0.1636
  13       -0.0615
  14        0.1179
  15        0.3309
  16        0.3358
  17        0.3380
  18        0.3678
  19        0.5956
  20        0.6597
  21        0.6598
  22        1.2751
  23        3.9316
  24        5.2393
  25        7.8073
  26        9.1997
  27        9.2833
  28       10.5350
 
  0.3846154E+00  0.1538462E+00  0.7692308E-01  0.2184797E-01
   1       -3.9281
   2       -2.1648
   3       -1.1350
   4       -1.1108
   5       -0.9707
   6       -0.9573
   7       -0.9301
   8       -0.6557
   9       -0.4513
  10       -0.3834
  11       -0.2076
  12       -0.1938
  13       -0.0850
  14        0.1407
  15        0.2206
  16        0.2568
  17        0.2809
  18        0.4034
  19        0.5206
  20        0.6524
  21        0.6530
  22        0.8159
  23        4.5404
  24        5.8829
  25        6.8719
  26        8.3304
  27        9.5943
  28       10.9250
 
  0.4615385E+00  0.1538462E+00  0.7692308E-01  0.2184797E-01
   1       -3.3430
   2       -2.7257
   3       -1.0247
   4       -1.0110
   5       -0.8699
   6       -0.8665
   7       -0.8305
   8       -0.7593
   9       -0.6157
  10       -0.5659
  11       -0.2531
  12       -0.2291
  13        0.0067
  14        0.1100
  15        0.2073
  16        0.2166
  17        0.2424
  18        0.3929
  19        0.4801
  20        0.5865
  21        0.6494
  22        0.6497
  23        5.2204
  24        5.9626
  25        6.6713
  26        7.4544
  27       10.0997
  28       10.7027
 
  0.2307692E+00  0.2307692E+00  0.7692308E-01  0.1092399E-01
   1       -4.5527
   2       -1.4673
   3       -1.4673
   4       -1.2815
   5       -1.0820
   6       -1.0820
   7       -1.0806
   8       -0.5155
   9       -0.2227
  10       -0.2013
  11       -0.1195
  12       -0.1195
  13       -0.0704
  14        0.1373
  15        0.3217
  16        0.3457
  17        0.3892
  18        0.3892
  19        0.6236
  20        0.6236
  21        0.6371
  22        2.4211
  23        2.4211
  24        5.0885
  25        7.6898
  26        9.1183
  27       10.6639
  28       10.6639
 
  0.3076923E+00  0.2307692E+00  0.7692308E-01  0.2184797E-01
   1       -4.1532
   2       -1.6249
   3       -1.3070
   4       -1.1822
   5       -1.0074
   6       -1.0050
   7       -0.9928
   8       -0.5702
   9       -0.3485
  10       -0.2681
  11       -0.2339
  12       -0.2180
  13       -0.1523
  14        0.1192
  15        0.2743
  16        0.2987
  17        0.3276
  18        0.3930
  19        0.5627
  20        0.5994
  21        0.6075
  22        1.6370
  23        2.9072
  24        5.6030
  25        6.6537
  26        9.4268
  27        9.6269
  28       11.1405
 
  0.3846154E+00  0.2307692E+00  0.7692308E-01  0.2184797E-01
   1       -3.6590
   2       -1.9796
   3       -1.1451
   4       -1.0726
   5       -0.9385
   6       -0.9202
   7       -0.8904
   8       -0.6452
   9       -0.5410
  10       -0.4024
  11       -0.3508
  12       -0.2402
  13       -0.0876
  14        0.1464
  15        0.1923
  16        0.2080
  17        0.2521
  18        0.4778
  19        0.4866
  20        0.5833
  21        0.5874
  22        1.1017
  23        3.4621
  24        5.6096
  25        6.3327
  26        8.6688
  27        9.8433
  28       11.7463
 
  0.4615385E+00  0.2307692E+00  0.7692308E-01  0.2184797E-01
   1       -3.0943
   2       -2.5058
   3       -1.0100
   4       -0.9622
   5       -0.9192
   6       -0.8478
   7       -0.8268
   8       -0.7330
   9       -0.6317
  10       -0.5482
  11       -0.3463
  12       -0.2940
  13       -0.0085
  14        0.0863
  15        0.1712
  16        0.1890
  17        0.2371
  18        0.3620
  19        0.5762
  20        0.5774
  21        0.6069
  22        0.7867
  23        4.0949
  24        4.8164
  25        7.0074
  26        7.7953
  27       10.3730
  28       11.0161
 
  0.3076923E+00  0.3076923E+00  0.7692308E-01  0.1092399E-01
   1       -3.7684
   2       -1.4408
   3       -1.4408
   4       -1.1276
   5       -0.9343
   6       -0.9247
   7       -0.9247
   8       -0.5952
   9       -0.4494
  10       -0.4494
  11       -0.3282
  12       -0.2378
  13       -0.1262
  14        0.1067
  15        0.2065
  16        0.2525
  17        0.2525
  18        0.4895
  19        0.5258
  20        0.5258
  21        0.5583
  22        2.0559
  23        2.0559
  24        5.4818
  25        6.2206
  26        9.7580
  27       10.0911
  28       10.0911
 
  0.3846154E+00  0.3076923E+00  0.7692308E-01  0.2184797E-01
   1       -3.2968
   2       -1.7542
   3       -1.2615
   4       -1.0846
   5       -0.8622
   6       -0.8483
   7       -0.8249
   8       -0.6401
   9       -0.5903
  10       -0.4718
  11       -0.4358
  12       -0.2757
  13       -0.0860
  14        0.1294
  15        0.1463
  16        0.1558
  17        0.1915
  18        0.4333
  19        0.4996
  20        0.5198
  21        0.6169
  22        1.4336
  23        2.5425
  24        4.5924
  25        6.7835
  26        9.1287
  27       10.1988
  28       10.6692
 
  0.4615385E+00  0.3076923E+00  0.7692308E-01  0.2184797E-01
   1       -2.7660
   2       -2.2255
   3       -1.1269
   4       -1.0705
   5       -0.8108
   6       -0.7721
   7       -0.7714
   8       -0.7011
   9       -0.6311
  10       -0.5420
  11       -0.4223
  12       -0.3442
  13       -0.0261
  14        0.0573
  15        0.1158
  16        0.1352
  17        0.2084
  18        0.3209
  19        0.4897
  20        0.4964
  21        0.7846
  22        1.0324
  23        3.1158
  24        3.7952
  25        7.4738
  26        8.2564
  27       10.7539
  28       11.3550
 
  0.3846154E+00  0.3846154E+00  0.7692308E-01  0.1092399E-01
   1       -2.8608
   2       -1.5261
   3       -1.5261
   4       -1.1295
   5       -0.7703
   6       -0.7566
   7       -0.7566
   8       -0.6472
   9       -0.5629
  10       -0.5629
  11       -0.4849
  12       -0.3161
  13       -0.0791
  14        0.0856
  15        0.1071
  16        0.1071
  17        0.1396
  18        0.4028
  19        0.4028
  20        0.4596
  21        0.7851
  22        1.8302
  23        1.8302
  24        3.6900
  25        7.3667
  26        9.7017
  27        9.7017
  28       10.6658
 
  0.4615385E+00  0.3846154E+00  0.7692308E-01  0.2184797E-01
   1       -2.3840
   2       -1.9181
   3       -1.3366
   4       -1.2073
   5       -0.7055
   6       -0.6965
   7       -0.6693
   8       -0.6666
   9       -0.6153
  10       -0.5516
  11       -0.4793
  12       -0.3856
  13       -0.0477
  14        0.0194
  15        0.0502
  16        0.0615
  17        0.2002
  18        0.2967
  19        0.3963
  20        0.4161
  21        1.0081
  22        1.3338
  23        2.3200
  24        2.9334
  25        8.0502
  26        8.8287
  27       10.3815
  28       11.1643
 
  0.4615385E+00  0.4615385E+00  0.7692308E-01  0.1092399E-01
   1       -1.9881
   2       -1.6269
   3       -1.6269
   4       -1.3876
   5       -0.6455
   6       -0.6365
   7       -0.6365
   8       -0.5982
   9       -0.5820
  10       -0.5299
  11       -0.5299
  12       -0.4414
  13       -0.0515
  14       -0.0108
  15       -0.0108
  16       -0.0017
  17        0.2338
  18        0.3051
  19        0.3051
  20        0.3478
  21        1.3042
  22        1.7235
  23        1.7235
  24        2.2454
  25        8.7287
  26        9.5060
  27        9.5060
  28       10.2850
 
  0.1538462E+00  0.1538462E+00  0.1538462E+00  0.3641329E-02
   1       -4.9639
   2       -1.4751
   3       -1.4751
   4       -1.4751
   5       -1.1678
   6       -1.1678
   7       -1.1678
   8       -0.4499
   9       -0.2562
  10       -0.2562
  11        0.1610
  12        0.1610
  13        0.1610
  14        0.2211
  15        0.2211
  16        0.4162
  17        0.4162
  18        0.4162
  19        0.6908
  20        0.6908
  21        0.6908
  22        3.2258
  23        3.2258
  24        3.2258
  25       10.0267
  26       10.0267
  27       10.0267
  28       10.2959
 
  0.2307692E+00  0.1538462E+00  0.1538462E+00  0.1092399E-01