 vasp.4.6.28 25Jul05 complex 
 executed on             LinuxIFC date 2016.09.01  16:00:59
 running on    4 nodes
 distr:  one band on    1 nodes,    4 groups


--------------------------------------------------------------------------------------------------------


 INCAR:
 POTCAR:   PAW_PBE Cu 05Jan2001                   
 POTCAR:   PAW_PBE Cu 05Jan2001                   
   VRHFIN =Cu: d10 p1                                                           
   LEXCH  = PE                                                                  
   EATOM  =  1390.9800 eV,  102.2341 Ry                                         
                                                                                
   TITEL  = PAW_PBE Cu 05Jan2001                                                
   LULTRA =        F    use ultrasoft PP ?                                      
   IUNSCR =        1    unscreen: 0-lin 1-nonlin 2-no                           
   RPACOR =    2.000    partial core radius                                     
   POMASS =   63.546; ZVAL   =   11.000    mass and valenz                      
   RCORE  =    2.300    outmost cutoff radius                                   
   RWIGS  =    2.480; RWIGS  =    1.312    wigner-seitz radius (au A)           
   ENMAX  =  273.214; ENMIN  =  204.910 eV                                      
   RCLOC  =    1.712    cutoff for local pot                                    
   LCOR   =        T    correct aug charges                                     
   LPAW   =        T    paw PP                                                  
   EAUG   =  516.456                                                            
   DEXC   =    -.008                                                            
   RMAX   =    2.789    core radius for proj-oper                               
   RAUG   =    1.300    factor for augmentation sphere                          
   RDEP   =    2.302    radius for radial grids                                 
   QCUT   =   -4.481; QGAM   =    8.962    optimization parameters              
                                                                                
   Description                                                                  
     l     E      TYP  RCUT    TYP  RCUT                                        
     2   .000     23  2.300                                                     
     2   .000     23  2.300                                                     
     0   .000     23  2.300                                                     
     0   .000     23  2.300                                                     
     1  -.200     23  2.300                                                     
     1   .000     23  2.300                                                     
     3   .000      7   .000                                                     
  local pseudopotential read in
  partial core-charges read in
  atomic valenz-charges read in
  non local Contribution for L=           2  read in
    real space projection operators read in
  non local Contribution for L=           2  read in
    real space projection operators read in
  non local Contribution for L=           0  read in
    real space projection operators read in
  non local Contribution for L=           0  read in
    real space projection operators read in
  non local Contribution for L=           1  read in
    real space projection operators read in
  non local Contribution for L=           1  read in
    real space projection operators read in
    PAW grid and wavefunctions read in
 
   number of l-projection  operators is LMAX  =           6
   number of lm-projection operators is LMMAX =          18
 

 ----------------------------------------------------------------------------- 
|                                                                             |
|  ADVICE TO THIS USER RUNNING 'VASP/VAMP'   (HEAR YOUR MASTER'S VOICE ...):  |
|                                                                             |
|      You have a (more or less) 'large supercell' and for larger cells       |
|      it might be more efficient to use real space projection operators      |
|      So try LREAL= Auto  in the INCAR   file.                               |
|      Mind: If you want to do an extremely accurate calculations keep the    |
|      reciprocal projection scheme          (i.e. LREAL=.FALSE.)             |
|                                                                             |
 ----------------------------------------------------------------------------- 

 PAW_PBE Cu 05Jan2001                   :
 energy of atom  1       EATOM=-1390.9800
 kinetic energy error for atom=    0.0395 (will be added to EATOM!!)
 
 EXHCAR: internal setup
 exchange correlation table for  LEXCH =        8
   RHO(1)=    0.500       N(1)  =     2000
   RHO(2)=  100.500       N(2)  =     4000
 
 POSCAR: No title                                
  positions in direct lattice
  No initial velocities read in
 


--------------------------------------------------------------------------------------------------------


 ion  position               nearest neighbor table
   1  0.667  0.667  0.333-   5 2.67   8 2.67   9 2.67  60 2.67  43 2.67   3 2.67  59 2.67  38 2.67
                             2 2.67  19 2.67  34 2.67 101 2.67
   2  0.667  0.833  0.500-   3 2.67   9 2.67  14 2.67  10 2.67  34 2.67  39 2.67   1 2.67   6 2.67
                            61 2.67  97 2.67  60 2.67  35 2.67
   3  0.833  0.667  0.500-   2 2.67   9 2.67  14 2.67  12 2.67   1 2.67  19 2.67  39 2.67  49 2.67
                            87 2.67  11 2.67  44 2.67  43 2.67
   4  0.667  0.667  0.000-  21 2.67  83 2.67  15 2.67  66 2.67  20 2.67   8 2.67   5 2.67  38 2.67
                            59 2.67 107 2.67  82 2.67  63 2.67
   5  0.667  0.833  0.167-   1 2.67   8 2.67   9 2.67  21 2.67  60 2.67  59 2.67  22 2.67   4 2.67
                             6 2.67  16 2.67  84 2.67  83 2.67
   6  0.667  0.000  0.333-  22 2.67  17 2.67   9 2.67  10 2.67  23 2.67  84 2.67   5 2.67   2 2.67
                            85 2.67  61 2.67  60 2.67   7 2.67
   7  0.667  0.167  0.500-  24 2.67  86 2.67  23 2.67  10 2.67  18 2.67  64 2.67  62 2.67  35 2.67
                           105 2.67  61 2.67  85 2.67   6 2.67
   8  0.833  0.667  0.167-   1 2.67   5 2.67   9 2.67  43 2.67  21 2.67  26 2.67  38 2.67   4 2.67
                            11 2.67  70 2.67  25 2.67  66 2.67
   9  0.833  0.833  0.333-   1 2.67   5 2.67   8 2.67  11 2.67  22 2.67   3 2.67   2 2.67   6 2.67
                            26 2.67  27 2.67  12 2.67  10 2.67
  10  0.833  0.000  0.500-   7 2.67  35 2.67   2 2.67   6 2.67  23 2.67  12 2.67  39 2.67  27 2.67
                            28 2.67  67 2.67  64 2.67   9 2.67
  11  0.000  0.667  0.333-  26 2.67   9 2.67  29 2.67  30 2.67   8 2.67  12 2.67  70 2.67  49 2.67
                            75 2.67   3 2.67  43 2.67  13 2.67
  12  0.000  0.833  0.500-  13 2.67  44 2.67   3 2.67  11 2.67  27 2.67  10 2.67  39 2.67  30 2.67
                            31 2.67   9 2.67  71 2.67  67 2.67
  13  0.167  0.667  0.500-  33 2.67  12 2.67  32 2.67  30 2.67  81 2.67  76 2.67  71 2.67 102 2.67
                            44 2.67  49 2.67  11 2.67  75 2.67
  14  0.667  0.667  0.667-  39 2.67  20 2.67  15 2.67  63 2.67  97 2.67   3 2.67  82 2.67  87 2.67
                             2 2.67 108 2.67  34 2.67  19 2.67
  15  0.667  0.833  0.833-  20 2.67  39 2.67  14 2.67  35 2.67   4 2.67  21 2.67  40 2.67  82 2.67
                            97 2.67  98 2.67  83 2.67  16 2.67
  16  0.667  0.000  0.000-  21 2.67  40 2.67  22 2.67  41 2.67   5 2.67  36 2.67  99 2.67  84 2.67
                            83 2.67  98 2.67  17 2.67  15 2.67
  17  0.667  0.167  0.167-  42 2.67  23 2.67  18 2.67   6 2.67 100 2.67  41 2.67  22 2.67  85 2.67
                            37 2.67  84 2.67  99 2.67  16 2.67
  18  0.667  0.333  0.333-  23 2.67  42 2.67  17 2.67  38 2.67   7 2.67  24 2.67  43 2.67  85 2.67
                           100 2.67 101 2.67  86 2.67  19 2.67
  19  0.667  0.500  0.500-  24 2.67  43 2.67   3 2.67  87 2.67   1 2.67  62 2.67  34 2.67 108 2.67
                            86 2.67 101 2.67  14 2.67  18 2.67
  20  0.833  0.667  0.833-  15 2.67  39 2.67  14 2.67   4 2.67  44 2.67  45 2.67  63 2.67  21 2.67
                            87 2.67  66 2.67  89 2.67  25 2.67
  21  0.833  0.833  0.000-  46 2.66   4 2.67  25 2.67  16 2.67   5 2.67   8 2.67  15 2.67  20 2.67
                            40 2.67  45 2.67  26 2.67  22 2.67
  22  0.833  0.000  0.167-  46 2.66   6 2.67   9 2.67  17 2.67   5 2.67  16 2.67  27 2.67  23 2.67
                            41 2.67  26 2.67  47 2.67  21 2.67
  23  0.833  0.167  0.333-  18 2.67  42 2.67  17 2.67   7 2.67  47 2.67   6 2.67  48 2.67  24 2.67
                            22 2.67  27 2.67  10 2.67  28 2.67
  24  0.833  0.333  0.500-   7 2.67  28 2.67  19 2.67  62 2.67  64 2.67  18 2.67  23 2.67  43 2.67
                            48 2.67  49 2.67  88 2.67  87 2.67
  25  0.000  0.667  0.000-  21 2.67  45 2.67  51 2.67  26 2.67  70 2.67  92 2.67  50 2.67   8 2.67
                            66 2.67  20 2.67  29 2.67  89 2.67
  26  0.000  0.833  0.167-  11 2.67  29 2.67   9 2.67   8 2.67  30 2.67  25 2.67  27 2.67  22 2.67
                            51 2.67  52 2.67  21 2.67  46 2.67
  27  0.000  0.000  0.333-  47 2.67  52 2.67  22 2.67  26 2.67  30 2.67  23 2.67  12 2.67  10 2.67
                             9 2.67  53 2.67  31 2.67  28 2.67
  28  0.000  0.167  0.500-  24 2.67  48 2.67  54 2.67  88 2.67  67 2.67  31 2.67  53 2.67  64 2.67
                            10 2.67  23 2.67  90 2.67  27 2.67
  29  0.167  0.667  0.167-  56 2.67  32 2.67  30 2.67  26 2.67  75 2.67  55 2.67  11 2.67  51 2.67
                            96 2.67  70 2.67  25 2.67  92 2.67
  30  0.167  0.833  0.333-  32 2.67  56 2.67  29 2.67  52 2.67  13 2.67  11 2.67  33 2.67  57 2.67
                            26 2.67  27 2.67  12 2.67  31 2.67
  31  0.167  0.000  0.500-  33 2.67  57 2.67  58 2.67  93 2.67  53 2.67  71 2.67  28 2.67  67 2.67
                            12 2.67  27 2.67  90 2.67  30 2.67
  32  0.333  0.667  0.333-  30 2.67  56 2.67  29 2.67  13 2.67  59 2.67  60 2.67  75 2.67  33 2.67
                            96 2.67  81 2.67 101 2.67  34 2.67
  33  0.333  0.833  0.500-  13 2.67  34 2.67  31 2.67  71 2.67  76 2.67  30 2.67  32 2.67  57 2.67
                            60 2.67  61 2.67  97 2.67  93 2.67
  34  0.500  0.667  0.500-  33 2.67  60 2.67   2 2.67  97 2.67  19 2.67 108 2.67   1 2.67  76 2.67
                            81 2.67  14 2.67  32 2.67 101 2.67
  35  0.667  0.000  0.667-  40 2.67  15 2.67  39 2.67  10 2.67  98 2.67  64 2.67  36 2.67   7 2.67
                           105 2.67  97 2.67  61 2.67   2 2.67
  36  0.667  0.167  0.833-  62 2.67  64 2.67  65 2.67 106 2.67  40 2.67  41 2.67 105 2.67  37 2.67
                            35 2.67  16 2.67  99 2.67  98 2.67
  37  0.667  0.333  0.000-  41 2.67  17 2.67  65 2.67  42 2.67  66 2.67  99 2.67  36 2.67  63 2.67
                           107 2.67 100 2.67 106 2.67  38 2.67
  38  0.667  0.500  0.167-  43 2.67  18 2.67  42 2.67  66 2.67 101 2.67   8 2.67   1 2.67   4 2.67
                            59 2.67 100 2.67 107 2.67  37 2.67
  39  0.833  0.833  0.667-  15 2.67  20 2.67  14 2.67  44 2.67  35 2.67   2 2.67  45 2.67   3 2.67
                            40 2.67  10 2.67  12 2.67  67 2.67
  40  0.833  0.000  0.833-  46 2.66  35 2.67  64 2.67  16 2.67  36 2.67  67 2.67  15 2.67  39 2.67
                            45 2.67  21 2.67  68 2.67  41 2.67
  41  0.833  0.167  0.000-  46 2.66  37 2.67  17 2.67  65 2.67  36 2.67  16 2.67  69 2.67  42 2.67
                            22 2.67  68 2.67  47 2.67  40 2.67
  42  0.833  0.333  0.167-  18 2.67  23 2.67  17 2.67  47 2.67  38 2.67  37 2.67  48 2.67  41 2.67
                            43 2.67  66 2.67  69 2.67  70 2.67
  43  0.833  0.500  0.333-  38 2.67   8 2.67  19 2.67   1 2.67  70 2.67  18 2.67  42 2.67  48 2.67
                            24 2.67  11 2.67  49 2.67   3 2.67
  44  0.000  0.667  0.667-  45 2.67  39 2.67  89 2.67  20 2.67  12 2.67  71 2.67  50 2.67 102 2.67
                            13 2.67  87 2.67   3 2.67  49 2.67
  45  0.000  0.833  0.833-  44 2.67  50 2.67  67 2.67  25 2.67  71 2.67  20 2.67  39 2.67  40 2.67
                            21 2.67  72 2.67  51 2.67  46 2.67
  46  0.998  0.000  0.000-  41 2.66  22 2.66  40 2.66  21 2.66  26 2.67  68 2.67  45 2.67  47 2.67
                            51 2.69  72 2.69  73 2.69  52 2.69
  47  0.000  0.167  0.167-  48 2.67  42 2.67  27 2.67  23 2.67  69 2.67  74 2.67  53 2.67  52 2.67
                            73 2.67  22 2.67  41 2.67  46 2.67
  48  0.000  0.333  0.333-  47 2.67  53 2.67  70 2.67  28 2.67  74 2.67  23 2.67  42 2.67  43 2.67
                            24 2.67  75 2.67  54 2.67  49 2.67
  49  0.000  0.500  0.500-   3 2.67  11 2.67  54 2.67  88 2.67  87 2.67  75 2.67  13 2.67  24 2.67
                            43 2.67 102 2.67  48 2.67  44 2.67
  50  0.167  0.667  0.833-  71 2.67  76 2.67  77 2.67  45 2.67 104 2.67  55 2.67  44 2.67 102 2.67
                            51 2.67  92 2.67  25 2.67  89 2.67
  51  0.167  0.833  0.000-  55 2.67  29 2.67  77 2.67  56 2.67  25 2.67  78 2.67  50 2.67  72 2.67
                            26 2.67  45 2.67  52 2.67  46 2.69
  52  0.167  0.000  0.167-  57 2.67  30 2.67  56 2.67  27 2.67  78 2.67  79 2.67  53 2.67  47 2.67
                            73 2.67  26 2.67  51 2.67  46 2.69
  53  0.167  0.167  0.333-  74 2.67  79 2.67  80 2.67  48 2.67  57 2.67  58 2.67  47 2.67  54 2.67
                            52 2.67  31 2.67  28 2.67  27 2.67
  54  0.167  0.333  0.500-  58 2.67  80 2.67  90 2.67  81 2.67  28 2.67 103 2.67  53 2.67  49 2.67
                            75 2.67  88 2.67  48 2.67 102 2.67
  55  0.333  0.667  0.000-  51 2.67  29 2.67  77 2.67  50 2.67  83 2.67  92 2.67  56 2.67  96 2.67
                           107 2.67  82 2.67  59 2.67 104 2.67
  56  0.333  0.833  0.167-  30 2.67  32 2.67  29 2.67  59 2.67  52 2.67  51 2.67  60 2.67  55 2.67
                            57 2.67  78 2.67  83 2.67  84 2.67
  57  0.333  0.000  0.333-  52 2.67  79 2.67  53 2.67  31 2.67  84 2.67  30 2.67  56 2.67  33 2.67
                            60 2.67  85 2.67  61 2.67  58 2.67
  58  0.333  0.167  0.500-  54 2.67  80 2.67  90 2.67  53 2.67  86 2.67  31 2.67 103 2.67  93 2.67
                            61 2.67  85 2.67 105 2.67  57 2.67
  59  0.500  0.667  0.167-  60 2.67  56 2.67 101 2.67  83 2.67  32 2.67   5 2.67   1 2.67  38 2.67
                             4 2.67  96 2.67  55 2.67 107 2.67
  60  0.500  0.833  0.333-  59 2.67   1 2.67  84 2.67   5 2.67  34 2.67  32 2.67  56 2.67  57 2.67
                            33 2.67   6 2.67   2 2.67  61 2.67
  61  0.500  0.000  0.500-   2 2.67  58 2.67  85 2.67  97 2.67  93 2.67   6 2.67   7 2.67  33 2.67
                            35 2.67  57 2.67  60 2.67 105 2.67
  62  0.667  0.333  0.667-  36 2.67  64 2.67  65 2.67  24 2.67 106 2.67 105 2.67  87 2.67  63 2.67
                             7 2.67  19 2.67 108 2.67  86 2.67
  63  0.667  0.500  0.833-  87 2.67  14 2.67  65 2.67  66 2.67  20 2.67 108 2.67  62 2.67  37 2.67
                            82 2.67 107 2.67 106 2.67   4 2.67
  64  0.833  0.167  0.667-  36 2.67  62 2.67  65 2.67  40 2.67  24 2.67   7 2.67  35 2.67  88 2.67
                            68 2.67  67 2.67  28 2.67  10 2.67
  65  0.833  0.333  0.833-  36 2.67  62 2.67  64 2.67  68 2.67  87 2.67  41 2.67  37 2.67  63 2.67
                            88 2.67  89 2.67  69 2.67  66 2.67
  66  0.833  0.500  0.000-   4 2.67  38 2.67  37 2.67  63 2.67  42 2.67  20 2.67  69 2.67  89 2.67
                            25 2.67  70 2.67  65 2.67   8 2.67
  67  0.000  0.000  0.667-  45 2.67  40 2.67  72 2.67  68 2.67  28 2.67  71 2.67  64 2.67  31 2.67
                            39 2.67  90 2.67  10 2.67  12 2.67
  68  0.000  0.167  0.833-  88 2.67  65 2.67  90 2.67  91 2.67  64 2.67  69 2.67  67 2.67  72 2.67
                            41 2.67  40 2.67  73 2.67  46 2.67
  69  0.000  0.333  0.000-  73 2.67  47 2.67  41 2.67  68 2.67  66 2.67  89 2.67  42 2.67  91 2.67
                            92 2.67  74 2.67  65 2.67  70 2.67
  70  0.000  0.500  0.167-  48 2.67  43 2.67  75 2.67  11 2.67  25 2.67  74 2.67   8 2.67  92 2.67
                            42 2.67  29 2.67  66 2.67  69 2.67
  71  0.167  0.833  0.667-  50 2.67  76 2.67  77 2.67  45 2.67  33 2.67  44 2.67  93 2.67  72 2.67
                            13 2.67  31 2.67  67 2.67  12 2.67
  72  0.167  0.000  0.833-  93 2.67  90 2.67  77 2.67  78 2.67  94 2.67  67 2.67  71 2.67  51 2.67
                            68 2.67  45 2.67  73 2.67  46 2.69
  73  0.167  0.167  0.000-  95 2.67  69 2.67  91 2.67  94 2.67  78 2.67  79 2.67  74 2.67  52 2.67
                            47 2.67  68 2.67  72 2.67  46 2.69
  74  0.167  0.333  0.167-  53 2.67  79 2.67  80 2.67  48 2.67  95 2.67  47 2.67  96 2.67  73 2.67
                            75 2.67  70 2.67  92 2.67  69 2.67
  75  0.167  0.500  0.333-  96 2.67  29 2.67  80 2.67  81 2.67  32 2.67  70 2.67  74 2.67  54 2.67
                            11 2.67  49 2.67  48 2.67  13 2.67
  76  0.333  0.667  0.667-  50 2.67  71 2.67  77 2.67 104 2.67  33 2.67  97 2.67 102 2.67  13 2.67
                            82 2.67 108 2.67  34 2.67  81 2.67
  77  0.333  0.833  0.833-  50 2.67  71 2.67  76 2.67  82 2.67  93 2.67  55 2.67  51 2.67  72 2.67
                            97 2.67  98 2.67  83 2.67  78 2.67
  78  0.333  0.000  0.000-  52 2.67  73 2.67  72 2.67  51 2.67  56 2.67  83 2.67  94 2.67  98 2.67
                            99 2.67  84 2.67  79 2.67  77 2.67
  79  0.333  0.167  0.167-  53 2.67  74 2.67  80 2.67  57 2.67  95 2.67  73 2.67  52 2.67 100 2.67
                            85 2.67  84 2.67  99 2.67  78 2.67
  80  0.333  0.333  0.333-  53 2.67  74 2.67  79 2.67  85 2.67  96 2.67  58 2.67  54 2.67  75 2.67
                           100 2.67 101 2.67  86 2.67  81 2.67
  81  0.333  0.500  0.500-  13 2.67 102 2.67  75 2.67  54 2.67  86 2.67  32 2.67 103 2.67 101 2.67
                            34 2.67 108 2.67  80 2.67  76 2.67
  82  0.500  0.667  0.833-  97 2.67  77 2.67  14 2.67  15 2.67  76 2.67  83 2.67 108 2.67 107 2.67
                            63 2.67  55 2.67 104 2.67   4 2.67
  83  0.500  0.833  0.000-   4 2.67  59 2.67  55 2.67  82 2.67  78 2.67  98 2.67  15 2.67  56 2.67
                            16 2.67  77 2.67   5 2.67  84 2.67
  84  0.500  0.000  0.167-  60 2.67  57 2.67   6 2.67  85 2.67  79 2.67   5 2.67  99 2.67  16 2.67
                            56 2.67  17 2.67  78 2.67  83 2.67
  85  0.500  0.167  0.333- 100 2.67  80 2.67  17 2.67  18 2.67  79 2.67  86 2.67  84 2.67  61 2.67
                             6 2.67  58 2.67  57 2.67   7 2.67
  86  0.500  0.333  0.500-   7 2.67 105 2.67  58 2.67  85 2.67 101 2.67  81 2.67 103 2.67  18 2.67
                            19 2.67  80 2.67  62 2.67 108 2.67
  87  0.833  0.500  0.667-  63 2.67  65 2.67  14 2.67  19 2.67  62 2.67  89 2.67  20 2.67  88 2.67
                             3 2.67  49 2.67  44 2.67  24 2.67
  88  0.000  0.333  0.667-  68 2.67  90 2.67  65 2.67  64 2.67  91 2.67  28 2.67  89 2.67  87 2.67
                            49 2.67  54 2.67 102 2.67  24 2.67
  89  0.000  0.500  0.833-  44 2.67 102 2.67  87 2.67  88 2.67  69 2.67  91 2.67  20 2.67  66 2.67
                            50 2.67  65 2.67  92 2.67  25 2.67
  90  0.167  0.167  0.667- 103 2.67  94 2.67  91 2.67  88 2.67  72 2.67  68 2.67  93 2.67  54 2.67
                            58 2.67  67 2.67  28 2.67  31 2.67
  91  0.167  0.333  0.833-  94 2.67 103 2.67  90 2.67 102 2.67  73 2.67  68 2.67  95 2.67 104 2.67
                            88 2.67  89 2.67  69 2.67  92 2.67
  92  0.167  0.500  0.000-  95 2.67 104 2.67  96 2.67  55 2.67  50 2.67  25 2.67  74 2.67  70 2.67
                            69 2.67  89 2.67  91 2.67  29 2.67
  93  0.333  0.000  0.667-  72 2.67  77 2.67  90 2.67  71 2.67  31 2.67  98 2.67  94 2.67  97 2.67
                            58 2.67  61 2.67 105 2.67  33 2.67
  94  0.333  0.167  0.833-  91 2.67 103 2.67  90 2.67  73 2.67 105 2.67  72 2.67 106 2.67  95 2.67
                            93 2.67  98 2.67  78 2.67  99 2.67
  95  0.333  0.333  0.000-  73 2.67  99 2.67  79 2.67  92 2.67  74 2.67  91 2.67  94 2.67 104 2.67
                           106 2.67 107 2.67 100 2.67  96 2.67
  96  0.333  0.500  0.167-  75 2.67  80 2.67  29 2.67  74 2.67  92 2.67 101 2.67  32 2.67 100 2.67
                            55 2.67 107 2.67  59 2.67  95 2.67
  97  0.500  0.833  0.667-  82 2.67  14 2.67  77 2.67  76 2.67  15 2.67  34 2.67  98 2.67  93 2.67
                            61 2.67   2 2.67  35 2.67  33 2.67
  98  0.500  0.000  0.833- 105 2.67  35 2.67  93 2.67  97 2.67  94 2.67  83 2.67  15 2.67  78 2.67
                            36 2.67  77 2.67  16 2.67  99 2.67
  99  0.500  0.167  0.000-  95 2.67 106 2.67  37 2.67 100 2.67  84 2.67  16 2.67  36 2.67  79 2.67
                            78 2.67  94 2.67  17 2.67  98 2.67
 100  0.500  0.333  0.167-  85 2.67  17 2.67  80 2.67  79 2.67  18 2.67  99 2.67 101 2.67  96 2.67
                           107 2.67  37 2.67  38 2.67  95 2.67
 101  0.500  0.500  0.333-  59 2.67  38 2.67  96 2.67 100 2.67  86 2.67  18 2.67  32 2.67  81 2.67
                             1 2.67  80 2.67  19 2.67  34 2.67
 102  0.167  0.500  0.667- 104 2.67  91 2.67  81 2.67 103 2.67  89 2.67  76 2.67  50 2.67  44 2.67
                            13 2.67  88 2.67  49 2.67  54 2.67
 103  0.333  0.333  0.667-  91 2.67  94 2.67  90 2.67 105 2.67 102 2.67  54 2.67 106 2.67  58 2.67
                           104 2.67  81 2.67  86 2.67 108 2.67
 104  0.333  0.500  0.833- 102 2.67  76 2.67  92 2.67  50 2.67 108 2.67  91 2.67 103 2.67 106 2.67
                            95 2.67  82 2.67 107 2.67  55 2.67
 105  0.500  0.167  0.667- 106 2.67 103 2.67  98 2.67  94 2.67  86 2.67  62 2.67  36 2.67  35 2.67
                             7 2.67  93 2.67  58 2.67  61 2.67
 106  0.500  0.333  0.833- 105 2.67  36 2.67 108 2.67  62 2.67  99 2.67  94 2.67 103 2.67 104 2.67
                            95 2.67  63 2.67  37 2.67 107 2.67
 107  0.500  0.500  0.000-  37 2.67  55 2.67  82 2.67 100 2.67  96 2.67  63 2.67   4 2.67  95 2.67
                            38 2.67 104 2.67  59 2.67 106 2.67
 108  0.500  0.500  0.667- 106 2.67 104 2.67  63 2.67  82 2.67  62 2.67  34 2.67  76 2.67  19 2.67
                            14 2.67 103 2.67  81 2.67  86 2.67
 
  LATTYP: Found a simple cubic cell.
 ALAT       =    11.3475907700
  
  Lattice vectors:
  
 A1 = (  11.3475907700,   0.0000000000,   0.0000000000)
 A2 = (   0.0000002100,  11.3475907700,   0.0000000000)
 A3 = (   0.0000002100,   0.0000002100,  11.3475907700)
 Subroutine PRICEL returns:
 Original cell was already a primitive cell.
 

Analysis of symmetry for initial positions (statically):

 Routine SETGRP: Setting up the symmetry group for a 
 simple cubic supercell.


 Subroutine GETGRP returns: Found  8 space group operations
 (whereof  8 operations were pure point group operations)
 out of a pool of 48 trial point group operations.


The static configuration has the point symmetry C_4v.

Analysis of symmetry for dynamics (positions and initial velocities):

 Subroutine DYNSYM returns: Found  8 space group operations
 (whereof  8 operations were pure point group operations)
 out of a pool of  8 trial space group operations
 (whereof  8 operations were pure point group operations)
 and found also     1 'primitive' translations


The dynamic configuration has the point symmetry C_4v.
 
 
 KPOINTS: Automatic mesh                          

Automatic generation of k-mesh.
 
 Subroutine IBZKPT returns following result:
 ===========================================
 
 Found      1 irreducible k-points:
 
 Following reciprocal coordinates:
            Coordinates               Weight
  0.250000  0.250000  0.250000      8.000000
 
 Following cartesian coordinates:
            Coordinates               Weight
  0.022031  0.022031  0.022031      8.000000
 


--------------------------------------------------------------------------------------------------------




 Dimension of arrays:
   k-Points           NKPTS =      1   number of bands    NBANDS=    712
   number of dos      NEDOS =    301   number of ions     NIONS =    108
   non local maximal  LDIM  =      6   non local SUM 2l+1 LMDIM =     18
   total plane-waves  NPLWV = 110592
   max r-space proj   IRMAX =      1   max aug-charges    IRDMAX=   2856
   dimension x,y,z NGX =    48 NGY =   48 NGZ =   48
   dimension x,y,z NGXF=    96 NGYF=   96 NGZF=   96
   support grid    NGXF=    96 NGYF=   96 NGZF=   96
   ions per type =             108
 NGX,Y,Z   is equivalent  to a cutoff of   7.03,  7.03,  7.03 a.u.
 NGXF,Y,Z  is equivalent  to a cutoff of  14.06, 14.06, 14.06 a.u.


 I would recommend the setting:
   dimension x,y,z NGX =    46 NGY =   46 NGZ =   46
 SYSTEM =  No title                                
 POSCAR =  No title                                

 Startparameter for this run:
   NWRITE =      2    write-flag & timer
   PREC   = normal    medium, high low
   ISTART =      1    job   : 0-new  1-cont  2-samecut
   ICHARG =      0    charge: 1-file 2-atom 10-const
   ISPIN  =      1    spin polarized calculation?
   LNONCOLLINEAR =      F non collinear calculations
   LSORBIT =      F    spin-orbit coupling
   INIWAV =      1    electr: 0-lowe 1-rand  2-diag
   LASPH  =      F    aspherical Exc in radial PAW
   METAGGA=      F    non-selfconsistent MetaGGA calc.

 Electronic Relaxation 1
   ENCUT  =  273.2 eV  20.08 Ry    4.48 a.u.  15.29 15.29 15.29*2*pi/ulx,y,z
   ENINI  =  273.2     initial cutoff
   ENAUG  =  516.5 eV  augmentation charge cutoff
   NELM   =     60;   NELMIN=  2; NELMDL=  0     # of ELM steps 
   EDIFF  = 0.1E-04   stopping-criterion for ELM
   LREAL  =      F    real-space projection
   LCOMPAT=      F    compatible to vasp.4.4
   LREAL_COMPAT= F    compatible to vasp.4.5.1-3
   GGA_COMPAT  = T    GGA compatible to vasp.4.4-vasp.4.6
   LMAXPAW     = -100 max onsite density
   LMAXMIX     =    2 max onsite mixed and CHGCAR
   VOSKOWN=      1    Vosko Wilk Nusair interpolation
   ROPT   =    0.00000
 Ionic relaxation
   EDIFFG = -.2E-01   stopping-criterion for IOM
   NSW    =      0    number of steps for IOM
   NBLOCK =      1;   KBLOCK =      1    inner block; outer block 
   IBRION =     -1    ionic relax: 0-MD 1-quasi-New 2-CG
   NFREE  =      0    steps in history (QN), initial steepest desc. (CG)
   ISIF   =      2    stress and relaxation
   IWAVPR =     10    prediction:  0-non 1-charg 2-wave 3-comb
   ISYM   =      2    0-nonsym 1-usesym 2-fastsym
   LCORR  =      T    Harris-Foulkes like correction to forces

   POTIM  =   0.50    time-step for ionic-motion
   TEIN   =    0.0    initial temperature
   TEBEG  =    0.0;   TEEND  =   0.0 temperature during run
   SMASS  =  -3.00    Nose mass-parameter (am)
   estimated Nose-frequenzy (Omega)   =  0.10E-29 period in steps =****** mass=  -0.294E-26a.u.
   NPACO  =    256;   APACO  = 16.0  distance and # of slots for P.C.
   PSTRESS=    0.0 pullay stress

  Mass of Ions in am
   POMASS =  63.55
  Ionic Valenz
   ZVAL   =  11.00
  Atomic Wigner-Seitz radii
   RWIGS  =   1.17
   NELECT =    1188.0000    total number of electrons
   NUPDOWN=      -1.0000    fix difference up-down

 DOS related values:
   EMIN   =  10.00;   EMAX   =-10.00  energy-range for DOS
   ISMEAR =     1;   SIGMA  =   0.20  broadening in eV -4-tet -1-fermi 0-gaus

 Electronic relaxation 2 (details)
   IALGO  =     38    algorithm
   LDIAG  =      T    sub-space diagonalisation
   IMIX   =      4    mixing-type and parameters
     AMIX     =   0.40;   BMIX     =  1.00
     AMIX_MAG =   1.60;   BMIX_MAG =  1.00
     AMIN     =   0.10
     WC   =   100.;   INIMIX=   1;  MIXPRE=   1

 Intra band minimization:
   WEIMIN = 0.0000     energy-eigenvalue tresh-hold
   EBREAK =  0.35E-08  absolut break condition
   DEPER  =   0.30     relativ break condition  

   TIME   =   0.10     timestep for ELM

  volume/ion in A,a.u.               =      13.53        91.30
  Fermi-wavevector in a.u.,eV,Ry     =   1.527953 31.764708  2.334640

 Second variation
   LSECVAR=     F    do a second variation
 
 Write flags
   LWAVE  =      F    write WAVECAR
   LCHARG =      F    write CHGCAR
   LVTOT  =      F    write LOCPOT, local potential
   LELF   =      F    write electronic localiz. function (ELF)
   LORBIT =      0    0 simple, 1 ext, 2 COOP (PROOUT)


 Dipole corrections
   IDIPOL =      0    1-x, 2-y, 3-z
   LDIPOL =      F    correct potential



--------------------------------------------------------------------------------------------------------


 Static calculation
 charge density will be updated during run
 non-spin polarized calculation
 Variant of blocked Davidson
 Davidson routine will perform the subspace rotation
 performe sub-space diagonalisation
    after iterative eigenvector-optimisation
 modified Broyden-mixing scheme, WC =      100.0
 initial mixing is a Kerker type mixing with AMIX =  0.4000 and BMIX =      1.0000
 Hartree-type preconditioning will be used
 using additional bands          118
 reciprocal scheme for non local part
 use partial core corrections
 calculate Harris-corrections to forces 
   (improved forces if not selfconsistent)
 use gradient corrections 
 use of overlap-Matrix (Vanderbilt PP)
 Methfessel and Paxton  Order N= 1 SIGMA  =   0.20


--------------------------------------------------------------------------------------------------------


  energy-cutoff  :      273.21
  volume of cell :     1461.20
      direct lattice vectors                 reciprocal lattice vectors
    11.347590770  0.000000000  0.000000000     0.088124433 -0.000000002 -0.000000002
     0.000000210 11.347590770  0.000000000     0.000000000  0.088124433 -0.000000002
     0.000000210  0.000000210 11.347590770     0.000000000  0.000000000  0.088124433

  length of vectors
    11.347590770 11.347590770 11.347590770     0.088124433  0.088124433  0.088124433


 
 old parameters found on file WAVECAR:
  energy-cutoff  :      273.21
  volume of cell :     1461.20
      direct lattice vectors                 reciprocal lattice vectors
    11.347590770  0.000000000  0.000000000     0.088124433 -0.000000002 -0.000000002
     0.000000210 11.347590770  0.000000000     0.000000000  0.088124433 -0.000000002
     0.000000210  0.000000210 11.347590770     0.000000000  0.000000000  0.088124433

  length of vectors

 
 k-points in units of 2pi/SCALE and weight: Automatic mesh                          
   0.02203111  0.02203111  0.02203111       1.000
 
 k-points in reciprocal lattice and weights: Automatic mesh                          
   0.25000000  0.25000000  0.25000000       1.000
 
 position of ions in fractional coordinates (direct lattice) 
   0.66666667  0.66666667  0.33333333
   0.66666667  0.83333333  0.50000000
   0.83333333  0.66666667  0.50000000
   0.66666667  0.66666667  0.00000000
   0.66666667  0.83333333  0.16666667
   0.66666667  0.00000000  0.33333333
   0.66666667  0.16666667  0.50000000
   0.83333333  0.66666667  0.16666667
   0.83333333  0.83333333  0.33333333
   0.83333333  0.00000000  0.50000000
   0.00000000  0.66666667  0.33333333
   0.00000000  0.83333333  0.50000000
   0.16666667  0.66666667  0.50000000
   0.66666667  0.66666667  0.66666667
   0.66666667  0.83333333  0.83333333
   0.66666667  0.00000000  0.00000000
   0.66666667  0.16666667  0.16666667
   0.66666667  0.33333333  0.33333333
   0.66666667  0.50000000  0.50000000
   0.83333333  0.66666667  0.83333333
   0.83333333  0.83333333  0.00000000
   0.83333333  0.00000000  0.16666667
   0.83333333  0.16666667  0.33333333
   0.83333333  0.33333333  0.50000000
   0.00000000  0.66666667  0.00000000
   0.00000000  0.83333333  0.16666667
   0.00000000  0.00000000  0.33333333
   0.00000000  0.16666667  0.50000000
   0.16666667  0.66666667  0.16666667
   0.16666667  0.83333333  0.33333333
   0.16666667  0.00000000  0.50000000
   0.33333333  0.66666667  0.33333333
   0.33333333  0.83333333  0.50000000
   0.50000000  0.66666667  0.50000000
   0.66666667  0.00000000  0.66666667
   0.66666667  0.16666667  0.83333333
   0.66666667  0.33333333  0.00000000
   0.66666667  0.50000000  0.16666667
   0.83333333  0.83333333  0.66666667
   0.83333333  0.00000000  0.83333333
   0.83333333  0.16666667  0.00000000
   0.83333333  0.33333333  0.16666667
   0.83333333  0.50000000  0.33333333
   0.00000000  0.66666667  0.66666667
   0.00000000  0.83333333  0.83333333
   0.99823800  0.00000000  0.00000000
   0.00000000  0.16666667  0.16666667
   0.00000000  0.33333333  0.33333333
   0.00000000  0.50000000  0.50000000
   0.16666667  0.66666667  0.83333333
   0.16666667  0.83333333  0.00000000
   0.16666667  0.00000000  0.16666667
   0.16666667  0.16666667  0.33333333
   0.16666667  0.33333333  0.50000000
   0.33333333  0.66666667  0.00000000
   0.33333333  0.83333333  0.16666667
   0.33333333  0.00000000  0.33333333
   0.33333333  0.16666667  0.50000000
   0.50000000  0.66666667  0.16666667
   0.50000000  0.83333333  0.33333333
   0.50000000  0.00000000  0.50000000
   0.66666667  0.33333333  0.66666667
   0.66666667  0.50000000  0.83333333
   0.83333333  0.16666667  0.66666667
   0.83333333  0.33333333  0.83333333
   0.83333333  0.50000000  0.00000000
   0.00000000  0.00000000  0.66666667
   0.00000000  0.16666667  0.83333333
   0.00000000  0.33333333  0.00000000
   0.00000000  0.50000000  0.16666667
   0.16666667  0.83333333  0.66666667
   0.16666667  0.00000000  0.83333333
   0.16666667  0.16666667  0.00000000
   0.16666667  0.33333333  0.16666667
   0.16666667  0.50000000  0.33333333
   0.33333333  0.66666667  0.66666667
   0.33333333  0.83333333  0.83333333
   0.33333333  0.00000000  0.00000000
   0.33333333  0.16666667  0.16666667
   0.33333333  0.33333333  0.33333333
   0.33333333  0.50000000  0.50000000
   0.50000000  0.66666667  0.83333333
   0.50000000  0.83333333  0.00000000
   0.50000000  0.00000000  0.16666667
   0.50000000  0.16666667  0.33333333
   0.50000000  0.33333333  0.50000000
   0.83333333  0.50000000  0.66666667
   0.00000000  0.33333333  0.66666667
   0.00000000  0.50000000  0.83333333
   0.16666667  0.16666667  0.66666667
   0.16666667  0.33333333  0.83333333
   0.16666667  0.50000000  0.00000000
   0.33333333  0.00000000  0.66666667
   0.33333333  0.16666667  0.83333333
   0.33333333  0.33333333  0.00000000
   0.33333333  0.50000000  0.16666667
   0.50000000  0.83333333  0.66666667
   0.50000000  0.00000000  0.83333333
   0.50000000  0.16666667  0.00000000
   0.50000000  0.33333333  0.16666667
   0.50000000  0.50000000  0.33333333
   0.16666667  0.50000000  0.66666667
   0.33333333  0.33333333  0.66666667
   0.33333333  0.50000000  0.83333333
   0.50000000  0.16666667  0.66666667
   0.50000000  0.33333333  0.83333333
   0.50000000  0.50000000  0.00000000
   0.50000000  0.50000000  0.66666667
 
 position of ions in cartesian coordinates  (Angst):
   7.56506076  7.56506062  3.78253022
   7.56506083  9.45632571  5.67379539
   9.45632585  7.56506066  5.67379539
   7.56506069  7.56506055  0.00000000
   7.56506076  9.45632564  1.89126517
   7.56506062  0.00000007  3.78253022
   7.56506069  1.89126527  5.67379539
   9.45632578  7.56506059  1.89126517
   9.45632585  9.45632567  3.78253022
   9.45632571  0.00000011  5.67379539
   0.00000021  7.56506062  3.78253022
   0.00000028  9.45632571  5.67379539
   1.89126541  7.56506066  5.67379539
   7.56506083  7.56506069  7.56506055
   7.56506090  9.45632578  9.45632560
   7.56506055  0.00000000  0.00000000
   7.56506062  1.89126520  1.89126517
   7.56506069  3.78253029  3.78253022
   7.56506076  5.67379549  5.67379539
   9.45632592  7.56506073  9.45632560
   9.45632578  9.45632560  0.00000000
   9.45632564  0.00000004  1.89126517
   9.45632571  1.89126524  3.78253022
   9.45632578  3.78253032  5.67379539
   0.00000014  7.56506055  0.00000000
   0.00000021  9.45632564  1.89126517
   0.00000007  0.00000007  3.78253022
   0.00000014  1.89126527  5.67379539
   1.89126534  7.56506059  1.89126517
   1.89126541  9.45632567  3.78253022
   1.89126527  0.00000011  5.67379539
   3.78253043  7.56506062  3.78253022
   3.78253050  9.45632571  5.67379539
   5.67379563  7.56506066  5.67379539
   7.56506069  0.00000014  7.56506055
   7.56506076  1.89126534  9.45632560
   7.56506062  3.78253022  0.00000000
   7.56506069  5.67379542  1.89126517
   9.45632592  9.45632574  7.56506055
   9.45632578  0.00000017  9.45632560
   9.45632564  1.89126517  0.00000000
   9.45632571  3.78253025  1.89126517
   9.45632578  5.67379545  3.78253022
   0.00000028  7.56506069  7.56506055
   0.00000035  9.45632578  9.45632560
  11.32759632  0.00000000  0.00000000
   0.00000007  1.89126520  1.89126517
   0.00000014  3.78253029  3.78253022
   0.00000021  5.67379549  5.67379539
   1.89126548  7.56506073  9.45632560
   1.89126534  9.45632560  0.00000000
   1.89126520  0.00000004  1.89126517
   1.89126527  1.89126524  3.78253022
   1.89126534  3.78253032  5.67379539
   3.78253036  7.56506055  0.00000000
   3.78253043  9.45632564  1.89126517
   3.78253029  0.00000007  3.78253022
   3.78253036  1.89126527  5.67379539
   5.67379556  7.56506059  1.89126517
   5.67379563  9.45632567  3.78253022
   5.67379549  0.00000011  5.67379539
   7.56506076  3.78253036  7.56506055
   7.56506083  5.67379556  9.45632560
   9.45632578  1.89126531  7.56506055
   9.45632585  3.78253039  9.45632560
   9.45632571  5.67379539  0.00000000
   0.00000014  0.00000014  7.56506055
   0.00000021  1.89126534  9.45632560
   0.00000007  3.78253022  0.00000000
   0.00000014  5.67379542  1.89126517
   1.89126548  9.45632574  7.56506055
   1.89126534  0.00000017  9.45632560
   1.89126520  1.89126517  0.00000000
   1.89126527  3.78253025  1.89126517
   1.89126534  5.67379545  3.78253022
   3.78253050  7.56506069  7.56506055
   3.78253057  9.45632578  9.45632560
   3.78253022  0.00000000  0.00000000
   3.78253029  1.89126520  1.89126517
   3.78253036  3.78253029  3.78253022
   3.78253043  5.67379549  5.67379539
   5.67379570  7.56506073  9.45632560
   5.67379556  9.45632560  0.00000000
   5.67379542  0.00000004  1.89126517
   5.67379549  1.89126524  3.78253022
   5.67379556  3.78253032  5.67379539
   9.45632585  5.67379553  7.56506055
   0.00000021  3.78253036  7.56506055
   0.00000028  5.67379556  9.45632560
   1.89126534  1.89126531  7.56506055
   1.89126541  3.78253039  9.45632560
   1.89126527  5.67379539  0.00000000
   3.78253036  0.00000014  7.56506055
   3.78253043  1.89126534  9.45632560
   3.78253029  3.78253022  0.00000000
   3.78253036  5.67379542  1.89126517
   5.67379570  9.45632574  7.56506055
   5.67379556  0.00000017  9.45632560
   5.67379542  1.89126517  0.00000000
   5.67379549  3.78253025  1.89126517
   5.67379556  5.67379545  3.78253022
   1.89126541  5.67379553  7.56506055
   3.78253043  3.78253036  7.56506055
   3.78253050  5.67379556  9.45632560
   5.67379556  1.89126531  7.56506055
   5.67379563  3.78253039  9.45632560
   5.67379549  5.67379539  0.00000000
   5.67379563  5.67379553  7.56506055
 


--------------------------------------------------------------------------------------------------------


 k-point  1 :  0.25000.25000.2500  plane waves:  14985

 maximum and minimum number of plane-waves per node :  14985 14985

 maximum number of plane-waves:  14985
 maximal index in each direction: 
   IXMAX= 15   IYMAX= 15   IZMAX= 15
   IXMIN=-15   IYMIN=-15   IZMIN=-15

 WARNING: wrap around error must be expected set NGX to  62
 WARNING: wrap around error must be expected set NGY to  62
 WARNING: wrap around error must be expected set NGZ to  62

 parallel 3dFFT wavefunction:
    minimum data exchange during FFTs selected (reduces bandwidth)
 parallel 3dFFT charge:
    minimum data exchange during FFTs selected (reduces bandwidth)

 For storing wavefunctions  170.71 MBYTES are necessary
 For predicting wavefunctions  388.63 MBYTES are necessary
Broyden mixing: mesh for mixing (old mesh)
   NGX = 31   NGY = 31   NGZ = 31
  (NGX  = 96   NGY  = 96   NGZ  = 96)
 gives a total of  29791 points
 charge density for first step will be calculated from the start-wavefunctions


--------------------------------------------------------------------------------------------------------


 Maximum index for augmentation-charges          637 (set IRDMAX)


--------------------------------------------------------------------------------------------------------


 initial charge from wavefunction
 First call to EWALD:  gamma=   0.156
 Maximum number of real-space cells 3x 3x 3
 Maximum number of reciprocal cells 3x 3x 3

    FEWALD:  VPU time    0.10: CPU time    0.11


----------------------------------------- Iteration    1(   1)  ---------------------------------------


    POTLOK:  VPU time    0.37: CPU time    0.37
    SETDIJ:  VPU time    0.09: CPU time    0.09
    EDDAV :  VPU time   81.00: CPU time   81.08
    DOS   :  VPU time    0.00: CPU time   -0.00
    CHARGE:  VPU time    0.57: CPU time    0.57
    MIXING:  VPU time    0.01: CPU time    0.01
    ------------------------------------------
      LOOP:  VPU time   82.10: CPU time   82.19

 eigenvalue-minimisations  :  1480
 total energy-change (2. order) :-0.3935321E+03  (-0.2205384E+00)
 number of electron 1187.9996116 magnetization 
 augmentation part   779.7312641 magnetization 

 Broyden mixing:
  rms(total) = 0.72414E-01    rms(broyden)= 0.72314E-01
  rms(prec ) = 0.15736E+00
  weight for this iteration     100.00

 Free energy of the ion-electron system (eV)
  ---------------------------------------------------
  alpha Z        PSCENC =     10198.58515210
  Ewald energy   TEWEN  =   -114045.65804815
  -1/2 Hartree   DENC   =    -35833.10720515
  -V(xc)+E(xc)   XCENC  =      4594.92502965
  PAW double counting   =    116789.83044614  -132358.75683447
  entropy T*S    EENTRO =        -0.23323629
  eigenvalues    EBANDS =        39.30754998
  atomic energy  EATOM  =    150221.57506482
  ---------------------------------------------------
  free energy    TOTEN  =      -393.53208137 eV

  energy without entropy =     -393.29884509  energy(sigma->0) =     -393.45433594


--------------------------------------------------------------------------------------------------------




----------------------------------------- Iteration    1(   2)  ---------------------------------------


    POTLOK:  VPU time    0.37: CPU time    0.37
    SETDIJ:  VPU time    0.09: CPU time    0.09
    EDDAV :  VPU time   84.89: CPU time   84.92
    DOS   :  VPU time   -0.00: CPU time   -0.00
    CHARGE:  VPU time    0.52: CPU time    0.52
    MIXING:  VPU time    0.01: CPU time    0.01
    ------------------------------------------
      LOOP:  VPU time   85.93: CPU time   85.96

 eigenvalue-minimisations  :  1584
 total energy-change (2. order) :-0.7992825E-02  (-0.1258577E-01)
 number of electron 1187.9996116 magnetization 
 augmentation part   779.7086869 magnetization 

 Broyden mixing:
  rms(total) = 0.12376E+00    rms(broyden)= 0.12373E+00
  rms(prec ) = 0.20986E+00
  weight for this iteration     100.00

 eigenvalues of (default mixing * dielectric matrix)
  average eigenvalue GAMMA=   0.3181
  0.3181

 Free energy of the ion-electron system (eV)
  ---------------------------------------------------
  alpha Z        PSCENC =     10198.58515210
  Ewald energy   TEWEN  =   -114045.65804815
  -1/2 Hartree   DENC   =    -35833.75583153
  -V(xc)+E(xc)   XCENC  =      4594.95584358
  PAW double counting   =    116791.03758239  -132360.29866724
  entropy T*S    EENTRO =        -0.23331473
  eigenvalues    EBANDS =        40.25214455
  atomic energy  EATOM  =    150221.57506482
  ---------------------------------------------------
  free energy    TOTEN  =      -393.54007420 eV

  energy without entropy =     -393.30675947  energy(sigma->0) =     -393.46230262


--------------------------------------------------------------------------------------------------------




----------------------------------------- Iteration    1(   3)  ---------------------------------------


    POTLOK:  VPU time    0.42: CPU time    0.42
    SETDIJ:  VPU time    0.09: CPU time    0.09
    EDDAV :  VPU time   85.51: CPU time   85.53
    DOS   :  VPU time    0.00: CPU time   -0.00
    CHARGE:  VPU time    0.52: CPU time    0.52
    MIXING:  VPU time    0.01: CPU time    0.01
    ------------------------------------------
      LOOP:  VPU time   86.60: CPU time   86.63

 eigenvalue-minimisations  :  1576
 total energy-change (2. order) : 0.3462060E-01  (-0.6983163E-02)
 number of electron 1187.9996116 magnetization 
 augmentation part   779.7261128 magnetization 

 Broyden mixing:
  rms(total) = 0.31330E-01    rms(broyden)= 0.31287E-01
  rms(prec ) = 0.51546E-01
  weight for this iteration     100.00

 eigenvalues of (default mixing * dielectric matrix)
  average eigenvalue GAMMA=   0.6565
  0.9452  0.3678

 Free energy of the ion-electron system (eV)
  ---------------------------------------------------
  alpha Z        PSCENC =     10198.58515210
  Ewald energy   TEWEN  =   -114045.65804815
  -1/2 Hartree   DENC   =    -35833.57928482
  -V(xc)+E(xc)   XCENC  =      4594.94716061
  PAW double counting   =    116790.64341127  -132359.84977126
  entropy T*S    EENTRO =        -0.23598709
  eigenvalues    EBANDS =        40.06684892
  atomic energy  EATOM  =    150221.57506482
  ---------------------------------------------------
  free energy    TOTEN  =      -393.50545359 eV

  energy without entropy =     -393.26946650  energy(sigma->0) =     -393.42679123


--------------------------------------------------------------------------------------------------------




----------------------------------------- Iteration    1(   4)  ---------------------------------------


    POTLOK:  VPU time    0.42: CPU time    0.42
    SETDIJ:  VPU time    0.09: CPU time    0.09
    EDDAV :  VPU time  103.44: CPU time  103.46
    DOS   :  VPU time    0.00: CPU time   -0.00
    CHARGE:  VPU time    0.51: CPU time    0.51
    MIXING:  VPU time    0.01: CPU time    0.01
    ------------------------------------------
      LOOP:  VPU time  104.52: CPU time  104.54

 eigenvalue-minimisations  :  2040
 total energy-change (2. order) :-0.1526016E-04  (-0.2438426E-02)
 number of electron 1187.9996116 magnetization 
 augmentation part   779.7184289 magnetization 

 Broyden mixing:
  rms(total) = 0.25300E-01    rms(broyden)= 0.25291E-01
  rms(prec ) = 0.36869E-01
  weight for this iteration     100.00

 eigenvalues of (default mixing * dielectric matrix)
  average eigenvalue GAMMA=   0.8655
  1.8293  0.3836  0.3836

 Free energy of the ion-electron system (eV)
  ---------------------------------------------------
  alpha Z        PSCENC =     10198.58515210
  Ewald energy   TEWEN  =   -114045.65804815
  -1/2 Hartree   DENC   =    -35833.79992222
  -V(xc)+E(xc)   XCENC  =      4594.95786441
  PAW double counting   =    116790.99806057  -132360.30775076
  entropy T*S    EENTRO =        -0.23640551
  eigenvalues    EBANDS =        40.38051589
  atomic energy  EATOM  =    150221.57506482
  ---------------------------------------------------
  free energy    TOTEN  =      -393.50546885 eV

  energy without entropy =     -393.26906334  energy(sigma->0) =     -393.42666702


--------------------------------------------------------------------------------------------------------




----------------------------------------- Iteration    1(   5)  ---------------------------------------


    POTLOK:  VPU time    0.37: CPU time    0.37
    SETDIJ:  VPU time    0.09: CPU time    0.09
    EDDAV :  VPU time   84.85: CPU time   84.87
    DOS   :  VPU time    0.00: CPU time   -0.00
    CHARGE:  VPU time    0.50: CPU time    0.50
    MIXING:  VPU time    0.01: CPU time    0.02
    ------------------------------------------
      LOOP:  VPU time   85.88: CPU time   85.90

 eigenvalue-minimisations  :  1608
 total energy-change (2. order) : 0.7617011E-03  (-0.7122959E-03)
 number of electron 1187.9996116 magnetization 
 augmentation part   779.7174590 magnetization 

 Broyden mixing:
  rms(total) = 0.68552E-02    rms(broyden)= 0.68462E-02
  rms(prec ) = 0.90404E-02
  weight for this iteration     100.00

 eigenvalues of (default mixing * dielectric matrix)
  average eigenvalue GAMMA=   0.8841
  1.8698  0.8810  0.3359  0.4497

 Free energy of the ion-electron system (eV)
  ---------------------------------------------------
  alpha Z        PSCENC =     10198.58515210
  Ewald energy   TEWEN  =   -114045.65804815
  -1/2 Hartree   DENC   =    -35833.81398918
  -V(xc)+E(xc)   XCENC  =      4594.95838504
  PAW double counting   =    116790.99714527  -132360.30913683
  entropy T*S    EENTRO =        -0.23645005
  eigenvalues    EBANDS =        40.39716982
  atomic energy  EATOM  =    150221.57506482
  ---------------------------------------------------
  free energy    TOTEN  =      -393.50470715 eV

  energy without entropy =     -393.26825710  energy(sigma->0) =     -393.42589047


--------------------------------------------------------------------------------------------------------




----------------------------------------- Iteration    1(   6)  ---------------------------------------


    POTLOK:  VPU time    0.42: CPU time    0.42
    SETDIJ:  VPU time    0.09: CPU time    0.09
    EDDAV :  VPU time   81.27: CPU time   81.28
    DOS   :  VPU time   -0.00: CPU time   -0.00
    CHARGE:  VPU time    0.50: CPU time    0.50
    MIXING:  VPU time    0.01: CPU time    0.01
    ------------------------------------------
      LOOP:  VPU time   82.34: CPU time   82.36

 eigenvalue-minimisations  :  1512
 total energy-change (2. order) :-0.1147497E-03  (-0.1736135E-03)
 number of electron 1187.9996116 magnetization 
 augmentation part   779.7201556 magnetization 

 Broyden mixing:
  rms(total) = 0.58592E-02    rms(broyden)= 0.58580E-02
  rms(prec ) = 0.76393E-02
  weight for this iteration     100.00

 eigenvalues of (default mixing * dielectric matrix)
  average eigenvalue GAMMA=   0.9521
  1.7729  1.7729  0.4729  0.4147  0.3271

 Free energy of the ion-electron system (eV)
  ---------------------------------------------------
  alpha Z        PSCENC =     10198.58515210
  Ewald energy   TEWEN  =   -114045.65804815
  -1/2 Hartree   DENC   =    -35833.70464775
  -V(xc)+E(xc)   XCENC  =      4594.95284121
  PAW double counting   =    116790.79316103  -132360.04238758
  entropy T*S    EENTRO =        -0.23630795
  eigenvalues    EBANDS =        40.23035036
  atomic energy  EATOM  =    150221.57506482
  ---------------------------------------------------
  free energy    TOTEN  =      -393.50482190 eV

  energy without entropy =     -393.26851395  energy(sigma->0) =     -393.42605259


--------------------------------------------------------------------------------------------------------




----------------------------------------- Iteration    1(   7)  ---------------------------------------


    POTLOK:  VPU time    0.38: CPU time    0.39
    SETDIJ:  VPU time    0.09: CPU time    0.09
    EDDAV :  VPU time   80.22: CPU time   80.23
    DOS   :  VPU time    0.00: CPU time   -0.00
    CHARGE:  VPU time    0.50: CPU time    0.50
    MIXING:  VPU time    0.02: CPU time    0.02
    ------------------------------------------
      LOOP:  VPU time   81.26: CPU time   81.28

 eigenvalue-minimisations  :  1520
 total energy-change (2. order) :-0.8006376E-05  (-0.6778762E-04)
 number of electron 1187.9996116 magnetization 
 augmentation part   779.7200523 magnetization 

 Broyden mixing:
  rms(total) = 0.41407E-02    rms(broyden)= 0.41393E-02
  rms(prec ) = 0.55237E-02
  weight for this iteration     100.00

 eigenvalues of (default mixing * dielectric matrix)
  average eigenvalue GAMMA=   0.9683
  2.3833  1.1653  1.1653  0.4270  0.3429  0.3258

 Free energy of the ion-electron system (eV)
  ---------------------------------------------------
  alpha Z        PSCENC =     10198.58515210
  Ewald energy   TEWEN  =   -114045.65804815
  -1/2 Hartree   DENC   =    -35833.70336042
  -V(xc)+E(xc)   XCENC  =      4594.95277831
  PAW double counting   =    116790.80142483  -132360.04617747
  entropy T*S    EENTRO =        -0.23630447
  eigenvalues    EBANDS =        40.22464053
  atomic energy  EATOM  =    150221.57506482
  ---------------------------------------------------
  free energy    TOTEN  =      -393.50482991 eV

  energy without entropy =     -393.26852544  energy(sigma->0) =     -393.42606175


--------------------------------------------------------------------------------------------------------




----------------------------------------- Iteration    1(   8)  ---------------------------------------


    POTLOK:  VPU time    0.37: CPU time    0.37
    SETDIJ:  VPU time    0.09: CPU time    0.09
    EDDAV :  VPU time   81.18: CPU time   81.20
    DOS   :  VPU time    0.00: CPU time   -0.00
    CHARGE:  VPU time    0.51: CPU time    0.51
    MIXING:  VPU time    0.02: CPU time    0.02
    ------------------------------------------
      LOOP:  VPU time   82.22: CPU time   82.24

 eigenvalue-minimisations  :  1544
 total energy-change (2. order) : 0.6045972E-05  (-0.1705276E-04)
 number of electron 1187.9996116 magnetization 
 augmentation part   779.7191369 magnetization 

 Broyden mixing:
  rms(total) = 0.20577E-02    rms(broyden)= 0.20571E-02
  rms(prec ) = 0.29234E-02
  weight for this iteration     100.00

 eigenvalues of (default mixing * dielectric matrix)
  average eigenvalue GAMMA=   0.9155
  2.4977  1.2024  1.2024  0.4355  0.3534  0.3587  0.3587

 Free energy of the ion-electron system (eV)
  ---------------------------------------------------
  alpha Z        PSCENC =     10198.58515210
  Ewald energy   TEWEN  =   -114045.65804815
  -1/2 Hartree   DENC   =    -35833.73473391
  -V(xc)+E(xc)   XCENC  =      4594.95435949
  PAW double counting   =    116790.88040646  -132360.13584779
  entropy T*S    EENTRO =        -0.23633952
  eigenvalues    EBANDS =        40.26516263
  atomic energy  EATOM  =    150221.57506482
  ---------------------------------------------------
  free energy    TOTEN  =      -393.50482386 eV

  energy without entropy =     -393.26848434  energy(sigma->0) =     -393.42604402


--------------------------------------------------------------------------------------------------------




----------------------------------------- Iteration    1(   9)  ---------------------------------------


    POTLOK:  VPU time    0.38: CPU time    0.38
    SETDIJ:  VPU time    0.09: CPU time    0.09
    EDDAV :  VPU time   77.34: CPU time   77.35
    DOS   :  VPU time    0.00: CPU time   -0.00
    ------------------------------------------
      LOOP:  VPU time   77.86: CPU time   77.88

 eigenvalue-minimisations  :  1448
 total energy-change (2. order) : 0.4125817E-05  (-0.5453653E-05)
 number of electron 1187.9996116 magnetization 
 augmentation part   779.7191369 magnetization 

 Free energy of the ion-electron system (eV)
  ---------------------------------------------------
  alpha Z        PSCENC =     10198.58515210
  Ewald energy   TEWEN  =   -114045.65804815
  -1/2 Hartree   DENC   =    -35833.73236478
  -V(xc)+E(xc)   XCENC  =      4594.95422525
  PAW double counting   =    116790.87984355  -132360.13320078
  entropy T*S    EENTRO =        -0.23633634
  eigenvalues    EBANDS =        40.26084457
  atomic energy  EATOM  =    150221.57506482
  ---------------------------------------------------
  free energy    TOTEN  =      -393.50481974 eV

  energy without entropy =     -393.26848340  energy(sigma->0) =     -393.42604096


--------------------------------------------------------------------------------------------------------




 average (electrostatic) potential at core
  the test charge radii are     1.0053
  (the norm of the test charge is              1.0000)
       1 -40.7246       2 -40.7247       3 -40.7245       4 -40.7249       5 -40.7247
       6 -40.7249       7 -40.7247       8 -40.7248       9 -40.7248      10 -40.7248
      11 -40.7249      12 -40.7249      13 -40.7250      14 -40.7246      15 -40.7247
      16 -40.7250      17 -40.7247      18 -40.7246      19 -40.7244      20 -40.7248
      21 -40.7269      22 -40.7269      23 -40.7248      24 -40.7245      25 -40.7250
      26 -40.7250      27 -40.7250      28 -40.7249      29 -40.7249      30 -40.7249
      31 -40.7250      32 -40.7250      33 -40.7250      34 -40.7248      35 -40.7249
      36 -40.7247      37 -40.7249      38 -40.7247      39 -40.7248      40 -40.7269
      41 -40.7269      42 -40.7248      43 -40.7245      44 -40.7249      45 -40.7250
      46 -40.7246      47 -40.7250      48 -40.7249      49 -40.7248      50 -40.7249
      51 -40.7233      52 -40.7233      53 -40.7249      54 -40.7250      55 -40.7249
      56 -40.7251      57 -40.7249      58 -40.7250      59 -40.7249      60 -40.7249
      61 -40.7249      62 -40.7246      63 -40.7247      64 -40.7248      65 -40.7248
      66 -40.7248      67 -40.7250      68 -40.7250      69 -40.7250      70 -40.7249
      71 -40.7249      72 -40.7233      73 -40.7233      74 -40.7249      75 -40.7250
      76 -40.7250      77 -40.7251      78 -40.7251      79 -40.7251      80 -40.7250
      81 -40.7251      82 -40.7249      83 -40.7249      84 -40.7249      85 -40.7249
      86 -40.7248      87 -40.7245      88 -40.7249      89 -40.7249      90 -40.7249
      91 -40.7249      92 -40.7250      93 -40.7249      94 -40.7251      95 -40.7249
      96 -40.7250      97 -40.7249      98 -40.7249      99 -40.7249     100 -40.7249
     101 -40.7248     102 -40.7250     103 -40.7250     104 -40.7250     105 -40.7249
     106 -40.7249     107 -40.7249     108 -40.7248
 
 
 
 E-fermi :   2.5483     XC(G=0): -12.0214     alpha+bet : -8.4069
   add alpha+bet to get absolut eigen values

 k-point   1 :       0.2500    0.2500    0.2500
  band No.  band energies     occupation 
      1      -5.4266      2.00000
      2      -4.8280      2.00000
      3      -4.8272      2.00000
      4      -4.8264      2.00000
      5      -4.2517      2.00000
      6      -4.2508      2.00000
      7      -4.2500      2.00000
      8      -3.7143      2.00000
      9      -3.6944      2.00000
     10      -3.6936      2.00000
     11      -3.6927      2.00000
     12      -3.1782      2.00000
     13      -3.1768      2.00000
     14      -3.1764      2.00000
     15      -3.1764      2.00000
     16      -3.1760      2.00000
     17      -3.1747      2.00000
     18      -2.7506      2.00000
     19      -2.7499      2.00000
     20      -2.7493      2.00000
     21      -2.3014      2.00000
     22      -2.3008      2.00000
     23      -2.3001      2.00000
     24      -2.2691      2.00000
     25      -2.2683      2.00000
     26      -2.2676      2.00000
     27      -2.0809      2.00000
     28      -2.0804      2.00000
     29      -2.0800      2.00000
     30      -1.9049      2.00000
     31      -1.9039      2.00000
     32      -1.9035      2.00000
     33      -1.9035      2.00000
     34      -1.9032      2.00000
     35      -1.9022      2.00000
     36      -1.8370      2.00000
     37      -1.7004      2.00000
     38      -1.6997      2.00000
     39      -1.6990      2.00000
     40      -1.5724      2.00000
     41      -1.5724      2.00000
     42      -1.5724      2.00000
     43      -1.4976      2.00000
     44      -1.4972      2.00000
     45      -1.4968      2.00000
     46      -1.4687      2.00000
     47      -1.4686      2.00000
     48      -1.4681      2.00000
     49      -1.4680      2.00000
     50      -1.4675      2.00000
     51      -1.4675      2.00000
     52      -1.3880      2.00000
     53      -1.3880      2.00000
     54      -1.3880      2.00000
     55      -1.3305      2.00000
     56      -1.3302      2.00000
     57      -1.3297      2.00000
     58      -1.3297      2.00000
     59      -1.3292      2.00000
     60      -1.3289      2.00000
     61      -1.2580      2.00000
     62      -1.2574      2.00000
     63      -1.2568      2.00000
     64      -1.2127      2.00000
     65      -1.2123      2.00000
     66      -1.2120      2.00000
     67      -1.2120      2.00000
     68      -1.2117      2.00000
     69      -1.2113      2.00000
     70      -1.1517      2.00000
     71      -1.1512      2.00000
     72      -1.1510      2.00000
     73      -1.1510      2.00000
     74      -1.1508      2.00000
     75      -1.1503      2.00000
     76      -1.1036      2.00000
     77      -1.1036      2.00000
     78      -1.1036      2.00000
     79      -1.0256      2.00000
     80      -1.0255      2.00000
     81      -1.0254      2.00000
     82      -1.0245      2.00000
     83      -1.0244      2.00000
     84      -1.0240      2.00000
     85      -1.0240      2.00000
     86      -1.0236      2.00000
     87      -1.0235      2.00000
     88      -0.9783      2.00000
     89      -0.9778      2.00000
     90      -0.9775      2.00000
     91      -0.9339      2.00000
     92      -0.9336      2.00000
     93      -0.9334      2.00000
     94      -0.8903      2.00000
     95      -0.8900      2.00000
     96      -0.8898      2.00000
     97      -0.8764      2.00000
     98      -0.8763      2.00000
     99      -0.8760      2.00000
    100      -0.8760      2.00000
    101      -0.8757      2.00000
    102      -0.8756      2.00000
    103      -0.8402      2.00000
    104      -0.8394      2.00000
    105      -0.8393      2.00000
    106      -0.8393      2.00000
    107      -0.8392      2.00000
    108      -0.8386      2.00000
    109      -0.8286      2.00000
    110      -0.8279      2.00000
    111      -0.8277      2.00000
    112      -0.8276      2.00000
    113      -0.8274      2.00000
    114      -0.8266      2.00000
    115      -0.7653      2.00000
    116      -0.7651      2.00000
    117      -0.7649      2.00000
    118      -0.7589      2.00000
    119      -0.7587      2.00000
    120      -0.7583      2.00000
    121      -0.7583      2.00000
    122      -0.7580      2.00000
    123      -0.7579      2.00000
    124      -0.7447      2.00000
    125      -0.7444      2.00000
    126      -0.7442      2.00000
    127      -0.7441      2.00000
    128      -0.7439      2.00000
    129      -0.7436      2.00000
    130      -0.6527      2.00000
    131      -0.6523      2.00000
    132      -0.6520      2.00000
    133      -0.6158      2.00000
    134      -0.6152      2.00000
    135      -0.6151      2.00000
    136      -0.6151      2.00000
    137      -0.6150      2.00000
    138      -0.6145      2.00000
    139      -0.6095      2.00000
    140      -0.6094      2.00000
    141      -0.6092      2.00000
    142      -0.5886      2.00000
    143      -0.5885      2.00000
    144      -0.5882      2.00000
    145      -0.5882      2.00000
    146      -0.5878      2.00000
    147      -0.5878      2.00000
    148      -0.5554      2.00000
    149      -0.5548      2.00000
    150      -0.5546      2.00000
    151      -0.5546      2.00000
    152      -0.5544      2.00000
    153      -0.5539      2.00000
    154      -0.5378      2.00000
    155      -0.5373      2.00000
    156      -0.5371      2.00000
    157      -0.5371      2.00000
    158      -0.5369      2.00000
    159      -0.5364      2.00000
    160      -0.4248      2.00000
    161      -0.4241      2.00000
    162      -0.4240      2.00000
    163      -0.4240      2.00000
    164      -0.4239      2.00000
    165      -0.4233      2.00000
    166      -0.3744      2.00000
    167      -0.3740      2.00000
    168      -0.3738      2.00000
    169      -0.3729      2.00000
    170      -0.3726      2.00000
    171      -0.3722      2.00000
    172      -0.3605      2.00000
    173      -0.3600      2.00000
    174      -0.3597      2.00000
    175      -0.3597      2.00000
    176      -0.3595      2.00000
    177      -0.3591      2.00000
    178      -0.3512      2.00000
    179      -0.3509      2.00000
    180      -0.3507      2.00000
    181      -0.3371      2.00000
    182      -0.3366      2.00000
    183      -0.3364      2.00000
    184      -0.3364      2.00000
    185      -0.3362      2.00000
    186      -0.3356      2.00000
    187      -0.3113      2.00000
    188      -0.3110      2.00000
    189      -0.3106      2.00000
    190      -0.2586      2.00000
    191      -0.2581      2.00000
    192      -0.2577      2.00000
    193      -0.2577      2.00000
    194      -0.2574      2.00000
    195      -0.2569      2.00000
    196      -0.2199      2.00000
    197      -0.2197      2.00000
    198      -0.2194      2.00000
    199      -0.2019      2.00000
    200      -0.2017      2.00000
    201      -0.2014      2.00000
    202      -0.2014      2.00000
    203      -0.2011      2.00000
    204      -0.2008      2.00000
    205      -0.1807      2.00000
    206      -0.1802      2.00000
    207      -0.1798      2.00000
    208      -0.1775      2.00000
    209      -0.1772      2.00000
    210      -0.1769      2.00000
    211      -0.1689      2.00000
    212      -0.1687      2.00000
    213      -0.1684      2.00000
    214      -0.1479      2.00000
    215      -0.1407      2.00000
    216      -0.1404      2.00000
    217      -0.1402      2.00000
    218      -0.1402      2.00000
    219      -0.1400      2.00000
    220      -0.1396      2.00000
    221      -0.1303      2.00000
    222      -0.1301      2.00000
    223      -0.1298      2.00000
    224      -0.1146      2.00000
    225      -0.1144      2.00000
    226      -0.1142      2.00000
    227      -0.1142      2.00000
    228      -0.1140      2.00000
    229      -0.1139      2.00000
    230      -0.1082      2.00000
    231      -0.1082      2.00000
    232      -0.1080      2.00000
    233      -0.1079      2.00000
    234      -0.1077      2.00000
    235      -0.1077      2.00000
    236      -0.0431      2.00000
    237      -0.0431      2.00000
    238      -0.0430      2.00000
    239      -0.0137      2.00000
    240      -0.0134      2.00000
    241      -0.0131      2.00000
    242      -0.0074      2.00000
    243      -0.0070      2.00000
    244      -0.0067      2.00000
    245      -0.0067      2.00000
    246      -0.0065      2.00000
    247      -0.0060      2.00000
    248       0.0013      2.00000
    249       0.0079      2.00000
    250       0.0079      2.00000
    251       0.0082      2.00000
    252       0.0082      2.00000
    253       0.0085      2.00000
    254       0.0086      2.00000
    255       0.0172      2.00000
    256       0.0175      2.00000
    257       0.0177      2.00000
    258       0.0439      2.00000
    259       0.0441      2.00000
    260       0.0443      2.00000
    261       0.0464      2.00000
    262       0.0464      2.00000
    263       0.0797      2.00000
    264       0.0798      2.00000
    265       0.0800      2.00000
    266       0.0812      2.00000
    267       0.0812      2.00000
    268       0.0894      2.00000
    269       0.0895      2.00000
    270       0.0895      2.00000
    271       0.0996      2.00000
    272       0.0997      2.00000
    273       0.0999      2.00000
    274       0.1101      2.00000
    275       0.1106      2.00000
    276       0.1110      2.00000
    277       0.1184      2.00000
    278       0.1188      2.00000
    279       0.1190      2.00000
    280       0.1190      2.00000
    281       0.1192      2.00000
    282       0.1196      2.00000
    283       0.1246      2.00000
    284       0.1247      2.00000
    285       0.1248      2.00000
    286       0.1248      2.00000
    287       0.1250      2.00000
    288       0.1251      2.00000
    289       0.1411      2.00000
    290       0.1412      2.00000
    291       0.1412      2.00000
    292       0.1718      2.00000
    293       0.1718      2.00000
    294       0.1779      2.00000
    295       0.1780      2.00000
    296       0.1783      2.00000
    297       0.1783      2.00000
    298       0.1786      2.00000
    299       0.1787      2.00000
    300       0.1843      2.00000
    301       0.1848      2.00000
    302       0.1849      2.00000
    303       0.1850      2.00000
    304       0.1850      2.00000
    305       0.1854      2.00000
    306       0.1888      2.00000
    307       0.1890      2.00000
    308       0.1893      2.00000
    309       0.2034      2.00000
    310       0.2036      2.00000
    311       0.2036      2.00000
    312       0.2262      2.00000
    313       0.2264      2.00000
    314       0.2266      2.00000
    315       0.2279      2.00000
    316       0.2281      2.00000
    317       0.2283      2.00000
    318       0.2489      2.00000
    319       0.2490      2.00000
    320       0.2493      2.00000
    321       0.2494      2.00000
    322       0.2497      2.00000
    323       0.2498      2.00000
    324       0.2538      2.00000
    325       0.2541      2.00000
    326       0.2544      2.00000
    327       0.2571      2.00000
    328       0.2572      2.00000
    329       0.2577      2.00000
    330       0.2580      2.00000
    331       0.2584      2.00000
    332       0.2589      2.00000
    333       0.2730      2.00000
    334       0.2732      2.00000
    335       0.2734      2.00000
    336       0.3446      2.00000
    337       0.3452      2.00000
    338       0.3456      2.00000
    339       0.3472      2.00000
    340       0.3476      2.00000
    341       0.3481      2.00000
    342       0.3610      2.00000
    343       0.3614      2.00000
    344       0.3617      2.00000
    345       0.3617      2.00000
    346       0.3620      2.00000
    347       0.3624      2.00000
    348       0.3944      2.00000
    349       0.3948      2.00000
    350       0.3952      2.00000
    351       0.4357      2.00000
    352       0.4358      2.00000
    353       0.4360      2.00000
    354       0.4360      2.00000
    355       0.4363      2.00000
    356       0.4363      2.00000
    357       0.4780      2.00000
    358       0.4781      2.00000
    359       0.4782      2.00000
    360       0.4812      2.00000
    361       0.4814      2.00000
    362       0.4816      2.00000
    363       0.4816      2.00000
    364       0.4818      2.00000
    365       0.4820      2.00000
    366       0.4878      2.00000
    367       0.4878      2.00000
    368       0.4881      2.00000
    369       0.4881      2.00000
    370       0.4884      2.00000
    371       0.4884      2.00000
    372       0.5681      2.00000
    373       0.5682      2.00000
    374       0.5682      2.00000
    375       0.5820      2.00000
    376       0.5824      2.00000
    377       0.5826      2.00000
    378       0.5827      2.00000
    379       0.5827      2.00000
    380       0.5829      2.00000
    381       0.5830      2.00000
    382       0.5833      2.00000
    383       0.5836      2.00000
    384       0.5840      2.00000
    385       0.5843      2.00000
    386       0.5845      2.00000
    387       0.5848      2.00000
    388       0.5850      2.00000
    389       0.5851      2.00000
    390       0.6271      2.00000
    391       0.6273      2.00000
    392       0.6275      2.00000
    393       0.6275      2.00000
    394       0.6276      2.00000
    395       0.6278      2.00000
    396       0.6416      2.00000
    397       0.6417      2.00000
    398       0.6419      2.00000
    399       0.6419      2.00000
    400       0.6421      2.00000
    401       0.6423      2.00000
    402       0.6459      2.00000
    403       0.6460      2.00000
    404       0.6461      2.00000
    405       0.6662      2.00000
    406       0.6668      2.00000
    407       0.6669      2.00000
    408       0.6669      2.00000
    409       0.6669      2.00000
    410       0.6670      2.00000
    411       0.6671      2.00000
    412       0.6672      2.00000
    413       0.6677      2.00000
    414       0.6903      2.00000
    415       0.6905      2.00000
    416       0.6908      2.00000
    417       0.7018      2.00000
    418       0.7018      2.00000
    419       0.7248      2.00000
    420       0.7251      2.00000
    421       0.7253      2.00000
    422       0.7253      2.00000
    423       0.7254      2.00000
    424       0.7257      2.00000
    425       0.7353      2.00000
    426       0.7357      2.00000
    427       0.7361      2.00000
    428       0.7717      2.00000
    429       0.7719      2.00000
    430       0.7721      2.00000
    431       0.7809      2.00000
    432       0.7809      2.00000
    433       0.7835      2.00000
    434       0.7839      2.00000
    435       0.7842      2.00000
    436       0.8295      2.00000
    437       0.8295      2.00000
    438       0.8297      2.00000
    439       0.8298      2.00000
    440       0.8300      2.00000
    441       0.8300      2.00000
    442       0.8402      2.00000
    443       0.8403      2.00000
    444       0.8404      2.00000
    445       0.8497      2.00000
    446       0.8498      2.00000
    447       0.8501      2.00000
    448       0.8501      2.00000
    449       0.8504      2.00000
    450       0.8505      2.00000
    451       0.8956      2.00000
    452       0.8957      2.00000
    453       0.8958      2.00000
    454       0.9135      2.00000
    455       0.9139      2.00000
    456       0.9142      2.00000
    457       0.9161      2.00000
    458       0.9164      2.00000
    459       0.9167      2.00000
    460       0.9277      2.00000
    461       0.9282      2.00000
    462       0.9282      2.00000
    463       0.9283      2.00000
    464       0.9283      2.00000
    465       0.9288      2.00000
    466       0.9330      2.00000
    467       0.9333      2.00000
    468       0.9337      2.00000
    469       0.9378      2.00000
    470       0.9381      2.00000
    471       0.9385      2.00000
    472       0.9428      2.00000
    473       0.9430      2.00000
    474       0.9431      2.00000
    475       0.9431      2.00000
    476       0.9433      2.00000
    477       0.9435      2.00000
    478       0.9862      2.00000
    479       0.9866      2.00000
    480       0.9871      2.00000
    481       0.9968      2.00000
    482       0.9971      2.00000
    483       0.9974      2.00000
    484       1.0380      2.00000
    485       1.0382      2.00000
    486       1.0385      2.00000
    487       1.0553      2.00000
    488       1.0553      2.00000
    489       1.0554      2.00000
    490       1.0791      2.00000
    491       1.0794      2.00000
    492       1.0795      2.00000
    493       1.0796      2.00000
    494       1.0797      2.00000
    495       1.0799      2.00000
    496       1.0800      2.00000
    497       1.0800      2.00000
    498       1.0802      2.00000
    499       1.0802      2.00000
    500       1.0804      2.00000
    501       1.0805      2.00000
    502       1.0857      2.00000
    503       1.0860      2.00000
    504       1.0862      2.00000
    505       1.0862      2.00000
    506       1.0863      2.00000
    507       1.0863      2.00000
    508       1.0864      2.00000
    509       1.0865      2.00000
    510       1.0866      2.00000
    511       1.0866      2.00000
    512       1.0867      2.00000
    513       1.0869      2.00000
    514       1.0900      2.00000
    515       1.0940      2.00000
    516       1.0940      2.00000
    517       1.0940      2.00000
    518       1.0952      2.00000
    519       1.0953      2.00000
    520       1.0954      2.00000
    521       1.1082      2.00000
    522       1.1083      2.00000
    523       1.1308      2.00000
    524       1.1310      2.00000
    525       1.1311      2.00000
    526       1.1311      2.00000
    527       1.1311      2.00000
    528       1.1313      2.00000
    529       1.1421      2.00000
    530       1.1422      2.00000
    531       1.1423      2.00000
    532       1.1423      2.00000
    533       1.1424      2.00000
    534       1.1425      2.00000
    535       1.1493      2.00000
    536       1.1494      2.00000
    537       1.1495      2.00000
    538       1.1526      2.00000
    539       1.1527      2.00000
    540       1.1528      2.00000
    541       1.1663      2.00000
    542       1.1664      2.00000
    543       1.1664      2.00000
    544       1.1757      2.00000
    545       1.1758      2.00000
    546       1.1758      2.00000
    547       1.2029      2.00000
    548       1.2029      2.00000
    549       1.2030      2.00000
    550       1.2321      2.00000
    551       1.2321      2.00000
    552       1.2322      2.00000
    553       1.2322      2.00000
    554       1.2323      2.00000
    555       1.2323      2.00000
    556       1.2381      2.00000
    557       1.2382      2.00000
    558       1.2383      2.00000
    559       1.2383      2.00000
    560       1.2383      2.00000
    561       1.2384      2.00000
    562       1.2543      2.00000
    563       1.2544      2.00000
    564       1.2544      2.00000
    565       1.3869      2.00000
    566       1.3872      2.00000
    567       1.3875      2.00000
    568       1.5222      2.00000
    569       1.5224      2.00000
    570       1.5225      2.00000
    571       1.5769      2.00000
    572       1.5773      2.00000
    573       1.5775      2.00000
    574       1.5775      2.00000
    575       1.5776      2.00000
    576       1.5781      2.00000
    577       1.7668      2.00000
    578       1.7671      2.00000
    579       1.7674      2.00000
    580       2.0762      2.00422
    581       2.0766      2.00426
    582       2.0771      2.00431
    583       2.3952      1.96134
    584       2.3953      1.96108
    585       2.3957      1.95987
    586       2.3957      1.95986
    587       2.3961      1.95866
[...]
   -.175E+01 0.904E-02 0.904E-02   0.174E+01 -.144E-01 -.144E-01   -.119E-01 -.440E-03 -.440E-03   0.144E-01 0.578E-02 0.578E-02
   -.197E+00 -.337E-02 -.337E-02   0.206E+00 -.696E-03 -.696E-03   0.268E-02 -.204E-03 -.204E-03   -.115E-01 0.437E-02 0.437E-02
   -.945E-01 0.477E-08 0.477E-08   0.107E+00 -.504E-08 -.504E-08   0.288E-02 -.227E-21 0.000E+00   -.153E-01 -.530E-10 -.531E-10
   -.102E+00 -.303E+00 -.162E+00   0.105E+00 0.301E+00 0.165E+00   0.311E-02 -.349E-02 -.821E-03   -.597E-02 0.535E-02 -.156E-02
   0.103E+01 -.269E+01 0.314E-08   -.103E+01 0.268E+01 -.525E-09   -.180E-01 0.551E-02 0.000E+00   0.659E-02 0.123E-01 0.519E-09
   0.103E+01 0.411E-07 0.269E+01   -.103E+01 -.500E-07 -.268E+01   -.180E-01 -.102E-09 -.551E-02   0.659E-02 -.418E-09 -.123E-01
   -.102E+00 0.162E+00 0.303E+00   0.105E+00 -.165E+00 -.301E+00   0.311E-02 0.821E-03 0.349E-02   -.597E-02 0.156E-02 -.535E-02
   -.546E-01 0.427E-01 -.813E-09   0.604E-01 -.459E-01 0.776E-09   0.137E-02 0.151E-03 0.000E+00   -.696E-02 0.315E-02 0.607E-10
   0.254E+00 -.251E+00 -.113E-09   -.253E+00 0.244E+00 0.297E-09   -.572E-02 0.427E-02 0.678E-20   0.497E-02 0.227E-02 -.231E-09
   0.512E+00 -.300E+00 0.300E+00   -.513E+00 0.299E+00 -.299E+00   0.473E-02 -.321E-02 0.321E-02   -.446E-02 0.495E-02 -.495E-02
   0.254E+00 0.380E-08 0.251E+00   -.253E+00 -.405E-08 -.244E+00   -.572E-02 -.789E-10 -.427E-02   0.497E-02 -.578E-09 -.227E-02
   0.967E-01 0.431E-01 -.103E-07   -.105E+00 -.457E-01 0.106E-07   0.110E-02 -.335E-03 0.000E+00   0.759E-02 0.297E-02 0.412E-09
   0.241E+00 0.471E-02 -.456E-02   -.256E+00 -.899E-03 0.456E-03   0.156E-02 0.386E-03 -.167E-03   0.139E-01 -.431E-02 0.435E-02
   0.241E+00 0.456E-02 -.471E-02   -.256E+00 -.456E-03 0.899E-03   0.156E-02 0.167E-03 -.386E-03   0.139E-01 -.435E-02 0.431E-02
   0.193E+00 -.469E-09 -.118E-07   -.203E+00 0.697E-09 0.120E-07   -.546E-02 -.402E-21 0.271E-19   0.157E-01 -.694E-09 0.556E-09
   0.951E-01 -.792E-01 0.792E-01   -.992E-01 0.727E-01 -.727E-01   -.174E-03 -.253E-03 0.253E-03   0.475E-02 0.674E-02 -.674E-02
   0.972E-01 -.956E-08 0.516E-01   -.104E+00 0.967E-08 -.460E-01   0.152E-02 -.609E-12 -.329E-04   0.508E-02 0.596E-09 -.568E-02
   -.102E+00 -.171E+00 0.311E+00   0.109E+00 0.164E+00 -.301E+00   0.317E-02 -.823E-03 0.352E-02   -.105E-01 0.724E-02 -.141E-01
   -.102E+00 -.311E+00 0.171E+00   0.109E+00 0.301E+00 -.164E+00   0.317E-02 -.352E-02 0.823E-03   -.105E-01 0.141E-01 -.724E-02
   -.879E-01 0.505E-08 0.749E-10   0.997E-01 -.549E-08 -.353E-09   -.124E-02 0.288E-20 -.678E-20   -.105E-01 -.354E-10 0.339E-09
   -.593E+00 0.990E-09 0.129E-03   0.599E+00 -.676E-09 0.472E-02   -.312E-02 -.689E-11 -.372E-03   -.329E-02 0.534E-09 -.445E-02
   -.175E+01 0.904E-02 -.904E-02   0.174E+01 -.144E-01 0.144E-01   -.119E-01 -.440E-03 0.440E-03   0.144E-01 0.578E-02 -.578E-02
   -.593E+00 -.129E-03 0.106E-08   0.599E+00 -.472E-02 -.765E-09   -.312E-02 0.372E-03 0.678E-20   -.329E-02 0.445E-02 0.496E-09
   -.201E+00 0.138E-07 -.378E-02   0.213E+00 -.144E-07 -.455E-03   0.346E-03 -.374E-11 -.202E-03   -.124E-01 -.529E-09 0.453E-02
   -.102E+00 -.162E+00 -.303E+00   0.105E+00 0.165E+00 0.301E+00   0.311E-02 -.821E-03 -.349E-02   -.597E-02 -.156E-02 0.535E-02
   0.103E+01 -.467E-07 -.269E+01   -.103E+01 0.491E-07 0.268E+01   -.180E-01 0.102E-09 0.551E-02   0.659E-02 0.747E-09 0.123E-01
   0.103E+01 0.269E+01 -.857E-08   -.103E+01 -.268E+01 -.337E-09   -.180E-01 -.551E-02 0.254E-20   0.659E-02 -.123E-01 -.191E-09
   -.102E+00 0.303E+00 0.162E+00   0.105E+00 -.301E+00 -.165E+00   0.311E-02 0.349E-02 0.821E-03   -.597E-02 -.535E-02 0.156E-02
   -.546E-01 -.268E-10 0.427E-01   0.604E-01 -.739E-10 -.459E-01   0.137E-02 0.280E-11 0.151E-03   -.696E-02 0.119E-09 0.315E-02
   0.944E-01 -.708E-01 -.708E-01   -.100E+00 0.719E-01 0.719E-01   -.588E-03 0.344E-03 0.344E-03   0.720E-02 -.169E-02 -.169E-02
   0.512E+00 -.300E+00 -.300E+00   -.513E+00 0.299E+00 0.299E+00   0.473E-02 -.321E-02 -.321E-02   -.446E-02 0.495E-02 0.495E-02
   0.148E+01 -.168E-08 -.179E-08   -.149E+01 0.479E-09 0.478E-09   0.264E-01 0.123E-19 -.271E-19   -.237E-01 -.464E-09 -.464E-09
   0.512E+00 0.300E+00 0.300E+00   -.513E+00 -.299E+00 -.299E+00   0.473E-02 0.321E-02 0.321E-02   -.446E-02 -.495E-02 -.495E-02
   0.944E-01 0.708E-01 0.708E-01   -.100E+00 -.719E-01 -.719E-01   -.588E-03 -.344E-03 -.344E-03   0.720E-02 0.169E-02 0.169E-02
   0.453E-01 -.240E-08 -.250E-08   -.537E-01 0.252E-08 0.252E-08   -.319E-04 -.733E-21 0.000E+00   0.844E-02 0.399E-10 0.399E-10
   0.241E+00 0.471E-02 0.456E-02   -.256E+00 -.899E-03 -.456E-03   0.156E-02 0.386E-03 0.167E-03   0.139E-01 -.431E-02 -.435E-02
   0.614E+00 0.615E-02 -.114E-08   -.611E+00 -.172E-02 0.873E-09   -.408E-02 0.150E-03 0.678E-20   0.207E-02 -.466E-02 -.838E-09
   0.614E+00 -.100E-08 -.615E-02   -.611E+00 0.906E-09 0.172E-02   -.408E-02 -.277E-11 -.150E-03   0.207E-02 -.893E-09 0.466E-02
   0.241E+00 -.456E-02 -.471E-02   -.256E+00 0.456E-03 0.899E-03   0.156E-02 -.167E-03 -.386E-03   0.139E-01 0.435E-02 0.431E-02
   0.105E+00 -.385E-02 -.577E-08   -.123E+00 0.278E-03 0.603E-08   -.339E-03 -.292E-03 0.339E-20   0.182E-01 0.397E-02 0.416E-10
   -.521E-01 -.597E-10 0.503E-01   0.619E-01 -.166E-09 -.458E-01   0.158E-02 0.153E-10 0.824E-03   -.113E-01 0.277E-09 -.554E-02
   -.197E+00 -.337E-02 0.337E-02   0.206E+00 -.696E-03 0.696E-03   0.268E-02 -.204E-03 0.204E-03   -.115E-01 0.437E-02 -.437E-02
   -.201E+00 0.139E-07 0.378E-02   0.213E+00 -.144E-07 0.455E-03   0.346E-03 0.374E-11 0.202E-03   -.124E-01 -.461E-09 -.453E-02
   -.102E+00 0.162E+00 -.303E+00   0.105E+00 -.165E+00 0.301E+00   0.311E-02 0.821E-03 -.349E-02   -.597E-02 0.156E-02 0.535E-02
   -.102E+00 0.303E+00 -.162E+00   0.105E+00 -.301E+00 0.165E+00   0.311E-02 0.349E-02 -.821E-03   -.597E-02 -.535E-02 -.156E-02
   -.894E-01 0.495E-08 0.344E-09   0.969E-01 -.528E-08 -.344E-09   -.162E-02 -.299E-20 0.000E+00   -.576E-02 -.192E-09 0.278E-09
   0.254E+00 -.476E-08 -.251E+00   -.253E+00 0.482E-08 0.244E+00   -.572E-02 0.789E-10 0.427E-02   0.497E-02 -.189E-09 0.227E-02
   0.512E+00 0.300E+00 -.300E+00   -.513E+00 -.299E+00 0.299E+00   0.473E-02 0.321E-02 -.321E-02   -.446E-02 -.495E-02 0.495E-02
   0.254E+00 0.251E+00 -.106E-08   -.253E+00 -.244E+00 0.472E-09   -.572E-02 -.427E-02 -.678E-20   0.497E-02 -.227E-02 -.536E-09
   0.967E-01 -.953E-08 0.431E-01   -.105E+00 0.971E-08 -.457E-01   0.110E-02 -.620E-11 -.335E-03   0.759E-02 0.467E-09 0.297E-02
   0.241E+00 0.456E-02 0.471E-02   -.256E+00 -.456E-03 -.899E-03   0.156E-02 0.167E-03 0.386E-03   0.139E-01 -.435E-02 -.431E-02
   0.614E+00 -.931E-09 0.615E-02   -.611E+00 0.841E-09 -.172E-02   -.408E-02 0.277E-11 0.150E-03   0.207E-02 -.925E-09 -.466E-02
   0.614E+00 -.615E-02 -.785E-09   -.611E+00 0.172E-02 0.874E-09   -.408E-02 -.150E-03 0.000E+00   0.207E-02 0.466E-02 -.979E-09
   0.241E+00 -.471E-02 -.456E-02   -.256E+00 0.899E-03 0.456E-03   0.156E-02 -.386E-03 -.167E-03   0.139E-01 0.431E-02 0.435E-02
   0.105E+00 -.573E-08 -.385E-02   -.123E+00 0.604E-08 0.278E-03   -.339E-03 -.541E-11 -.292E-03   0.182E-01 0.115E-09 0.397E-02
   -.546E-01 0.554E-08 -.427E-01   0.604E-01 -.576E-08 0.459E-01   0.137E-02 -.280E-11 -.151E-03   -.696E-02 -.232E-09 -.315E-02
   0.944E-01 0.708E-01 -.708E-01   -.100E+00 -.719E-01 0.719E-01   -.588E-03 -.344E-03 0.344E-03   0.720E-02 0.169E-02 -.169E-02
   0.967E-01 -.403E-08 -.431E-01   -.105E+00 0.407E-08 0.457E-01   0.110E-02 0.620E-11 0.335E-03   0.759E-02 0.126E-09 -.297E-02
   0.241E+00 -.456E-02 0.471E-02   -.256E+00 0.456E-03 -.899E-03   0.156E-02 -.167E-03 0.386E-03   0.139E-01 0.435E-02 -.431E-02
   0.241E+00 -.471E-02 0.456E-02   -.256E+00 0.899E-03 -.456E-03   0.156E-02 -.386E-03 0.167E-03   0.139E-01 0.431E-02 -.435E-02
   0.193E+00 -.118E-07 -.470E-09   -.203E+00 0.120E-07 0.697E-09   -.546E-02 -.107E-19 0.000E+00   0.157E-01 0.556E-09 -.694E-09
   0.105E+00 -.577E-08 0.385E-02   -.123E+00 0.606E-08 -.278E-03   -.339E-03 0.541E-11 0.292E-03   0.182E-01 0.134E-09 -.397E-02
 -----------------------------------------------------------------------------------------------
   -.477E-02 0.338E-09 -.498E-04   0.824E-11 -.199E-11 -.848E-12   -.302E-02 0.262E-17 -.271E-17   0.107E-01 0.498E-10 0.551E-10
 
 
 POSITION                                       TOTAL-FORCE (eV/Angst)
 -----------------------------------------------------------------------------------
      7.56506      7.56506      3.78253         0.000365      0.000035     -0.000035
      7.56506      9.45633      5.67380        -0.000180     -0.000173     -0.000000
      9.45633      7.56506      5.67380         0.000094     -0.000199     -0.000000
      7.56506      7.56506      0.00000         0.000168      0.000129     -0.000000
      7.56506      9.45633      1.89127        -0.000980     -0.000460      0.000460
      7.56506      0.00000      3.78253         0.000168     -0.000000     -0.000129
      7.56506      1.89127      5.67380        -0.000180      0.000173      0.000000
      9.45633      7.56506      1.89127        -0.000562     -0.000474      0.000013
      9.45633      9.45633      3.78253        -0.000562     -0.000013      0.000474
      9.45633      0.00000      5.67380         0.000023     -0.000000      0.000000
      0.00000      7.56506      3.78253        -0.000110     -0.000097      0.000097
      0.00000      9.45633      5.67380         0.000144     -0.000090     -0.000000
      1.89127      7.56506      5.67380         0.000170     -0.000035     -0.000000
      7.56506      7.56506      7.56506         0.000365      0.000035      0.000035
      7.56506      9.45633      9.45633        -0.000980     -0.000460     -0.000460
      7.56506      0.00000      0.00000        -0.002709      0.000000      0.000000
      7.56506      1.89127      1.89127        -0.000980      0.000460      0.000460
      7.56506      3.78253      3.78253         0.000365     -0.000035     -0.000035
      7.56506      5.67380      5.67380        -0.000110     -0.000000      0.000000
      9.45633      7.56506      9.45633        -0.000562     -0.000474     -0.000013
      9.45633      9.45633      0.00000        -0.007990     -0.008917     -0.000000
      9.45633      0.00000      1.89127        -0.007990      0.000000      0.008917
      9.45633      1.89127      3.78253        -0.000562      0.000013      0.000474
      9.45633      3.78253      5.67380         0.000094      0.000199     -0.000000
      0.00000      7.56506      0.00000        -0.000143      0.000026     -0.000000
      0.00000      9.45633      1.89127         0.001274     -0.000016      0.000016
      0.00000      0.00000      3.78253        -0.000143     -0.000000     -0.000026
      0.00000      1.89127      5.67380         0.000144      0.000090     -0.000000
      1.89127      7.56506      1.89127        -0.000517      0.000341      0.000100
      1.89127      9.45633      3.78253        -0.000517     -0.000100     -0.000341
      1.89127      0.00000      5.67380         0.000102      0.000000     -0.000000
      3.78253      7.56506      3.78253         0.000496     -0.000242      0.000242
      3.78253      9.45633      5.67380        -0.000018      0.000013     -0.000000
      5.67380      7.56506      5.67380        -0.000076     -0.000099     -0.000000
      7.56506      0.00000      7.56506         0.000168      0.000000      0.000129
      7.56506      1.89127      9.45633        -0.000980      0.000460     -0.000460
      7.56506      3.78253      0.00000         0.000168     -0.000129     -0.000000
      7.56506      5.67380      1.89127        -0.000180      0.000000      0.000173
      9.45633      9.45633      7.56506        -0.000562     -0.000013     -0.000474
      9.45633      0.00000      9.45633        -0.007990     -0.000000     -0.008917
      9.45633      1.89127      0.00000        -0.007990      0.008917     -0.000000
      9.45633      3.78253      1.89127        -0.000562      0.000474      0.000013
      9.45633      5.67380      3.78253         0.000094      0.000000      0.000199
      0.00000      7.56506      7.56506        -0.000110     -0.000097     -0.000097
      0.00000      9.45633      9.45633         0.001274     -0.000016     -0.000016
     11.32760      0.00000      0.00000         0.069588      0.000000      0.000000
      0.00000      1.89127      1.89127         0.001274      0.000016      0.000016
      0.00000      3.78253      3.78253        -0.000110      0.000097      0.000097
      0.00000      5.67380      5.67380        -0.000175     -0.000000      0.000000
      1.89127      7.56506      9.45633        -0.000517      0.000341     -0.000100
      1.89127      9.45633      0.00000        -0.007322      0.007923      0.000000
      1.89127      0.00000      1.89127        -0.007322     -0.000000     -0.007923
      1.89127      1.89127      3.78253        -0.000517      0.000100     -0.000341
      1.89127      3.78253      5.67380         0.000170      0.000035     -0.000000
      3.78253      7.56506      0.00000         0.000264     -0.000321      0.000000
      3.78253      9.45633      1.89127        -0.000935      0.000318     -0.000318
      3.78253      0.00000      3.78253         0.000264      0.000000      0.000321
      3.78253      1.89127      5.67380        -0.000018     -0.000013      0.000000
      5.67380      7.56506      1.89127         0.000048     -0.000115      0.000077
      5.67380      9.45633      3.78253         0.000048     -0.000077      0.000115
      5.67380      0.00000      5.67380        -0.000273      0.000000      0.000000
      7.56506      3.78253      7.56506         0.000365     -0.000035      0.000035
      7.56506      5.67380      9.45633        -0.000180     -0.000000     -0.000173
      9.45633      1.89127      7.56506        -0.000562      0.000013     -0.000474
      9.45633      3.78253      9.45633        -0.000562      0.000474     -0.000013
      9.45633      5.67380      0.00000         0.000023      0.000000     -0.000000
      0.00000      0.00000      7.56506        -0.000143      0.000000      0.000026
      0.00000      1.89127      9.45633         0.001274      0.000016     -0.000016
      0.00000      3.78253      0.00000        -0.000143     -0.000026      0.000000
      0.00000      5.67380      1.89127         0.000144      0.000000      0.000090
      1.89127      9.45633      7.56506        -0.000517     -0.000100      0.000341
      1.89127      0.00000      9.45633        -0.007322      0.000000      0.007923
      1.89127      1.89127      0.00000        -0.007322     -0.007923     -0.000000
      1.89127      3.78253      1.89127        -0.000517     -0.000341      0.000100
      1.89127      5.67380      3.78253         0.000170      0.000000      0.000035
      3.78253      7.56506      7.56506         0.000496     -0.000242     -0.000242
      3.78253      9.45633      9.45633        -0.000935      0.000318      0.000318
      3.78253      0.00000      0.00000        -0.002706      0.000000      0.000000
      3.78253      1.89127      1.89127        -0.000935     -0.000318     -0.000318
      3.78253      3.78253      3.78253         0.000496      0.000242      0.000242
      3.78253      5.67380      5.67380         0.000028      0.000000      0.000000
      5.67380      7.56506      9.45633         0.000048     -0.000115     -0.000077
      5.67380      9.45633      0.00000         0.000937     -0.000078     -0.000000
      5.67380      0.00000      1.89127         0.000937      0.000000      0.000078
      5.67380      1.89127      3.78253         0.000048      0.000077      0.000115
      5.67380      3.78253      5.67380        -0.000076      0.000099     -0.000000
      9.45633      5.67380      7.56506         0.000094     -0.000000     -0.000199
      0.00000      3.78253      7.56506        -0.000110      0.000097     -0.000097
      0.00000      5.67380      9.45633         0.000144     -0.000000     -0.000090
      1.89127      1.89127      7.56506        -0.000517      0.000100      0.000341
      1.89127      3.78253      9.45633        -0.000517     -0.000341     -0.000100
      1.89127      5.67380      0.00000         0.000102      0.000000     -0.000000
      3.78253      0.00000      7.56506         0.000264     -0.000000     -0.000321
      3.78253      1.89127      9.45633        -0.000935     -0.000318      0.000318
      3.78253      3.78253      0.00000         0.000264      0.000321      0.000000
      3.78253      5.67380      1.89127        -0.000018     -0.000000     -0.000013
      5.67380      9.45633      7.56506         0.000048     -0.000077     -0.000115
      5.67380      0.00000      9.45633         0.000937     -0.000000     -0.000078
      5.67380      1.89127      0.00000         0.000937      0.000078      0.000000
      5.67380      3.78253      1.89127         0.000048      0.000115      0.000077
      5.67380      5.67380      3.78253        -0.000076      0.000000      0.000099
      1.89127      5.67380      7.56506         0.000170     -0.000000     -0.000035
      3.78253      3.78253      7.56506         0.000496      0.000242     -0.000242
      3.78253      5.67380      9.45633        -0.000018      0.000000      0.000013
      5.67380      1.89127      7.56506         0.000048      0.000077     -0.000115
      5.67380      3.78253      9.45633         0.000048      0.000115     -0.000077
      5.67380      5.67380      0.00000        -0.000273      0.000000     -0.000000
      5.67380      5.67380      7.56506        -0.000076     -0.000000     -0.000099
 -----------------------------------------------------------------------------------
    total drift:                                0.002903      0.000000     -0.000050


--------------------------------------------------------------------------------------------------------



 mean value of Nose-termostat <S>:     1.000 mean value of <T> :     0.000
 mean temperature <T/S>/<1/S>  :     0.000

     LOOP+:  VPU time  887.49: CPU time  887.79

 ----------------------------------------------------------------------------- 
|                                                                             |
|           W    W    AA    RRRRR   N    N  II  N    N   GGGG   !!!           |
|           W    W   A  A   R    R  NN   N  II  NN   N  G    G  !!!           |
|           W    W  A    A  R    R  N N  N  II  N N  N  G       !!!           |
|           W WW W  AAAAAA  RRRRR   N  N N  II  N  N N  G  GGG   !            |
|           WW  WW  A    A  R   R   N   NN  II  N   NN  G    G                |
|           W    W  A    A  R    R  N    N  II  N    N   GGGG   !!!           |
|                                                                             |
|      The partial DOS and the PROCAR file are not evaluated for NPAR/=1      |
|      please rerun with NPAR=1                                               |
|                                                                             |
 ----------------------------------------------------------------------------- 

  
  
 General timing and accounting informations for this job:
 ========================================================
  
                  Total CPU time used (sec):      902.084
                            User time (sec):      877.923
                          System time (sec):       24.161
                         Elapsed time (sec):      902.417
  
                   Maximum memory used (kb):      337728.
                   Average memory used (kb):           0.
  
                          Minor page faults:        69989
                          Major page faults:            0
                 Voluntary context switches:          839
