 running on    4 nodes
 distr:  one band on    1 nodes,    4 groups
 vasp.4.6.28 25Jul05 complex 
 POSCAR found :  1 types and  108 ions

 ----------------------------------------------------------------------------- 
|                                                                             |
|  ADVICE TO THIS USER RUNNING 'VASP/VAMP'   (HEAR YOUR MASTER'S VOICE ...):  |
|                                                                             |
|      You have a (more or less) 'large supercell' and for larger cells       |
|      it might be more efficient to use real space projection operators      |
|      So try LREAL= Auto  in the INCAR   file.                               |
|      Mind: If you want to do an extremely accurate calculations keep the    |
|      reciprocal projection scheme          (i.e. LREAL=.FALSE.)             |
|                                                                             |
 ----------------------------------------------------------------------------- 

 LDA part: xc-table for Pade appr. of Perdew
 POSCAR, INCAR and KPOINTS ok, starting setup
 WARNING: wrap around errors must be expected
 FFT: planning ...          12
 reading WAVECAR
 entering main loop
       N       E                     dE             d eps       ncg     rms          rms(c)
DAV:   1     0.764406881136E+04    0.76441E+04   -0.33890E+05  1424   0.151E+03
DAV:   2     0.354762111461E+03   -0.72893E+04   -0.70100E+04  1424   0.380E+02
DAV:   3    -0.451990145379E+03   -0.80675E+03   -0.71477E+03  1424   0.141E+02
DAV:   4    -0.481681020429E+03   -0.29691E+02   -0.29245E+02  1512   0.322E+01
DAV:   5    -0.481861074500E+03   -0.18005E+00   -0.17964E+00  1496   0.239E+00    0.700E+01
DAV:   6    -0.435644029569E+03    0.46217E+02   -0.99442E+02  1512   0.862E+01    0.376E+01
DAV:   7    -0.394226874355E+03    0.41417E+02   -0.17964E+02  1584   0.370E+01    0.373E+00
DAV:   8    -0.393897869545E+03    0.32900E+00   -0.37964E+00  1520   0.374E+00    0.463E+00
DAV:   9    -0.393513770055E+03    0.38410E+00   -0.17244E+00  1472   0.353E+00    0.762E-01
DAV:  10    -0.393505434382E+03    0.83357E-02   -0.62122E-02  1488   0.666E-01    0.507E-02
DAV:  11    -0.393505481896E+03   -0.47515E-04   -0.59330E-04  1464   0.440E-02    0.298E-02
DAV:  12    -0.393505463200E+03    0.18697E-04   -0.15957E-04  1472   0.342E-02    0.102E-02
DAV:  13    -0.393505504036E+03   -0.40836E-04   -0.11599E-05   760   0.961E-03    0.361E-03
DAV:  14    -0.393505504077E+03   -0.41327E-07   -0.11409E-06   760   0.316E-03
   1 F= -.39350550E+03 E0= -.39342672E+03  d E =-.393506E+03
 curvature:   0.00 expect dE= 0.000E+00 dE for cont linesearch  0.000E+00
 trial: gam= 0.00000 g(F)=  0.617E-44 g(S)=  0.000E+00 ort = 0.000E+00 (trialstep = 0.100E+01)
 search vector abs. value=  0.100E-09
 reached required accuracy - stopping structural energy minimisation
 writing wavefunctions

 ----------------------------------------------------------------------------- 
|                                                                             |
|           W    W    AA    RRRRR   N    N  II  N    N   GGGG   !!!           |
|           W    W   A  A   R    R  NN   N  II  NN   N  G    G  !!!           |
|           W    W  A    A  R    R  N N  N  II  N N  N  G       !!!           |
|           W WW W  AAAAAA  RRRRR   N  N N  II  N  N N  G  GGG   !            |
|           WW  WW  A    A  R   R   N   NN  II  N   NN  G    G                |
|           W    W  A    A  R    R  N    N  II  N    N   GGGG   !!!           |
|                                                                             |
|      The partial DOS and the PROCAR file are not evaluated for NPAR/=1      |
|      please rerun with NPAR=1                                               |
|                                                                             |
 ----------------------------------------------------------------------------- 

