   4   4   0   0
  0.1645186E+02  0.4037306E-09  0.4037306E-09  0.4037306E-09  0.5000000E-15
  1.000000000000000E-004
  CAR 
 unknown system                          
     20.60386517     -4.25444362  301      8.00085796      1.00000000
     -4.254  0.0000E+00  0.0000E+00
     -4.172  0.0000E+00  0.0000E+00
     -4.089  0.0000E+00  0.0000E+00
     -4.006  0.0000E+00  0.0000E+00
     -3.923  0.0000E+00  0.0000E+00
     -3.840  0.0000E+00  0.0000E+00
     -3.757  0.0000E+00  0.0000E+00
     -3.674  0.0000E+00  0.0000E+00
     -3.592  0.0000E+00  0.0000E+00
     -3.509  0.0000E+00  0.0000E+00
     -3.426  0.0000E+00  0.0000E+00
     -3.343  0.0000E+00  0.0000E+00
     -3.260  0.0000E+00  0.0000E+00
     -3.177  0.6180E-15  0.5121E-16
     -3.094  0.1397E-01  0.1157E-02
     -3.012  0.8917E-01  0.8546E-02
     -2.929  0.2551E+00  0.2968E-01
     -2.846  0.8380E-01  0.3819E-01
     -2.763  0.3387E+00  0.6626E-01
     -2.680  0.3318E+00  0.9375E-01
     -2.597  0.1675E+00  0.1076E+00
     -2.514  0.4202E+00  0.1425E+00
     -2.432  0.5188E+00  0.1854E+00
     -2.349  0.1116E+00  0.2072E+00
     -2.266  0.3360E+00  0.2350E+00
     -2.183  0.6697E+00  0.2905E+00
     -2.100  0.8349E-01  0.2974E+00
     -2.017  0.6707E+00  0.3530E+00
     -1.934  0.6125E+00  0.4038E+00
     -1.851  0.5581E+00  0.4500E+00
     -1.769  0.6705E+00  0.5058E+00
     -1.686  0.3352E+00  0.5336E+00
     -1.603  0.3312E+00  0.5610E+00
     -1.520  0.4192E+00  0.5961E+00
     -1.437  0.1104E+01  0.6876E+00
     -1.354  0.3483E+00  0.7164E+00
     -1.271  0.1006E+01  0.7998E+00
     -1.189  0.6704E+00  0.8553E+00
     -1.106  0.1645E+00  0.8690E+00
     -1.023  0.6705E+00  0.9248E+00
     -0.940  0.8038E+00  0.9914E+00
     -0.857  0.9485E+00  0.1070E+01
     -0.774  0.3353E+00  0.1098E+01
     -0.691  0.1006E+01  0.1182E+01
     -0.609  0.3303E+00  0.1209E+01
     -0.526  0.1341E+01  0.1321E+01
     -0.443  0.7537E+00  0.1383E+01
     -0.360  0.5837E+00  0.1431E+01
     -0.277  0.1006E+01  0.1515E+01
     -0.194  0.6703E+00  0.1571E+01
     -0.111  0.1110E+00  0.1580E+01
     -0.029  0.7550E+00  0.1642E+01
      0.054  0.1451E+01  0.1763E+01
      0.137  0.3343E+00  0.1823E+01
      0.220  0.1008E+01  0.1906E+01
      0.303  0.1339E+01  0.2017E+01
      0.386  0.6697E+00  0.2073E+01
      0.469  0.6724E+00  0.2129E+01
      0.551  0.1011E+01  0.2212E+01
      0.634  0.7347E-07  0.2240E+01
      0.717  0.1026E+01  0.2325E+01
      0.800  0.1321E+01  0.2434E+01
      0.883  0.8381E-01  0.2441E+01
      0.966  0.1410E+01  0.2558E+01
      1.049  0.1579E+01  0.2689E+01
      1.132  0.6705E+00  0.2747E+01
      1.214  0.1412E+01  0.2864E+01
      1.297  0.5994E+00  0.2913E+01
      1.380  0.5030E+00  0.2955E+01
      1.463  0.1210E+01  0.3055E+01
      1.546  0.1496E+01  0.3214E+01
      1.629  0.3377E+00  0.3242E+01
      1.712  0.1695E+01  0.3383E+01
      1.794  0.3845E-07  0.3409E+01
      1.877  0.3606E+00  0.3438E+01
      1.960  0.2005E+01  0.3605E+01
      2.043  0.1006E+01  0.3693E+01
      2.126  0.7771E+00  0.3758E+01
      2.209  0.2174E+01  0.3938E+01
      2.292  0.1349E-04  0.3943E+01
      2.374  0.9990E+00  0.4026E+01
      2.457  0.2873E+01  0.4276E+01
      2.540  0.6705E+00  0.4332E+01
      2.623  0.4401E+00  0.4369E+01
      2.706  0.1341E+01  0.4499E+01
      2.789  0.1296E-01  0.4500E+01
      2.872  0.9563E+00  0.4579E+01
      2.954  0.1509E+01  0.4707E+01
      3.037  0.1154E+01  0.4803E+01
      3.120  0.2603E+01  0.5019E+01
      3.203  0.6704E+00  0.5075E+01
      3.286  0.7568E+00  0.5138E+01
      3.369  0.1341E+01  0.5270E+01
      3.452  0.1171E+01  0.5367E+01
      3.534  0.1277E+01  0.5473E+01
      3.617  0.1377E+01  0.5587E+01
      3.700  0.1315E+01  0.5696E+01
      3.783  0.6149E+00  0.5747E+01
      3.866  0.1344E+01  0.5863E+01
      3.949  0.1656E+01  0.6000E+01
      4.032  0.6913E+00  0.6058E+01
      4.115  0.2166E+01  0.6238E+01
      4.197  0.8092E+00  0.6307E+01
      4.280  0.1475E+01  0.6429E+01
      4.363  0.1617E+01  0.6563E+01
      4.446  0.1607E+00  0.6577E+01
      4.529  0.2682E+01  0.6814E+01
      4.612  0.1341E+01  0.6953E+01
      4.695  0.3057E-01  0.6955E+01
      4.777  0.2052E+01  0.7125E+01
      4.860  0.2011E+01  0.7300E+01
      4.943  0.1542E+01  0.7428E+01
      5.026  0.6985E+00  0.7497E+01
      5.109  0.1299E+01  0.7604E+01
      5.192  0.8327E+00  0.7678E+01
      5.275  0.2621E+01  0.7896E+01
      5.357  0.1734E+01  0.8039E+01
      5.440  0.1676E+01  0.8178E+01
      5.523  0.6704E+00  0.8234E+01
      5.606  0.1211E+01  0.8334E+01
      5.689  0.1229E+01  0.8436E+01
      5.772  0.2202E+01  0.8620E+01
      5.855  0.1452E+01  0.8743E+01
      5.937  0.1002E+01  0.8845E+01
      6.020  0.1468E+01  0.8976E+01
      6.103  0.7663E+00  0.9048E+01
      6.186  0.1682E+01  0.9188E+01
      6.269  0.2368E+01  0.9384E+01
      6.352  0.1845E+01  0.9540E+01
      6.435  0.3294E-01  0.9551E+01
      6.517  0.8616E+00  0.9623E+01
      6.600  0.1231E+01  0.9726E+01
      6.683  0.2187E+01  0.9922E+01
      6.766  0.1269E+01  0.1004E+02
      6.849  0.9132E+00  0.1012E+02
      6.932  0.2515E+01  0.1033E+02
      7.015  0.1367E+01  0.1044E+02
      7.098  0.1645E+01  0.1058E+02
      7.180  0.8418E+00  0.1065E+02
      7.263  0.1352E+01  0.1079E+02
      7.346  0.1319E+01  0.1090E+02
      7.429  0.2273E+01  0.1109E+02
      7.512  0.1335E+01  0.1120E+02
      7.595  0.3216E+00  0.1123E+02
      7.678  0.1534E+01  0.1135E+02
      7.760  0.1819E+01  0.1150E+02
      7.843  0.1905E+01  0.1168E+02
      7.926  0.1258E+01  0.1179E+02
      8.009  0.2648E+01  0.1201E+02
      8.092  0.2412E+01  0.1221E+02
      8.175  0.9009E+00  0.1231E+02
      8.258  0.1422E+01  0.1243E+02
      8.340  0.1656E+01  0.1256E+02
      8.423  0.7064E+00  0.1262E+02
      8.506  0.1024E+01  0.1271E+02
      8.589  0.2170E+01  0.1289E+02
      8.672  0.2263E+01  0.1309E+02
      8.755  0.3353E+00  0.1312E+02
      8.838  0.8442E+00  0.1319E+02
      8.920  0.1682E+01  0.1333E+02
      9.003  0.3533E+01  0.1362E+02
      9.086  0.1701E+01  0.1376E+02
      9.169  0.2274E+01  0.1395E+02
      9.252  0.1643E+01  0.1410E+02
      9.335  0.1474E+01  0.1423E+02
      9.418  0.6651E+00  0.1428E+02
      9.500  0.2165E+01  0.1446E+02
      9.583  0.1621E+01  0.1460E+02
      9.666  0.1491E+01  0.1473E+02
      9.749  0.2033E+01  0.1490E+02
      9.832  0.1144E+01  0.1502E+02
      9.915  0.1384E+01  0.1513E+02
      9.998  0.2463E+01  0.1534E+02
     10.081  0.1354E+01  0.1547E+02
     10.163  0.2827E+01  0.1570E+02
     10.246  0.1206E+01  0.1580E+02
     10.329  0.6320E+00  0.1585E+02
     10.412  0.1768E+01  0.1600E+02
     10.495  0.2182E+01  0.1619E+02
     10.578  0.1962E+01  0.1637E+02
     10.661  0.1429E+01  0.1649E+02
     10.743  0.2274E+01  0.1667E+02
     10.826  0.1045E+01  0.1677E+02
     10.909  0.2723E+01  0.1700E+02
     10.992  0.1295E+01  0.1711E+02
     11.075  0.2343E+01  0.1733E+02
     11.158  0.1550E+01  0.1746E+02
     11.241  0.1709E+01  0.1761E+02
     11.323  0.2079E+01  0.1779E+02
     11.406  0.2155E+01  0.1801E+02
     11.489  0.4603E+00  0.1807E+02
     11.572  0.2871E+01  0.1830E+02
     11.655  0.1325E+01  0.1842E+02
     11.738  0.1165E+01  0.1852E+02
     11.821  0.2397E+01  0.1874E+02
     11.903  0.1911E+01  0.1890E+02
     11.986  0.1089E+01  0.1899E+02
     12.069  0.1340E+01  0.1910E+02
     12.152  0.3437E+01  0.1938E+02
     12.235  0.1794E+01  0.1953E+02
     12.318  0.1553E+01  0.1966E+02
     12.401  0.1341E+01  0.1977E+02
     12.483  0.1759E+01  0.1992E+02
     12.566  0.2176E+01  0.2010E+02
     12.649  0.3121E+01  0.2036E+02
     12.732  0.3559E+01  0.2067E+02
     12.815  0.1689E+01  0.2082E+02
     12.898  0.1172E+01  0.2092E+02
     12.981  0.1083E+01  0.2102E+02
     13.064  0.2275E+01  0.2121E+02
     13.146  0.1037E+01  0.2130E+02
     13.229  0.2017E+01  0.2149E+02
     13.312  0.2211E+01  0.2167E+02
     13.395  0.1759E+01  0.2182E+02
     13.478  0.4991E+00  0.2186E+02
     13.561  0.1781E+01  0.2201E+02
     13.644  0.2321E+01  0.2220E+02
     13.726  0.6595E+00  0.2226E+02
     13.809  0.5465E+00  0.2230E+02
     13.892  0.1747E+01  0.2245E+02
     13.975  0.5808E+00  0.2250E+02
     14.058  0.1080E+01  0.2259E+02
     14.141  0.1059E+01  0.2270E+02
     14.224  0.1597E+01  0.2287E+02
     14.306  0.9910E+00  0.2295E+02
     14.389  0.7037E-01  0.2295E+02
     14.472  0.0000E+00  0.2295E+02
     14.555  0.4680E-04  0.2295E+02
     14.638  0.1006E+01  0.2304E+02
     14.721  0.6857E+00  0.2309E+02
     14.804  0.1326E+01  0.2320E+02
     14.886  0.7543E+00  0.2327E+02
     14.969  0.5994E-09  0.2327E+02
     15.052  0.6705E+00  0.2332E+02
     15.135  0.3958E+00  0.2335E+02
     15.218  0.3352E+00  0.2339E+02
     15.301  0.3352E+00  0.2341E+02
     15.384  0.0000E+00  0.2341E+02
     15.466  0.6336E+00  0.2347E+02
     15.549  0.1055E+01  0.2356E+02
     15.632  0.0000E+00  0.2356E+02
     15.715  0.0000E+00  0.2356E+02
     15.798  0.1771E-09  0.2356E+02
     15.881  0.6705E+00  0.2362E+02
     15.964  0.8488E-10  0.2362E+02
     16.047  0.6705E+00  0.2367E+02
     16.129  0.1094E-03  0.2367E+02
     16.212  0.3360E+00  0.2370E+02
     16.295  0.1108E+00  0.2371E+02
     16.378  0.4003E-03  0.2371E+02
     16.461  0.1005E+01  0.2379E+02
     16.544  0.0000E+00  0.2379E+02
     16.627  0.7226E-06  0.2379E+02
     16.709  0.3352E+00  0.2382E+02
     16.792  0.0000E+00  0.2382E+02
     16.875  0.0000E+00  0.2382E+02
     16.958  0.0000E+00  0.2382E+02
     17.041  0.5891E-01  0.2382E+02
     17.124  0.9468E+00  0.2390E+02
     17.207  0.0000E+00  0.2390E+02
     17.289  0.0000E+00  0.2390E+02
     17.372  0.0000E+00  0.2390E+02
     17.455  0.8889E-06  0.2390E+02
     17.538  0.3352E+00  0.2393E+02
     17.621  0.2797E-02  0.2393E+02
     17.704  0.4351E+00  0.2397E+02
     17.787  0.0000E+00  0.2397E+02
     17.869  0.0000E+00  0.2397E+02
     17.952  0.0000E+00  0.2397E+02
     18.035  0.0000E+00  0.2397E+02
     18.118  0.3350E+00  0.2400E+02
     18.201  0.0000E+00  0.2400E+02
     18.284  0.0000E+00  0.2400E+02
     18.367  0.0000E+00  0.2400E+02
     18.449  0.0000E+00  0.2400E+02
     18.532  0.0000E+00  0.2400E+02
     18.615  0.0000E+00  0.2400E+02
     18.698  0.0000E+00  0.2400E+02
     18.781  0.0000E+00  0.2400E+02
     18.864  0.0000E+00  0.2400E+02
     18.947  0.0000E+00  0.2400E+02
     19.030  0.0000E+00  0.2400E+02
     19.112  0.0000E+00  0.2400E+02
     19.195  0.0000E+00  0.2400E+02
     19.278  0.0000E+00  0.2400E+02
     19.361  0.0000E+00  0.2400E+02
     19.444  0.2393E-05  0.2400E+02
     19.527  0.5587E-01  0.2400E+02
     19.610  0.0000E+00  0.2400E+02
     19.692  0.0000E+00  0.2400E+02
     19.775  0.0000E+00  0.2400E+02
     19.858  0.0000E+00  0.2400E+02
     19.941  0.0000E+00  0.2400E+02
     20.024  0.0000E+00  0.2400E+02
     20.107  0.0000E+00  0.2400E+02
     20.190  0.0000E+00  0.2400E+02
     20.272  0.0000E+00  0.2400E+02
     20.355  0.0000E+00  0.2400E+02
     20.438  0.0000E+00  0.2400E+02
     20.521  0.0000E+00  0.2400E+02
     20.604  0.0000E+00  0.2400E+02
