    4    4    1    1
  0.1645186E+02  0.4037306E-09  0.4037306E-09  0.4037306E-09  0.5000000E-15
  1.000000000000000E-004
  CAR 
 unknown system                          
   12   84   12
 
  0.0000000E+00  0.0000000E+00  0.0000000E+00  0.5787037E-03
   1       -3.1245
   2        5.0990
   3        5.0990
   4        5.0990
   5        6.4290
   6        6.4290
   7        6.4290
   8       13.2885
   9       13.2885
  10       13.2885
  11       13.6380
  12       13.6380
 
  0.8333333E-01  0.0000000E+00  0.0000000E+00  0.3472222E-02
   1       -3.0615
   2        4.2307
   3        5.1567
   4        5.1567
   5        6.4899
   6        6.4899
   7        7.4065
   8       12.1121
   9       12.1121
  10       13.2017
  11       13.2017
  12       13.3507
 
  0.1666667E+00  0.0000000E+00  0.0000000E+00  0.3472222E-02
   1       -2.8725
   2        3.0249
   3        5.3299
   4        5.3299
   5        6.6718
   6        6.6718
   7        8.9395
   8       10.8946
   9       10.8946
  10       12.3020
  11       12.3020
  12       13.5373
 
  0.2500000E+00  0.0000000E+00  0.0000000E+00  0.3472222E-02
   1       -2.5580
   2        1.8874
   3        5.6185
   4        5.6185
   5        6.9712
   6        6.9712
   7        9.7909
   8        9.7909
   9       10.6218
  10       11.3240
  11       11.3240
  12       13.8478
 
  0.3333333E+00  0.0000000E+00  0.0000000E+00  0.3472222E-02
   1       -2.1189
   2        0.8534
   3        6.0230
   4        6.0230
   5        7.3795
   6        7.3795
   7        8.8037
   8        8.8037
   9       10.3970
  10       10.3970
  11       12.4169
  12       14.2817
 
  0.4166667E+00  0.0000000E+00  0.0000000E+00  0.3472222E-02
   1       -1.5564
   2       -0.0679
   3        6.5434
   4        6.5434
   5        7.8639
   6        7.8639
   7        7.9335
   8        7.9335
   9        9.5921
  10        9.5921
  11       14.3134
  12       14.8377
 
  0.5000000E+00  0.0000000E+00  0.0000000E+00  0.1736111E-02
   1       -0.8720
   2       -0.8720
   3        7.1802
   4        7.1802
   5        7.1802
   6        7.1802
   7        8.1952
   8        8.1952
   9        9.1528
  10        9.1528
  11       15.5132
  12       15.5154
 
  0.8333333E-01  0.8333333E-01  0.0000000E+00  0.6944444E-02
   1       -2.9984
   2        4.2899
   3        4.2899
   4        5.2144
   5        6.5505
   6        7.4656
   7        7.4656
   8       11.2631
   9       12.1706
  10       12.1706
  11       13.2566
  12       13.2566
 
  0.1666667E+00  0.8333333E-01  0.0000000E+00  0.1388889E-01
   1       -2.8095
   2        3.0851
   3        4.4676
   4        5.3876
   5        6.7308
   6        7.6418
   7        8.9967
   8       10.1077
   9       10.9528
  10       12.3459
  11       12.3596
  12       13.1426
 
  0.2500000E+00  0.8333333E-01  0.0000000E+00  0.1388889E-01
   1       -2.4952
   2        1.9482
   3        4.7633
   4        5.6763
   5        7.0245
   6        7.9313
   7        9.0281
   8        9.8490
   9       10.6758
  10       11.3857
  11       12.1861
  12       12.6377
 
  0.3333333E+00  0.8333333E-01  0.0000000E+00  0.1388889E-01
   1       -2.0563
   2        0.9147
   3        5.1763
   4        6.0808
   5        7.3863
   6        8.0977
   7        8.3208
   8        8.8618
   9       10.4696
  10       11.2585
  11       12.4629
  12       13.0455
 
  0.4166667E+00  0.8333333E-01  0.0000000E+00  0.1388889E-01
   1       -1.4941
   2       -0.0062
   3        5.7050
   4        6.6013
   5        7.0757
   6        7.9915
   7        8.0535
   8        8.7273
   9        9.7347
  10       10.4262
  11       13.5684
  12       14.2814
 
  0.5000000E+00  0.8333333E-01  0.0000000E+00  0.6944444E-02
   1       -0.8100
   2       -0.8100
   3        6.3455
   4        6.3455
   5        7.2381
   6        7.2381
   7        8.5881
   8        8.5881
   9        9.7618
  10        9.7618
  11       14.2052
  12       14.2052
 
  0.1666667E+00  0.1666667E+00  0.0000000E+00  0.6944444E-02
   1       -2.6208
   2        3.2655
   3        3.2655
   4        5.5608
   5        6.9034
   6        8.9741
   7        9.1661
   8        9.1661
   9       11.1274
  10       11.1274
  11       12.5332
  12       12.5332
 
  0.2500000E+00  0.1666667E+00  0.0000000E+00  0.1388889E-01
   1       -2.3069
   2        2.1305
   3        3.5657
   4        5.8496
   5        7.1443
   6        7.9479
   7        9.4378
   8       10.0234
   9       10.8313
  10       11.4184
  11       11.5759
  12       12.8279
 
  0.3333333E+00  0.1666667E+00  0.0000000E+00  0.1388889E-01
   1       -1.8686
   2        1.0984
   3        3.9849
   4        6.2542
   5        6.7729
   6        7.7498
   7        9.0359
   8        9.7453
   9       10.7374
  10       11.8254
  11       12.5480
  12       12.6977
 
  0.4166667E+00  0.1666667E+00  0.0000000E+00  0.1388889E-01
   1       -1.3071
   2        0.1788
   3        4.5216
   4        5.9346
   5        6.7749
   6        8.1655
   7        8.2400
   8        9.5380
   9       10.6086
  10       11.8748
  11       12.3481
  12       13.6075
 
  0.5000000E+00  0.1666667E+00  0.0000000E+00  0.6944444E-02
   1       -0.6240
   2       -0.6240
   3        5.1735
   4        5.1735
   5        7.4119
   6        7.4119
   7        8.8661
   8        8.8661
   9       11.1554
  10       11.1554
  11       12.9859
  12       12.9859
 
  0.2500000E+00  0.2500000E+00  0.0000000E+00  0.6944444E-02
   1       -1.9937
   2        2.4337
   3        2.4337
   4        6.1386
   5        6.6644
   6        7.6380
   7       10.3140
   8       10.3140
   9       11.0276
  10       11.0276
  11       11.9476
  12       11.9476
 
  0.3333333E+00  0.2500000E+00  0.0000000E+00  0.1388889E-01
   1       -1.5564
   2        1.4041
   3        2.8572
   4        5.7130
   5        6.5434
   6        8.0145
   7        9.3263
   8       10.7095
   9       10.7207
  10       11.7326
  11       12.0829
  12       13.0778
 
  0.4166667E+00  0.2500000E+00  0.0000000E+00  0.1388889E-01
   1       -0.9961
   2        0.4865
   3        3.3997
   4        4.8328
   5        7.0643
   6        8.4555
   7        8.5434
   8        9.9297
   9       11.2434
  10       12.1699
  11       12.6357
  12       12.6668
 
  0.5000000E+00  0.2500000E+00  0.0000000E+00  0.6944444E-02
   1       -0.3145
   2       -0.3145
   3        4.0592
   4        4.0592
   5        7.7016
   6        7.7016
   7        9.1879
   8        9.1879
   9       11.8819
  10       11.8819
  11       12.7730
  12       12.7730
 
  0.3333333E+00  0.3333333E+00  0.0000000E+00  0.6944444E-02
   1       -1.1204
   2        1.8310
   3        1.8310
   4        4.7174
   5        6.9485
   6        8.4289
   7        9.7327
   8        9.7327
   9       11.2060
  10       11.2060
  11       12.5190
  12       13.4192
 
  0.4166667E+00  0.3333333E+00  0.0000000E+00  0.1388889E-01
   1       -0.5619
   2        0.9163
   3        2.3779
   4        3.8244
   5        7.4698
   6        8.8616
   7        8.9645
   8       10.2554
   9       10.3653
  10       11.6487
  11       11.7468
  12       13.1187
 
  0.5000000E+00  0.3333333E+00  0.0000000E+00  0.6944444E-02
   1        0.1177
   2        0.1177
   3        3.0432
   4        3.0432
   5        8.1074
   6        8.1074
   7        9.6129
   8        9.6129
   9       10.8941
  10       10.8941
  11       12.3834
  12       12.3834
 
  0.4166667E+00  0.4166667E+00  0.0000000E+00  0.6944444E-02
   1       -0.0055
   2        1.4669
   3        1.4669
   4        2.9237
   5        7.9914
   6        9.3840
   7        9.3840
   8        9.5008
   9       10.7776
  10       10.9004
  11       10.9004
  12       12.2829
 
  0.5000000E+00  0.4166667E+00  0.0000000E+00  0.6944444E-02
   1        0.6714
   2        0.6714
   3        2.1368
   4        2.1368
   5        8.6294
   6        8.6294
   7       10.0227
   8       10.0227
   9       10.1482
  10       10.1482
  11       11.5407
  12       11.5407
 
  0.5000000E+00  0.5000000E+00  0.0000000E+00  0.1736111E-02
   1        1.3452
   2        1.3452
   3        1.3452
   4        1.3452
   5        9.2678
   6        9.2678
   7        9.2678
   8        9.2678
   9       10.7925
  10       10.7925
  11       10.7925
  12       10.7925
 
  0.8333333E-01  0.8333333E-01  0.8333333E-01  0.4629630E-02
   1       -2.9354
   2        4.3492
   3        4.3492
   4        4.3492
   5        7.5241
   6        7.5241
   7        7.5241
   8       11.3218
   9       11.3218
  10       11.3218
  11       13.7993
  12       13.7993
 
  0.1666667E+00  0.8333333E-01  0.8333333E-01  0.1388889E-01
   1       -2.7466
   2        3.1452
   3        4.5268
   4        4.5268
   5        7.6979
   6        7.6979
   7        9.0523
   8       10.1683
   9       10.1683
  10       11.4986
  11       13.1987
  12       13.1987
 
  0.2500000E+00  0.8333333E-01  0.8333333E-01  0.1388889E-01
   1       -2.4324
   2        2.0090
   3        4.8222
   4        4.8222
   5        7.9736
   6        7.9736
   7        9.0988
   8        9.0988
   9       10.7219
  10       11.7992
  11       12.2446
  12       12.2446
 
  0.3333333E+00  0.8333333E-01  0.8333333E-01  0.1388889E-01
   1       -1.9937
   2        0.9759
   3        5.2346
   4        5.2346
   5        7.9833
   6        7.9833
   7        8.5093
   8        8.5093
   9       11.3213
  10       11.3213
  11       12.1349
  12       12.5834
 
  0.4166667E+00  0.8333333E-01  0.8333333E-01  0.1388889E-01
   1       -1.4317
   2        0.0555
   3        5.7606
   4        5.7606
   5        7.1785
   6        7.1785
   7        8.9378
   8        8.9378
   9       10.5051
  10       10.5051
  11       12.6936
  12       14.0786
 
  0.5000000E+00  0.8333333E-01  0.8333333E-01  0.6944444E-02
   1       -0.7480
   2       -0.7480
   3        6.3020
   4        6.3020
   5        6.5277
   6        6.5277
   7        9.3088
   8        9.3088
   9       10.0198
  10       10.0198
  11       13.3319
  12       13.3319
 
  0.1666667E+00  0.1666667E+00  0.8333333E-01  0.1388889E-01
   1       -2.5580
   2        3.3256
   3        3.3256
   4        4.7040
   5        7.8547
   6        9.0469
   7        9.2107
   8        9.2107
   9       10.3567
  10       10.3567
  11       13.3671
  12       13.3671
 
  0.2500000E+00  0.1666667E+00  0.8333333E-01  0.2777778E-01
   1       -2.2442
   2        2.1912
   3        3.6256
   4        4.9985
   5        7.7840
   6        8.3266
   7        9.1465
   8        9.6181
   9       10.5395
  10       10.9934
  11       12.4216
  12       13.6234
 
  0.3333333E+00  0.1666667E+00  0.8333333E-01  0.2777778E-01
   1       -1.8061
   2        1.1596
   3        4.0445
   4        5.4074
   5        6.8909
   6        8.2292
   7        8.6449
   8        9.9303
   9       11.0088
  10       11.5190
  11       12.7091
  12       12.7560
 
  0.4166667E+00  0.1666667E+00  0.8333333E-01  0.2777778E-01
   1       -1.2449
   2        0.2404
   3        4.5804
   4        5.8490
   5        6.1081
   6        7.3625
   7        9.1554
   8       10.2283
   9       10.8858
  10       11.5384
  11       11.9368
  12       12.9273
 
  0.5000000E+00  0.1666667E+00  0.8333333E-01  0.1388889E-01
   1       -0.5620
   2       -0.5620
   3        5.2287
   4        5.2287
   5        6.6077
   6        6.6077
   7        9.7623
   8        9.7623
   9       11.2326
  10       11.2326
  11       12.1773
  12       12.1773
 
  0.2500000E+00  0.2500000E+00  0.8333333E-01  0.1388889E-01
   1       -1.9312
   2        2.4943
   3        2.4943
   4        5.2894
   5        6.7853
   6        8.5339
   7        9.5097
   8        9.5097
   9       11.2007
  10       11.2007
  11       12.7257
  12       12.7257
 
  0.3333333E+00  0.2500000E+00  0.8333333E-01  0.2777778E-01
   1       -1.4941
   2        1.4652
   3        2.9175
   4        5.6179
   5        5.8837
   6        8.5310
   7        8.9368
   8        9.9268
   9       11.3955
  10       12.0001
  11       12.7114
  12       12.7936
 
  0.4166667E+00  0.2500000E+00  0.8333333E-01  0.2777778E-01
   1       -0.9340
   2        0.5480
   3        3.4596
   4        4.8882
   5        6.2573
   6        7.6580
   7        9.4613
   8       10.4539
   9       10.8154
  10       11.8474
  11       12.2441
  12       13.5372
 
  0.5000000E+00  0.2500000E+00  0.8333333E-01  0.1388889E-01
   1       -0.2527
   2       -0.2527
   3        4.1184
   4        4.1184
   5        6.8982
   6        6.8982
   7       10.0950
   8       10.0950
   9       11.0943
  10       11.0943
  11       12.8338
  12       12.8338
 
  0.3333333E+00  0.3333333E+00  0.8333333E-01  0.1388889E-01
   1       -1.0583
   2        1.8919
   3        1.8919
   4        4.7729
   5        6.1399
   6        8.9435
   7        8.9435
   8        9.3495
   9       11.7357
  10       12.0824
  11       12.0824
  12       13.4881
 
  0.4166667E+00  0.3333333E+00  0.8333333E-01  0.2777778E-01
   1       -0.5000
   2        0.9776
   3        2.4385
   4        3.8837
   5        6.6642
   6        8.0695
   7        9.4707
   8        9.8778
   9       10.8682
  10       11.2587
  11       12.6285
  12       13.9671
 
  0.5000000E+00  0.3333333E+00  0.8333333E-01  0.1388889E-01
   1        0.1794
   2        0.1794
   3        3.1034
   4        3.1034
   5        7.3089
   6        7.3089
   7       10.1125
   8       10.1125
   9       10.5168
  10       10.5168
  11       13.2616
  12       13.2616
 
  0.4166667E+00  0.4166667E+00  0.8333333E-01  0.1388889E-01
   1        0.0562
   2        1.5280
   3        1.5280
   4        2.9840
   5        7.1920
   6        8.5972
   7        8.5972
   8        9.9980
   9       10.4068
  10       11.7899
  11       11.7899
  12       13.1617
 
  0.5000000E+00  0.4166667E+00  0.8333333E-01  0.1388889E-01
   1        0.7329
   2        0.7329
   3        2.1975
   4        2.1975
   5        7.8369
   6        7.8369
   7        9.2403
   8        9.2403
   9       11.0459
  10       11.0459
  11       12.4246
  12       12.4246
 
  0.5000000E+00  0.5000000E+00  0.8333333E-01  0.3472222E-02
   1        1.4063
   2        1.4063
   3        1.4063
   4        1.4063
   5        8.4812
   6        8.4812
   7        8.4812
   8        8.4812
   9       11.6832
  10       11.6832
  11       11.6832
  12       11.6832
 
  0.1666667E+00  0.1666667E+00  0.1666667E+00  0.4629630E-02
   1       -2.3697
   2        3.5057
   3        3.5057
   4        3.5057
   5        9.0577
   6        9.0577
   7        9.0577
   8        9.5439
   9        9.5439
  10        9.5439
  11       14.2839
  12       14.2839
 
  0.2500000E+00  0.1666667E+00  0.1666667E+00  0.1388889E-01
   1       -2.0563
   2        2.3731
   3        3.8051
   4        3.8051
   5        8.0586
   6        8.0586
   7        9.4453
   8        9.7464
   9        9.7464
  10       11.1232
  11       13.6193
  12       13.7888
 
  0.3333333E+00  0.1666667E+00  0.1666667E+00  0.1388889E-01
   1       -1.6188
   2        1.3430
   3        4.2227
   4        4.2227
   5        7.0792
   6        7.0792
   7        9.8656
   8       10.1381
   9       10.1381
  10       12.6511
  11       12.8971
  12       12.9319
 
  0.4166667E+00  0.1666667E+00  0.1666667E+00  0.1388889E-01
   1       -1.0583
   2        0.4251
   3        4.7541
   4        4.7541
   5        6.2052
   6        6.2052
   7       10.3942
   8       10.6317
   9       10.6317
  10       11.7882
  11       12.1316
  12       12.1316
 
  0.5000000E+00  0.1666667E+00  0.1666667E+00  0.6944444E-02
   1       -0.3763
   2       -0.3763
   3        5.2840
   4        5.2840
   5        5.5606
   6        5.5606
   7       11.0312
   8       11.0312
   9       11.0352
  10       11.0352
  11       11.6273
  12       11.6273
 
  0.2500000E+00  0.2500000E+00  0.1666667E+00  0.1388889E-01
   1       -1.7437
   2        2.6758
   3        2.6758
   4        4.1032
   5        6.9744
   6        8.3648
   7        8.3648
   8       10.0333
   9       11.4014
  10       11.4014
  11       12.5495
  12       14.0699
 
  0.3333333E+00  0.2500000E+00  0.1666667E+00  0.2777778E-01
   1       -1.3071
   2        1.6482
   3        3.0984
   4        4.5162
   5        5.9851
   6        7.3772
   7        8.7798
   8       10.4383
   9       11.5761
  10       11.7803
  11       13.1677
  12       13.2337
 
  0.4166667E+00  0.2500000E+00  0.1666667E+00  0.2777778E-01
   1       -0.7478
   2        0.7323
   3        3.6391
   4        4.9372
   5        5.2125
   6        6.4975
   7        9.3089
   8       10.7089
   9       10.9537
  10       12.0792
  11       12.6244
  12       13.7113
 
  0.5000000E+00  0.2500000E+00  0.1666667E+00  0.1388889E-01
   1       -0.0673
   2       -0.0673
   3        4.2932
   4        4.2932
   5        5.7344
   6        5.7344
   7        9.9523
   8        9.9523
   9       11.5629
  10       11.5629
  11       13.0240
  12       13.0240
 
  0.3333333E+00  0.3333333E+00  0.1666667E+00  0.1388889E-01
   1       -0.8719
   2        2.0744
   3        2.0744
   4        4.8211
   5        5.0946
   6        7.7912
   7        7.7912
   8       10.5980
   9       10.8485
  10       13.3568
  11       13.3568
  12       13.8240
 
  0.4166667E+00  0.3333333E+00  0.1666667E+00  0.2777778E-01
   1       -0.3143
   2        1.1613
   3        2.6202
   4        4.0593
   5        5.4973
   6        6.9109
   7        8.3215
   8        9.7269
   9       11.3692
  10       12.7118
  11       14.0563
  12       14.1493
 
  0.5000000E+00  0.3333333E+00  0.1666667E+00  0.1388889E-01
   1        0.3641
   2        0.3641
   3        3.2836
   4        3.2836
   5        6.1444
   6        6.1444
   7        8.9672
   8        8.9672
   9       11.9955
  10       11.9955
  11       14.6872
  12       14.6909
 
  0.4166667E+00  0.4166667E+00  0.1666667E+00  0.1388889E-01
   1        0.2411
   2        1.7110
   3        1.7110
   4        3.1644
   5        6.0262
   6        7.4423
   7        7.4423
   8        8.8524
   9       11.8916
  10       13.2484
  11       13.2484
  12       14.5992
 
  0.5000000E+00  0.4166667E+00  0.1666667E+00  0.1388889E-01
   1        0.9169
   2        0.9169
   3        2.3796
   4        2.3796
   5        6.6762
   6        6.6762
   7        8.0901
   8        8.0901
   9       12.5203
  10       12.5203
  11       13.8755
  12       13.8755
 
  0.5000000E+00  0.5000000E+00  0.1666667E+00  0.3472222E-02
   1        1.5895
   2        1.5895
   3        1.5895
   4        1.5895
   5        7.3255
   6        7.3255
   7        7.3255
   8        7.3255
   9       13.1483
  10       13.1483
  11       13.1483
  12       13.1483
 
  0.2500000E+00  0.2500000E+00  0.2500000E+00  0.4629630E-02
   1       -1.4317
   2        2.9777
   3        2.9777
   4        2.9777
   5        7.2730
   6        7.2730
   7        7.2730
   8       11.4751
   9       11.6949
  10       11.6949
  11       11.6949
  12       15.0932
 
  0.3333333E+00  0.2500000E+00  0.2500000E+00  0.1388889E-01
   1       -0.9961
   2        1.9528
   3        3.3987
   4        3.3987
   5        6.2782
   6        6.2782
   7        7.6876
   8       10.4969
   9       12.0942
  10       12.0942
  11       13.4681
  12       14.7327
 
  0.4166667E+00  0.2500000E+00  0.2500000E+00  0.1388889E-01
   1       -0.4380
   2        1.0389
   3        3.9349
   4        3.9349
   5        5.3954
   6        5.3954
   7        8.2186
   8        9.6253
   9       12.5889
  10       12.5889
  11       14.0083
  12       14.0083
 
  0.5000000E+00  0.2500000E+00  0.2500000E+00  0.6944444E-02
   1        0.2410
   2        0.2410
   3        4.4739
   4        4.4739
   5        4.7405
   6        4.7405
   7        8.8650
   8        8.8650
   9       13.0061
  10       13.0061
  11       13.5010
  12       13.5010
 
  0.3333333E+00  0.3333333E+00  0.2500000E+00  0.1388889E-01
   1       -0.5618
   2        2.3779
   3        2.3779
   4        3.8152
   5        5.2802
   6        6.6928
   7        6.6928
   8        9.5141
   9       12.5017
  10       13.8523
  11       13.8523
  12       15.1278
 
  0.4166667E+00  0.3333333E+00  0.2500000E+00  0.2777778E-01
   1       -0.0054
   2        1.4670
   3        2.9220
   4        4.2413
   5        4.5003
   6        5.8071
   7        7.2254
   8        8.6384
   9       13.0121
  10       14.1607
  11       14.5819
  12       15.5048
 
  0.5000000E+00  0.3333333E+00  0.2500000E+00  0.1388889E-01
   1        0.6716
   2        0.6716
   3        3.5808
   4        3.5808
   5        5.0382
   6        5.0382
   7        7.8746
   8        7.8746
   9       13.6147
  10       13.6147
  11       15.0119
  12       15.0119
 
  0.4166667E+00  0.4166667E+00  0.2500000E+00  0.1388889E-01
   1        0.5489
   2        2.0154
   3        2.0154
   4        3.4622
   5        4.9188
   6        6.3408
   7        6.3408
   8        7.7591
   9       13.5276
  10       14.8363
  11       14.8363
  12       16.1535
 
  0.5000000E+00  0.4166667E+00  0.2500000E+00  0.1388889E-01
   1        1.2232
   2        1.2232
   3        2.6821
   4        2.6821
   5        5.5701
   6        5.5701
   7        6.9923
   8        6.9923
   9       14.1409
  10       14.1409
  11       15.4552
  12       15.4552
 
  0.5000000E+00  0.5000000E+00  0.2500000E+00  0.3472222E-02
   1        1.8943
   2        1.8943
   3        1.8943
   4        1.8943
   5        6.2230
   6        6.2230
   7        6.2230
   8        6.2230
   9       14.7557
  10       14.7557
  11       14.7557
  12       14.7557
 
  0.3333333E+00  0.3333333E+00  0.3333333E+00  0.4629630E-02
   1       -0.1288
   2        2.8012
   3        2.8012
   4        2.8012
   5        5.6925
   6        5.6925
   7        5.6925
   8        8.5265
   9       14.2606
  10       14.2606
  11       14.2606
  12       16.2293
 
  0.4166667E+00  0.3333333E+00  0.3333333E+00  0.1388889E-01
   1        0.4259
   2        1.8938
   3        3.3409
   4        3.3409
   5        4.8043
   6        4.8043
   7        6.2269
   8        7.6465
   9       14.7514
  10       14.7514
  11       16.0081
  12       16.0088
 
  0.5000000E+00  0.3333333E+00  0.3333333E+00  0.6944444E-02
   1        1.1009
   2        1.1009
   3        3.8920
   4        3.8920
   5        4.1368
   6        4.1368
   7        6.8790
   8        6.8790
   9       15.1886
  10       15.1886
  11       15.5404
  12       15.5404
 
  0.4166667E+00  0.4166667E+00  0.3333333E+00  0.1388889E-01
   1        0.9786
   2        2.4402
   3        2.4402
   4        3.7755
   5        4.0147
   6        5.3376
   7        5.3376
   8        6.7627
   9       15.2594
  10       16.4009
  11       16.4009
  12       16.6590
 
  0.5000000E+00  0.4166667E+00  0.3333333E+00  0.1388889E-01
   1        1.6508
   2        1.6508
   3        3.1023
   4        3.1023
   5        4.5650
   6        4.5650
   7        5.9919
   8        5.9919
   9       15.8418
  10       15.8418
  11       17.0649
  12       17.0744
 
  0.5000000E+00  0.5000000E+00  0.3333333E+00  0.3472222E-02
   1        2.3195
   2        2.3195
   3        2.3195
   4        2.3195
   5        5.2188
   6        5.2188
   7        5.2188
   8        5.2188
   9       16.4342
  10       16.4342
  11       16.4342
  12       16.4342
 
  0.4166667E+00  0.4166667E+00  0.4166667E+00  0.4629630E-02
   1        1.5290
   2        2.9820
   3        2.9820
   4        2.9820
   5        4.4464
   6        4.4464
   7        4.4464
   8        5.8748
   9       17.0474
  10       17.0474
  11       17.0474
  12       17.6939
 
  0.5000000E+00  0.4166667E+00  0.4166667E+00  0.6944444E-02
   1        2.1983
   2        2.1983
   3        3.5423
   4        3.5423
   5        3.7693
   6        3.7693
   7        5.1010
   8        5.1010
   9       17.4873
  10       17.4873
  11       17.6378
  12       17.6378
 
  0.5000000E+00  0.5000000E+00  0.4166667E+00  0.3472222E-02
   1        2.8620
   2        2.8620
   3        2.8620
   4        2.8620
   5        4.3266
   6        4.3266
   7        4.3266
   8        4.3266
   9       18.0958
  10       18.0958
  11       18.0958
  12       18.0958
 
  0.5000000E+00  0.5000000E+00  0.5000000E+00  0.5787037E-03
   1        3.4256
   2        3.4256
   3        3.4256
   4        3.4256
   5        3.6461
   6        3.6461
   7        3.6461
   8        3.6461
   9       19.4706
  10       19.4710
  11       19.4725
  12       19.4739
