   4   4   0   0
  0.1472692E+02  0.3890965E-09  0.3890965E-09  0.3890965E-09  0.5000000E-15
  1.000000000000000E-004
  CAR 
 unknown system                          
     11.37556535     -6.50269784  301      2.09876753      1.00000000
     -6.503  0.0000E+00  0.0000E+00
     -6.443  0.0000E+00  0.0000E+00
     -6.384  0.0000E+00  0.0000E+00
     -6.324  0.0000E+00  0.0000E+00
     -6.264  0.0000E+00  0.0000E+00
     -6.205  0.0000E+00  0.0000E+00
     -6.145  0.0000E+00  0.0000E+00
     -6.086  0.0000E+00  0.0000E+00
     -6.026  0.0000E+00  0.0000E+00
     -5.966  0.0000E+00  0.0000E+00
     -5.907  0.0000E+00  0.0000E+00
     -5.847  0.0000E+00  0.0000E+00
     -5.788  0.0000E+00  0.0000E+00
     -5.728  0.7939E-09  0.4731E-10
     -5.668  0.1940E-01  0.1156E-02
     -5.609  0.1049E+00  0.7409E-02
     -5.549  0.8643E-01  0.1256E-01
     -5.490  0.1606E+00  0.2213E-01
     -5.430  0.1531E+00  0.3125E-01
     -5.370  0.1165E+00  0.3819E-01
     -5.311  0.4652E+00  0.6592E-01
     -5.251  0.4209E+00  0.9106E-01
     -5.192  0.4519E-01  0.9375E-01
     -5.132  0.7735E-02  0.9421E-01
     -5.072  0.2256E+00  0.1077E+00
     -5.013  0.5824E+00  0.1424E+00
     -4.953  0.4660E+00  0.1701E+00
     -4.894  0.4583E+00  0.1974E+00
     -4.834  0.1385E+00  0.2057E+00
     -4.774  0.1501E+00  0.2147E+00
     -4.715  0.3737E+00  0.2369E+00
     -4.655  0.8993E+00  0.2905E+00
     -4.596  0.1372E-06  0.2905E+00
     -4.536  0.1165E+00  0.2975E+00
     -4.476  0.9296E+00  0.3529E+00
     -4.417  0.6611E+00  0.3923E+00
     -4.357  0.4179E+00  0.4172E+00
     -4.298  0.2169E+00  0.4301E+00
     -4.238  0.4164E+00  0.4549E+00
     -4.179  0.8970E+00  0.5084E+00
     -4.119  0.4229E+00  0.5336E+00
     -4.059  0.1651E-03  0.5336E+00
     -4.000  0.4660E+00  0.5613E+00
     -3.940  0.5824E+00  0.5961E+00
     -3.881  0.1394E+01  0.6792E+00
     -3.821  0.6107E+00  0.7156E+00
     -3.761  0.1433E-01  0.7164E+00
     -3.702  0.1285E+01  0.7930E+00
     -3.642  0.7773E+00  0.8394E+00
     -3.583  0.2666E+00  0.8553E+00
     -3.523  0.9521E-01  0.8610E+00
     -3.463  0.7808E+00  0.9075E+00
     -3.404  0.8416E+00  0.9577E+00
     -3.344  0.7596E+00  0.1003E+01
     -3.285  0.1062E+01  0.1066E+01
     -3.225  0.2443E+00  0.1081E+01
     -3.165  0.1421E+01  0.1165E+01
     -3.106  0.2722E+00  0.1182E+01
     -3.046  0.6208E+00  0.1219E+01
     -2.987  0.1296E+01  0.1296E+01
     -2.927  0.1685E+01  0.1396E+01
     -2.867  0.1273E+00  0.1404E+01
     -2.808  0.1165E+01  0.1473E+01
     -2.748  0.7026E+00  0.1515E+01
     -2.689  0.1085E+01  0.1580E+01
     -2.629  0.8891E-01  0.1585E+01
     -2.569  0.1892E+01  0.1698E+01
     -2.510  0.5320E+00  0.1730E+01
     -2.450  0.1099E+01  0.1795E+01
     -2.391  0.1882E+01  0.1907E+01
     -2.331  0.2307E+01  0.2045E+01
     -2.272  0.1394E+01  0.2128E+01
     -2.212  0.4452E+00  0.2154E+01
     -2.152  0.1629E+01  0.2251E+01
     -2.093  0.1199E+01  0.2323E+01
     -2.033  0.1411E+01  0.2407E+01
     -1.974  0.3735E+01  0.2630E+01
     -1.914  0.2488E+01  0.2778E+01
     -1.854  0.1981E+01  0.2896E+01
     -1.795  0.4464E+01  0.3162E+01
     -1.735  0.3141E+01  0.3349E+01
     -1.676  0.3562E+01  0.3561E+01
     -1.616  0.5715E+01  0.3902E+01
     -1.556  0.6140E+01  0.4268E+01
     -1.497  0.5826E+01  0.4615E+01
     -1.437  0.6965E+01  0.5030E+01
     -1.378  0.6059E+01  0.5391E+01
     -1.318  0.5939E+01  0.5745E+01
     -1.258  0.9293E+01  0.6299E+01
     -1.199  0.1069E+02  0.6936E+01
     -1.139  0.1023E+02  0.7546E+01
     -1.080  0.1308E+02  0.8325E+01
     -1.020  0.1371E+02  0.9142E+01
     -0.960  0.1098E+02  0.9797E+01
     -0.901  0.9801E+01  0.1038E+02
     -0.841  0.1330E+02  0.1117E+02
     -0.782  0.1202E+02  0.1189E+02
     -0.722  0.8947E+01  0.1242E+02
     -0.662  0.1704E+02  0.1344E+02
     -0.603  0.1352E+02  0.1424E+02
     -0.543  0.1645E+02  0.1522E+02
     -0.484  0.1723E+02  0.1625E+02
     -0.424  0.2016E+02  0.1745E+02
     -0.364  0.2084E+02  0.1870E+02
     -0.305  0.2325E+02  0.2008E+02
     -0.245  0.2384E+02  0.2150E+02
     -0.186  0.2863E+02  0.2321E+02
     -0.126  0.1900E+02  0.2434E+02
     -0.067  0.1548E+02  0.2526E+02
     -0.007  0.1197E+02  0.2598E+02
      0.053  0.1684E+02  0.2698E+02
      0.112  0.1681E+02  0.2798E+02
      0.172  0.2144E+02  0.2926E+02
      0.231  0.2188E+02  0.3056E+02
      0.291  0.2091E+02  0.3181E+02
      0.351  0.1863E+02  0.3292E+02
      0.410  0.1745E+02  0.3396E+02
      0.470  0.2022E+02  0.3517E+02
      0.529  0.1696E+02  0.3618E+02
      0.589  0.3045E+02  0.3799E+02
      0.649  0.3450E+02  0.4005E+02
      0.708  0.1926E+02  0.4120E+02
      0.768  0.1289E+02  0.4196E+02
      0.827  0.2305E+00  0.4198E+02
      0.887  0.1173E+01  0.4205E+02
      0.947  0.1852E+01  0.4216E+02
      1.006  0.3192E+01  0.4235E+02
      1.066  0.1726E+01  0.4245E+02
      1.125  0.9197E+00  0.4251E+02
      1.185  0.1042E+01  0.4257E+02
      1.245  0.2292E+01  0.4270E+02
      1.304  0.2363E+01  0.4285E+02
      1.364  0.2194E+01  0.4298E+02
      1.423  0.1546E+01  0.4307E+02
      1.483  0.1018E+01  0.4313E+02
      1.543  0.1735E+01  0.4323E+02
      1.602  0.4326E-01  0.4323E+02
      1.662  0.3963E+00  0.4326E+02
      1.721  0.3165E+01  0.4345E+02
      1.781  0.2086E+01  0.4357E+02
      1.840  0.1189E+01  0.4364E+02
      1.900  0.1864E+01  0.4375E+02
      1.960  0.1076E+01  0.4382E+02
      2.019  0.1720E+01  0.4392E+02
      2.079  0.1955E+00  0.4393E+02
      2.138  0.1286E+01  0.4401E+02
      2.198  0.9177E+00  0.4406E+02
      2.258  0.4329E+00  0.4409E+02
      2.317  0.1822E+01  0.4420E+02
      2.377  0.2954E+01  0.4437E+02
      2.436  0.1830E+01  0.4448E+02
      2.496  0.8010E+00  0.4453E+02
      2.556  0.2135E+01  0.4466E+02
      2.615  0.1242E+01  0.4473E+02
      2.675  0.1711E-01  0.4473E+02
      2.734  0.9423E-01  0.4474E+02
      2.794  0.2005E+01  0.4486E+02
      2.854  0.8710E+00  0.4491E+02
      2.913  0.2623E+01  0.4507E+02
      2.973  0.8416E-08  0.4507E+02
      3.032  0.1089E+01  0.4513E+02
      3.092  0.1655E+01  0.4523E+02
      3.152  0.1359E+01  0.4531E+02
      3.211  0.7915E+00  0.4536E+02
      3.271  0.1601E+01  0.4545E+02
      3.330  0.1774E+01  0.4556E+02
      3.390  0.1051E+01  0.4562E+02
      3.450  0.8171E+00  0.4567E+02
      3.509  0.9310E+00  0.4573E+02
      3.569  0.4661E+00  0.4575E+02
      3.628  0.1838E+01  0.4586E+02
      3.688  0.1225E+01  0.4594E+02
      3.748  0.1993E+00  0.4595E+02
      3.807  0.1370E+01  0.4603E+02
      3.867  0.1193E+00  0.4604E+02
      3.926  0.1506E+01  0.4613E+02
      3.986  0.3289E+01  0.4632E+02
      4.045  0.5322E+00  0.4635E+02
      4.105  0.6974E+00  0.4640E+02
      4.165  0.4762E+00  0.4642E+02
      4.224  0.1856E+01  0.4653E+02
      4.284  0.1095E+01  0.4660E+02
      4.343  0.3037E+00  0.4662E+02
      4.403  0.6991E+00  0.4666E+02
      4.463  0.1959E-01  0.4666E+02
      4.522  0.2307E+01  0.4680E+02
      4.582  0.4666E+00  0.4683E+02
      4.641  0.1268E+01  0.4690E+02
      4.701  0.1333E+00  0.4691E+02
      4.761  0.1440E-02  0.4691E+02
      4.820  0.2640E+01  0.4707E+02
      4.880  0.8830E+00  0.4712E+02
      4.939  0.6989E+00  0.4716E+02
      4.999  0.7112E+00  0.4720E+02
      5.059  0.1834E+01  0.4731E+02
      5.118  0.8789E+00  0.4737E+02
      5.178  0.1254E+01  0.4744E+02
      5.237  0.4596E+00  0.4747E+02
      5.297  0.2194E+01  0.4760E+02
      5.357  0.9094E+00  0.4765E+02
      5.416  0.2920E+01  0.4783E+02
      5.476  0.8150E+00  0.4788E+02
      5.535  0.4646E+00  0.4790E+02
      5.595  0.9310E+00  0.4796E+02
      5.655  0.4660E+00  0.4799E+02
      5.714  0.1543E+01  0.4808E+02
      5.774  0.1020E+01  0.4814E+02
      5.833  0.9794E+00  0.4820E+02
      5.893  0.1596E+01  0.4829E+02
      5.952  0.2041E+01  0.4841E+02
      6.012  0.9756E+00  0.4847E+02
      6.072  0.9323E+00  0.4853E+02
      6.131  0.1070E+01  0.4859E+02
      6.191  0.2425E+01  0.4874E+02
      6.250  0.5443E+00  0.4877E+02
      6.310  0.9260E+00  0.4882E+02
      6.370  0.9384E+00  0.4888E+02
      6.429  0.9315E+00  0.4894E+02
      6.489  0.4572E+00  0.4896E+02
      6.548  0.4750E+00  0.4899E+02
      6.608  0.1604E+01  0.4909E+02
      6.668  0.2489E+01  0.4923E+02
      6.727  0.1652E+01  0.4933E+02
      6.787  0.8780E-01  0.4934E+02
      6.846  0.6925E+00  0.4938E+02
      6.906  0.2910E+00  0.4940E+02
      6.966  0.1065E+01  0.4946E+02
      7.025  0.1424E+01  0.4955E+02
      7.085  0.2477E+00  0.4956E+02
      7.144  0.5926E+00  0.4960E+02
      7.204  0.9995E+00  0.4965E+02
      7.264  0.1649E+01  0.4975E+02
      7.323  0.1119E+01  0.4982E+02
      7.383  0.1290E+00  0.4983E+02
      7.442  0.1339E+01  0.4991E+02
      7.502  0.1398E+01  0.4999E+02
      7.562  0.9777E+00  0.5005E+02
      7.621  0.6536E+00  0.5009E+02
      7.681  0.1347E+01  0.5017E+02
      7.740  0.5162E-01  0.5017E+02
      7.800  0.3246E+00  0.5019E+02
      7.860  0.7548E+00  0.5024E+02
      7.919  0.1390E+01  0.5032E+02
      7.979  0.2722E+01  0.5048E+02
      8.038  0.2844E+00  0.5050E+02
      8.098  0.5053E+00  0.5053E+02
      8.157  0.1306E+01  0.5061E+02
      8.217  0.5266E-01  0.5061E+02
      8.277  0.4827E+00  0.5064E+02
      8.336  0.1026E+01  0.5070E+02
      8.396  0.1838E+01  0.5081E+02
      8.455  0.8652E+00  0.5086E+02
      8.515  0.4513E+00  0.5089E+02
      8.575  0.8588E+00  0.5094E+02
      8.634  0.2287E+01  0.5107E+02
      8.694  0.1854E+01  0.5118E+02
      8.753  0.1368E+01  0.5127E+02
      8.813  0.5151E+00  0.5130E+02
      8.873  0.1585E+01  0.5139E+02
      8.932  0.1714E+01  0.5149E+02
      8.992  0.1428E+01  0.5158E+02
      9.051  0.5839E+00  0.5161E+02
      9.111  0.5168E+00  0.5164E+02
      9.171  0.6495E+00  0.5168E+02
      9.230  0.4661E+00  0.5171E+02
      9.290  0.2927E+00  0.5173E+02
      9.349  0.6490E+00  0.5177E+02
      9.409  0.6897E+00  0.5181E+02
      9.469  0.2460E-02  0.5181E+02
      9.528  0.4725E+00  0.5184E+02
      9.588  0.6853E+00  0.5188E+02
      9.647  0.4620E+00  0.5190E+02
      9.707  0.6880E-01  0.5191E+02
      9.767  0.4065E+00  0.5193E+02
      9.826  0.1494E+00  0.5194E+02
      9.886  0.6275E+00  0.5198E+02
      9.945  0.0000E+00  0.5198E+02
     10.005  0.0000E+00  0.5198E+02
     10.064  0.1122E+00  0.5199E+02
     10.124  0.1209E+00  0.5199E+02
     10.184  0.0000E+00  0.5199E+02
     10.243  0.0000E+00  0.5199E+02
     10.303  0.0000E+00  0.5199E+02
     10.362  0.0000E+00  0.5199E+02
     10.422  0.0000E+00  0.5199E+02
     10.482  0.0000E+00  0.5199E+02
     10.541  0.1270E-03  0.5199E+02
     10.601  0.1164E+00  0.5200E+02
     10.660  0.0000E+00  0.5200E+02
     10.720  0.0000E+00  0.5200E+02
     10.780  0.0000E+00  0.5200E+02
     10.839  0.0000E+00  0.5200E+02
     10.899  0.0000E+00  0.5200E+02
     10.958  0.0000E+00  0.5200E+02
     11.018  0.0000E+00  0.5200E+02
     11.078  0.0000E+00  0.5200E+02
     11.137  0.0000E+00  0.5200E+02
     11.197  0.0000E+00  0.5200E+02
     11.256  0.0000E+00  0.5200E+02
     11.316  0.0000E+00  0.5200E+02
     11.376  0.0000E+00  0.5200E+02
