    4    4    1    1
  0.1472692E+02  0.3890965E-09  0.3890965E-09  0.3890965E-09  0.5000000E-15
  1.000000000000000E-004
  CAR 
 unknown system                          
   44   84   26
 
  0.0000000E+00  0.0000000E+00  0.0000000E+00  0.5787037E-03
   1       -5.6900
   2       -1.6563
   3       -1.6563
   4       -1.6563
   5       -1.3292
   6       -1.3292
   7       -1.3292
   8       -0.3465
   9       -0.3465
  10       -0.3465
  11        0.2403
  12        0.2403
  13        0.6320
  14        0.6320
  15        0.6320
  16        0.7414
  17        0.7414
  18        0.7414
  19        0.7414
  20        0.7414
  21        0.7414
  22        3.7756
  23        3.7756
  24        3.7756
  25        7.8014
  26        7.8014
 
  0.8333333E-01  0.0000000E+00  0.0000000E+00  0.3472222E-02
   1       -5.6179
   2       -1.6599
   3       -1.6262
   4       -1.6262
   5       -1.3130
   6       -1.3119
   7       -1.3119
   8       -0.3638
   9       -0.3321
  10       -0.3321
  11        0.2247
  12        0.2469
  13        0.6118
  14        0.6118
  15        0.6252
  16        0.6488
  17        0.6488
  18        0.7174
  19        0.7174
  20        0.7414
  21        0.7414
  22        3.2411
  23        3.9355
  24        3.9355
  25        7.8341
  26        7.8341
 
  0.1666667E+00  0.0000000E+00  0.0000000E+00  0.3472222E-02
   1       -5.4025
   2       -1.6849
   3       -1.5403
   4       -1.5403
   5       -1.2654
   6       -1.2598
   7       -1.2598
   8       -0.4144
   9       -0.2891
  10       -0.2891
  11        0.1796
  12        0.2662
  13        0.4176
  14        0.4176
  15        0.5531
  16        0.5531
  17        0.6054
  18        0.6483
  19        0.6483
  20        0.7415
  21        0.7415
  22        2.1964
  23        4.3681
  24        4.3681
  25        7.9346
  26        7.9346
 
  0.2500000E+00  0.0000000E+00  0.0000000E+00  0.3472222E-02
   1       -5.0479
   2       -1.7849
   3       -1.4120
   4       -1.4120
   5       -1.1894
   6       -1.1719
   7       -1.1719
   8       -0.4945
   9       -0.2187
  10       -0.2187
  11        0.1107
  12        0.1279
  13        0.1279
  14        0.2969
  15        0.4621
  16        0.4621
  17        0.5428
  18        0.5428
  19        0.5739
  20        0.7417
  21        0.7417
  22        1.1738
  23        4.9921
  24        4.9921
  25        8.1103
  26        8.1103
 
  0.3333333E+00  0.0000000E+00  0.0000000E+00  0.3472222E-02
   1       -4.5623
   2       -2.0667
   3       -1.2667
   4       -1.2667
   5       -1.0896
   6       -1.0468
   7       -1.0468
   8       -0.5983
   9       -0.1670
  10       -0.1670
  11       -0.1232
  12       -0.1232
  13        0.0294
  14        0.3371
  15        0.3542
  16        0.3542
  17        0.4127
  18        0.4127
  19        0.4169
  20        0.5329
  21        0.7418
  22        0.7418
  23        5.7523
  24        5.7523
  25        8.3717
  26        8.3717
 
  0.4166667E+00  0.0000000E+00  0.0000000E+00  0.3472222E-02
   1       -3.9622
   2       -2.6016
   3       -1.1441
   4       -1.1441
   5       -0.9726
   6       -0.8834
   7       -0.8834
   8       -0.7183
   9       -0.4406
  10       -0.4406
  11       -0.0439
  12       -0.0060
  13       -0.0060
  14        0.0350
  15        0.2592
  16        0.2592
  17        0.2704
  18        0.2704
  19        0.3840
  20        0.4854
  21        0.7419
  22        0.7419
  23        6.6196
  24        6.6196
  25        8.6176
  26        8.6184
 
  0.5000000E+00  0.0000000E+00  0.0000000E+00  0.1736111E-02
   1       -3.2824
   2       -3.2824
   3       -1.0942
   4       -1.0942
   5       -0.8460
   6       -0.8460
   7       -0.6809
   8       -0.6809
   9       -0.6809
  10       -0.6809
  11       -0.0695
  12       -0.0695
  13        0.1277
  14        0.1277
  15        0.1277
  16        0.1277
  17        0.2195
  18        0.2195
  19        0.4346
  20        0.4346
  21        0.7419
  22        0.7419
  23        7.5781
  24        7.5781
  25        7.5781
  26        7.5781
 
  0.8333333E-01  0.8333333E-01  0.0000000E+00  0.6944444E-02
   1       -5.5459
   2       -1.6289
   3       -1.6289
   4       -1.5970
   5       -1.2961
   6       -1.2961
   7       -1.2952
   8       -0.3730
   9       -0.3253
  10       -0.3191
  11        0.2205
  12        0.2434
  13        0.5798
  14        0.5848
  15        0.5848
  16        0.5925
  17        0.6405
  18        0.6405
  19        0.7173
  20        0.7173
  21        0.7258
  22        3.3947
  23        3.3947
  24        4.0875
  25        7.8674
  26        8.5312
 
  0.1666667E+00  0.8333333E-01  0.0000000E+00  0.1388889E-01
   1       -5.3313
   2       -1.6513
   3       -1.5405
   4       -1.5136
   5       -1.2494
   6       -1.2449
   7       -1.2445
   8       -0.4184
   9       -0.2865
  10       -0.2806
  11        0.1815
  12        0.2611
  13        0.3688
  14        0.3735
  15        0.5027
  16        0.5361
  17        0.5610
  18        0.6165
  19        0.6481
  20        0.7172
  21        0.7175
  22        2.3568
  23        3.8004
  24        4.5038
  25        7.9700
  26        8.6631
 
  0.2500000E+00  0.8333333E-01  0.0000000E+00  0.1388889E-01
   1       -4.9781
   2       -1.7463
   3       -1.4082
   4       -1.3890
   5       -1.1749
   6       -1.1598
   7       -1.1587
   8       -0.4957
   9       -0.2198
  10       -0.2174
  11        0.0801
  12        0.1015
  13        0.1186
  14        0.2954
  15        0.3576
  16        0.4486
  17        0.4690
  18        0.5425
  19        0.5760
  20        0.7156
  21        0.7170
  22        1.3767
  23        4.3695
  24        5.1125
  25        8.1489
  26        8.8910
 
  0.3333333E+00  0.8333333E-01  0.0000000E+00  0.1388889E-01
   1       -4.4946
   2       -2.0210
   3       -1.2572
   4       -1.2457
   5       -1.0772
   6       -1.0423
   7       -1.0361
   8       -0.5967
   9       -0.2104
  10       -0.1806
  11       -0.1495
  12       -0.1226
  13        0.0572
  14        0.1298
  15        0.3411
  16        0.3448
  17        0.3609
  18        0.4122
  19        0.5063
  20        0.7153
  21        0.7168
  22        0.7412
  23        5.0478
  24        5.8610
  25        8.4007
  26        8.6007
 
  0.4166667E+00  0.8333333E-01  0.0000000E+00  0.1388889E-01
   1       -3.8977
   2       -2.5482
   3       -1.1278
   4       -1.1213
   5       -0.9626
   6       -0.8934
   7       -0.8762
   8       -0.7139
   9       -0.4766
  10       -0.4449
  11       -0.1249
  12       -0.0778
  13       -0.0058
  14        0.0698
  15        0.2544
  16        0.2640
  17        0.2700
  18        0.3474
  19        0.3954
  20        0.5317
  21        0.7155
  22        0.7164
  23        5.8108
  24        6.7196
  25        7.5709
  26        8.7076
 
  0.5000000E+00  0.8333333E-01  0.0000000E+00  0.6944444E-02
   1       -3.2226
   2       -3.2226
   3       -1.0720
   4       -1.0720
   5       -0.8387
   6       -0.8387
   7       -0.7063
   8       -0.7063
   9       -0.6786
  10       -0.6786
  11       -0.1400
  12       -0.1400
  13        0.1275
  14        0.1275
  15        0.1839
  16        0.1839
  17        0.2200
  18        0.2200
  19        0.4564
  20        0.4564
  21        0.7160
  22        0.7160
  23        6.6512
  24        6.6512
  25        7.6721
  26        7.6721
 
  0.1666667E+00  0.1666667E+00  0.0000000E+00  0.6944444E-02
   1       -5.1190
   2       -1.5548
   3       -1.5548
   4       -1.4379
   5       -1.2011
   6       -1.2011
   7       -1.1984
   8       -0.4449
   9       -0.2636
  10       -0.2561
  11        0.1676
  12        0.2333
  13        0.2474
  14        0.2474
  15        0.2675
  16        0.4862
  17        0.5587
  18        0.5587
  19        0.6475
  20        0.6475
  21        0.6794
  22        2.7498
  23        2.7498
  24        4.8846
  25        8.0786
  26        9.5407
 
  0.2500000E+00  0.1666667E+00  0.0000000E+00  0.1388889E-01
   1       -4.7701
   2       -1.6352
   3       -1.4095
   4       -1.3248
   5       -1.1313
   6       -1.1223
   7       -1.1199
   8       -0.5064
   9       -0.2201
  10       -0.2056
  11       -0.0437
  12        0.0186
  13        0.0705
  14        0.1234
  15        0.3081
  16        0.4083
  17        0.4718
  18        0.5274
  19        0.5415
  20        0.6467
  21        0.6576
  22        1.7751
  23        3.2700
  24        5.4571
  25        8.2443
  26        8.3413
 
  0.3333333E+00  0.1666667E+00  0.0000000E+00  0.1388889E-01
   1       -4.2935
   2       -1.8892
   3       -1.2408
   4       -1.1900
   5       -1.0399
   6       -1.0243
   7       -1.0049
   8       -0.5957
   9       -0.3223
  10       -0.2231
  11       -0.1919
  12       -0.1255
  13       -0.1165
  14        0.0867
  15        0.3155
  16        0.3665
  17        0.3718
  18        0.4111
  19        0.4591
  20        0.6456
  21        0.6483
  22        1.0923
  23        3.8772
  24        6.1760
  25        7.2055
  26        8.5546
 
  0.4166667E+00  0.1666667E+00  0.0000000E+00  0.1388889E-01
   1       -3.7068
   2       -2.3930
   3       -1.0888
   4       -1.0580
   5       -0.9330
   6       -0.9197
   7       -0.8555
   8       -0.7025
   9       -0.5703
  10       -0.4591
  11       -0.2414
  12       -0.2074
  13       -0.0032
  14        0.1145
  15        0.2371
  16        0.2678
  17        0.2694
  18        0.3461
  19        0.4531
  20        0.6447
  21        0.6449
  22        0.7317
  23        4.5647
  24        6.2167
  25        7.0123
  26        8.9449
 
  0.5000000E+00  0.1666667E+00  0.0000000E+00  0.6944444E-02
   1       -3.0467
   2       -3.0467
   3       -1.0097
   4       -1.0097
   5       -0.8178
   6       -0.8178
   7       -0.7766
   8       -0.7766
   9       -0.6726
  10       -0.6726
  11       -0.2476
  12       -0.2476
  13        0.1281
  14        0.1281
  15        0.2141
  16        0.2141
  17        0.2151
  18        0.2151
  19        0.5590
  20        0.5590
  21        0.6441
  22        0.6441
  23        5.3402
  24        5.3402
  25        7.9485
  26        7.9485
 
  0.2500000E+00  0.2500000E+00  0.0000000E+00  0.6944444E-02
   1       -4.4290
   2       -1.4669
   3       -1.4669
   4       -1.2323
   5       -1.0582
   6       -1.0582
   7       -1.0582
   8       -0.5411
   9       -0.2176
  10       -0.2077
  11       -0.2077
  12       -0.1670
  13       -0.1208
  14        0.0990
  15        0.3437
  16        0.3629
  17        0.4470
  18        0.4470
  19        0.5401
  20        0.5401
  21        0.6036
  22        2.2510
  23        2.2510
  24        5.9888
  25        7.0668
  26        8.4781
 
  0.3333333E+00  0.2500000E+00  0.0000000E+00  0.1388889E-01
   1       -3.9649
   2       -1.6885
   3       -1.2680
   4       -1.1236
   5       -0.9789
   6       -0.9780
   7       -0.9556
   8       -0.6045
   9       -0.4560
  10       -0.3458
  11       -0.2980
  12       -0.2253
  13       -0.0942
  14        0.0717
  15        0.2655
  16        0.3471
  17        0.3834
  18        0.4102
  19        0.4551
  20        0.5390
  21        0.5689
  22        1.4852
  23        2.7939
  24        5.9541
  25        6.6715
  26        8.7832
 
  0.4166667E+00  0.2500000E+00  0.0000000E+00  0.1388889E-01
   1       -3.3975
   2       -2.1517
   3       -1.0792
   4       -0.9999
   5       -0.9235
   6       -0.8849
   7       -0.8238
   8       -0.6895
   9       -0.6696
  10       -0.4863
  11       -0.3838
  12       -0.2689
  13        0.0084
  14        0.0923
  15        0.2010
  16        0.2499
  17        0.2704
  18        0.2829
  19        0.5391
  20        0.5505
  21        0.5771
  22        1.0108
  23        3.4164
  24        4.9795
  25        7.4787
  26        9.2008
 
  0.5000000E+00  0.2500000E+00  0.0000000E+00  0.6944444E-02
   1       -2.7663
   2       -2.7663
   3       -0.9536
   4       -0.9536
   5       -0.8478
   6       -0.8478
   7       -0.7860
   8       -0.7860
   9       -0.6655
  10       -0.6655
  11       -0.3381
  12       -0.3381
  13        0.1330
  14        0.1330
  15        0.1724
  16        0.1724
  17        0.1911
  18        0.1911
  19        0.5420
  20        0.5420
  21        0.7438
  22        0.7438
  23        4.1383
  24        4.1383
  25        8.3928
  26        8.3928
 
  0.3333333E+00  0.3333333E+00  0.0000000E+00  0.6944444E-02
   1       -3.5214
   2       -1.4505
   3       -1.4505
   4       -1.0740
   5       -0.9005
   6       -0.8923
   7       -0.8923
   8       -0.6328
   9       -0.5277
  10       -0.5277
  11       -0.4038
  12       -0.2569
  13       -0.0439
  14        0.0377
  15        0.2007
  16        0.2893
  17        0.2893
  18        0.4110
  19        0.4110
  20        0.5014
  21        0.5831
  22        1.9351
  23        1.9351
  24        4.8502
  25        7.3194
  26        9.1186
 
  0.4166667E+00  0.3333333E+00  0.0000000E+00  0.1388889E-01
   1       -2.9865
   2       -1.8554
   3       -1.2260
   4       -1.0478
   5       -0.8227
   6       -0.8209
   7       -0.7853
   8       -0.6826
   9       -0.6668
  10       -0.5301
  11       -0.4934
  12       -0.3142
  13        0.0384
  14        0.0390
  15        0.1449
  16        0.1967
  17        0.1972
  18        0.2763
  19        0.4160
  20        0.4556
  21        0.7509
  22        1.3467
  23        2.4679
  24        3.9041
  25        8.0968
  26        9.5715
 
  0.5000000E+00  0.3333333E+00  0.0000000E+00  0.6944444E-02
   1       -2.4048
   2       -2.4048
   3       -1.0813
   4       -1.0813
   5       -0.7589
   6       -0.7589
   7       -0.7482
   8       -0.7482
   9       -0.6616
  10       -0.6616
  11       -0.4042
  12       -0.4042
  13        0.1001
  14        0.1001
  15        0.1388
  16        0.1388
  17        0.1482
  18        0.1482
  19        0.4291
  20        0.4291
  21        0.9832
  22        0.9832
  23        3.1151
  24        3.1151
  25        8.9871
  26        8.9871
 
  0.4166667E+00  0.4166667E+00  0.0000000E+00  0.6944444E-02
   1       -2.5044
   2       -1.5540
   3       -1.5540
   4       -1.1440
   5       -0.7455
   6       -0.7455
   7       -0.7145
   8       -0.6892
   9       -0.5913
  10       -0.5708
  11       -0.5708
  12       -0.3674
  13        0.0059
  14        0.0867
  15        0.0952
  16        0.1138
  17        0.1138
  18        0.2920
  19        0.2920
  20        0.3777
  21        0.9762
  22        1.7637
  23        1.7637
  24        3.0109
  25        8.8472
  26       10.0648
 
  0.5000000E+00  0.4166667E+00  0.0000000E+00  0.6944444E-02
   1       -2.0031
   2       -2.0031
   3       -1.3067
   4       -1.3067
   5       -0.7113
   6       -0.7113
   7       -0.6660
   8       -0.6660
   9       -0.6335
  10       -0.6335
  11       -0.4568
  12       -0.4568
  13        0.0349
  14        0.0349
  15        0.0683
  16        0.0683
  17        0.1814
  18        0.1814
  19        0.3237
  20        0.3237
  21        1.2900
  22        1.2900
  23        2.3044
  24        2.3044
  25        9.7150
  26        9.7150
 
  0.5000000E+00  0.5000000E+00  0.0000000E+00  0.1736111E-02
   1       -1.6192
   2       -1.6192
   3       -1.6192
   4       -1.6192
   5       -0.6824
   6       -0.6824
   7       -0.6824
   8       -0.6824
   9       -0.5267
  10       -0.5267
  11       -0.5267
  12       -0.5267
  13        0.0200
  14        0.0200
  15        0.0200
  16        0.0200
  17        0.2392
  18        0.2392
  19        0.2392
  20        0.2392
  21        1.7097
  22        1.7097
  23        1.7097
  24        1.7097
  25       10.5629
  26       10.5629
 
  0.8333333E-01  0.8333333E-01  0.8333333E-01  0.4629630E-02
   1       -5.4742
   2       -1.5990
   3       -1.5990
   4       -1.5990
   5       -1.2796
   6       -1.2796
   7       -1.2796
   8       -0.3815
   9       -0.3132
  10       -0.3132
  11        0.2289
  12        0.2289
  13        0.5470
  14        0.5470
  15        0.5470
  16        0.5747
  17        0.5747
  18        0.5747
  19        0.7143
  20        0.7143
  21        0.7143
  22        3.5386
  23        3.5386
  24        3.5386
  25        8.5749
  26        8.5749
 
  0.1666667E+00  0.8333333E-01  0.8333333E-01  0.1388889E-01
   1       -5.2604
   2       -1.6190
   3       -1.5135
   4       -1.5135
   5       -1.2337
   6       -1.2298
   7       -1.2298
   8       -0.4225
   9       -0.2801
  10       -0.2771
  11        0.1878
  12        0.2533
  13        0.3306
  14        0.3306
  15        0.4471
  16        0.5211
  17        0.5246
  18        0.5246
  19        0.6834
  20        0.7068
  21        0.7068
  22        2.4994
  23        3.9252
  24        3.9252
  25        8.7085
  26        8.7085
 
  0.2500000E+00  0.8333333E-01  0.8333333E-01  0.1388889E-01
   1       -4.9087
   2       -1.7097
   3       -1.3857
   4       -1.3857
   5       -1.1604
   6       -1.1465
   7       -1.1465
   8       -0.4963
   9       -0.2211
  10       -0.2177
  11        0.0572
  12        0.0572
  13        0.1301
  14        0.2736
  15        0.2920
  16        0.4348
  17        0.4445
  18        0.4445
  19        0.6393
  20        0.7007
  21        0.7007
  22        1.5262
  23        4.4770
  24        4.4770
  25        8.9355
  26        8.9355
 
  0.3333333E+00  0.8333333E-01  0.8333333E-01  0.1388889E-01
   1       -4.4276
   2       -1.9777
   3       -1.2378
   4       -1.2378
   5       -1.0643
   6       -1.0318
   7       -1.0318
   8       -0.5942
   9       -0.2199
  10       -0.2199
  11       -0.1607
  12       -0.1363
  13        0.0384
  14        0.0868
  15        0.3246
  16        0.3422
  17        0.3446
  18        0.3446
  19        0.5859
  20        0.6971
  21        0.6971
  22        0.8566
  23        5.1420
  24        5.1420
  25        8.6495
  26        8.6495
 
  0.4166667E+00  0.8333333E-01  0.8333333E-01  0.1388889E-01
   1       -3.8342
   2       -2.4969
   3       -1.1059
   4       -1.1059
   5       -0.9518
   6       -0.8914
   7       -0.8914
   8       -0.7084
   9       -0.4727
  10       -0.4727
  11       -0.1550
  12       -0.1374
  13       -0.0359
  14        0.1306
  15        0.2024
  16        0.2542
  17        0.2542
  18        0.4006
  19        0.4910
  20        0.5262
  21        0.6955
  22        0.6955
  23        5.8940
  24        5.8940
  25        7.6543
  26        7.6543
 
  0.5000000E+00  0.8333333E-01  0.8333333E-01  0.6944444E-02
   1       -3.1642
   2       -3.1642
   3       -1.0492
   4       -1.0492
   5       -0.8304
   6       -0.8304
   7       -0.7629
   8       -0.7629
   9       -0.6433
  10       -0.6433
  11       -0.1793
  12       -0.1793
  13        0.0792
  14        0.0792
  15        0.2159
  16        0.2159
  17        0.2721
  18        0.2721
  19        0.4632
  20        0.4632
  21        0.6950
  22        0.6950
  23        6.6442
  24        6.6442
  25        6.8223
  26        6.8223
 
  0.1666667E+00  0.1666667E+00  0.8333333E-01  0.1388889E-01
   1       -5.0492
   2       -1.5270
   3       -1.5270
   4       -1.4372
   5       -1.1862
   6       -1.1862
   7       -1.1839
   8       -0.4470
   9       -0.2598
  10       -0.2555
  11        0.1825
  12        0.1953
  13        0.2128
  14        0.2128
  15        0.2557
  16        0.4556
  17        0.4778
  18        0.4778
  19        0.6794
  20        0.6794
  21        0.6851
  22        2.8640
  23        2.8640
  24        4.2710
  25        8.8434
  26        9.6328
 
  0.2500000E+00  0.1666667E+00  0.8333333E-01  0.2777778E-01
   1       -4.7021
   2       -1.6053
   3       -1.3891
   4       -1.3236
   5       -1.1164
   6       -1.1083
   7       -1.1067
   8       -0.5047
   9       -0.2216
  10       -0.2111
  11       -0.0604
  12       -0.0175
  13        0.0354
  14        0.1445
  15        0.2996
  16        0.3818
  17        0.3914
  18        0.4164
  19        0.6383
  20        0.6622
  21        0.6634
  22        1.8755
  23        3.3633
  24        4.7815
  25        8.3874
  26        9.1107
 
  0.3333333E+00  0.1666667E+00  0.8333333E-01  0.2777778E-01
   1       -4.2284
   2       -1.8541
   3       -1.2283
   4       -1.1886
   5       -1.0250
   6       -1.0127
   7       -0.9990
   8       -0.5901
   9       -0.3215
  10       -0.2510
  11       -0.1962
  12       -0.1557
  13       -0.1408
  14        0.1259
  15        0.2801
  16        0.2978
  17        0.3304
  18        0.3654
  19        0.5783
  20        0.6481
  21        0.6483
  22        1.1554
  23        3.9567
  24        5.4091
  25        7.2932
  26        8.8971
 
  0.4166667E+00  0.1666667E+00  0.8333333E-01  0.2777778E-01
   1       -3.6462
   2       -2.3485
   3       -1.0757
   4       -1.0498
   5       -0.9259
   6       -0.9190
   7       -0.8832
   8       -0.6934
   9       -0.5401
  10       -0.4658
  11       -0.2615
  12       -0.2168
  13       -0.0546
  14        0.1612
  15        0.1877
  16        0.2231
  17        0.2438
  18        0.4453
  19        0.4822
  20        0.6401
  21        0.6405
  22        0.7376
  23        4.6339
  24        6.0399
  25        6.4069
  26        7.8976
 
  0.5000000E+00  0.1666667E+00  0.8333333E-01  0.1388889E-01
   1       -2.9929
   2       -2.9929
   3       -0.9863
   4       -0.9863
   5       -0.8537
   6       -0.8537
   7       -0.8058
   8       -0.8058
   9       -0.6118
  10       -0.6118
  11       -0.2611
  12       -0.2611
  13        0.0471
  14        0.0471
  15        0.1983
  16        0.1983
  17        0.3283
  18        0.3283
  19        0.5468
  20        0.5468
  21        0.6379
  22        0.6379
  23        5.3960
  24        5.3960
  25        6.9971
  26        6.9971
 
  0.2500000E+00  0.2500000E+00  0.8333333E-01  0.1388889E-01
   1       -4.3635
   2       -1.4496
   3       -1.4496
   4       -1.2364
   5       -1.0425
   6       -1.0422
   7       -1.0422
   8       -0.5351
   9       -0.2197
  10       -0.2174
  11       -0.2174
  12       -0.1833
  13       -0.1466
  14        0.1312
  15        0.3058
  16        0.3470
  17        0.3470
  18        0.3526
  19        0.6092
  20        0.6092
  21        0.6226
  22        2.3267
  23        2.3267
  24        5.2405
  25        7.1581
  26        9.3639
 
  0.3333333E+00  0.2500000E+00  0.8333333E-01  0.2777778E-01
   1       -3.9035
   2       -1.6695
   3       -1.2703
   4       -1.1380
   5       -0.9614
   6       -0.9582
   7       -0.9407
   8       -0.5932
   9       -0.4419
  10       -0.3489
  11       -0.3080
  12       -0.2275
  13       -0.1327
  14        0.1250
  15        0.2303
  16        0.2443
  17        0.2810
  18        0.4442
  19        0.5374
  20        0.5800
  21        0.5884
  22        1.5302
  23        2.8563
  24        5.7076
  25        6.1770
  26        9.2932
 
  0.4166667E+00  0.2500000E+00  0.8333333E-01  0.2777778E-01
   1       -3.3425
   2       -2.1208
   3       -1.1031
   4       -1.0357
   5       -0.9045
   6       -0.8633
   7       -0.8430
   8       -0.6731
   9       -0.6033
  10       -0.4661
  11       -0.3846
  12       -0.2712
  13       -0.0646
  14        0.1301
  15        0.1699
  16        0.1825
  17        0.2055
  18        0.4338
  19        0.5625
  20        0.5644
  21        0.5664
  22        1.0191
  23        3.4707
  24        5.0111
  25        6.6046
  26        8.2915
 
  0.5000000E+00  0.2500000E+00  0.8333333E-01  0.1388889E-01
   1       -2.7215
   2       -2.7215
   3       -0.9948
   4       -0.9948
   5       -0.8667
   6       -0.8667
   7       -0.7659
   8       -0.7659
   9       -0.5905
  10       -0.5905
  11       -0.3397
  12       -0.3397
  13        0.0234
  14        0.0234
  15        0.1575
  16        0.1575
  17        0.3015
  18        0.3015
  19        0.5580
  20        0.5580
  21        0.7328
  22        0.7328
  23        4.1856
  24        4.1856
  25        7.3936
  26        7.3936
 
  0.3333333E+00  0.3333333E+00  0.8333333E-01  0.1388889E-01
   1       -3.4661
   2       -1.4589
   3       -1.4589
   4       -1.1090
   5       -0.8783
   6       -0.8634
   7       -0.8634
   8       -0.6135
   9       -0.5095
  10       -0.5095
  11       -0.3888
  12       -0.2571
  13       -0.1121
  14        0.1179
  15        0.1581
  16        0.1946
  17        0.1946
  18        0.4950
  19        0.4950
  20        0.5319
  21        0.5703
  22        1.9722
  23        1.9722
  24        4.8714
  25        6.4742
  26        9.8298
 
  0.4166667E+00  0.3333333E+00  0.8333333E-01  0.2777778E-01
   1       -2.9414
   2       -1.8475
   3       -1.2710
   4       -1.1054
   5       -0.8002
   6       -0.7843
   7       -0.7570
   8       -0.6549
   9       -0.6154
  10       -0.4830
  11       -0.4814
  12       -0.3125
  13       -0.0742
  14        0.0907
  15        0.1018
  16        0.1336
  17        0.1629
  18        0.3871
  19        0.4693
  20        0.4890
  21        0.7369
  22        1.3548
  23        2.5020
  24        3.9369
  25        7.1422
  26        8.8245
 
  0.5000000E+00  0.3333333E+00  0.8333333E-01  0.1388889E-01
   1       -2.3756
   2       -2.3756
   3       -1.1498
   4       -1.1498
   5       -0.7467
   6       -0.7467
   7       -0.7136
   8       -0.7136
   9       -0.5796
  10       -0.5796
  11       -0.3997
  12       -0.3997
  13       -0.0054
  14       -0.0054
  15        0.0913
  16        0.0913
  17        0.2649
  18        0.2649
  19        0.4671
  20        0.4671
  21        0.9735
  22        0.9735
  23        3.1488
  24        3.1488
  25        7.9287
  26        7.9287
 
  0.4166667E+00  0.4166667E+00  0.8333333E-01  0.1388889E-01
   1       -2.4754
   2       -1.5786
   3       -1.5786
   4       -1.2098
   5       -0.6948
   6       -0.6864
   7       -0.6864
   8       -0.6474
   9       -0.5540
  10       -0.5540
  11       -0.5182
  12       -0.3622
  13       -0.0756
  14        0.0390
  15        0.0431
  16        0.0431
  17        0.1838
  18        0.3634
  19        0.3634
  20        0.4202
  21        0.9626
  22        1.7741
  23        1.7741
  24        3.0364
  25        7.8080
  26        9.4866
 
  0.5000000E+00  0.4166667E+00  0.8333333E-01  0.1388889E-01
   1       -1.9983
   2       -1.9983
   3       -1.3615
   4       -1.3615
   5       -0.6564
   6       -0.6564
   7       -0.6199
   8       -0.6199
   9       -0.5831
  10       -0.5831
  11       -0.4485
  12       -0.4485
  13       -0.0368
  14       -0.0368
  15        0.0150
  16        0.0150
  17        0.2584
  18        0.2584
  19        0.3748
  20        0.3748
  21        1.2830
  22        1.2830
  23        2.3211
  24        2.3211
  25        8.5903
  26        8.5903
 
  0.5000000E+00  0.5000000E+00  0.8333333E-01  0.3472222E-02
   1       -1.6458
   2       -1.6458
   3       -1.6458
   4       -1.6458
   5       -0.6091
   6       -0.6091
   7       -0.6091
   8       -0.6091
   9       -0.5145
  10       -0.5145
  11       -0.5145
  12       -0.5145
  13       -0.0374
  14       -0.0374
  15       -0.0374
  16       -0.0374
  17        0.2980
  18        0.2980
  19        0.2980
  20        0.2980
  21        1.7111
  22        1.7111
  23        1.7111
  24        1.7111
  25        9.3720
  26        9.3720
 
  0.1666667E+00  0.1666667E+00  0.1666667E+00  0.4629630E-02
   1       -4.8411
   2       -1.4487
   3       -1.4487
   4       -1.4487
   5       -1.1406
   6       -1.1406
   7       -1.1406
   8       -0.4622
   9       -0.2464
  10       -0.2464
  11        0.0846
  12        0.0846
  13        0.0846
  14        0.2245
  15        0.2245
  16        0.3799
  17        0.3799
  18        0.3799
  19        0.6883
  20        0.6883
  21        0.6883
  22        3.1749
  23        3.1749
  24        3.1749
  25        9.8398
  26        9.8398
 
  0.2500000E+00  0.1666667E+00  0.1666667E+00  0.1388889E-01
   1       -4.4998
   2       -1.5225
   3       -1.3349
   4       -1.3349
   5       -1.0701
   6       -1.0646
   7       -1.0646
   8       -0.5049
   9       -0.2232
  10       -0.2193
  11       -0.1166
  12       -0.1166
  13       -0.0814
  14        0.1908
  15        0.2814
  16        0.2868
  17        0.3121
  18        0.3121
  19        0.6703
  20        0.6703
  21        0.6744
  22        2.1481
  23        3.6268
  24        3.6268
  25        8.6337
  26        8.6337
 
  0.3333333E+00  0.1666667E+00  0.1666667E+00  0.1388889E-01
   1       -4.0354
   2       -1.7569
   3       -1.2044
   4       -1.2044
   5       -0.9784
   6       -0.9702
   7       -0.9702
   8       -0.5755
   9       -0.3224
  10       -0.3224
  11       -0.2434
  12       -0.2114
  13       -0.1747
  14        0.1739
  15        0.1964
  16        0.2449
  17        0.2449
  18        0.3615
  19        0.6397
  20        0.6449
  21        0.6449
  22        1.3560
  23        4.1818
  24        4.1818
  25        7.5352
  26        7.5352
 
  0.4166667E+00  0.1666667E+00  0.1666667E+00  0.1388889E-01
   1       -3.4677
   2       -2.2225
   3       -1.0725
   4       -1.0725
   5       -0.9045
   6       -0.9045
   7       -0.8747
   8       -0.6660
   9       -0.4787
  10       -0.4787
  11       -0.3168
  12       -0.2441
  13       -0.1110
  14        0.0678
  15        0.1797
  16        0.1797
  17        0.2930
  18        0.4409
  19        0.5861
  20        0.6260
  21        0.6260
  22        0.8277
  23        4.8133
  24        4.8133
  25        6.5774
  26        6.5774
 
  0.5000000E+00  0.1666667E+00  0.1666667E+00  0.6944444E-02
   1       -2.8365
   2       -2.8365
   3       -0.9815
   4       -0.9815
   5       -0.9179
   6       -0.9179
   7       -0.7682
   8       -0.7682
   9       -0.5336
  10       -0.5336
  11       -0.2981
  12       -0.2981