<?xml version="1.0" encoding="ISO-8859-1"?>
<modeling>
 <generator>
  <i name="program" type="string">vasp</i>
  <i name="version" type="string">4.6.28 </i>
  <i name="subversion" type="string">25Jul05 complex  parallel</i>
  <i name="platform" type="string">LinuxIFC</i>
  <i name="date" type="string">2016 12 21</i>
  <i name="time" type="string">11:41:28</i>
 </generator>
 <incar>
  <i type="string" name="PREC">accurate</i>
  <i type="int" name="IALGO">    38</i>
  <i type="logical" name="ADDGRID"> T  </i>
  <i name="EDIFF">      0.00000001</i>
  <i type="int" name="IBRION">    -1</i>
  <i name="ENCUT">    750.00000000</i>
  <i type="logical" name="LREAL"> F  </i>
  <i type="int" name="ISMEAR">     0</i>
  <i name="SIGMA">      0.01000000</i>
  <i type="logical" name="LWAVE"> F  </i>
  <i type="logical" name="LCHARG"> F  </i>
 </incar>
 <kpoints>
  <generation param="Gamma">
   <v type="int" name="divisions">      12      12      12</v>
   <v name="usershift">      0.00000000      0.00000000      0.00000000</v>
   <v name="genvec1">      0.08333333      0.00000000      0.00000000</v>
   <v name="genvec2">      0.00000000      0.08333333      0.00000000</v>
   <v name="genvec3">      0.00000000      0.00000000      0.08333333</v>
   <v name="shift">      0.00000000      0.00000000      0.00000000</v>
  </generation>
  <varray name="kpointlist" >
   <v>       0.00000000      0.00000000      0.00000000</v>
   <v>       0.08333333      0.00000000      0.00000000</v>
   <v>       0.16666667      0.00000000      0.00000000</v>
   <v>       0.25000000      0.00000000      0.00000000</v>
   <v>       0.33333333      0.00000000      0.00000000</v>
   <v>       0.41666667      0.00000000      0.00000000</v>
   <v>       0.50000000      0.00000000      0.00000000</v>
   <v>       0.08333333      0.08333333      0.00000000</v>
   <v>       0.16666667      0.08333333      0.00000000</v>
   <v>       0.25000000      0.08333333      0.00000000</v>
   <v>       0.33333333      0.08333333      0.00000000</v>
   <v>       0.41666667      0.08333333      0.00000000</v>
   <v>       0.50000000      0.08333333      0.00000000</v>
   <v>       0.16666667      0.16666667      0.00000000</v>
   <v>       0.25000000      0.16666667      0.00000000</v>
   <v>       0.33333333      0.16666667      0.00000000</v>
   <v>       0.41666667      0.16666667      0.00000000</v>
   <v>       0.50000000      0.16666667      0.00000000</v>
   <v>       0.25000000      0.25000000      0.00000000</v>
   <v>       0.33333333      0.25000000      0.00000000</v>
   <v>       0.41666667      0.25000000      0.00000000</v>
   <v>       0.50000000      0.25000000      0.00000000</v>
   <v>       0.33333333      0.33333333      0.00000000</v>
   <v>       0.41666667      0.33333333      0.00000000</v>
   <v>       0.50000000      0.33333333      0.00000000</v>
   <v>       0.41666667      0.41666667      0.00000000</v>
   <v>       0.50000000      0.41666667      0.00000000</v>
   <v>       0.50000000      0.50000000      0.00000000</v>
   <v>       0.08333333      0.08333333      0.08333333</v>
   <v>       0.16666667      0.08333333      0.08333333</v>
   <v>       0.25000000      0.08333333      0.08333333</v>
   <v>       0.33333333      0.08333333      0.08333333</v>
   <v>       0.41666667      0.08333333      0.08333333</v>
   <v>       0.50000000      0.08333333      0.08333333</v>
   <v>       0.16666667      0.16666667      0.08333333</v>
   <v>       0.25000000      0.16666667      0.08333333</v>
   <v>       0.33333333      0.16666667      0.08333333</v>
   <v>       0.41666667      0.16666667      0.08333333</v>
   <v>       0.50000000      0.16666667      0.08333333</v>
   <v>       0.25000000      0.25000000      0.08333333</v>
   <v>       0.33333333      0.25000000      0.08333333</v>
   <v>       0.41666667      0.25000000      0.08333333</v>
   <v>       0.50000000      0.25000000      0.08333333</v>
   <v>       0.33333333      0.33333333      0.08333333</v>
   <v>       0.41666667      0.33333333      0.08333333</v>
   <v>       0.50000000      0.33333333      0.08333333</v>
   <v>       0.41666667      0.41666667      0.08333333</v>
   <v>       0.50000000      0.41666667      0.08333333</v>
   <v>       0.50000000      0.50000000      0.08333333</v>
   <v>       0.16666667      0.16666667      0.16666667</v>
   <v>       0.25000000      0.16666667      0.16666667</v>
   <v>       0.33333333      0.16666667      0.16666667</v>
   <v>       0.41666667      0.16666667      0.16666667</v>
   <v>       0.50000000      0.16666667      0.16666667</v>
   <v>       0.25000000      0.25000000      0.16666667</v>
   <v>       0.33333333      0.25000000      0.16666667</v>
   <v>       0.41666667      0.25000000      0.16666667</v>
   <v>       0.50000000      0.25000000      0.16666667</v>
   <v>       0.33333333      0.33333333      0.16666667</v>
   <v>       0.41666667      0.33333333      0.16666667</v>
   <v>       0.50000000      0.33333333      0.16666667</v>
   <v>       0.41666667      0.41666667      0.16666667</v>
   <v>       0.50000000      0.41666667      0.16666667</v>
   <v>       0.50000000      0.50000000      0.16666667</v>
   <v>       0.25000000      0.25000000      0.25000000</v>
   <v>       0.33333333      0.25000000      0.25000000</v>
   <v>       0.41666667      0.25000000      0.25000000</v>
   <v>       0.50000000      0.25000000      0.25000000</v>
   <v>       0.33333333      0.33333333      0.25000000</v>
   <v>       0.41666667      0.33333333      0.25000000</v>
   <v>       0.50000000      0.33333333      0.25000000</v>
   <v>       0.41666667      0.41666667      0.25000000</v>
   <v>       0.50000000      0.41666667      0.25000000</v>
   <v>       0.50000000      0.50000000      0.25000000</v>
   <v>       0.33333333      0.33333333      0.33333333</v>
   <v>       0.41666667      0.33333333      0.33333333</v>
   <v>       0.50000000      0.33333333      0.33333333</v>
   <v>       0.41666667      0.41666667      0.33333333</v>
   <v>       0.50000000      0.41666667      0.33333333</v>
   <v>       0.50000000      0.50000000      0.33333333</v>
   <v>       0.41666667      0.41666667      0.41666667</v>
   <v>       0.50000000      0.41666667      0.41666667</v>
   <v>       0.50000000      0.50000000      0.41666667</v>
   <v>       0.50000000      0.50000000      0.50000000</v>
  </varray>
  <varray name="weights" >
   <v>       0.00057870</v>
   <v>       0.00347222</v>
   <v>       0.00347222</v>
   <v>       0.00347222</v>
   <v>       0.00347222</v>
   <v>       0.00347222</v>
   <v>       0.00173611</v>
   <v>       0.00694444</v>
   <v>       0.01388889</v>
   <v>       0.01388889</v>
   <v>       0.01388889</v>
   <v>       0.01388889</v>
   <v>       0.00694444</v>
   <v>       0.00694444</v>
   <v>       0.01388889</v>
   <v>       0.01388889</v>
   <v>       0.01388889</v>
   <v>       0.00694444</v>
   <v>       0.00694444</v>
   <v>       0.01388889</v>
   <v>       0.01388889</v>
   <v>       0.00694444</v>
   <v>       0.00694444</v>
   <v>       0.01388889</v>
   <v>       0.00694444</v>
   <v>       0.00694444</v>
   <v>       0.00694444</v>
   <v>       0.00173611</v>
   <v>       0.00462963</v>
   <v>       0.01388889</v>
   <v>       0.01388889</v>
   <v>       0.01388889</v>
   <v>       0.01388889</v>
   <v>       0.00694444</v>
   <v>       0.01388889</v>
   <v>       0.02777778</v>
   <v>       0.02777778</v>
   <v>       0.02777778</v>
   <v>       0.01388889</v>
   <v>       0.01388889</v>
   <v>       0.02777778</v>
   <v>       0.02777778</v>
   <v>       0.01388889</v>
   <v>       0.01388889</v>
   <v>       0.02777778</v>
   <v>       0.01388889</v>
   <v>       0.01388889</v>
   <v>       0.01388889</v>
   <v>       0.00347222</v>
   <v>       0.00462963</v>
   <v>       0.01388889</v>
   <v>       0.01388889</v>
   <v>       0.01388889</v>
   <v>       0.00694444</v>
   <v>       0.01388889</v>
   <v>       0.02777778</v>
   <v>       0.02777778</v>
   <v>       0.01388889</v>
   <v>       0.01388889</v>
   <v>       0.02777778</v>
   <v>       0.01388889</v>
   <v>       0.01388889</v>
   <v>       0.01388889</v>
   <v>       0.00347222</v>
   <v>       0.00462963</v>
   <v>       0.01388889</v>
   <v>       0.01388889</v>
   <v>       0.00694444</v>
   <v>       0.01388889</v>
   <v>       0.02777778</v>
   <v>       0.01388889</v>
   <v>       0.01388889</v>
   <v>       0.01388889</v>
   <v>       0.00347222</v>
   <v>       0.00462963</v>
   <v>       0.01388889</v>
   <v>       0.00694444</v>
   <v>       0.01388889</v>
   <v>       0.01388889</v>
   <v>       0.00347222</v>
   <v>       0.00462963</v>
   <v>       0.00694444</v>
   <v>       0.00347222</v>
   <v>       0.00057870</v>
  </varray>
 </kpoints>
 <parameters>
  <separator name="general" >
   <i type="string" name="SYSTEM">unknown system</i>
   <i type="logical" name="LCOMPAT"> F  </i>
  </separator>
  <separator name="electronic" >
   <i type="string" name="PREC">accura</i>
   <i name="ENMAX">    750.00000000</i>
   <i name="ENAUG">    516.45600000</i>
   <i name="EDIFF">      0.00000001</i>
   <i type="int" name="IALGO">    38</i>
   <i type="int" name="IWAVPR">    10</i>
   <i type="int" name="NBANDS">    26</i>
   <i name="NELECT">     44.00000000</i>
   <separator name="electronic smearing" >
    <i type="int" name="ISMEAR">     0</i>
    <i name="SIGMA">      0.01000000</i>
   </separator>
   <separator name="electronic projectors" >
    <i type="logical" name="LREAL"> F  </i>
    <v name="ROPT">      0.00000000</v>
    <i type="int" name="LMAXPAW">  -100</i>
    <i type="int" name="LMAXMIX">     2</i>
   </separator>
   <separator name="electronic startup" >
    <i type="int" name="ISTART">     0</i>
    <i type="int" name="ICHARG">     2</i>
    <i type="int" name="INIWAV">     1</i>
   </separator>
   <separator name="electronic spin" >
    <i type="int" name="ISPIN">     1</i>
    <i type="logical" name="LNONCOLLINEAR"> F  </i>
    <v name="MAGMOM">      1.00000000      1.00000000      1.00000000      1.00000000</v>
    <i name="NUPDOWN">     -1.00000000</i>
    <i type="logical" name="LSORBIT"> F  </i>
    <v name="SAXIS">      0.00000000      0.00000000      1.00000000</v>
    <i type="logical" name="LSPIRAL"> F  </i>
    <v name="QSPIRAL">      0.00000000      0.00000000      0.00000000</v>
    <i type="logical" name="LZEROZ"> F  </i>
   </separator>
   <separator name="electronic exchange-correlation" >
    <i type="string" name="GGA">--</i>
    <i type="int" name="VOSKOWN">     0</i>
    <i type="logical" name="LASPH"> F  </i>
    <i type="logical" name="LMETAGGA"> F  </i>
    <i type="string" name="GGA2">--</i>
   </separator>
   <separator name="electronic convergence" >
    <i type="int" name="NELM">    60</i>
    <i type="int" name="NELMDL">     0</i>
    <i type="int" name="NELMIN">     2</i>
    <i name="ENINI">    750.00000000</i>
    <separator name="electronic convergence detail" >
     <i type="logical" name="LDIAG"> T  </i>
     <i name="WEIMIN">      0.00000000</i>
     <i name="EBREAK">      0.00000000</i>
     <i name="DEPER">      0.30000000</i>
     <i type="int" name="NRMM">     4</i>
     <i name="TIME">      0.10000000</i>
    </separator>
   </separator>
   <separator name="electronic mixer" >
    <i name="AMIX">      0.40000000</i>
    <i name="BMIX">      1.00000000</i>
    <i name="AMIN">      0.10000000</i>
    <i name="AMIX_MAG">      1.60000000</i>
    <i name="BMIX_MAG">      1.00000000</i>
    <separator name="electronic mixer details" >
     <i type="int" name="IMIX">     4</i>
     <i type="int" name="MAXMIX">   -45</i>
     <i name="WC">    100.00000000</i>
     <i type="int" name="INIMIX">     1</i>
     <i type="int" name="MIXPRE">     1</i>
     <i type="int" name="MREMOVE">     5</i>
    </separator>
   </separator>
   <separator name="electronic dipolcorrection" >
    <i type="int" name="IDIPOL">     0</i>
    <i type="logical" name="LDIPOL"> F  </i>
    <v name="DIPOL">   -100.00000000</v>
    <i name="EFIELD">      0.00000000</i>
   </separator>
  </separator>
  <separator name="grids" >
   <i type="int" name="NGX">    36</i>
   <i type="int" name="NGY">    36</i>
   <i type="int" name="NGZ">    36</i>
   <i type="int" name="NGXF">    72</i>
   <i type="int" name="NGYF">    72</i>
   <i type="int" name="NGZF">    72</i>
   <i type="logical" name="ADDGRID"> T  </i>
  </separator>
  <separator name="ionic" >
   <i type="int" name="NSW">     0</i>
   <i type="int" name="IBRION">    -1</i>
   <i type="int" name="ISIF">     2</i>
   <i name="PSTRESS">      0.00000000</i>
   <i name="EDIFFG">      0.00000010</i>
   <i type="int" name="NFREE">     0</i>
   <i name="POTIM">      0.50000000</i>
   <i name="SMASS">     -3.00000000</i>
  </separator>
  <separator name="ionic md" >
   <i name="TEBEG">      0.00010000</i>
   <i name="TEEND">      0.00010000</i>
   <i type="int" name="NBLOCK">     1</i>
   <i type="int" name="KBLOCK">     1</i>
   <i type="int" name="NPACO">   256</i>
   <i name="APACO">     16.00000000</i>
  </separator>
  <separator name="symmetry" >
   <i type="int" name="ISYM">     2</i>
   <i name="SYMPREC">      0.00001000</i>
  </separator>
  <separator name="dos" >
   <i type="logical" name="LORBIT"> F  </i>
   <v name="RWIGS">     -1.00000000</v>
   <i type="int" name="NEDOS">   301</i>
   <i name="EMIN">     10.00000000</i>
   <i name="EMAX">    -10.00000000</i>
  </separator>
  <separator name="writing" >
   <i type="int" name="NWRITE">     2</i>
   <i type="logical" name="LWAVE"> F  </i>
   <i type="logical" name="LCHARG"> F  </i>
   <i type="logical" name="LPARD"> F  </i>
   <i type="logical" name="LVTOT"> F  </i>
   <i type="logical" name="LELF"> F  </i>
   <i type="logical" name="LOPTICS"> F  </i>
   <i name="STM">      0.00000000</i>
  </separator>
  <separator name="performance" >
   <i type="int" name="NPAR">     2</i>
   <i type="int" name="NSIM">     4</i>
   <i type="int" name="NBLK">   256</i>
   <i type="logical" name="LPLANE"> T  </i>
   <i type="logical" name="LCRITICAL_MEM"> F  </i>
   <i type="logical" name="LSCALAPACK"> F  </i>
   <i type="logical" name="LSCALU"> F  </i>
   <i type="logical" name="LASYNC"> F  </i>
  </separator>
  <separator name="miscellaneous" >
   <i type="int" name="IDIOT">     3</i>
   <i type="logical" name="LMUSIC"> F  </i>
   <v name="POMASS">     63.54600000</v>
   <i type="logical" name="LCORR"> T  </i>
  </separator>
  <i type="logical" name="LREAL_COMPAT"> F  </i>
  <i type="logical" name="GGA_COMPAT"> T  </i>
  <i type="logical" name="LBERRY"> F  </i>
  <i type="int" name="ICORELEVEL">     0</i>
  <i type="logical" name="LDAU"> F  </i>
  <i type="int" name="I_CONSTRAINED_M">     0</i>
 </parameters>
 <atominfo>
  <atoms>       4</atoms>
  <types>       1</types>
  <array name="atoms" >
   <dimension dim="1">ion</dimension>
   <field type="string">element</field>
   <field type="int">atomtype</field>
   <set>
    <rc><c>Cu</c><c>   1</c></rc>
    <rc><c>Cu</c><c>   1</c></rc>
    <rc><c>Cu</c><c>   1</c></rc>
    <rc><c>Cu</c><c>   1</c></rc>
   </set>
  </array>
  <array name="atomtypes" >
   <dimension dim="1">type</dimension>
   <field type="int">atomspertype</field>
   <field type="string">element</field>
   <field>mass</field>
   <field>valence</field>
   <field type="string">pseudopotential</field>
   <set>
    <rc><c>   4</c><c>Cu</c><c>     63.54600000</c><c>     11.00000000</c><c> PAW_PBE Cu 05Jan2001                   </c></rc>
   </set>
  </array>
 </atominfo>
 <structure name="initialpos" >
  <crystal>
   <varray name="basis" >
    <v>       3.89096492      0.00000000      0.00000000</v>
    <v>       0.00000000      3.89096492      0.00000000</v>
    <v>       0.00000000      0.00000000      3.89096492</v>
   </varray>
   <i name="volume">     58.90768360</i>
   <varray name="rec_basis" >
    <v>       0.25700566      0.00000000      0.00000000</v>
    <v>       0.00000000      0.25700566      0.00000000</v>
    <v>       0.00000000      0.00000000      0.25700566</v>
   </varray>
  </crystal>
  <varray name="positions" >
   <v>       0.00000000      0.00000000      0.00000000</v>
   <v>       0.50000000      0.50000000      0.00000000</v>
   <v>       0.50000000      0.00000000      0.50000000</v>
   <v>       0.00000000      0.50000000      0.50000000</v>
  </varray>
 </structure>
 <calculation>
  <scstep>
   <time name="dav">   29.37  139.89</time>
   <time name="total">   29.88  141.42</time>
   <energy>
    <i name="alphaZ">    347.01755749</i>
    <i name="ewald">  -4106.20288634</i>
    <i name="hartreedc">  -1476.47851773</i>
    <i name="XCdc">    173.40472907</i>
    <i name="pawpsdc">   4328.20916945</i>
    <i name="pawaedc">  -4904.30802700</i>
    <i name="eentropy">     -0.00012288</i>
    <i name="bandstr">    387.45557453</i>
    <i name="atom">   5563.91755062</i>
    <i name="e_fr_energy">    313.01502720</i>
    <i name="e_wo_entrp">    313.01515008</i>
    <i name="e_0_energy">    313.01508864</i>
   </energy>
  </scstep>
  <scstep>
   <time name="dav">   36.90  184.52</time>
   <time name="total">   36.92  184.61</time>
   <energy>
    <i name="e_fr_energy">      1.89100062</i>
    <i name="e_wo_entrp">      1.89126698</i>
    <i name="e_0_energy">      1.89113380</i>
   </energy>
  </scstep>
  <scstep>
   <time name="dav">   35.79  179.00</time>
   <time name="total">   35.80  179.06</time>
   <energy>
    <i name="e_fr_energy">    -16.96151618</i>
    <i name="e_wo_entrp">    -16.96135499</i>
    <i name="e_0_energy">    -16.96143559</i>
   </energy>
  </scstep>
  <scstep>
   <time name="dav">   39.77  198.89</time>
   <time name="total">   39.79  199.01</time>
   <energy>
    <i name="e_fr_energy">    -17.20261789</i>
    <i name="e_wo_entrp">    -17.20251009</i>
    <i name="e_0_energy">    -17.20256399</i>
   </energy>
  </scstep>
  <scstep>
   <time name="dav">   36.34  181.75</time>
   <time name="total">   37.19  186.03</time>
   <energy>
    <i name="e_fr_energy">    -17.20403627</i>
    <i name="e_wo_entrp">    -17.20392867</i>
    <i name="e_0_energy">    -17.20398247</i>
   </energy>
  </scstep>
  <scstep>
   <time name="dav">   24.38  121.97</time>
   <time name="total">   25.81  129.12</time>
   <energy>
    <i name="e_fr_energy">    -15.98236627</i>
    <i name="e_wo_entrp">    -15.98222531</i>
    <i name="e_0_energy">    -15.98229579</i>
   </energy>
  </scstep>
  <scstep>
   <time name="dav">   30.60  153.08</time>
   <time name="total">   31.86  159.35</time>
   <energy>
    <i name="e_fr_energy">    -14.20930338</i>
    <i name="e_wo_entrp">    -14.20925482</i>
    <i name="e_0_energy">    -14.20927910</i>
   </energy>
  </scstep>
  <scstep>
   <time name="dav">   29.87  149.41</time>
   <time name="total">   31.33  156.72</time>
   <energy>
    <i name="e_fr_energy">    -14.20844595</i>
    <i name="e_wo_entrp">    -14.20822253</i>
    <i name="e_0_energy">    -14.20833424</i>
   </energy>
  </scstep>
  <scstep>
   <time name="dav">   25.10  125.52</time>
   <time name="total">   26.57  132.93</time>
   <energy>
    <i name="e_fr_energy">    -14.19024295</i>
    <i name="e_wo_entrp">    -14.19019645</i>
    <i name="e_0_energy">    -14.19021970</i>
   </energy>
  </scstep>
  <scstep>
   <time name="dav">   31.52  157.68</time>
   <time name="total">   33.23  166.21</time>
   <energy>
    <i name="e_fr_energy">    -14.18991898</i>
    <i name="e_wo_entrp">    -14.18986649</i>
    <i name="e_0_energy">    -14.18989273</i>
   </energy>
  </scstep>
  <scstep>
   <time name="dav">   29.32  146.67</time>
   <time name="total">   30.80  154.08</time>
   <energy>
    <i name="e_fr_energy">    -14.18992272</i>
    <i name="e_wo_entrp">    -14.18987024</i>
    <i name="e_0_energy">    -14.18989648</i>
   </energy>
  </scstep>
  <scstep>
   <time name="dav">   26.39  108.71</time>
   <time name="total">   27.99  115.94</time>
   <energy>
    <i name="e_fr_energy">    -14.18992334</i>
    <i name="e_wo_entrp">    -14.18987088</i>
    <i name="e_0_energy">    -14.18989711</i>
   </energy>
  </scstep>
  <scstep>
   <time name="dav">   23.94   95.79</time>
   <time name="total">   25.40  101.64</time>
   <energy>
    <i name="e_fr_energy">    -14.18992454</i>
    <i name="e_wo_entrp">    -14.18987207</i>
    <i name="e_0_energy">    -14.18989830</i>
   </energy>
  </scstep>
  <scstep>
   <time name="dav">   15.83   63.35</time>
   <time name="total">   17.34   69.41</time>
   <energy>
    <i name="e_fr_energy">    -14.18992452</i>
    <i name="e_wo_entrp">    -14.18987205</i>
    <i name="e_0_energy">    -14.18989828</i>
   </energy>
  </scstep>
  <scstep>
   <time name="dav">   12.50   50.01</time>
   <time name="total">   14.01   56.09</time>
   <energy>
    <i name="e_fr_energy">    -14.18992450</i>
    <i name="e_wo_entrp">    -14.18987203</i>
    <i name="e_0_energy">    -14.18989826</i>
   </energy>
  </scstep>
  <scstep>
   <time name="dav">   71.56  216.18</time>
   <time name="total">   72.08  218.24</time>
   <energy>
    <i name="alphaZ">    347.01755749</i>
    <i name="ewald">  -4106.20288634</i>
    <i name="hartreedc">  -1396.64015229</i>
    <i name="XCdc">    169.63606335</i>
    <i name="pawpsdc">   4294.64720376</i>
    <i name="pawaedc">  -4870.80507163</i>
    <i name="eentropy">     -0.00005247</i>
    <i name="bandstr">    -15.76013697</i>
    <i name="atom">   5563.91755062</i>
    <i name="e_fr_energy">    -14.18992449</i>
    <i name="e_wo_entrp">    -14.18987202</i>
    <i name="e_0_energy">    -14.18989826</i>
   </energy>
  </scstep>
  <structure>
   <crystal>
    <varray name="basis" >
     <v>       3.89096492      0.00000000      0.00000000</v>
     <v>       0.00000000      3.89096492      0.00000000</v>
     <v>       0.00000000      0.00000000      3.89096492</v>
    </varray>
    <i name="volume">     58.90768360</i>
    <varray name="rec_basis" >
     <v>       0.25700566      0.00000000      0.00000000</v>
     <v>       0.00000000      0.25700566      0.00000000</v>
     <v>       0.00000000      0.00000000      0.25700566</v>
    </varray>
   </crystal>
   <varray name="positions" >
    <v>       0.00000000      0.00000000      0.00000000</v>
    <v>       0.50000000      0.50000000      0.00000000</v>
    <v>       0.50000000      0.00000000      0.50000000</v>
    <v>       0.00000000      0.50000000      0.50000000</v>
   </varray>
  </structure>
  <varray name="forces" >
   <v>      -0.00000000      0.00000000      0.00000000</v>
   <v>       0.00000000     -0.00000000      0.00000000</v>
   <v>       0.00000000      0.00000000     -0.00000000</v>
   <v>       0.00000000      0.00000000      0.00000000</v>
  </varray>
  <varray name="stress" >
   <v>    -165.88660271      0.00000000     -0.00000000</v>
   <v>      -0.00000000   -165.88660271      0.00000000</v>
   <v>      -0.00000000     -0.00000000   -165.88660271</v>
  </varray>
  <energy>
   <i name="e_fr_energy">    -14.18992449</i>
   <i name="e_wo_entrp">    -14.18989826</i>
   <i name="e_0_energy">     -0.00005247</i>
  </energy>
  <eigenvalues>
   <array>
    <dimension dim="1">band</dimension>
    <dimension dim="2">kpoint</dimension>
    <dimension dim="3">spin</dimension>
    <field>eigene</field>
    <field>occ</field>
    <set>
     <set comment="spin 1">
      <set comment="kpoint 1">
       <r>  -5.6900  1.0000</r>
       <r>  -1.6563  1.0000</r>
       <r>  -1.6563  1.0000</r>
       <r>  -1.6563  1.0000</r>
       <r>  -1.3292  1.0000</r>
       <r>  -1.3292  1.0000</r>
       <r>  -1.3292  1.0000</r>
       <r>  -0.3465  1.0000</r>
       <r>  -0.3465  1.0000</r>
       <r>  -0.3465  1.0000</r>
       <r>   0.2403  1.0000</r>
       <r>   0.2403  1.0000</r>
       <r>   0.6320  1.0000</r>
       <r>   0.6320  1.0000</r>
       <r>   0.6320  1.0000</r>
       <r>   0.7414  1.0000</r>
       <r>   0.7414  1.0000</r>
       <r>   0.7414  1.0000</r>
       <r>   0.7414  1.0000</r>
       <r>   0.7414  1.0000</r>
       <r>   0.7414  1.0000</r>
       <r>   3.7756  0.0000</r>
       <r>   3.7756  0.0000</r>
       <r>   3.7756  0.0000</r>
       <r>   7.8014  0.0000</r>
       <r>   7.8014  0.0000</r>
      </set>
      <set comment="kpoint 2">
       <r>  -5.6179  1.0000</r>
       <r>  -1.6599  1.0000</r>
       <r>  -1.6262  1.0000</r>
       <r>  -1.6262  1.0000</r>
       <r>  -1.3130  1.0000</r>
       <r>  -1.3119  1.0000</r>
       <r>  -1.3119  1.0000</r>
       <r>  -0.3638  1.0000</r>
       <r>  -0.3321  1.0000</r>
       <r>  -0.3321  1.0000</r>
       <r>   0.2247  1.0000</r>
       <r>   0.2469  1.0000</r>
       <r>   0.6118  1.0000</r>
       <r>   0.6118  1.0000</r>
       <r>   0.6252  1.0000</r>
       <r>   0.6488  1.0000</r>
       <r>   0.6488  1.0000</r>
       <r>   0.7174  1.0000</r>
       <r>   0.7174  1.0000</r>
       <r>   0.7414  1.0000</r>
       <r>   0.7414  1.0000</r>
       <r>   3.2411  0.0000</r>
       <r>   3.9355  0.0000</r>
       <r>   3.9355  0.0000</r>
       <r>   7.8341  0.0000</r>
       <r>   7.8341  0.0000</r>
      </set>
      <set comment="kpoint 3">
       <r>  -5.4025  1.0000</r>
       <r>  -1.6849  1.0000</r>
       <r>  -1.5403  1.0000</r>
       <r>  -1.5403  1.0000</r>
       <r>  -1.2654  1.0000</r>
       <r>  -1.2598  1.0000</r>
       <r>  -1.2598  1.0000</r>
       <r>  -0.4144  1.0000</r>
       <r>  -0.2891  1.0000</r>
       <r>  -0.2891  1.0000</r>
       <r>   0.1796  1.0000</r>
       <r>   0.2662  1.0000</r>
       <r>   0.4176  1.0000</r>
       <r>   0.4176  1.0000</r>
       <r>   0.5531  1.0000</r>
       <r>   0.5531  1.0000</r>
       <r>   0.6054  1.0000</r>
       <r>   0.6483  1.0000</r>
       <r>   0.6483  1.0000</r>
       <r>   0.7415  1.0000</r>
       <r>   0.7415  1.0000</r>
       <r>   2.1964  0.0000</r>
       <r>   4.3681  0.0000</r>
       <r>   4.3681  0.0000</r>
       <r>   7.9346  0.0000</r>
       <r>   7.9346  0.0000</r>
      </set>
      <set comment="kpoint 4">
       <r>  -5.0479  1.0000</r>
       <r>  -1.7849  1.0000</r>
       <r>  -1.4120  1.0000</r>
       <r>  -1.4120  1.0000</r>
       <r>  -1.1894  1.0000</r>
       <r>  -1.1719  1.0000</r>
       <r>  -1.1719  1.0000</r>
       <r>  -0.4945  1.0000</r>
       <r>  -0.2187  1.0000</r>
       <r>  -0.2187  1.0000</r>
       <r>   0.1107  1.0000</r>
       <r>   0.1279  1.0000</r>
       <r>   0.1279  1.0000</r>
       <r>   0.2969  1.0000</r>
       <r>   0.4621  1.0000</r>
       <r>   0.4621  1.0000</r>
       <r>   0.5428  1.0000</r>
       <r>   0.5428  1.0000</r>
       <r>   0.5739  1.0000</r>
       <r>   0.7417  1.0000</r>
       <r>   0.7417  1.0000</r>
       <r>   1.1738  1.0000</r>
       <r>   4.9921  0.0000</r>
       <r>   4.9921  0.0000</r>
       <r>   8.1103  0.0000</r>
       <r>   8.1103  0.0000</r>
      </set>
      <set comment="kpoint 5">
       <r>  -4.5623  1.0000</r>
       <r>  -2.0667  1.0000</r>
       <r>  -1.2667  1.0000</r>
       <r>  -1.2667  1.0000</r>
       <r>  -1.0896  1.0000</r>
       <r>  -1.0468  1.0000</r>
       <r>  -1.0468  1.0000</r>
       <r>  -0.5983  1.0000</r>
       <r>  -0.1670  1.0000</r>
       <r>  -0.1670  1.0000</r>
       <r>  -0.1232  1.0000</r>
       <r>  -0.1232  1.0000</r>
       <r>   0.0294  1.0000</r>
       <r>   0.3371  1.0000</r>
       <r>   0.3542  1.0000</r>
       <r>   0.3542  1.0000</r>
       <r>   0.4127  1.0000</r>
       <r>   0.4127  1.0000</r>
       <r>   0.4169  1.0000</r>
       <r>   0.5329  1.0000</r>
       <r>   0.7418  1.0000</r>
       <r>   0.7418  1.0000</r>
       <r>   5.7523  0.0000</r>
       <r>   5.7523  0.0000</r>
       <r>   8.3717  0.0000</r>
       <r>   8.3717  0.0000</r>
      </set>
      <set comment="kpoint 6">
       <r>  -3.9622  1.0000</r>
       <r>  -2.6016  1.0000</r>
       <r>  -1.1441  1.0000</r>
       <r>  -1.1441  1.0000</r>
       <r>  -0.9726  1.0000</r>
       <r>  -0.8834  1.0000</r>
       <r>  -0.8834  1.0000</r>
       <r>  -0.7183  1.0000</r>
       <r>  -0.4406  1.0000</r>
       <r>  -0.4406  1.0000</r>
       <r>  -0.0439  1.0000</r>
       <r>  -0.0060  1.0000</r>
       <r>  -0.0060  1.0000</r>
       <r>   0.0350  1.0000</r>
       <r>   0.2592  1.0000</r>
       <r>   0.2592  1.0000</r>
       <r>   0.2704  1.0000</r>
       <r>   0.2704  1.0000</r>
       <r>   0.3840  1.0000</r>
       <r>   0.4854  1.0000</r>
       <r>   0.7419  1.0000</r>
       <r>   0.7419  1.0000</r>
       <r>   6.6196  0.0000</r>
       <r>   6.6196  0.0000</r>
       <r>   8.6176  0.0000</r>
       <r>   8.6184  0.0000</r>
      </set>
      <set comment="kpoint 7">
       <r>  -3.2824  1.0000</r>
       <r>  -3.2824  1.0000</r>
       <r>  -1.0942  1.0000</r>
       <r>  -1.0942  1.0000</r>
       <r>  -0.8460  1.0000</r>
       <r>  -0.8460  1.0000</r>
       <r>  -0.6809  1.0000</r>
       <r>  -0.6809  1.0000</r>
       <r>  -0.6809  1.0000</r>
       <r>  -0.6809  1.0000</r>
       <r>  -0.0695  1.0000</r>
       <r>  -0.0695  1.0000</r>
       <r>   0.1277  1.0000</r>
       <r>   0.1277  1.0000</r>
       <r>   0.1277  1.0000</r>
       <r>   0.1277  1.0000</r>
       <r>   0.2195  1.0000</r>
       <r>   0.2195  1.0000</r>
       <r>   0.4346  1.0000</r>
       <r>   0.4346  1.0000</r>
       <r>   0.7419  1.0000</r>
       <r>   0.7419  1.0000</r>
       <r>   7.5781  0.0000</r>
       <r>   7.5781  0.0000</r>
       <r>   7.5781  0.0000</r>
       <r>   7.5781  0.0000</r>
      </set>
      <set comment="kpoint 8">
       <r>  -5.5459  1.0000</r>
       <r>  -1.6289  1.0000</r>
       <r>  -1.6289  1.0000</r>
       <r>  -1.5970  1.0000</r>
       <r>  -1.2961  1.0000</r>
       <r>  -1.2961  1.0000</r>
       <r>  -1.2952  1.0000</r>
       <r>  -0.3730  1.0000</r>
       <r>  -0.3253  1.0000</r>
       <r>  -0.3191  1.0000</r>
       <r>   0.2205  1.0000</r>
       <r>   0.2434  1.0000</r>
       <r>   0.5798  1.0000</r>
       <r>   0.5848  1.0000</r>
       <r>   0.5848  1.0000</r>
       <r>   0.5925  1.0000</r>
       <r>   0.6405  1.0000</r>
       <r>   0.6405  1.0000</r>
       <r>   0.7173  1.0000</r>
       <r>   0.7173  1.0000</r>
       <r>   0.7258  1.0000</r>
       <r>   3.3947  0.0000</r>
       <r>   3.3947  0.0000</r>
       <r>   4.0875  0.0000</r>
       <r>   7.8674  0.0000</r>
       <r>   8.5312  0.0000</r>
      </set>
      <set comment="kpoint 9">
       <r>  -5.3313  1.0000</r>
       <r>  -1.6513  1.0000</r>
       <r>  -1.5405  1.0000</r>
       <r>  -1.5136  1.0000</r>
       <r>  -1.2494  1.0000</r>
       <r>  -1.2449  1.0000</r>
       <r>  -1.2445  1.0000</r>
       <r>  -0.4184  1.0000</r>
       <r>  -0.2865  1.0000</r>
       <r>  -0.2806  1.0000</r>
       <r>   0.1815  1.0000</r>
       <r>   0.2611  1.0000</r>
       <r>   0.3688  1.0000</r>
       <r>   0.3735  1.0000</r>
       <r>   0.5027  1.0000</r>
       <r>   0.5361  1.0000</r>
       <r>   0.5610  1.0000</r>
       <r>   0.6165  1.0000</r>
       <r>   0.6481  1.0000</r>
       <r>   0.7172  1.0000</r>
       <r>   0.7175  1.0000</r>
       <r>   2.3568  0.0000</r>
       <r>   3.8004  0.0000</r>
       <r>   4.5038  0.0000</r>
       <r>   7.9700  0.0000</r>
       <r>   8.6631  0.0000</r>
      </set>
      <set comment="kpoint 10">
       <r>  -4.9781  1.0000</r>
       <r>  -1.7463  1.0000</r>
       <r>  -1.4082  1.0000</r>
       <r>  -1.3890  1.0000</r>
       <r>  -1.1749  1.0000</r>
       <r>  -1.1598  1.0000</r>
       <r>  -1.1587  1.0000</r>
       <r>  -0.4957  1.0000</r>
       <r>  -0.2198  1.0000</r>
       <r>  -0.2174  1.0000</r>
       <r>   0.0801  1.0000</r>
       <r>   0.1015  1.0000</r>
       <r>   0.1186  1.0000</r>
       <r>   0.2954  1.0000</r>
       <r>   0.3576  1.0000</r>
       <r>   0.4486  1.0000</r>
       <r>   0.4690  1.0000</r>
       <r>   0.5425  1.0000</r>
       <r>   0.5760  1.0000</r>
       <r>   0.7156  1.0000</r>
       <r>   0.7170  1.0000</r>
       <r>   1.3767  1.0000</r>
       <r>   4.3695  0.0000</r>
       <r>   5.1125  0.0000</r>
       <r>   8.1489  0.0000</r>
       <r>   8.8910  0.0000</r>
      </set>
      <set comment="kpoint 11">
       <r>  -4.4946  1.0000</r>
       <r>  -2.0210  1.0000</r>
       <r>  -1.2572  1.0000</r>
       <r>  -1.2457  1.0000</r>
       <r>  -1.0772  1.0000</r>
       <r>  -1.0423  1.0000</r>
       <r>  -1.0361  1.0000</r>
       <r>  -0.5967  1.0000</r>
       <r>  -0.2104  1.0000</r>
       <r>  -0.1806  1.0000</r>
       <r>  -0.1495  1.0000</r>
       <r>  -0.1226  1.0000</r>
       <r>   0.0572  1.0000</r>
       <r>   0.1298  1.0000</r>
       <r>   0.3411  1.0000</r>
       <r>   0.3448  1.0000</r>
       <r>   0.3609  1.0000</r>
       <r>   0.4122  1.0000</r>
       <r>   0.5063  1.0000</r>
       <r>   0.7153  1.0000</r>
       <r>   0.7168  1.0000</r>
       <r>   0.7412  1.0000</r>
       <r>   5.0478  0.0000</r>
       <r>   5.8610  0.0000</r>
       <r>   8.4007  0.0000</r>
       <r>   8.6007  0.0000</r>
      </set>
      <set comment="kpoint 12">
       <r>  -3.8977  1.0000</r>
       <r>  -2.5482  1.0000</r>
       <r>  -1.1278  1.0000</r>
       <r>  -1.1213  1.0000</r>
       <r>  -0.9626  1.0000</r>
       <r>  -0.8934  1.0000</r>
       <r>  -0.8762  1.0000</r>
       <r>  -0.7139  1.0000</r>
       <r>  -0.4766  1.0000</r>
       <r>  -0.4449  1.0000</r>
       <r>  -0.1249  1.0000</r>
       <r>  -0.0778  1.0000</r>
       <r>  -0.0058  1.0000</r>
       <r>   0.0698  1.0000</r>
       <r>   0.2544  1.0000</r>
       <r>   0.2640  1.0000</r>
       <r>   0.2700  1.0000</r>
       <r>   0.3474  1.0000</r>
       <r>   0.3954  1.0000</r>
       <r>   0.5317  1.0000</r>
       <r>   0.7155  1.0000</r>
       <r>   0.7164  1.0000</r>
       <r>   5.8108  0.0000</r>
       <r>   6.7196  0.0000</r>
       <r>   7.5709  0.0000</r>
       <r>   8.7076  0.0000</r>
      </set>
      <set comment="kpoint 13">
       <r>  -3.2226  1.0000</r>
       <r>  -3.2226  1.0000</r>
       <r>  -1.0720  1.0000</r>
       <r>  -1.0720  1.0000</r>
       <r>  -0.8387  1.0000</r>
       <r>  -0.8387  1.0000</r>
       <r>  -0.7063  1.0000</r>
       <r>  -0.7063  1.0000</r>
       <r>  -0.6786  1.0000</r>
       <r>  -0.6786  1.0000</r>
       <r>  -0.1400  1.0000</r>
       <r>  -0.1400  1.0000</r>
       <r>   0.1275  1.0000</r>
       <r>   0.1275  1.0000</r>
       <r>   0.1839  1.0000</r>
       <r>   0.1839  1.0000</r>
       <r>   0.2200  1.0000</r>
       <r>   0.2200  1.0000</r>
       <r>   0.4564  1.0000</r>
       <r>   0.4564  1.0000</r>
       <r>   0.7160  1.0000</r>
       <r>   0.7160  1.0000</r>
       <r>   6.6512  0.0000</r>
       <r>   6.6512  0.0000</r>
       <r>   7.6721  0.0000</r>
       <r>   7.6721  0.0000</r>
      </set>
      <set comment="kpoint 14">
       <r>  -5.1190  1.0000</r>
       <r>  -1.5548  1.0000</r>
       <r>  -1.5548  1.0000</r>
       <r>  -1.4379  1.0000</r>
       <r>  -1.2011  1.0000</r>
       <r>  -1.2011  1.0000</r>
       <r>  -1.1984  1.0000</r>
       <r>  -0.4449  1.0000</r>
       <r>  -0.2636  1.0000</r>
       <r>  -0.2561  1.0000</r>
       <r>   0.1676  1.0000</r>
       <r>   0.2333  1.0000</r>
       <r>   0.2474  1.0000</r>
       <r>   0.2474  1.0000</r>
       <r>   0.2675  1.0000</r>
       <r>   0.4862  1.0000</r>
       <r>   0.5587  1.0000</r>
       <r>   0.5587  1.0000</r>
       <r>   0.6475  1.0000</r>
       <r>   0.6475  1.0000</r>
       <r>   0.6794  1.0000</r>
       <r>   2.7498  0.0000</r>
       <r>   2.7498  0.0000</r>
       <r>   4.8846  0.0000</r>
       <r>   8.0786  0.0000</r>
       <r>   9.5407  0.0000</r>
      </set>
      <set comment="kpoint 15">
       <r>  -4.7701  1.0000</r>
       <r>  -1.6352  1.0000</r>
       <r>  -1.4095  1.0000</r>
       <r>  -1.3248  1.0000</r>
       <r>  -1.1313  1.0000</r>
       <r>  -1.1223  1.0000</r>
       <r>  -1.1199  1.0000</r>
       <r>  -0.5064  1.0000</r>
       <r>  -0.2201  1.0000</r>
       <r>  -0.2056  1.0000</r>
       <r>  -0.0437  1.0000</r>
       <r>   0.0186  1.0000</r>
       <r>   0.0705  1.0000</r>
       <r>   0.1234  1.0000</r>
       <r>   0.3081  1.0000</r>
       <r>   0.4083  1.0000</r>
       <r>   0.4718  1.0000</r>
       <r>   0.5274  1.0000</r>
       <r>   0.5415  1.0000</r>
       <r>   0.6467  1.0000</r>
       <r>   0.6576  1.0000</r>
       <r>   1.7751  1.0000</r>
       <r>   3.2700  0.0000</r>
       <r>   5.4571  0.0000</r>
       <r>   8.2443  0.0000</r>
       <r>   8.3413  0.0000</r>
      </set>
      <set comment="kpoint 16">
       <r>  -4.2935  1.0000</r>
       <r>  -1.8892  1.0000</r>
       <r>  -1.2408  1.0000</r>
       <r>  -1.1900  1.0000</r>
       <r>  -1.0399  1.0000</r>
       <r>  -1.0243  1.0000</r>
       <r>  -1.0049  1.0000</r>
       <r>  -0.5957  1.0000</r>
       <r>  -0.3223  1.0000</r>
       <r>  -0.2231  1.0000</r>
       <r>  -0.1919  1.0000</r>
       <r>  -0.1255  1.0000</r>
       <r>  -0.1165  1.0000</r>
       <r>   0.0867  1.0000</r>
       <r>   0.3155  1.0000</r>
       <r>   0.3665  1.0000</r>
       <r>   0.3718  1.0000</r>
       <r>   0.4111  1.0000</r>
       <r>   0.4591  1.0000</r>
       <r>   0.6456  1.0000</r>
       <r>   0.6483  1.0000</r>
       <r>   1.0923  1.0000</r>
       <r>   3.8772  0.0000</r>
       <r>   6.1760  0.0000</r>
       <r>   7.2055  0.0000</r>
       <r>   8.5546  0.0000</r>
      </set>
      <set comment="kpoint 17">
       <r>  -3.7068  1.0000</r>
       <r>  -2.3930  1.0000</r>
       <r>  -1.0888  1.0000</r>
       <r>  -1.0580  1.0000</r>
       <r>  -0.9330  1.0000</r>
       <r>  -0.9197  1.0000</r>
       <r>  -0.8555  1.0000</r>
       <r>  -0.7025  1.0000</r>
       <r>  -0.5703  1.0000</r>
       <r>  -0.4591  1.0000</r>
       <r>  -0.2414  1.0000</r>
       <r>  -0.2074  1.0000</r>
       <r>  -0.0032  1.0000</r>
       <r>   0.1145  1.0000</r>
       <r>   0.2371  1.0000</r>
       <r>   0.2678  1.0000</r>
       <r>   0.2694  1.0000</r>
       <r>   0.3461  1.0000</r>
       <r>   0.4531  1.0000</r>
       <r>   0.6447  1.0000</r>
       <r>   0.6449  1.0000</r>
       <r>   0.7317  1.0000</r>
       <r>   4.5647  0.0000</r>
       <r>   6.2167  0.0000</r>
       <r>   7.0123  0.0000</r>
       <r>   8.9449  0.0000</r>
      </set>
      <set comment="kpoint 18">
       <r>  -3.0467  1.0000</r>
       <r>  -3.0467  1.0000</r>
       <r>  -1.0097  1.0000</r>
       <r>  -1.0097  1.0000</r>
       <r>  -0.8178  1.0000</r>
       <r>  -0.8178  1.0000</r>
       <r>  -0.7766  1.0000</r>
       <r>  -0.7766  1.0000</r>
       <r>  -0.6726  1.0000</r>
       <r>  -0.6726  1.0000</r>
       <r>  -0.2476  1.0000</r>
       <r>  -0.2476  1.0000</r>
       <r>   0.1281  1.0000</r>
       <r>   0.1281  1.0000</r>
       <r>   0.2141  1.0000</r>
       <r>   0.2141  1.0000</r>
       <r>   0.2151  1.0000</r>
       <r>   0.2151  1.0000</r>
       <r>   0.5590  1.0000</r>
       <r>   0.5590  1.0000</r>
       <r>   0.6441  1.0000</r>
       <r>   0.6441  1.0000</r>
       <r>   5.3402  0.0000</r>
       <r>   5.3402  0.0000</r>
       <r>   7.9485  0.0000</r>
       <r>   7.9485  0.0000</r>
      </set>
      <set comment="kpoint 19">
       <r>  -4.4290  1.0000</r>
       <r>  -1.4669  1.0000</r>
       <r>  -1.4669  1.0000</r>
       <r>  -1.2323  1.0000</r>
       <r>  -1.0582  1.0000</r>
       <r>  -1.0582  1.0000</r>
       <r>  -1.0582  1.0000</r>
       <r>  -0.5411  1.0000</r>
       <r>  -0.2176  1.0000</r>
       <r>  -0.2077  1.0000</r>
       <r>  -0.2077  1.0000</r>
       <r>  -0.1670  1.0000</r>
       <r>  -0.1208  1.0000</r>
       <r>   0.0990  1.0000</r>
       <r>   0.3437  1.0000</r>
       <r>   0.3629  1.0000</r>
       <r>   0.4470  1.0000</r>
       <r>   0.4470  1.0000</r>
       <r>   0.5401  1.0000</r>
       <r>   0.5401  1.0000</r>
       <r>   0.6036  1.0000</r>
       <r>   2.2510  0.0000</r>
       <r>   2.2510  0.0000</r>
       <r>   5.9888  0.0000</r>
       <r>   7.0668  0.0000</r>
       <r>   8.4781  0.0000</r>
      </set>
      <set comment="kpoint 20">
       <r>  -3.9649  1.0000</r>
       <r>  -1.6885  1.0000</r>
       <r>  -1.2680  1.0000</r>
       <r>  -1.1236  1.0000</r>
       <r>  -0.9789  1.0000</r>
       <r>  -0.9780  1.0000</r>
       <r>  -0.9556  1.0000</r>
       <r>  -0.6045  1.0000</r>
       <r>  -0.4560  1.0000</r>
       <r>  -0.3458  1.0000</r>
       <r>  -0.2980  1.0000</r>
       <r>  -0.2253  1.0000</r>
       <r>  -0.0942  1.0000</r>
       <r>   0.0717  1.0000</r>
       <r>   0.2655  1.0000</r>
       <r>   0.3471  1.0000</r>
       <r>   0.3834  1.0000</r>
       <r>   0.4102  1.0000</r>
       <r>   0.4551  1.0000</r>
       <r>   0.5390  1.0000</r>
       <r>   0.5689  1.0000</r>
       <r>   1.4852  1.0000</r>
       <r>   2.7939  0.0000</r>
       <r>   5.9541  0.0000</r>
       <r>   6.6715  0.0000</r>
       <r>   8.7832  0.0000</r>
      </set>
      <set comment="kpoint 21">
       <r>  -3.3975  1.0000</r>
       <r>  -2.1517  1.0000</r>
       <r>  -1.0792  1.0000</r>
       <r>  -0.9999  1.0000</r>
       <r>  -0.9235  1.0000</r>
       <r>  -0.8849  1.0000</r>
       <r>  -0.8238  1.0000</r>
       <r>  -0.6895  1.0000</r>
       <r>  -0.6696  1.0000</r>
       <r>  -0.4863  1.0000</r>
       <r>  -0.3838  1.0000</r>
       <r>  -0.2689  1.0000</r>
       <r>   0.0084  1.0000</r>
       <r>   0.0923  1.0000</r>
       <r>   0.2010  1.0000</r>
       <r>   0.2499  1.0000</r>
       <r>   0.2704  1.0000</r>
       <r>   0.2829  1.0000</r>
       <r>   0.5391  1.0000</r>
       <r>   0.5505  1.0000</r>
       <r>   0.5771  1.0000</r>
       <r>   1.0108  1.0000</r>
       <r>   3.4164  0.0000</r>
       <r>   4.9795  0.0000</r>
       <r>   7.4787  0.0000</r>
       <r>   9.2008  0.0000</r>
      </set>
      <set comment="kpoint 22">
       <r>  -2.7663  1.0000</r>
       <r>  -2.7663  1.0000</r>
       <r>  -0.9536  1.0000</r>
       <r>  -0.9536  1.0000</r>
       <r>  -0.8478  1.0000</r>
       <r>  -0.8478  1.0000</r>
       <r>  -0.7860  1.0000</r>
       <r>  -0.7860  1.0000</r>
       <r>  -0.6655  1.0000</r>
       <r>  -0.6655  1.0000</r>
       <r>  -0.3381  1.0000</r>
       <r>  -0.3381  1.0000</r>
       <r>   0.1330  1.0000</r>
       <r>   0.1330  1.0000</r>
       <r>   0.1724  1.0000</r>
       <r>   0.1724  1.0000</r>
       <r>   0.1911  1.0000</r>
       <r>   0.1911  1.0000</r>
       <r>   0.5420  1.0000</r>
       <r>   0.5420  1.0000</r>
       <r>   0.7438  1.0000</r>
       <r>   0.7438  1.0000</r>
       <r>   4.1383  0.0000</r>
       <r>   4.1383  0.0000</r>
       <r>   8.3928  0.0000</r>
       <r>   8.3928  0.0000</r>
      </set>
      <set comment="kpoint 23">
       <r>  -3.5214  1.0000</r>
       <r>  -1.4505  1.0000</r>
       <r>  -1.4505  1.0000</r>
       <r>  -1.0740  1.0000</r>
       <r>  -0.9005  1.0000</r>
       <r>  -0.8923  1.0000</r>
       <r>  -0.8923  1.0000</r>
       <r>  -0.6328  1.0000</r>
       <r>  -0.5277  1.0000</r>
       <r>  -0.5277  1.0000</r>
       <r>  -0.4038  1.0000</r>
       <r>  -0.2569  1.0000</r>
       <r>  -0.0439  1.0000</r>
       <r>   0.0377  1.0000</r>
       <r>   0.2007  1.0000</r>
       <r>   0.2893  1.0000</r>
       <r>   0.2893  1.0000</r>
       <r>   0.4110  1.0000</r>
       <r>   0.4110  1.0000</r>
       <r>   0.5014  1.0000</r>
       <r>   0.5831  1.0000</r>
       <r>   1.9351  1.0000</r>
       <r>   1.9351  1.0000</r>
       <r>   4.8502  0.0000</r>
       <r>   7.3194  0.0000</r>
       <r>   9.1186  0.0000</r>
      </set>
      <set comment="kpoint 24">
       <r>  -2.9865  1.0000</r>
       <r>  -1.8554  1.0000</r>
       <r>  -1.2260  1.0000</r>
       <r>  -1.0478  1.0000</r>
       <r>  -0.8227  1.0000</r>
       <r>  -0.8209  1.0000</r>
       <r>  -0.7853  1.0000</r>
       <r>  -0.6826  1.0000</r>
       <r>  -0.6668  1.0000</r>
       <r>  -0.5301  1.0000</r>
       <r>  -0.4934  1.0000</r>
       <r>  -0.3142  1.0000</r>
       <r>   0.0384  1.0000</r>
       <r>   0.0390  1.0000</r>
       <r>   0.1449  1.0000</r>
       <r>   0.1967  1.0000</r>
       <r>   0.1972  1.0000</r>
       <r>   0.2763  1.0000</r>
       <r>   0.4160  1.0000</r>
       <r>   0.4556  1.0000</r>
       <r>   0.7509  1.0000</r>
       <r>   1.3467  1.0000</r>
       <r>   2.4679  0.0000</r>
       <r>   3.9041  0.0000</r>
       <r>   8.0968  0.0000</r>
       <r>   9.5715  0.0000</r>
      </set>
      <set comment="kpoint 25">
       <r>  -2.4048  1.0000</r>
       <r>  -2.4048  1.0000</r>
       <r>  -1.0813  1.0000</r>
       <r>  -1.0813  1.0000</r>
       <r>  -0.7589  1.0000</r>
       <r>  -0.7589  1.0000</r>
       <r>  -0.7482  1.0000</r>
       <r>  -0.7482  1.0000</r>
       <r>  -0.6616  1.0000</r>
       <r>  -0.6616  1.0000</r>
       <r>  -0.4042  1.0000</r>
       <r>  -0.4042  1.0000</r>
       <r>   0.1001  1.0000</r>
       <r>   0.1001  1.0000</r>
       <r>   0.1388  1.0000</r>
       <r>   0.1388  1.0000</r>
       <r>   0.1482  1.0000</r>
       <r>   0.1482  1.0000</r>
       <r>   0.4291  1.0000</r>
       <r>   0.4291  1.0000</r>
       <r>   0.9832  1.0000</r>
       <r>   0.9832  1.0000</r>
       <r>   3.1151  0.0000</r>
       <r>   3.1151  0.0000</r>
       <r>   8.9871  0.0000</r>
       <r>   8.9871  0.0000</r>
      </set>
      <set comment="kpoint 26">
       <r>  -2.5044  1.0000</r>
       <r>  -1.5540  1.0000</r>
       <r>  -1.5540  1.0000</r>
       <r>  -1.1440  1.0000</r>
       <r>  -0.7455  1.0000</r>
       <r>  -0.7455  1.0000</r>
       <r>  -0.7145  1.0000</r>
       <r>  -0.6892  1.0000</r>
       <r>  -0.5913  1.0000</r>
       <r>  -0.5708  1.0000</r>
       <r>  -0.5708  1.0000</r>
       <r>  -0.3674  1.0000</r>
       <r>   0.0059  1.0000</r>
       <r>   0.0867  1.0000</r>
       <r>   0.0952  1.0000</r>
       <r>   0.1138  1.0000</r>
       <r>   0.1138  1.0000</r>
       <r>   0.2920  1.0000</r>
       <r>   0.2920  1.0000</r>
       <r>   0.3777  1.0000</r>
       <r>   0.9762  1.0000</r>
       <r>   1.7637  1.0000</r>
       <r>   1.7637  1.0000</r>
       <r>   3.0109  0.0000</r>
       <r>   8.8472  0.0000</r>
       <r>  10.0648  0.0000</r>
      </set>
      <set comment="kpoint 27">
       <r>  -2.0031  1.0000</r>
       <r>  -2.0031  1.0000</r>
       <r>  -1.3067  1.0000</r>
       <r>  -1.3067  1.0000</r>
       <r>  -0.7113  1.0000</r>
       <r>  -0.7113  1.0000</r>
       <r>  -0.6660  1.0000</r>
       <r>  -0.6660  1.0000</r>
       <r>  -0.6335  1.0000</r>
       <r>  -0.6335  1.0000</r>
       <r>  -0.4568  1.0000</r>
       <r>  -0.4568  1.0000</r>
       <r>   0.0349  1.0000</r>
       <r>   0.0349  1.0000</r>
       <r>   0.0683  1.0000</r>
       <r>   0.0683  1.0000</r>
       <r>   0.1814  1.0000</r>
       <r>   0.1814  1.0000</r>
       <r>   0.3237  1.0000</r>
       <r>   0.3237  1.0000</r>
       <r>   1.2900  1.0000</r>
       <r>   1.2900  1.0000</r>
       <r>   2.3044  0.0000</r>
       <r>   2.3044  0.0000</r>
       <r>   9.7150  0.0000</r>
       <r>   9.7150  0.0000</r>
      </set>
      <set comment="kpoint 28">
       <r>  -1.6192  1.0000</r>
       <r>  -1.6192  1.0000</r>
       <r>  -1.6192  1.0000</r>
       <r>  -1.6192  1.0000</r>
       <r>  -0.6824  1.0000</r>
       <r>  -0.6824  1.0000</r>
       <r>  -0.6824  1.0000</r>
       <r>  -0.6824  1.0000</r>
       <r>  -0.5267  1.0000</r>
       <r>  -0.5267  1.0000</r>
       <r>  -0.5267  1.0000</r>
       <r>  -0.5267  1.0000</r>
       <r>   0.0200  1.0000</r>
       <r>   0.0200  1.0000</r>
       <r>   0.0200  1.0000</r>
       <r>   0.0200  1.0000</r>
       <r>   0.2392  1.0000</r>
       <r>   0.2392  1.0000</r>
       <r>   0.2392  1.0000</r>
       <r>   0.2392  1.0000</r>
       <r>   1.7097  1.0000</r>
       <r>   1.7097  1.0000</r>
       <r>   1.7097  1.0000</r>
       <r>   1.7097  1.0000</r>
       <r>  10.5629  0.0000</r>
       <r>  10.5629  0.0000</r>
      </set>
      <set comment="kpoint 29">
       <r>  -5.4742  1.0000</r>
       <r>  -1.5990  1.0000</r>
       <r>  -1.5990  1.0000</r>
       <r>  -1.5990  1.0000</r>
       <r>  -1.2796  1.0000</r>
       <r>  -1.2796  1.0000</r>
       <r>  -1.2796  1.0000</r>
       <r>  -0.3815  1.0000</r>
       <r>  -0.3132  1.0000</r>
       <r>  -0.3132  1.0000</r>
       <r>   0.2289  1.0000</r>
       <r>   0.2289  1.0000</r>
       <r>   0.5470  1.0000</r>
       <r>   0.5470  1.0000</r>
       <r>   0.5470  1.0000</r>
       <r>   0.5747  1.0000</r>
       <r>   0.5747  1.0000</r>
       <r>   0.5747  1.0000</r>
       <r>   0.7143  1.0000</r>
       <r>   0.7143  1.0000</r>
       <r>   0.7143  1.0000</r>
       <r>   3.5386  0.0000</r>
       <r>   3.5386  0.0000</r>
       <r>   3.5386  0.0000</r>
       <r>   8.5749  0.0000</r>
       <r>   8.5749  0.0000</r>
      </set>
      <set comment="kpoint 30">
       <r>  -5.2604  1.0000</r>
       <r>  -1.6190  1.0000</r>
       <r>  -1.5135  1.0000</r>
       <r>  -1.5135  1.0000</r>
       <r>  -1.2337  1.0000</r>
       <r>  -1.2298  1.0000</r>
       <r>  -1.2298  1.0000</r>
       <r>  -0.4225  1.0000</r>
       <r>  -0.2801  1.0000</r>
       <r>  -0.2771  1.0000</r>
       <r>   0.1878  1.0000</r>
       <r>   0.2533  1.0000</r>
       <r>   0.3306  1.0000</r>
       <r>   0.3306  1.0000</r>
       <r>   0.4471  1.0000</r>
       <r>   0.5211  1.0000</r>
       <r>   0.5246  1.0000</r>
       <r>   0.5246  1.0000</r>
       <r>   0.6834  1.0000</r>
       <r>   0.7068  1.0000</r>
       <r>   0.7068  1.0000</r>
       <r>   2.4994  0.0000</r>
       <r>   3.9252  0.0000</r>
       <r>   3.9252  0.0000</r>
       <r>   8.7085  0.0000</r>
       <r>   8.7085  0.0000</r>
      </set>
      <set comment="kpoint 31">
       <r>  -4.9087  1.0000</r>
       <r>  -1.7097  1.0000</r>
       <r>  -1.3857  1.0000</r>
       <r>  -1.3857  1.0000</r>
       <r>  -1.1604  1.0000</r>
       <r>  -1.1465  1.0000</r>
       <r>  -1.1465  1.0000</r>
       <r>  -0.4963  1.0000</r>
       <r>  -0.2211  1.0000</r>
       <r>  -0.2177  1.0000</r>
       <r>   0.0572  1.0000</r>
       <r>   0.0572  1.0000</r>
       <r>   0.1301  1.0000</r>
       <r>   0.2736  1.0000</r>
       <r>   0.2920  1.0000</r>
       <r>   0.4348  1.0000</r>
       <r>   0.4445  1.0000</r>
       <r>   0.4445  1.0000</r>
       <r>   0.6393  1.0000</r>
       <r>   0.7007  1.0000</r>
       <r>   0.7007  1.0000</r>
       <r>   1.5262  1.0000</r>
       <r>   4.4770  0.0000</r>
       <r>   4.4770  0.0000</r>
       <r>   8.9355  0.0000</r>
       <r>   8.9355  0.0000</r>
      </set>
      <set comment="kpoint 32">
       <r>  -4.4276  1.0000</r>
       <r>  -1.9777  1.0000</r>
       <r>  -1.2378  1.0000</r>
       <r>  -1.2378  1.0000</r>
       <r>  -1.0643  1.0000</r>
       <r>  -1.0318  1.0000</r>
       <r>  -1.0318  1.0000</r>
       <r>  -0.5942  1.0000</r>
       <r>  -0.2199  1.0000</r>
       <r>  -0.2199  1.0000</r>
       <r>  -0.1607  1.0000</r>
       <r>  -0.1363  1.0000</r>
       <r>   0.0384  1.0000</r>
       <r>   0.0868  1.0000</r>
       <r>   0.3246  1.0000</r>
       <r>   0.3422  1.0000</r>
       <r>   0.3446  1.0000</r>
       <r>   0.3446  1.0000</r>
       <r>   0.5859  1.0000</r>
       <r>   0.6971  1.0000</r>
       <r>   0.6971  1.0000</r>
       <r>   0.8566  1.0000</r>
       <r>   5.1420  0.0000</r>
       <r>   5.1420  0.0000</r>
       <r>   8.6495  0.0000</r>
       <r>   8.6495  0.0000</r>
      </set>
      <set comment="kpoint 33">
       <r>  -3.8342  1.0000</r>
       <r>  -2.4969  1.0000</r>
       <r>  -1.1059  1.0000</r>
       <r>  -1.1059  1.0000</r>
       <r>  -0.9518  1.0000</r>
       <r>  -0.8914  1.0000</r>
       <r>  -0.8914  1.0000</r>
       <r>  -0.7084  1.0000</r>
       <r>  -0.4727  1.0000</r>
       <r>  -0.4727  1.0000</r>
       <r>  -0.1550  1.0000</r>
       <r>  -0.1374  1.0000</r>
       <r>  -0.0359  1.0000</r>
       <r>   0.1306  1.0000</r>
       <r>   0.2024  1.0000</r>
       <r>   0.2542  1.0000</r>
       <r>   0.2542  1.0000</r>
       <r>   0.4006  1.0000</r>
       <r>   0.4910  1.0000</r>
       <r>   0.5262  1.0000</r>
       <r>   0.6955  1.0000</r>
       <r>   0.6955  1.0000</r>
       <r>   5.8940  0.0000</r>
       <r>   5.8940  0.0000</r>
       <r>   7.6543  0.0000</r>
       <r>   7.6543  0.0000</r>
      </set>
      <set comment="kpoint 34">
       <r>  -3.1642  1.0000</r>
       <r>  -3.1642  1.0000</r>
       <r>  -1.0492  1.0000</r>
       <r>  -1.0492  1.0000</r>
       <r>  -0.8304  1.0000</r>
       <r>  -0.8304  1.0000</r>
       <r>  -0.7629  1.0000</r>
       <r>  -0.7629  1.0000</r>
       <r>  -0.6433  1.0000</r>
       <r>  -0.6433  1.0000</r>
       <r>  -0.1793  1.0000</r>
       <r>  -0.1793  1.0000</r>
       <r>   0.0792  1.0000</r>
       <r>   0.0792  1.0000</r>
       <r>   0.2159  1.0000</r>
       <r>   0.2159  1.0000</r>
       <r>   0.2721  1.0000</r>
       <r>   0.2721  1.0000</r>
       <r>   0.4632  1.0000</r>
       <r>   0.4632  1.0000</r>
       <r>   0.6950  1.0000</r>
       <r>   0.6950  1.0000</r>
       <r>   6.6442  0.0000</r>
       <r>   6.6442  0.0000</r>
       <r>   6.8223  0.0000</r>
       <r>   6.8223  0.0000</r>
      </set>
      <set comment="kpoint 35">
       <r>  -5.0492  1.0000</r>
       <r>  -1.5270  1.0000</r>
       <r>  -1.5270  1.0000</r>
       <r>  -1.4372  1.0000</r>
       <r>  -1.1862  1.0000</r>
       <r>  -1.1862  1.0000</r>
       <r>  -1.1839  1.0000</r>
       <r>  -0.4470  1.0000</r>
       <r>  -0.2598  1.0000</r>
       <r>  -0.2555  1.0000</r>
       <r>   0.1825  1.0000</r>
       <r>   0.1953  1.0000</r>
       <r>   0.2128  1.0000</r>
       <r>   0.2128  1.0000</r>
       <r>   0.2557  1.0000</r>
       <r>   0.4556  1.0000</r>
       <r>   0.4778  1.0000</r>
       <r>   0.4778  1.0000</r>
       <r>   0.6794  1.0000</r>
       <r>   0.6794  1.0000</r>
       <r>   0.6851  1.0000</r>
       <r>   2.8640  0.0000</r>
       <r>   2.8640  0.0000</r>
       <r>   4.2710  0.0000</r>
       <r>   8.8434  0.0000</r>
       <r>   9.6328  0.0000</r>
      </set>
      <set comment="kpoint 36">
       <r>  -4.7021  1.0000</r>
       <r>  -1.6053  1.0000</r>
       <r>  -1.3891  1.0000</r>
       <r>  -1.3236  1.0000</r>
       <r>  -1.1164  1.0000</r>
       <r>  -1.1083  1.0000</r>
       <r>  -1.1067  1.0000</r>
       <r>  -0.5047  1.0000</r>
       <r>  -0.2216  1.0000</r>
       <r>  -0.2111  1.0000</r>
       <r>  -0.0604  1.0000</r>
       <r>  -0.0175  1.0000</r>
       <r>   0.0354  1.0000</r>
       <r>   0.1445  1.0000</r>
       <r>   0.2996  1.0000</r>
       <r>   0.3818  1.0000</r>
       <r>   0.3914  1.0000</r>
       <r>   0.4164  1.0000</r>
       <r>   0.6383  1.0000</r>
       <r>   0.6622  1.0000</r>
       <r>   0.6634  1.0000</r>
       <r>   1.8755  1.0000</r>
       <r>   3.3633  0.0000</r>
       <r>   4.7815  0.0000</r>
       <r>   8.3874  0.0000</r>
       <r>   9.1107  0.0000</r>
      </set>
      <set comment="kpoint 37">
       <r>  -4.2284  1.0000</r>
       <r>  -1.8541  1.0000</r>
       <r>  -1.2283  1.0000</r>
       <r>  -1.1886  1.0000</r>
       <r>  -1.0250  1.0000</r>
       <r>  -1.0127  1.0000</r>
       <r>  -0.9990  1.0000</r>
       <r>  -0.5901  1.0000</r>
       <r>  -0.3215  1.0000</r>
       <r>  -0.2510  1.0000</r>
       <r>  -0.1962  1.0000</r>
       <r>  -0.1557  1.0000</r>
       <r>  -0.1408  1.0000</r>
       <r>   0.1259  1.0000</r>
       <r>   0.2801  1.0000</r>
       <r>   0.2978  1.0000</r>
       <r>   0.3304  1.0000</r>
       <r>   0.3654  1.0000</r>
       <r>   0.5783  1.0000</r>
       <r>   0.6481  1.0000</r>
       <r>   0.6483  1.0000</r>
       <r>   1.1554  1.0000</r>
       <r>   3.9567  0.0000</r>
       <r>   5.4091  0.0000</r>
       <r>   7.2932  0.0000</r>
       <r>   8.8971  0.0000</r>
      </set>
      <set comment="kpoint 38">
       <r>  -3.6462  1.0000</r>
       <r>  -2.3485  1.0000</r>
       <r>  -1.0757  1.0000</r>
       <r>  -1.0498  1.0000</r>
       <r>  -0.9259  1.0000</r>
       <r>  -0.9190  1.0000</r>
       <r>  -0.8832  1.0000</r>
       <r>  -0.6934  1.0000</r>
       <r>  -0.5401  1.0000</r>
       <r>  -0.4658  1.0000</r>
       <r>  -0.2615  1.0000</r>
       <r>  -0.2168  1.0000</r>
       <r>  -0.0546  1.0000</r>
       <r>   0.1612  1.0000</r>
       <r>   0.1877  1.0000</r>
       <r>   0.2231  1.0000</r>
       <r>   0.2438  1.0000</r>
       <r>   0.4453  1.0000</r>
       <r>   0.4822  1.0000</r>
       <r>   0.6401  1.0000</r>
       <r>   0.6405  1.0000</r>
       <r>   0.7376  1.0000</r>
       <r>   4.6339  0.0000</r>
       <r>   6.0399  0.0000</r>
       <r>   6.4069  0.0000</r>
       <r>   7.8976  0.0000</r>
      </set>
      <set comment="kpoint 39">
       <r>  -2.9929  1.0000</r>
       <r>  -2.9929  1.0000</r>
       <r>  -0.9863  1.0000</r>
       <r>  -0.9863  1.0000</r>
       <r>  -0.8537  1.0000</r>
       <r>  -0.8537  1.0000</r>
       <r>  -0.8058  1.0000</r>
       <r>  -0.8058  1.0000</r>
       <r>  -0.6118  1.0000</r>
       <r>  -0.6118  1.0000</r>
       <r>  -0.2611  1.0000</r>
       <r>  -0.2611  1.0000</r>
       <r>   0.0471  1.0000</r>
       <r>   0.0471  1.0000</r>
       <r>   0.1983  1.0000</r>
       <r>   0.1983  1.0000</r>
       <r>   0.3283  1.0000</r>
       <r>   0.3283  1.0000</r>
       <r>   0.5468  1.0000</r>
       <r>   0.5468  1.0000</r>
       <r>   0.6379  1.0000</r>
       <r>   0.6379  1.0000</r>
       <r>   5.3960  0.0000</r>
       <r>   5.3960  0.0000</r>
       <r>   6.9971  0.0000</r>
       <r>   6.9971  0.0000</r>
      </set>
      <set comment="kpoint 40">
       <r>  -4.3635  1.0000</r>
       <r>  -1.4496  1.0000</r>
       <r>  -1.4496  1.0000</r>
       <r>  -1.2364  1.0000</r>
       <r>  -1.0425  1.0000</r>
       <r>  -1.0422  1.0000</r>
       <r>  -1.0422  1.0000</r>
       <r>  -0.5351  1.0000</r>
       <r>  -0.2197  1.0000</r>
       <r>  -0.2174  1.0000</r>
       <r>  -0.2174  1.0000</r>
       <r>  -0.1833  1.0000</r>
       <r>  -0.1466  1.0000</r>
       <r>   0.1312  1.0000</r>
       <r>   0.3058  1.0000</r>
       <r>   0.3470  1.0000</r>
       <r>   0.3470  1.0000</r>
       <r>   0.3526  1.0000</r>
       <r>   0.6092  1.0000</r>
       <r>   0.6092  1.0000</r>
       <r>   0.6226  1.0000</r>
       <r>   2.3267  0.0000</r>
       <r>   2.3267  0.0000</r>
       <r>   5.2405  0.0000</r>
       <r>   7.1581  0.0000</r>
       <r>   9.3639  0.0000</r>
      </set>
      <set comment="kpoint 41">
       <r>  -3.9035  1.0000</r>
       <r>  -1.6695  1.0000</r>
       <r>  -1.2703  1.0000</r>
       <r>  -1.1380  1.0000</r>
       <r>  -0.9614  1.0000</r>
       <r>  -0.9582  1.0000</r>
       <r>  -0.9407  1.0000</r>
       <r>  -0.5932  1.0000</r>
       <r>  -0.4419  1.0000</r>
       <r>  -0.3489  1.0000</r>
       <r>  -0.3080  1.0000</r>
       <r>  -0.2275  1.0000</r>
       <r>  -0.1327  1.0000</r>
       <r>   0.1250  1.0000</r>
       <r>   0.2303  1.0000</r>
       <r>   0.2443  1.0000</r>
       <r>   0.2810  1.0000</r>
       <r>   0.4442  1.0000</r>
       <r>   0.5374  1.0000</r>
       <r>   0.5800  1.0000</r>
       <r>   0.5884  1.0000</r>
       <r>   1.5302  1.0000</r>
       <r>   2.8563  0.0000</r>
       <r>   5.7076  0.0000</r>
       <r>   6.1770  0.0000</r>
       <r>   9.2932  0.0000</r>
      </set>
      <set comment="kpoint 42">
       <r>  -3.3425  1.0000</r>
       <r>  -2.1208  1.0000</r>
       <r>  -1.1031  1.0000</r>
       <r>  -1.0357  1.0000</r>
       <r>  -0.9045  1.0000</r>
       <r>  -0.8633  1.0000</r>
       <r>  -0.8430  1.0000</r>
       <r>  -0.6731  1.0000</r>
       <r>  -0.6033  1.0000</r>
       <r>  -0.4661  1.0000</r>
       <r>  -0.3846  1.0000</r>
       <r>  -0.2712  1.0000</r>
       <r>  -0.0646  1.0000</r>
       <r>   0.1301  1.0000</r>
       <r>   0.1699  1.0000</r>
       <r>   0.1825  1.0000</r>
       <r>   0.2055  1.0000</r>
       <r>   0.4338  1.0000</r>
       <r>   0.5625  1.0000</r>
       <r>   0.5644  1.0000</r>
       <r>   0.5664  1.0000</r>
       <r>   1.0191  1.0000</r>
       <r>   3.4707  0.0000</r>
       <r>   5.0111  0.0000</r>
       <r>   6.6046  0.0000</r>
       <r>   8.2915  0.0000</r>
      </set>
      <set comment="kpoint 43">
       <r>  -2.7215  1.0000</r>
       <r>  -2.7215  1.0000</r>
       <r>  -0.9948  1.0000</r>
       <r>  -0.9948  1.0000</r>
       <r>  -0.8667  1.0000</r>
       <r>  -0.8667  1.0000</r>
       <r>  -0.7659  1.0000</r>
       <r>  -0.7659  1.0000</r>
       <r>  -0.5905  1.0000</r>
       <r>  -0.5905  1.0000</r>
       <r>  -0.3397  1.0000</r>
       <r>  -0.3397  1.0000</r>
       <r>   0.0234  1.0000</r>
       <r>   0.0234  1.0000</r>
       <r>   0.1575  1.0000</r>
       <r>   0.1575  1.0000</r>
       <r>   0.3015  1.0000</r>
       <r>   0.3015  1.0000</r>
       <r>   0.5580  1.0000</r>
       <r>   0.5580  1.0000</r>
       <r>   0.7328  1.0000</r>
       <r>   0.7328  1.0000</r>
       <r>   4.1856  0.0000</r>
       <r>   4.1856  0.0000</r>
       <r>   7.3936  0.0000</r>
       <r>   7.3936  0.0000</r>
      </set>
      <set comment="kpoint 44">
       <r>  -3.4661  1.0000</r>
       <r>  -1.4589  1.0000</r>
       <r>  -1.4589  1.0000</r>
       <r>  -1.1090  1.0000</r>
       <r>  -0.8783  1.0000</r>
       <r>  -0.8634  1.0000</r>
       <r>  -0.8634  1.0000</r>
       <r>  -0.6135  1.0000</r>
       <r>  -0.5095  1.0000</r>
       <r>  -0.5095  1.0000</r>
       <r>  -0.3888  1.0000</r>
       <r>  -0.2571  1.0000</r>
       <r>  -0.1121  1.0000</r>
       <r>   0.1179  1.0000</r>
       <r>   0.1581  1.0000</r>
       <r>   0.1946  1.0000</r>
       <r>   0.1946  1.0000</r>
       <r>   0.4950  1.0000</r>
       <r>   0.4950  1.0000</r>
       <r>   0.5319  1.0000</r>
       <r>   0.5703  1.0000</r>
       <r>   1.9722  1.0000</r>
       <r>   1.9722  1.0000</r>
       <r>   4.8714  0.0000</r>
       <r>   6.4742  0.0000</r>
       <r>   9.8298  0.0000</r>
      </set>
      <set comment="kpoint 45">
       <r>  -2.9414  1.0000</r>
       <r>  -1.8475  1.0000</r>
       <r>  -1.2710  1.0000</r>
       <r>  -1.1054  1.0000</r>
       <r>  -0.8002  1.0000</r>
       <r>  -0.7843  1.0000</r>
       <r>  -0.7570  1.0000</r>
       <r>  -0.6549  1.0000</r>
       <r>  -0.6154  1.0000</r>
       <r>  -0.4830  1.0000</r>
       <r>  -0.4814  1.0000</r>
       <r>  -0.3125  1.0000</r>
       <r>  -0.0742  1.0000</r>
       <r>   0.0907  1.0000</r>
       <r>   0.1018  1.0000</r>
       <r>   0.1336  1.0000</r>
       <r>   0.1629  1.0000</r>
       <r>   0.3871  1.0000</r>
       <r>   0.4693  1.0000</r>
       <r>   0.4890  1.0000</r>
       <r>   0.7369  1.0000</r>
       <r>   1.3548  1.0000</r>
       <r>   2.5020  0.0000</r>
       <r>   3.9369  0.0000</r>
       <r>   7.1422  0.0000</r>
       <r>   8.8245  0.0000</r>
      </set>
      <set comment="kpoint 46">
       <r>  -2.3756  1.0000</r>
       <r>  -2.3756  1.0000</r>
       <r>  -1.1498  1.0000</r>
       <r>  -1.1498  1.0000</r>
       <r>  -0.7467  1.0000</r>
       <r>  -0.7467  1.0000</r>
       <r>  -0.7136  1.0000</r>
       <r>  -0.7136  1.0000</r>
       <r>  -0.5796  1.0000</r>
       <r>  -0.5796  1.0000</r>
       <r>  -0.3997  1.0000</r>
       <r>  -0.3997  1.0000</r>
       <r>  -0.0054  1.0000</r>
       <r>  -0.0054  1.0000</r>
       <r>   0.0913  1.0000</r>
       <r>   0.0913  1.0000</r>
       <r>   0.2649  1.0000</r>
       <r>   0.2649  1.0000</r>
       <r>   0.4671  1.0000</r>
       <r>   0.4671  1.0000</r>
       <r>   0.9735  1.0000</r>
       <r>   0.9735  1.0000</r>
       <r>   3.1488  0.0000</r>
       <r>   3.1488  0.0000</r>
       <r>   7.9287  0.0000</r>
       <r>   7.9287  0.0000</r>
      </set>
      <set comment="kpoint 47">
       <r>  -2.4754  1.0000</r>
       <r>  -1.5786  1.0000</r>
       <r>  -1.5786  1.0000</r>
       <r>  -1.2098  1.0000</r>
       <r>  -0.6948  1.0000</r>
       <r>  -0.6864  1.0000</r>
       <r>  -0.6864  1.0000</r>
       <r>  -0.6474  1.0000</r>
       <r>  -0.5540  1.0000</r>
       <r>  -0.5540  1.0000</r>
       <r>  -0.5182  1.0000</r>
       <r>  -0.3622  1.0000</r>
       <r>  -0.0756  1.0000</r>
       <r>   0.0390  1.0000</r>
       <r>   0.0431  1.0000</r>
       <r>   0.0431  1.0000</r>
       <r>   0.1838  1.0000</r>
       <r>   0.3634  1.0000</r>
       <r>   0.3634  1.0000</r>
       <r>   0.4202  1.0000</r>
       <r>   0.9626  1.0000</r>
       <r>   1.7741  1.0000</r>
       <r>   1.7741  1.0000</r>
       <r>   3.0364  0.0000</r>
       <r>   7.8080  0.0000</r>
       <r>   9.4866  0.0000</r>
      </set>
      <set comment="kpoint 48">
       <r>  -1.9983  1.0000</r>
       <r>  -1.9983  1.0000</r>
       <r>  -1.3615  1.0000</r>
       <r>  -1.3615  1.0000</r>
       <r>  -0.6564  1.0000</r>
       <r>  -0.6564  1.0000</r>
       <r>  -0.6199  1.0000</r>
       <r>  -0.6199  1.0000</r>
       <r>  -0.5831  1.0000</r>
       <r>  -0.5831  1.0000</r>
       <r>  -0.4485  1.0000</r>
       <r>  -0.4485  1.0000</r>
       <r>  -0.0368  1.0000</r>
       <r>  -0.0368  1.0000</r>
       <r>   0.0150  1.0000</r>
       <r>   0.0150  1.0000</r>
       <r>   0.2584  1.0000</r>
       <r>   0.2584  1.0000</r>
       <r>   0.3748  1.0000</r>
       <r>   0.3748  1.0000</r>
       <r>   1.2830  1.0000</r>
       <r>   1.2830  1.0000</r>
       <r>   2.3211  0.0000</r>
       <r>   2.3211  0.0000</r>
       <r>   8.5903  0.0000</r>
       <r>   8.5903  0.0000</r>
      </set>
      <set comment="kpoint 49">
       <r>  -1.6458  1.0000</r>
       <r>  -1.6458  1.0000</r>
       <r>  -1.6458  1.0000</r>
       <r>  -1.6458  1.0000</r>
       <r>  -0.6091  1.0000</r>
       <r>  -0.6091  1.0000</r>
       <r>  -0.6091  1.0000</r>
       <r>  -0.6091  1.0000</r>
       <r>  -0.5145  1.0000</r>
       <r>  -0.5145  1.0000</r>
       <r>  -0.5145  1.0000</r>
       <r>  -0.5145  1.0000</r>
       <r>  -0.0374  1.0000</r>
       <r>  -0.0374  1.0000</r>
       <r>  -0.0374  1.0000</r>
       <r>  -0.0374  1.0000</r>
       <r>   0.2980  1.0000</r>
       <r>   0.2980  1.0000</r>
       <r>   0.2980  1.0000</r>
       <r>   0.2980  1.0000</r>
       <r>   1.7111  1.0000</r>
       <r>   1.7111  1.0000</r>
       <r>   1.7111  1.0000</r>
       <r>   1.7111  1.0000</r>
       <r>   9.3720  0.0000</r>
       <r>   9.3720  0.0000</r>
      </set>
      <set comment="kpoint 50">
       <r>  -4.8411  1.0000</r>
       <r>  -1.4487  1.0000</r>
       <r>  -1.4487  1.0000</r>
       <r>  -1.4487  1.0000</r>
       <r>  -1.1406  1.0000</r>
       <r>  -1.1406  1.0000</r>
       <r>  -1.1406  1.0000</r>
       <r>  -0.4622  1.0000</r>
       <r>  -0.2464  1.0000</r>
       <r>  -0.2464  1.0000</r>
       <r>   0.0846  1.0000</r>
       <r>   0.0846  1.0000</r>
       <r>   0.0846  1.0000</r>
       <r>   0.2245  1.0000</r>
       <r>   0.2245  1.0000</r>
       <r>   0.3799  1.0000</r>
       <r>   0.3799  1.0000</r>
       <r>   0.3799  1.0000</r>
       <r>   0.6883  1.0000</r>
       <r>   0.6883  1.0000</r>
       <r>   0.6883  1.0000</r>
       <r>   3.1749  0.0000</r>
       <r>   3.1749  0.0000</r>
       <r>   3.1749  0.0000</r>
       <r>   9.8398  0.0000</r>
       <r>   9.8398  0.0000</r>
      </set>
      <set comment="kpoint 51">
       <r>  -4.4998  1.0000</r>
       <r>  -1.5225  1.0000</r>
       <r>  -1.3349  1.0000</r>
       <r>  -1.3349  1.0000</r>
       <r>  -1.0701  1.0000</r>
       <r>  -1.0646  1.0000</r>
       <r>  -1.0646  1.0000</r>
       <r>  -0.5049  1.0000</r>
       <r>  -0.2232  1.0000</r>
       <r>  -0.2193  1.0000</r>
       <r>  -0.1166  1.0000</r>
       <r>  -0.1166  1.0000</r>
       <r>  -0.0814  1.0000</r>
       <r>   0.1908  1.0000</r>
       <r>   0.2814  1.0000</r>
       <r>   0.2868  1.0000</r>
       <r>   0.3121  1.0000</r>
       <r>   0.3121  1.0000</r>
       <r>   0.6703  1.0000</r>
       <r>   0.6703  1.0000</r>
       <r>   0.6744  1.0000</r>
       <r>   2.1481  0.0000</r>
       <r>   3.6268  0.0000</r>
       <r>   3.6268  0.0000</r>
       <r>   8.6337  0.0000</r>
       <r>   8.6337  0.0000</r>
      </set>
      <set comment="kpoint 52">
       <r>  -4.0354  1.0000</r>
       <r>  -1.7569  1.0000</r>
       <r>  -1.2044  1.0000</r>
       <r>  -1.2044  1.0000</r>
       <r>  -0.9784  1.0000</r>
       <r>  -0.9702  1.0000</r>
       <r>  -0.9702  1.0000</r>
       <r>  -0.5755  1.0000</r>
       <r>  -0.3224  1.0000</r>
       <r>  -0.3224  1.0000</r>
       <r>  -0.2434  1.0000</r>
       <r>  -0.2114  1.0000</r>
       <r>  -0.1747  1.0000</r>
       <r>   0.1739  1.0000</r>
       <r>   0.1964  1.0000</r>
       <r>   0.2449  1.0000</r>
       <r>   0.2449  1.0000</r>
       <r>   0.3615  1.0000</r>
       <r>   0.6397  1.0000</r>
       <r>   0.6449  1.0000</r>
       <r>   0.6449  1.0000</r>
       <r>   1.3560  1.0000</r>
       <r>   4.1818  0.0000</r>
       <r>   4.1818  0.0000</r>
       <r>   7.5352  0.0000</r>
       <r>   7.5352  0.0000</r>
      </set>
      <set comment="kpoint 53">
       <r>  -3.4677  1.0000</r>
       <r>  -2.2225  1.0000</r>
       <r>  -1.0725  1.0000</r>
       <r>  -1.0725  1.0000</r>
       <r>  -0.9045  1.0000</r>
       <r>  -0.9045  1.0000</r>
       <r>  -0.8747  1.0000</r>
       <r>  -0.6660  1.0000</r>
       <r>  -0.4787  1.0000</r>
       <r>  -0.4787  1.0000</r>
       <r>  -0.3168  1.0000</r>
       <r>  -0.2441  1.0000</r>
       <r>  -0.1110  1.0000</r>
       <r>   0.0678  1.0000</r>
       <r>   0.1797  1.0000</r>
       <r>   0.1797  1.0000</r>
       <r>   0.2930  1.0000</r>
       <r>   0.4409  1.0000</r>
       <r>   0.5861  1.0000</r>
       <r>   0.6260  1.0000</r>
       <r>   0.6260  1.0000</r>
       <r>   0.8277  1.0000</r>
       <r>   4.8133  0.0000</r>
       <r>   4.8133  0.0000</r>
       <r>   6.5774  0.0000</r>
       <r>   6.5774  0.0000</r>
      </set>
      <set comment="kpoint 54">
       <r>  -2.8365  1.0000</r>
       <r>  -2.8365  1.0000</r>
       <r>  -0.9815  1.0000</r>
       <r>  -0.9815  1.0000</r>
       <r>  -0.9179  1.0000</r>
       <r>  -0.9179  1.0000</r>
       <r>  -0.7682  1.0000</r>
       <r>  -0.7682  1.0000</r>
       <r>  -0.5336  1.0000</r>
       <r>  -0.5336  1.0000</r>
       <r>  -0.2981  1.0000</r>
       <r>  -0.2981  1.0000</r>
       <r>  -0.0291  1.0000</r>
       <r>  -0.0291  1.0000</r>
       <r>   0.1498  1.0000</r>
       <r>   0.1498  1.0000</r>
       <r>   0.4959  1.0000</r>
       <r>   0.4959  1.0000</r>
       <r>   0.5179  1.0000</r>
       <r>   0.5179  1.0000</r>
       <r>   0.6194  1.0000</r>
       <r>   0.6194  1.0000</r>
       <r>   5.3095  0.0000</r>
       <r>   5.3095  0.0000</r>
       <r>   5.9723  0.0000</r>
       <r>   5.9723  0.0000</r>
      </set>
      <set comment="kpoint 55">
       <r>  -4.1692  1.0000</r>
       <r>  -1.4067  1.0000</r>
       <r>  -1.4067  1.0000</r>
       <r>  -1.2650  1.0000</r>
       <r>  -0.9911  1.0000</r>
       <r>  -0.9908  1.0000</r>
       <r>  -0.9908  1.0000</r>
       <r>  -0.5198  1.0000</r>
       <r>  -0.2498  1.0000</r>
       <r>  -0.2498  1.0000</r>
       <r>  -0.2249  1.0000</r>
       <r>  -0.2160  1.0000</r>
       <r>  -0.2128  1.0000</r>
       <r>   0.2075  1.0000</r>
       <r>   0.2166  1.0000</r>
       <r>   0.2166  1.0000</r>
       <r>   0.2193  1.0000</r>
       <r>   0.3264  1.0000</r>
       <r>   0.6541  1.0000</r>
       <r>   0.6625  1.0000</r>
       <r>   0.6625  1.0000</r>
       <r>   2.5440  0.0000</r>
       <r>   2.5440  0.0000</r>
       <r>   4.0234  0.0000</r>
       <r>   7.4023  0.0000</r>
       <r>   9.0312  0.0000</r>
      </set>
      <set comment="kpoint 56">
       <r>  -3.7223  1.0000</r>
       <r>  -1.6217  1.0000</r>
       <r>  -1.2850  1.0000</r>
       <r>  -1.1956  1.0000</r>
       <r>  -0.9024  1.0000</r>
       <r>  -0.8956  1.0000</r>
       <r>  -0.8892  1.0000</r>
       <r>  -0.5591  1.0000</r>
       <r>  -0.4048  1.0000</r>
       <r>  -0.3590  1.0000</r>
       <r>  -0.3317  1.0000</r>
       <r>  -0.2346  1.0000</r>
       <r>  -0.1901  1.0000</r>
       <r>   0.1112  1.0000</r>
       <r>   0.1483  1.0000</r>
       <r>   0.1626  1.0000</r>
       <r>   0.2253  1.0000</r>
       <r>   0.4162  1.0000</r>
       <r>   0.6241  1.0000</r>
       <r>   0.6298  1.0000</r>
       <r>   0.6307  1.0000</r>
       <r>   1.6740  1.0000</r>
       <r>   3.0365  0.0000</r>
       <r>   4.5020  0.0000</r>
       <r>   6.3407  0.0000</r>
       <r>   7.9255  0.0000</r>
      </set>
      <set comment="kpoint 57">
       <r>  -3.1825  1.0000</r>
       <r>  -2.0371  1.0000</r>
       <r>  -1.1820  1.0000</r>
       <r>  -1.1394  1.0000</r>
       <r>  -0.8398  1.0000</r>
       <r>  -0.8167  1.0000</r>
       <r>  -0.7947  1.0000</r>
       <r>  -0.6214  1.0000</r>
       <r>  -0.4855  1.0000</r>
       <r>  -0.4185  1.0000</r>
       <r>  -0.3878  1.0000</r>
       <r>  -0.2789  1.0000</r>
       <r>  -0.1459  1.0000</r>
       <r>   0.0096  1.0000</r>
       <r>   0.0947  1.0000</r>
       <r>   0.1090  1.0000</r>
       <r>   0.3151  1.0000</r>
       <r>   0.5288  1.0000</r>
       <r>   0.5680  1.0000</r>
       <r>   0.5970  1.0000</r>
       <r>   0.5996  1.0000</r>
       <r>   1.0655  1.0000</r>
       <r>   3.6196  0.0000</r>
       <r>   4.8004  0.0000</r>
       <r>   5.7072  0.0000</r>
       <r>   6.9536  0.0000</r>
      </set>
      <set comment="kpoint 58">
       <r>  -2.5940  1.0000</r>
       <r>  -2.5940  1.0000</r>
       <r>  -1.1259  1.0000</r>
       <r>  -1.1259  1.0000</r>
       <r>  -0.8158  1.0000</r>
       <r>  -0.8158  1.0000</r>
       <r>  -0.7013  1.0000</r>
       <r>  -0.7013  1.0000</r>
       <r>  -0.4686  1.0000</r>
       <r>  -0.4686  1.0000</r>
       <r>  -0.3452  1.0000</r>
       <r>  -0.3452  1.0000</r>
       <r>  -0.0783  1.0000</r>
       <r>  -0.0783  1.0000</r>
       <r>   0.0774  1.0000</r>
       <r>   0.0774  1.0000</r>
       <r>   0.4589  1.0000</r>
       <r>   0.4589  1.0000</r>
       <r>   0.5870  1.0000</r>
       <r>   0.5870  1.0000</r>
       <r>   0.7056  1.0000</r>
       <r>   0.7056  1.0000</r>
       <r>   4.2803  0.0000</r>
       <r>   4.2803  0.0000</r>
       <r>   6.1387  0.0000</r>
       <r>   6.1387  0.0000</r>
      </set>
      <set comment="kpoint 59">
       <r>  -3.3049  1.0000</r>
       <r>  -1.4831  1.0000</r>
       <r>  -1.4831  1.0000</r>
       <r>  -1.2082  1.0000</r>
       <r>  -0.8121  1.0000</r>
       <r>  -0.7824  1.0000</r>
       <r>  -0.7824  1.0000</r>
       <r>  -0.5522  1.0000</r>
       <r>  -0.4565  1.0000</r>
       <r>  -0.4565  1.0000</r>
       <r>  -0.3503  1.0000</r>
       <r>  -0.2589  1.0000</r>
       <r>  -0.1920  1.0000</r>
       <r>   0.0648  1.0000</r>
       <r>   0.0648  1.0000</r>
       <r>   0.0663  1.0000</r>
       <r>   0.2330  1.0000</r>
       <r>   0.5340  1.0000</r>
       <r>   0.5885  1.0000</r>
       <r>   0.5911  1.0000</r>
       <r>   0.5911  1.0000</r>
       <r>   2.0867  0.9565</r>
       <r>   2.0867  0.9565</r>
       <r>   4.6199  0.0000</r>
       <r>   5.6190  0.0000</r>
       <r>   8.4548  0.0000</r>
      </set>
      <set comment="kpoint 60">
       <r>  -2.8126  1.0000</r>
       <r>  -1.8289  1.0000</r>
       <r>  -1.3690  1.0000</r>
       <r>  -1.2380  1.0000</r>
       <r>  -0.7368  1.0000</r>
       <r>  -0.6935  1.0000</r>
       <r>  -0.6771  1.0000</r>
       <r>  -0.5652  1.0000</r>
       <r>  -0.4822  1.0000</r>
       <r>  -0.4505  1.0000</r>
       <r>  -0.3736  1.0000</r>
       <r>  -0.3093  1.0000</r>
       <r>  -0.1692  1.0000</r>
       <r>  -0.0321  1.0000</r>
       <r>   0.0101  1.0000</r>
       <r>   0.0218  1.0000</r>
       <r>   0.2918  1.0000</r>
       <r>   0.5173  1.0000</r>
       <r>   0.5518  1.0000</r>
       <r>   0.5522  1.0000</r>
       <r>   0.6956  1.0000</r>
       <r>   1.3876  1.0000</r>
       <r>   2.6004  0.0000</r>
       <r>   3.9755  0.0000</r>
       <r>   5.9331  0.0000</r>
       <r>   7.4702  0.0000</r>
      </set>
      <set comment="kpoint 61">
       <r>  -2.2960  1.0000</r>
       <r>  -2.2960  1.0000</r>
       <r>  -1.2888  1.0000</r>
       <r>  -1.2888  1.0000</r>
       <r>  -0.6939  1.0000</r>
       <r>  -0.6939  1.0000</r>
       <r>  -0.6037  1.0000</r>
       <r>  -0.6037  1.0000</r>
       <r>  -0.4200  1.0000</r>
       <r>  -0.4200  1.0000</r>
       <r>  -0.3881  1.0000</r>
       <r>  -0.3881  1.0000</r>
       <r>  -0.1137  1.0000</r>
       <r>  -0.1137  1.0000</r>
       <r>  -0.0057  1.0000</r>
       <r>  -0.0057  1.0000</r>
       <r>   0.4057  1.0000</r>
       <r>   0.4057  1.0000</r>
       <r>   0.5360  1.0000</r>
       <r>   0.5360  1.0000</r>
       <r>   0.9469  1.0000</r>
       <r>   0.9469  1.0000</r>
       <r>   3.2321  0.0000</r>
       <r>   3.2321  0.0000</r>
       <r>   6.6221  0.0000</r>
       <r>   6.6221  0.0000</r>
      </set>
      <set comment="kpoint 62">
       <r>  -2.3960  1.0000</r>
       <r>  -1.6364  1.0000</r>
       <r>  -1.6364  1.0000</r>
       <r>  -1.3494  1.0000</r>
       <r>  -0.6405  1.0000</r>
       <r>  -0.5615  1.0000</r>
       <r>  -0.5615  1.0000</r>
       <r>  -0.5136  1.0000</r>
       <r>  -0.4737  1.0000</r>
       <r>  -0.4737  1.0000</r>
       <r>  -0.3556  1.0000</r>
       <r>  -0.3487  1.0000</r>
       <r>  -0.1755  1.0000</r>
       <r>  -0.0668  1.0000</r>
       <r>  -0.0668  1.0000</r>
       <r>  -0.0564  1.0000</r>
       <r>   0.3045  1.0000</r>
       <r>   0.4744  1.0000</r>
       <r>   0.4744  1.0000</r>
       <r>   0.5004  1.0000</r>
       <r>   0.9212  1.0000</r>
       <r>   1.8074  1.0000</r>
       <r>   1.8074  1.0000</r>
       <r>   3.0926  0.0000</r>
       <r>   6.5150  0.0000</r>
       <r>   8.1171  0.0000</r>
      </set>
      <set comment="kpoint 63">
       <r>  -1.9866  1.0000</r>
       <r>  -1.9866  1.0000</r>
       <r>  -1.4782  1.0000</r>
       <r>  -1.4782  1.0000</r>
       <r>  -0.5746  1.0000</r>
       <r>  -0.5746  1.0000</r>
       <r>  -0.4901  1.0000</r>
       <r>  -0.4901  1.0000</r>
       <r>  -0.4269  1.0000</r>
       <r>  -0.4269  1.0000</r>
       <r>  -0.3929  1.0000</r>
       <r>  -0.3929  1.0000</r>
       <r>  -0.1397  1.0000</r>
       <r>  -0.1397  1.0000</r>
       <r>  -0.0839  1.0000</r>
       <r>  -0.0839  1.0000</r>
       <r>   0.3773  1.0000</r>
       <r>   0.3773  1.0000</r>
       <r>   0.4667  1.0000</r>
       <r>   0.4667  1.0000</r>
       <r>   1.2624  1.0000</r>
       <r>   1.2624  1.0000</r>
       <r>   2.3657  0.0000</r>
       <r>   2.3657  0.0000</r>
       <r>   7.2496  0.0000</r>
       <r>   7.2496  0.0000</r>
      </set>
      <set comment="kpoint 64">
       <r>  -1.7082  1.0000</r>
       <r>  -1.7082  1.0000</r>
       <r>  -1.7082  1.0000</r>
       <r>  -1.7082  1.0000</r>
       <r>  -0.4834  1.0000</r>
       <r>  -0.4834  1.0000</r>
       <r>  -0.4834  1.0000</r>
       <r>  -0.4834  1.0000</r>
       <r>  -0.4069  1.0000</r>
       <r>  -0.4069  1.0000</r>
       <r>  -0.4069  1.0000</r>
       <r>  -0.4069  1.0000</r>
       <r>  -0.1363  1.0000</r>
       <r>  -0.1363  1.0000</r>
       <r>  -0.1363  1.0000</r>
       <r>  -0.1363  1.0000</r>
       <r>   0.4007  1.0000</r>
       <r>   0.4007  1.0000</r>
       <r>   0.4007  1.0000</r>
       <r>   0.4007  1.0000</r>
       <r>   1.7145  1.0000</r>
       <r>   1.7145  1.0000</r>
       <r>   1.7145  1.0000</r>
       <r>   1.7145  1.0000</r>
       <r>   8.0063  0.0000</r>
       <r>   8.0063  0.0000</r>
      </set>
      <set comment="kpoint 65">
       <r>  -3.8535  1.0000</r>
       <r>  -1.3575  1.0000</r>
       <r>  -1.3575  1.0000</r>
       <r>  -1.3575  1.0000</r>
       <r>  -0.9032  1.0000</r>
       <r>  -0.9032  1.0000</r>
       <r>  -0.9032  1.0000</r>
       <r>  -0.5047  1.0000</r>
       <r>  -0.3042  1.0000</r>
       <r>  -0.3042  1.0000</r>
       <r>  -0.3042  1.0000</r>
       <r>  -0.2318  1.0000</r>
       <r>  -0.2318  1.0000</r>
       <r>   0.1163  1.0000</r>
       <r>   0.1163  1.0000</r>
       <r>   0.1163  1.0000</r>
       <r>   0.3018  1.0000</r>
       <r>   0.3018  1.0000</r>
       <r>   0.6706  1.0000</r>
       <r>   0.6706  1.0000</r>
       <r>   0.6706  1.0000</r>
       <r>   2.8803  0.0000</r>
       <r>   2.8803  0.0000</r>
       <r>   2.8803  0.0000</r>
       <r>   7.7939  0.0000</r>
       <r>   7.7939  0.0000</r>
      </set>
      <set comment="kpoint 66">
       <r>  -3.4317  1.0000</r>
       <r>  -1.5658  1.0000</r>
       <r>  -1.3168  1.0000</r>
       <r>  -1.3168  1.0000</r>
       <r>  -0.8030  1.0000</r>
       <r>  -0.8030  1.0000</r>
       <r>  -0.7908  1.0000</r>
       <r>  -0.5042  1.0000</r>
       <r>  -0.3729  1.0000</r>
       <r>  -0.3549  1.0000</r>
       <r>  -0.3549  1.0000</r>
       <r>  -0.2484  1.0000</r>
       <r>  -0.2300  1.0000</r>
       <r>   0.0137  1.0000</r>
       <r>   0.0497  1.0000</r>
       <r>   0.0497  1.0000</r>
       <r>   0.3206  1.0000</r>
       <r>   0.3996  1.0000</r>
       <r>   0.6480  1.0000</r>
       <r>   0.6480  1.0000</r>
       <r>   0.6625  1.0000</r>
       <r>   1.9257  1.0000</r>
       <r>   3.3109  0.0000</r>
       <r>   3.3109  0.0000</r>
       <r>   6.7121  0.0000</r>
       <r>   6.7121  0.0000</r>
      </set>
      <set comment="kpoint 67">
       <r>  -2.9323  1.0000</r>
       <r>  -1.9240  1.0000</r>
       <r>  -1.2898  1.0000</r>
       <r>  -1.2898  1.0000</r>
       <r>  -0.7383  1.0000</r>
       <r>  -0.7383  1.0000</r>
       <r>  -0.6752  1.0000</r>
       <r>  -0.5285  1.0000</r>
       <r>  -0.3913  1.0000</r>
       <r>  -0.3622  1.0000</r>
       <r>  -0.3622  1.0000</r>
       <r>  -0.2931  1.0000</r>
       <r>  -0.2035  1.0000</r>
       <r>  -0.0782  1.0000</r>
       <r>   0.0029  1.0000</r>
       <r>   0.0029  1.0000</r>
       <r>   0.4450  1.0000</r>
       <r>   0.4913  1.0000</r>
       <r>   0.6174  1.0000</r>
       <r>   0.6174  1.0000</r>
       <r>   0.6281  1.0000</r>
       <r>   1.2075  1.0000</r>
       <r>   3.7899  0.0000</r>
       <r>   3.7899  0.0000</r>
       <r>   5.8370  0.0000</r>
       <r>   5.8370  0.0000</r>
      </set>
      <set comment="kpoint 68">
       <r>  -2.4048  1.0000</r>
       <r>  -2.4048  1.0000</r>
       <r>  -1.2800  1.0000</r>
       <r>  -1.2800  1.0000</r>
       <r>  -0.7225  1.0000</r>
       <r>  -0.7225  1.0000</r>
       <r>  -0.5833  1.0000</r>
       <r>  -0.5833  1.0000</r>
       <r>  -0.3555  1.0000</r>
       <r>  -0.3555  1.0000</r>
       <r>  -0.3487  1.0000</r>
       <r>  -0.3487  1.0000</r>
       <r>  -0.1522  1.0000</r>
       <r>  -0.1522  1.0000</r>
       <r>  -0.0182  1.0000</r>
       <r>  -0.0182  1.0000</r>
       <r>   0.5695  1.0000</r>
       <r>   0.5695  1.0000</r>
       <r>   0.6033  1.0000</r>
       <r>   0.6033  1.0000</r>
       <r>   0.7264  1.0000</r>
       <r>   0.7264  1.0000</r>
       <r>   4.0822  0.0000</r>
       <r>   4.0822  0.0000</r>
       <r>   5.4114  0.0000</r>
       <r>   5.4114  0.0000</r>
      </set>
      <set comment="kpoint 69">
       <r>  -3.0524  1.0000</r>
       <r>  -1.5170  1.0000</r>
       <r>  -1.5170  1.0000</r>
       <r>  -1.3581  1.0000</r>
       <r>  -0.7105  1.0000</r>
       <r>  -0.6761  1.0000</r>
       <r>  -0.6761  1.0000</r>
       <r>  -0.4402  1.0000</r>
       <r>  -0.3672  1.0000</r>
       <r>  -0.3672  1.0000</r>
       <r>  -0.2992  1.0000</r>
       <r>  -0.2660  1.0000</r>
       <r>  -0.2509  1.0000</r>
       <r>  -0.0479  1.0000</r>
       <r>  -0.0479  1.0000</r>
       <r>  -0.0361  1.0000</r>
       <r>   0.3480  1.0000</r>
       <r>   0.4840  1.0000</r>
       <r>   0.6346  1.0000</r>
       <r>   0.6464  1.0000</r>
       <r>   0.6464  1.0000</r>
       <r>   2.2839  0.0000</r>
       <r>   2.2839  0.0000</r>
       <r>   3.6119  0.0000</r>
       <r>   5.7374  0.0000</r>
       <r>   7.2256  0.0000</r>
      </set>
      <set comment="kpoint 70">
       <r>  -2.6198  1.0000</r>
       <r>  -1.8078  1.0000</r>
       <r>  -1.4766  1.0000</r>
       <r>  -1.4002  1.0000</r>
       <r>  -0.6449  1.0000</r>
       <r>  -0.6166  1.0000</r>
       <r>  -0.5399  1.0000</r>
       <r>  -0.3961  1.0000</r>
       <r>  -0.3679  1.0000</r>
       <r>  -0.3096  1.0000</r>
       <r>  -0.3063  1.0000</r>
       <r>  -0.2471  1.0000</r>
       <r>  -0.2405  1.0000</r>
       <r>  -0.1335  1.0000</r>
       <r>  -0.0898  1.0000</r>
       <r>  -0.0864  1.0000</r>
       <r>   0.4202  1.0000</r>
       <r>   0.6065  1.0000</r>
       <r>   0.6117  1.0000</r>
       <r>   0.6122  1.0000</r>
       <r>   0.6299  1.0000</r>
       <r>   1.4737  1.0000</r>
       <r>   2.7437  0.0000</r>
       <r>   3.6823  0.0000</r>
       <r>   5.2713  0.0000</r>
       <r>   6.2926  0.0000</r>
      </set>
      <set comment="kpoint 71">
       <r>  -2.1864  1.0000</r>
       <r>  -2.1864  1.0000</r>
       <r>  -1.4393  1.0000</r>
       <r>  -1.4393  1.0000</r>
       <r>  -0.6147  1.0000</r>
       <r>  -0.6147  1.0000</r>
       <r>  -0.4213  1.0000</r>
       <r>  -0.4213  1.0000</r>
       <r>  -0.3604  1.0000</r>
       <r>  -0.3604  1.0000</r>
       <r>  -0.2399  1.0000</r>
       <r>  -0.2399  1.0000</r>
       <r>  -0.1995  1.0000</r>
       <r>  -0.1995  1.0000</r>
       <r>  -0.1077  1.0000</r>
       <r>  -0.1077  1.0000</r>
       <r>   0.5368  1.0000</r>
       <r>   0.5368  1.0000</r>
       <r>   0.5926  1.0000</r>
       <r>   0.5926  1.0000</r>
       <r>   0.9201  1.0000</r>
       <r>   0.9201  1.0000</r>
       <r>   3.2740  0.0000</r>
       <r>   3.2740  0.0000</r>
       <r>   5.5739  0.0000</r>
       <r>   5.5739  0.0000</r>
      </set>
      <set comment="kpoint 72">
       <r>  -2.2857  1.0000</r>
       <r>  -1.7016  1.0000</r>
       <r>  -1.7016  1.0000</r>
       <r>  -1.5045  1.0000</r>
       <r>  -0.5653  1.0000</r>
       <r>  -0.4964  1.0000</r>
       <r>  -0.4964  1.0000</r>
       <r>  -0.3422  1.0000</r>
       <r>  -0.2591  1.0000</r>
       <r>  -0.2591  1.0000</r>
       <r>  -0.2569  1.0000</r>
       <r>  -0.2560  1.0000</r>
       <r>  -0.1600  1.0000</r>
       <r>  -0.1582  1.0000</r>
       <r>  -0.1582  1.0000</r>
       <r>  -0.1551  1.0000</r>
       <r>   0.4184  1.0000</r>
       <r>   0.5699  1.0000</r>
       <r>   0.5699  1.0000</r>
       <r>   0.5742  1.0000</r>
       <r>   0.8504  1.0000</r>
       <r>   1.8699  1.0000</r>
       <r>   1.8699  1.0000</r>
       <r>   3.0817  0.0000</r>
       <r>   5.4929  0.0000</r>
       <r>   6.9038  0.0000</r>
      </set>
      <set comment="kpoint 73">
       <r>  -1.9717  1.0000</r>
       <r>  -1.9717  1.0000</r>
       <r>  -1.6031  1.0000</r>
       <r>  -1.6031  1.0000</r>
       <r>  -0.5150  1.0000</r>
       <r>  -0.5150  1.0000</r>
       <r>  -0.4004  1.0000</r>
       <r>  -0.4004  1.0000</r>
       <r>  -0.2475  1.0000</r>
       <r>  -0.2475  1.0000</r>
       <r>  -0.1955  1.0000</r>
       <r>  -0.1955  1.0000</r>
       <r>  -0.1913  1.0000</r>
       <r>  -0.1913  1.0000</r>
       <r>  -0.1392  1.0000</r>
       <r>  -0.1392  1.0000</r>
       <r>   0.4907  1.0000</r>
       <r>   0.4907  1.0000</r>
       <r>   0.5510  1.0000</r>
       <r>   0.5510  1.0000</r>
       <r>   1.2331  1.0000</r>
       <r>   1.2331  1.0000</r>
       <r>   2.4133  0.0000</r>
       <r>   2.4133  0.0000</r>
       <r>   6.0982  0.0000</r>
       <r>   6.0982  0.0000</r>
      </set>
      <set comment="kpoint 74">
       <r>  -1.7778  1.0000</r>
       <r>  -1.7778  1.0000</r>
       <r>  -1.7778  1.0000</r>
       <r>  -1.7778  1.0000</r>
       <r>  -0.4411  1.0000</r>
       <r>  -0.4411  1.0000</r>
       <r>  -0.4411  1.0000</r>
       <r>  -0.4411  1.0000</r>
       <r>  -0.2289  1.0000</r>
       <r>  -0.2289  1.0000</r>
       <r>  -0.2289  1.0000</r>
       <r>  -0.2289  1.0000</r>
       <r>  -0.1151  1.0000</r>
       <r>  -0.1151  1.0000</r>
       <r>  -0.1151  1.0000</r>
       <r>  -0.1151  1.0000</r>
       <r>   0.4984  1.0000</r>
       <r>   0.4984  1.0000</r>
       <r>   0.4984  1.0000</r>
       <r>   0.4984  1.0000</r>
       <r>   1.7180  1.0000</r>
       <r>   1.7180  1.0000</r>
       <r>   1.7180  1.0000</r>
       <r>   1.7180  1.0000</r>
       <r>   6.8003  0.0000</r>
       <r>   6.8003  0.0000</r>
      </set>
      <set comment="kpoint 75">
       <r>  -2.7354  1.0000</r>
       <r>  -1.5505  1.0000</r>
       <r>  -1.5505  1.0000</r>
       <r>  -1.5505  1.0000</r>
       <r>  -0.5895  1.0000</r>
       <r>  -0.5895  1.0000</r>
       <r>  -0.5895  1.0000</r>
       <r>  -0.2834  1.0000</r>
       <r>  -0.2834  1.0000</r>
       <r>  -0.2782  1.0000</r>
       <r>  -0.2409  1.0000</r>
       <r>  -0.2409  1.0000</r>
       <r>  -0.2409  1.0000</r>
       <r>  -0.1309  1.0000</r>
       <r>  -0.1309  1.0000</r>
       <r>  -0.1309  1.0000</r>
       <r>   0.4538  1.0000</r>
       <r>   0.4538  1.0000</r>
       <r>   0.6560  1.0000</r>
       <r>   0.6560  1.0000</r>
       <r>   0.6560  1.0000</r>
       <r>   2.5574  0.0000</r>
       <r>   2.5574  0.0000</r>
       <r>   2.5574  0.0000</r>
       <r>   6.1836  0.0000</r>
       <r>   6.1836  0.0000</r>
      </set>
      <set comment="kpoint 76">
       <r>  -2.3934  1.0000</r>
       <r>  -1.7857  1.0000</r>
       <r>  -1.5744  1.0000</r>
       <r>  -1.5744  1.0000</r>
       <r>  -0.5430  1.0000</r>
       <r>  -0.5430  1.0000</r>
       <r>  -0.4714  1.0000</r>
       <r>  -0.3179  1.0000</r>
       <r>  -0.2871  1.0000</r>
       <r>  -0.2082  1.0000</r>
       <r>  -0.1831  1.0000</r>
       <r>  -0.1831  1.0000</r>
       <r>  -0.1770  1.0000</r>
       <r>  -0.1346  1.0000</r>
       <r>  -0.1105  1.0000</r>
       <r>  -0.1105  1.0000</r>
       <r>   0.5430  1.0000</r>
       <r>   0.5603  1.0000</r>
       <r>   0.6354  1.0000</r>
       <r>   0.6354  1.0000</r>
       <r>   0.6477  1.0000</r>
       <r>   1.6565  1.0000</r>
       <r>   2.8580  0.0000</r>
       <r>   2.8580  0.0000</r>
       <r>   5.4064  0.0000</r>
       <r>   5.4064  0.0000</r>
      </set>
      <set comment="kpoint 77">
       <r>  -2.0682  1.0000</r>
       <r>  -2.0682  1.0000</r>
       <r>  -1.5830  1.0000</r>
       <r>  -1.5830  1.0000</r>
       <r>  -0.5295  1.0000</r>
       <r>  -0.5295  1.0000</r>
       <r>  -0.3784  1.0000</r>
       <r>  -0.3784  1.0000</r>
       <r>  -0.2615  1.0000</r>
       <r>  -0.2615  1.0000</r>
       <r>  -0.1981  1.0000</r>
       <r>  -0.1981  1.0000</r>
       <r>  -0.1205  1.0000</r>
       <r>  -0.1205  1.0000</r>
       <r>  -0.0551  1.0000</r>
       <r>  -0.0551  1.0000</r>
       <r>   0.6092  1.0000</r>
       <r>   0.6092  1.0000</r>
       <r>   0.6201  1.0000</r>
       <r>   0.6201  1.0000</r>
       <r>   0.9686  1.0000</r>
       <r>   0.9686  1.0000</r>
       <r>   3.0151  0.0000</r>
       <r>   3.0151  0.0000</r>
       <r>   5.0874  0.0000</r>
       <r>   5.0874  0.0000</r>
      </set>
      <set comment="kpoint 78">
       <r>  -2.1648  1.0000</r>
       <r>  -1.7572  1.0000</r>
       <r>  -1.7572  1.0000</r>
       <r>  -1.6547  1.0000</r>
       <r>  -0.4861  1.0000</r>
       <r>  -0.4502  1.0000</r>
       <r>  -0.4502  1.0000</r>
       <r>  -0.3322  1.0000</r>
       <r>  -0.3130  1.0000</r>
       <r>  -0.2526  1.0000</r>
       <r>  -0.2526  1.0000</r>
       <r>  -0.2399  1.0000</r>
       <r>   0.0236  1.0000</r>
       <r>   0.0236  1.0000</r>
       <r>   0.0470  1.0000</r>
       <r>   0.1289  1.0000</r>
       <r>   0.5159  1.0000</r>
       <r>   0.6251  1.0000</r>
       <r>   0.6307  1.0000</r>
       <r>   0.6307  1.0000</r>
       <r>   0.7487  1.0000</r>
       <r>   1.9681  1.0000</r>
       <r>   1.9681  1.0000</r>
       <r>   2.7597  0.0000</r>
       <r>   5.0304  0.0000</r>
       <r>   5.9001  0.0000</r>
      </set>
      <set comment="kpoint 79">
       <r>  -1.9521  1.0000</r>
       <r>  -1.9521  1.0000</r>
       <r>  -1.7151  1.0000</r>
       <r>  -1.7151  1.0000</r>
       <r>  -0.4545  1.0000</r>
       <r>  -0.4545  1.0000</r>
       <r>  -0.3785  1.0000</r>
       <r>  -0.3785  1.0000</r>
       <r>  -0.2979  1.0000</r>
       <r>  -0.2979  1.0000</r>
       <r>  -0.2648  1.0000</r>
       <r>  -0.2648  1.0000</r>
       <r>   0.1139  1.0000</r>
       <r>   0.1139  1.0000</r>
       <r>   0.1399  1.0000</r>
       <r>   0.1399  1.0000</r>
       <r>   0.5849  1.0000</r>
       <r>   0.5849  1.0000</r>
       <r>   0.6108  1.0000</r>
       <r>   0.6108  1.0000</r>
       <r>   1.2215  1.0000</r>
       <r>   1.2215  1.0000</r>
       <r>   2.3861  0.0000</r>
       <r>   2.3861  0.0000</r>
       <r>   5.2630  0.0000</r>
       <r>   5.2630  0.0000</r>
      </set>
      <set comment="kpoint 80">
       <r>  -1.8365  1.0000</r>
       <r>  -1.8365  1.0000</r>
       <r>  -1.8365  1.0000</r>
       <r>  -1.8365  1.0000</r>
       <r>  -0.4010  1.0000</r>
       <r>  -0.4010  1.0000</r>
       <r>  -0.4010  1.0000</r>
       <r>  -0.4010  1.0000</r>
       <r>  -0.3013  1.0000</r>
       <r>  -0.3013  1.0000</r>
       <r>  -0.3013  1.0000</r>
       <r>  -0.3013  1.0000</r>
       <r>   0.2203  1.0000</r>
       <r>   0.2203  1.0000</r>
       <r>   0.2203  1.0000</r>
       <r>   0.2203  1.0000</r>
       <r>   0.5759  1.0000</r>
       <r>   0.5759  1.0000</r>
       <r>   0.5759  1.0000</r>
       <r>   0.5759  1.0000</r>
       <r>   1.7181  1.0000</r>
       <r>   1.7181  1.0000</r>
       <r>   1.7181  1.0000</r>
       <r>   1.7181  1.0000</r>
       <r>   5.8120  0.0000</r>
       <r>   5.8120  0.0000</r>
      </set>
      <set comment="kpoint 81">
       <r>  -2.0438  1.0000</r>
       <r>  -1.7937  1.0000</r>
       <r>  -1.7937  1.0000</r>
       <r>  -1.7937  1.0000</r>
       <r>  -0.4175  1.0000</r>
       <r>  -0.4175  1.0000</r>
       <r>  -0.4175  1.0000</r>
       <r>  -0.3400  1.0000</r>
       <r>  -0.3400  1.0000</r>
       <r>  -0.3020  1.0000</r>
       <r>  -0.3020  1.0000</r>
       <r>  -0.3020  1.0000</r>
       <r>   0.2520  1.0000</r>
       <r>   0.2520  1.0000</r>
       <r>   0.2520  1.0000</r>
       <r>   0.5895  1.0000</r>
       <r>   0.5895  1.0000</r>
       <r>   0.6460  1.0000</r>
       <r>   0.6460  1.0000</r>
       <r>   0.6460  1.0000</r>
       <r>   0.6891  1.0000</r>
       <r>   2.0862  0.9619</r>
       <r>   2.0862  0.9619</r>
       <r>   2.0862  0.9619</r>
       <r>   5.1927  0.0000</r>
       <r>   5.1927  0.0000</r>
      </set>
      <set comment="kpoint 82">
       <r>  -1.9219  1.0000</r>
       <r>  -1.9219  1.0000</r>
       <r>  -1.8064  1.0000</r>
       <r>  -1.8064  1.0000</r>
       <r>  -0.4046  1.0000</r>
       <r>  -0.4046  1.0000</r>
       <r>  -0.3679  1.0000</r>
       <r>  -0.3679  1.0000</r>
       <r>  -0.3362  1.0000</r>
       <r>  -0.3362  1.0000</r>
       <r>  -0.3204  1.0000</r>
       <r>  -0.3204  1.0000</r>
       <r>   0.3531  1.0000</r>
       <r>   0.3531  1.0000</r>
       <r>   0.4422  1.0000</r>
       <r>   0.4422  1.0000</r>
       <r>   0.6340  1.0000</r>
       <r>   0.6340  1.0000</r>
       <r>   0.6364  1.0000</r>
       <r>   0.6364  1.0000</r>
       <r>   1.3389  1.0000</r>
       <r>   1.3389  1.0000</r>
       <r>   2.1478  0.0000</r>
       <r>   2.1478  0.0000</r>
       <r>   4.9253  0.0000</r>
       <r>   4.9253  0.0000</r>
      </set>
      <set comment="kpoint 83">
       <r>  -1.8749  1.0000</r>
       <r>  -1.8749  1.0000</r>
       <r>  -1.8749  1.0000</r>
       <r>  -1.8749  1.0000</r>
       <r>  -0.3728  1.0000</r>
       <r>  -0.3728  1.0000</r>
       <r>  -0.3728  1.0000</r>
       <r>  -0.3728  1.0000</r>
       <r>  -0.3471  1.0000</r>
       <r>  -0.3471  1.0000</r>
       <r>  -0.3471  1.0000</r>
       <r>  -0.3471  1.0000</r>
       <r>   0.5164  1.0000</r>
       <r>   0.5164  1.0000</r>
       <r>   0.5164  1.0000</r>
       <r>   0.5164  1.0000</r>
       <r>   0.6254  1.0000</r>
       <r>   0.6254  1.0000</r>
       <r>   0.6254  1.0000</r>
       <r>   0.6254  1.0000</r>
       <r>   1.7126  1.0000</r>
       <r>   1.7126  1.0000</r>
       <r>   1.7126  1.0000</r>
       <r>   1.7126  1.0000</r>
       <r>   5.1288  0.0000</r>
       <r>   5.1288  0.0000</r>
      </set>
      <set comment="kpoint 84">
       <r>  -1.8881  1.0000</r>
       <r>  -1.8881  1.0000</r>
       <r>  -1.8881  1.0000</r>
       <r>  -1.8881  1.0000</r>
       <r>  -0.3627  1.0000</r>
       <r>  -0.3627  1.0000</r>
       <r>  -0.3627  1.0000</r>
       <r>  -0.3627  1.0000</r>
       <r>  -0.3627  1.0000</r>
       <r>  -0.3627  1.0000</r>
       <r>  -0.3627  1.0000</r>
       <r>  -0.3627  1.0000</r>
       <r>   0.6424  1.0000</r>
       <r>   0.6424  1.0000</r>
       <r>   0.6424  1.0000</r>
       <r>   0.6424  1.0000</r>
       <r>   0.6424  1.0000</r>
       <r>   0.6424  1.0000</r>
       <r>   0.6424  1.0000</r>
       <r>   0.6424  1.0000</r>
       <r>   1.7078  1.0000</r>
       <r>   1.7078  1.0000</r>
       <r>   1.7078  1.0000</r>
       <r>   1.7078  1.0000</r>
       <r>   4.8766  0.0000</r>
       <r>   4.8766  0.0000</r>
      </set>
     </set>
    </set>
   </array>
  </eigenvalues>
 </calculation>
 <structure name="finalpos" >
  <crystal>
   <varray name="basis" >
    <v>       3.89096492      0.00000000      0.00000000</v>
    <v>       0.00000000      3.89096492      0.00000000</v>
    <v>       0.00000000      0.00000000      3.89096492</v>
   </varray>
   <i name="volume">     58.90768360</i>
   <varray name="rec_basis" >
    <v>       0.25700566      0.00000000      0.00000000</v>
    <v>       0.00000000      0.25700566      0.00000000</v>
    <v>       0.00000000      0.00000000      0.25700566</v>
   </varray>
  </crystal>
  <varray name="positions" >
   <v>       0.00000000      0.00000000      0.00000000</v>
   <v>       0.50000000      0.50000000      0.00000000</v>
   <v>       0.50000000      0.00000000      0.50000000</v>
   <v>       0.00000000      0.50000000      0.50000000</v>
  </varray>
 </structure>
</modeling>
