   4   4   0   0
  0.1391645E+02  0.3818237E-09  0.3818237E-09  0.3818237E-09  0.5000000E-15
  1.000000000000000E-004
  CAR 
 unknown system                          
     12.10438599     -6.51661374  301      2.49034706      1.00000000
     -6.517  0.0000E+00  0.0000E+00
     -6.455  0.0000E+00  0.0000E+00
     -6.392  0.0000E+00  0.0000E+00
     -6.330  0.0000E+00  0.0000E+00
     -6.268  0.0000E+00  0.0000E+00
     -6.206  0.0000E+00  0.0000E+00
     -6.144  0.0000E+00  0.0000E+00
     -6.082  0.0000E+00  0.0000E+00
     -6.020  0.0000E+00  0.0000E+00
     -5.958  0.0000E+00  0.0000E+00
     -5.896  0.0000E+00  0.0000E+00
     -5.834  0.0000E+00  0.0000E+00
     -5.772  0.0000E+00  0.0000E+00
     -5.710  0.2166E-09  0.1345E-10
     -5.648  0.1863E-01  0.1157E-02
     -5.586  0.1019E+00  0.7479E-02
     -5.523  0.8155E-01  0.1254E-01
     -5.461  0.1541E+00  0.2211E-01
     -5.399  0.1473E+00  0.3125E-01
     -5.337  0.1119E+00  0.3819E-01
     -5.275  0.4470E+00  0.6594E-01
     -5.213  0.4130E+00  0.9160E-01
     -5.151  0.3456E-01  0.9375E-01
     -5.089  0.7984E-02  0.9425E-01
     -5.027  0.2160E+00  0.1077E+00
     -4.965  0.5592E+00  0.1424E+00
     -4.903  0.4475E+00  0.1701E+00
     -4.841  0.4438E+00  0.1977E+00
     -4.779  0.1373E+00  0.2062E+00
     -4.717  0.1699E+00  0.2168E+00
     -4.655  0.3419E+00  0.2380E+00
     -4.592  0.8463E+00  0.2905E+00
     -4.530  0.3032E-06  0.2905E+00
     -4.468  0.1119E+00  0.2975E+00
     -4.406  0.8946E+00  0.3530E+00
     -4.344  0.6585E+00  0.3939E+00
     -4.282  0.4234E+00  0.4202E+00
     -4.220  0.2430E+00  0.4352E+00
     -4.158  0.4166E+00  0.4611E+00
     -4.096  0.8242E+00  0.5123E+00
     -4.034  0.3432E+00  0.5336E+00
     -3.972  0.1247E-02  0.5336E+00
     -3.910  0.4463E+00  0.5613E+00
     -3.848  0.5594E+00  0.5961E+00
     -3.786  0.1343E+01  0.6794E+00
     -3.723  0.5957E+00  0.7164E+00
     -3.661  0.1407E-05  0.7164E+00
     -3.599  0.1327E+01  0.7988E+00
     -3.537  0.8738E+00  0.8530E+00
     -3.475  0.3696E-01  0.8553E+00
     -3.413  0.1852E+00  0.8668E+00
     -3.351  0.9042E+00  0.9229E+00
     -3.289  0.7767E+00  0.9712E+00
     -3.227  0.9456E+00  0.1030E+01
     -3.165  0.6497E+00  0.1070E+01
     -3.103  0.4277E+00  0.1097E+01
     -3.041  0.1353E+01  0.1181E+01
     -2.979  0.1642E-01  0.1182E+01
     -2.917  0.8874E+00  0.1237E+01
     -2.854  0.1334E+01  0.1320E+01
     -2.792  0.1357E+01  0.1404E+01
     -2.730  0.7158E-02  0.1404E+01
     -2.668  0.1335E+01  0.1487E+01
     -2.606  0.6450E+00  0.1527E+01
     -2.544  0.8467E+00  0.1580E+01
     -2.482  0.9074E+00  0.1636E+01
     -2.420  0.1298E+01  0.1717E+01
     -2.358  0.7921E+00  0.1766E+01
     -2.296  0.4712E+00  0.1795E+01
     -2.234  0.2941E+01  0.1978E+01
     -2.172  0.1127E+01  0.2048E+01
     -2.110  0.1302E+01  0.2128E+01
     -2.048  0.1023E+01  0.2192E+01
     -1.986  0.1416E+01  0.2280E+01
     -1.923  0.1196E+01  0.2354E+01
     -1.861  0.1674E+01  0.2458E+01
     -1.799  0.4341E+01  0.2728E+01
     -1.737  0.1623E+01  0.2828E+01
     -1.675  0.3627E+01  0.3053E+01
     -1.613  0.3707E+01  0.3284E+01
     -1.551  0.3243E+01  0.3485E+01
     -1.489  0.4196E+01  0.3745E+01
     -1.427  0.5820E+01  0.4107E+01
     -1.365  0.6730E+01  0.4524E+01
     -1.303  0.5057E+01  0.4839E+01
     -1.241  0.6381E+01  0.5235E+01
     -1.179  0.5819E+01  0.5596E+01
     -1.117  0.6231E+01  0.5983E+01
     -1.054  0.1226E+02  0.6744E+01
     -0.992  0.8510E+01  0.7272E+01
     -0.930  0.1186E+02  0.8009E+01
     -0.868  0.1169E+02  0.8735E+01
     -0.806  0.1103E+02  0.9420E+01
     -0.744  0.9310E+01  0.9998E+01
     -0.682  0.1219E+02  0.1075E+02
     -0.620  0.1012E+02  0.1138E+02
     -0.558  0.1058E+02  0.1204E+02
     -0.496  0.8619E+01  0.1257E+02
     -0.434  0.1632E+02  0.1359E+02
     -0.372  0.1270E+02  0.1438E+02
     -0.310  0.1519E+02  0.1532E+02
     -0.248  0.1644E+02  0.1634E+02
     -0.185  0.1837E+02  0.1748E+02
     -0.123  0.1819E+02  0.1861E+02
     -0.061  0.2068E+02  0.1989E+02
      0.001  0.2042E+02  0.2116E+02
      0.063  0.2830E+02  0.2292E+02
      0.125  0.1711E+02  0.2398E+02
      0.187  0.1520E+02  0.2492E+02
      0.249  0.1366E+02  0.2577E+02
      0.311  0.1323E+02  0.2659E+02
      0.373  0.1407E+02  0.2747E+02
      0.435  0.2049E+02  0.2874E+02
      0.497  0.1823E+02  0.2987E+02
      0.559  0.1844E+02  0.3102E+02
      0.621  0.1957E+02  0.3223E+02
      0.684  0.1646E+02  0.3325E+02
      0.746  0.1637E+02  0.3427E+02
      0.808  0.1799E+02  0.3539E+02
      0.870  0.1662E+02  0.3642E+02
      0.932  0.2765E+02  0.3813E+02
      0.994  0.3258E+02  0.4016E+02
      1.056  0.1674E+02  0.4120E+02
      1.118  0.1236E+02  0.4196E+02
      1.180  0.3793E+00  0.4199E+02
      1.242  0.9661E+00  0.4205E+02
      1.304  0.1827E+01  0.4216E+02
      1.366  0.2931E+01  0.4234E+02
      1.428  0.1817E+01  0.4246E+02
      1.490  0.8303E+00  0.4251E+02
      1.552  0.1157E+01  0.4258E+02
      1.615  0.2064E+01  0.4271E+02
      1.677  0.2468E+01  0.4286E+02
      1.739  0.1954E+01  0.4298E+02
      1.801  0.1395E+01  0.4307E+02
      1.863  0.9816E+00  0.4313E+02
      1.925  0.1642E+01  0.4323E+02
      1.987  0.1701E+00  0.4324E+02
      2.049  0.9738E+00  0.4330E+02
      2.111  0.2242E+01  0.4344E+02
      2.173  0.1567E+01  0.4354E+02
      2.235  0.1686E+01  0.4364E+02
      2.297  0.1775E+01  0.4375E+02
      2.359  0.1789E+01  0.4386E+02
      2.421  0.1332E+01  0.4395E+02
      2.484  0.5764E+00  0.4398E+02
      2.546  0.1070E+01  0.4405E+02
      2.608  0.2667E+00  0.4407E+02
      2.670  0.4467E+00  0.4409E+02
      2.732  0.2300E+01  0.4424E+02
      2.794  0.3202E+01  0.4444E+02
      2.856  0.7653E+00  0.4448E+02
      2.918  0.9290E+00  0.4454E+02
      2.980  0.2199E+01  0.4468E+02
      3.042  0.8930E+00  0.4473E+02
      3.104  0.1680E+00  0.4474E+02
      3.166  0.1613E+01  0.4484E+02
      3.228  0.4542E+00  0.4487E+02
      3.290  0.2228E+01  0.4501E+02
      3.353  0.9066E+00  0.4507E+02
      3.415  0.4474E+00  0.4509E+02
      3.477  0.1214E+01  0.4517E+02
      3.539  0.1241E+01  0.4525E+02
      3.601  0.1331E+01  0.4533E+02
      3.663  0.7642E+00  0.4538E+02
      3.725  0.2052E+01  0.4550E+02
      3.787  0.1397E+01  0.4559E+02
      3.849  0.8378E+00  0.4564E+02
      3.911  0.4637E+00  0.4567E+02
      3.973  0.1326E+01  0.4575E+02
      4.035  0.2836E+00  0.4577E+02
      4.097  0.2844E+01  0.4595E+02
      4.159  0.5594E-01  0.4595E+02
      4.221  0.8432E+00  0.4600E+02
      4.284  0.4999E+00  0.4603E+02
      4.346  0.1262E+01  0.4611E+02
      4.408  0.1065E+01  0.4618E+02
      4.470  0.2516E+01  0.4634E+02
      4.532  0.9738E+00  0.4640E+02
      4.594  0.1948E-05  0.4640E+02
      4.656  0.1089E+01  0.4646E+02
      4.718  0.1543E+01  0.4656E+02
      4.780  0.1161E+01  0.4663E+02
      4.842  0.4584E+00  0.4666E+02
      4.904  0.4157E-01  0.4666E+02
      4.966  0.1528E+01  0.4676E+02
      5.028  0.6677E+00  0.4680E+02
      5.090  0.8950E+00  0.4685E+02
      5.153  0.8948E+00  0.4691E+02
      5.215  0.5084E-06  0.4691E+02
      5.277  0.1790E+01  0.4702E+02
      5.339  0.1118E+01  0.4709E+02
      5.401  0.6711E+00  0.4713E+02
      5.463  0.2238E+00  0.4715E+02
      5.525  0.1371E+01  0.4723E+02
      5.587  0.1351E+01  0.4731E+02
      5.649  0.1104E+01  0.4738E+02
      5.711  0.5773E+00  0.4742E+02
      5.773  0.8327E+00  0.4747E+02
      5.835  0.6884E+00  0.4751E+02
      5.897  0.2196E+01  0.4765E+02
      5.959  0.2278E+01  0.4779E+02
      6.022  0.7298E+00  0.4784E+02
      6.084  0.6149E+00  0.4788E+02
      6.146  0.4454E+00  0.4790E+02
      6.208  0.1750E+01  0.4801E+02
      6.270  0.7111E+00  0.4806E+02
      6.332  0.1021E+01  0.4812E+02
      6.394  0.1217E+01  0.4819E+02
      6.456  0.1994E+01  0.4832E+02
      6.518  0.1031E+01  0.4838E+02
      6.580  0.1955E+01  0.4850E+02
      6.642  0.3898E+00  0.4853E+02
      6.704  0.6224E+00  0.4857E+02
      6.766  0.1741E+01  0.4867E+02
      6.828  0.1515E+01  0.4877E+02
      6.891  0.2447E-01  0.4877E+02
      6.953  0.1714E+01  0.4888E+02
      7.015  0.5793E+00  0.4891E+02
      7.077  0.8140E+00  0.4896E+02
      7.139  0.4974E+00  0.4899E+02
      7.201  0.2614E+01  0.4916E+02
      7.263  0.2026E+01  0.4928E+02
      7.325  0.4698E+00  0.4931E+02
      7.387  0.4340E+00  0.4934E+02
      7.449  0.6681E+00  0.4938E+02
      7.511  0.3706E-02  0.4938E+02
      7.573  0.1585E+01  0.4948E+02
      7.635  0.1101E+01  0.4955E+02
      7.697  0.2223E+00  0.4956E+02
      7.759  0.1022E+01  0.4962E+02
      7.822  0.7681E+00  0.4967E+02
      7.884  0.1234E+01  0.4975E+02
      7.946  0.1228E+01  0.4982E+02
      8.008  0.6333E+00  0.4986E+02
      8.070  0.1157E+01  0.4994E+02
      8.132  0.9044E+00  0.4999E+02
      8.194  0.1557E+01  0.5009E+02
      8.256  0.5033E+00  0.5012E+02
      8.318  0.8393E+00  0.5017E+02
      8.380  0.1644E-13  0.5017E+02
      8.442  0.5968E+00  0.5021E+02
      8.504  0.1531E+00  0.5022E+02
      8.566  0.2537E+01  0.5038E+02
      8.628  0.1076E+01  0.5044E+02
      8.691  0.6628E+00  0.5048E+02
      8.753  0.6799E+00  0.5053E+02
      8.815  0.5470E+00  0.5056E+02
      8.877  0.3778E+00  0.5058E+02
      8.939  0.1450E+01  0.5067E+02
      9.001  0.6104E+00  0.5071E+02
      9.063  0.1490E+01  0.5080E+02
      9.125  0.5917E+00  0.5084E+02
      9.187  0.5271E+00  0.5087E+02
      9.249  0.1292E+01  0.5095E+02
      9.311  0.2981E+01  0.5114E+02
      9.373  0.7216E+00  0.5118E+02
      9.435  0.5089E+00  0.5121E+02
      9.497  0.1806E+01  0.5133E+02
      9.560  0.1040E+01  0.5139E+02
      9.622  0.1683E+01  0.5150E+02
      9.684  0.1135E+01  0.5157E+02
      9.746  0.7633E+00  0.5161E+02
      9.808  0.2674E-04  0.5161E+02
      9.870  0.1009E+01  0.5168E+02
      9.932  0.1107E+00  0.5168E+02
      9.994  0.1341E+01  0.5177E+02
     10.056  0.4989E-01  0.5177E+02
     10.118  0.6192E+00  0.5181E+02
     10.180  0.2555E+00  0.5182E+02
     10.242  0.4158E+00  0.5185E+02
     10.304  0.3478E+00  0.5187E+02
     10.366  0.5811E+00  0.5191E+02
     10.428  0.4136E+00  0.5193E+02
     10.491  0.2436E-08  0.5193E+02
     10.553  0.6298E+00  0.5197E+02
     10.615  0.1156E+00  0.5198E+02
     10.677  0.0000E+00  0.5198E+02
     10.739  0.0000E+00  0.5198E+02
     10.801  0.5433E-07  0.5198E+02
     10.863  0.2237E+00  0.5199E+02
     10.925  0.0000E+00  0.5199E+02
     10.987  0.0000E+00  0.5199E+02
     11.049  0.0000E+00  0.5199E+02
     11.111  0.0000E+00  0.5199E+02
     11.173  0.0000E+00  0.5199E+02
     11.235  0.7904E-04  0.5199E+02
     11.297  0.1118E+00  0.5200E+02
     11.360  0.0000E+00  0.5200E+02
     11.422  0.0000E+00  0.5200E+02
     11.484  0.0000E+00  0.5200E+02
     11.546  0.0000E+00  0.5200E+02
     11.608  0.0000E+00  0.5200E+02
     11.670  0.0000E+00  0.5200E+02
     11.732  0.0000E+00  0.5200E+02
     11.794  0.0000E+00  0.5200E+02
     11.856  0.0000E+00  0.5200E+02
     11.918  0.0000E+00  0.5200E+02
     11.980  0.0000E+00  0.5200E+02
     12.042  0.0000E+00  0.5200E+02
     12.104  0.0000E+00  0.5200E+02
