    4    4    1    1
  0.1391645E+02  0.3818237E-09  0.3818237E-09  0.3818237E-09  0.5000000E-15
  1.000000000000000E-004
  CAR 
 unknown system                          
   44   84   26
 
  0.0000000E+00  0.0000000E+00  0.0000000E+00  0.5787037E-03
   1       -5.6702
   2       -1.5247
   3       -1.5247
   4       -1.5247
   5       -1.1691
   6       -1.1691
   7       -1.1691
   8       -0.0944
   9       -0.0944
  10       -0.0944
  11        0.5467
  12        0.5467
  13        0.9739
  14        0.9739
  15        0.9739
  16        1.0932
  17        1.0932
  18        1.0932
  19        1.0932
  20        1.0932
  21        1.0932
  22        4.1297
  23        4.1297
  24        4.1297
  25        8.5366
  26        8.5366
 
  0.8333333E-01  0.0000000E+00  0.0000000E+00  0.3472222E-02
   1       -5.5951
   2       -1.5278
   3       -1.4925
   4       -1.4925
   5       -1.1515
   6       -1.1504
   7       -1.1504
   8       -0.1135
   9       -0.0788
  10       -0.0788
  11        0.5295
  12        0.5538
  13        0.9517
  14        0.9517
  15        0.9665
  16        0.9889
  17        0.9889
  18        1.0668
  19        1.0668
  20        1.0933
  21        1.0933
  22        3.6002
  23        4.3034
  24        4.3034
  25        8.5694
  26        8.5694
 
  0.1666667E+00  0.0000000E+00  0.0000000E+00  0.3472222E-02
   1       -5.3709
   2       -1.5520
   3       -1.4003
   4       -1.4003
   5       -1.0997
   6       -1.0939
   7       -1.0939
   8       -0.1690
   9       -0.0320
  10       -0.0320
  11        0.4798
  12        0.5748
  13        0.7316
  14        0.7316
  15        0.8871
  16        0.8871
  17        0.9448
  18        0.9911
  19        0.9911
  20        1.0934
  21        1.0934
  22        2.5437
  23        4.7684
  24        4.7684
  25        8.6706
  26        8.6706
 
  0.2500000E+00  0.0000000E+00  0.0000000E+00  0.3472222E-02
   1       -5.0023
   2       -1.6521
   3       -1.2628
   4       -1.2628
   5       -1.0168
   6       -0.9986
   7       -0.9986
   8       -0.2569
   9        0.0445
  10        0.0445
  11        0.4042
  12        0.4130
  13        0.4130
  14        0.6083
  15        0.7872
  16        0.7872
  17        0.8755
  18        0.8755
  19        0.9104
  20        1.0935
  21        1.0935
  22        1.4966
  23        5.4318
  24        5.4318
  25        8.8482
  26        8.8482
 
  0.3333333E+00  0.0000000E+00  0.0000000E+00  0.3472222E-02
   1       -4.4982
   2       -1.9362
   3       -1.1068
   4       -1.1068
   5       -0.9081
   6       -0.8631
   7       -0.8631
   8       -0.3708
   9        0.0912
  10        0.0912
  11        0.1486
  12        0.1486
  13        0.3148
  14        0.6521
  15        0.6691
  16        0.6691
  17        0.7148
  18        0.7331
  19        0.7331
  20        0.8657
  21        1.0936
  22        1.0936
  23        6.2335
  24        6.2335
  25        9.1148
  26        9.1148
 
  0.4166667E+00  0.0000000E+00  0.0000000E+00  0.3472222E-02
   1       -3.8767
   2       -2.4786
   3       -0.9752
   4       -0.9752
   5       -0.7804
   6       -0.6860
   7       -0.6860
   8       -0.5022
   9       -0.2060
  10       -0.2060
  11        0.2341
  12        0.2762
  13        0.2762
  14        0.3151
  15        0.5653
  16        0.5653
  17        0.5777
  18        0.5777
  19        0.7033
  20        0.8138
  21        1.0937
  22        1.0937
  23        7.1430
  24        7.1430
  25        9.2267
  26        9.2267
 
  0.5000000E+00  0.0000000E+00  0.0000000E+00  0.1736111E-02
   1       -3.1757
   2       -3.1757
   3       -0.9218
   4       -0.9218
   5       -0.6420
   6       -0.6420
   7       -0.4667
   8       -0.4667
   9       -0.4667
  10       -0.4667
  11        0.2051
  12        0.2051
  13        0.4219
  14        0.4219
  15        0.4219
  16        0.4219
  17        0.5220
  18        0.5220
  19        0.7584
  20        0.7584
  21        1.0938
  22        1.0938
  23        8.1442
  24        8.1442
  25        8.1442
  26        8.1442
 
  0.8333333E-01  0.8333333E-01  0.0000000E+00  0.6944444E-02
   1       -5.5202
   2       -1.4947
   3       -1.4947
   4       -1.4611
   5       -1.1331
   6       -1.1331
   7       -1.1322
   8       -0.1237
   9       -0.0714
  10       -0.0646
  11        0.5249
  12        0.5500
  13        0.9113
  14        0.9208
  15        0.9208
  16        0.9304
  17        0.9809
  18        0.9809
  19        1.0668
  20        1.0668
  21        1.0761
  22        3.7683
  23        3.7683
  24        4.4676
  25        8.6029
  26        9.2663
 
  0.1666667E+00  0.8333333E-01  0.0000000E+00  0.1388889E-01
   1       -5.2969
   2       -1.5161
   3       -1.3999
   4       -1.3716
   5       -1.0823
   6       -1.0777
   7       -1.0775
   8       -0.1736
   9       -0.0291
  10       -0.0228
  11        0.4820
  12        0.5692
  13        0.6787
  14        0.6825
  15        0.8290
  16        0.8684
  17        0.8951
  18        0.9555
  19        0.9909
  20        1.0667
  21        1.0670
  22        2.7205
  23        4.2067
  24        4.9136
  25        8.7062
  26        9.3995
 
  0.2500000E+00  0.8333333E-01  0.0000000E+00  0.1388889E-01
   1       -4.9298
   2       -1.6112
   3       -1.2581
   4       -1.2376
   5       -1.0011
   6       -0.9858
   7       -0.9842
   8       -0.2584
   9        0.0433
  10        0.0460
  11        0.3614
  12        0.3840
  13        0.4128
  14        0.6066
  15        0.6676
  16        0.7724
  17        0.7943
  18        0.8751
  19        0.9114
  20        1.0649
  21        1.0665
  22        1.7226
  23        4.8143
  24        5.5596
  25        8.8873
  26        9.6313
 
  0.3333333E+00  0.8333333E-01  0.0000000E+00  0.1388889E-01
   1       -4.4280
   2       -1.8884
   3       -1.0963
   4       -1.0836
   5       -0.8946
   6       -0.8586
   7       -0.8514
   8       -0.3692
   9        0.0447
  10        0.0764
  11        0.1196
  12        0.1493
  13        0.3452
  14        0.4172
  15        0.6564
  16        0.6587
  17        0.6760
  18        0.7326
  19        0.8335
  20        1.0646
  21        1.0662
  22        1.0772
  23        5.5321
  24        6.3483
  25        9.1571
  26        9.2196
 
  0.4166667E+00  0.8333333E-01  0.0000000E+00  0.1388889E-01
   1       -3.8099
   2       -2.4233
   3       -0.9575
   4       -0.9502
   5       -0.7696
   6       -0.6969
   7       -0.6782
   8       -0.4976
   9       -0.2445
  10       -0.2108
  11        0.1459
  12        0.1945
  13        0.2764
  14        0.3585
  15        0.5600
  16        0.5703
  17        0.5773
  18        0.6593
  19        0.7155
  20        0.8632
  21        1.0649
  22        1.0658
  23        6.3345
  24        7.2483
  25        8.1722
  26        9.3210
 
  0.5000000E+00  0.8333333E-01  0.0000000E+00  0.6944444E-02
   1       -3.1138
   2       -3.1138
   3       -0.8977
   4       -0.8977
   5       -0.6342
   6       -0.6342
   7       -0.4937
   8       -0.4937
   9       -0.4641
  10       -0.4641
  11        0.1285
  12        0.1285
  13        0.4217
  14        0.4217
  15        0.4825
  16        0.4825
  17        0.5224
  18        0.5224
  19        0.7821
  20        0.7821
  21        1.0653
  22        1.0653
  23        7.2136
  24        7.2136
  25        8.2429
  26        8.2429
 
  0.1666667E+00  0.1666667E+00  0.0000000E+00  0.6944444E-02
   1       -5.0763
   2       -1.4131
   3       -1.4131
   4       -1.2897
   5       -1.0300
   6       -1.0300
   7       -1.0280
   8       -0.2030
   9       -0.0042
  10        0.0038
  11        0.4666
  12        0.5277
  13        0.5459
  14        0.5459
  15        0.5761
  16        0.8136
  17        0.8921
  18        0.8921
  19        0.9903
  20        0.9903
  21        1.0254
  22        3.1455
  23        3.1455
  24        5.3189
  25        8.8156
  26       10.2091
 
  0.2500000E+00  0.1666667E+00  0.0000000E+00  0.1388889E-01
   1       -4.7138
   2       -1.4935
   3       -1.2579
   4       -1.1671
   5       -0.9539
   6       -0.9464
   7       -0.9420
   8       -0.2707
   9        0.0427
  10        0.0590
  11        0.2274
  12        0.2930
  13        0.3530
  14        0.4180
  15        0.6202
  16        0.7281
  17        0.7966
  18        0.8575
  19        0.8741
  20        0.9893
  21        1.0016
  22        2.1519
  23        3.6995
  24        5.9243
  25        8.9303
  26        9.0217
 
  0.3333333E+00  0.1666667E+00  0.0000000E+00  0.1388889E-01
   1       -4.2193
   2       -1.7503
   3       -1.0775
   4       -1.0212
   5       -0.8543
   6       -0.8410
   7       -0.8174
   8       -0.3685
   9       -0.0755
  10        0.0299
  11        0.0730
  12        0.1414
  13        0.1560
  14        0.3774
  15        0.6265
  16        0.6813
  17        0.6896
  18        0.7315
  19        0.7821
  20        0.9882
  21        0.9913
  22        1.4518
  23        4.3396
  24        6.6803
  25        7.7976
  26        9.2949
 
  0.4166667E+00  0.1666667E+00  0.0000000E+00  0.1388889E-01
   1       -3.6121
   2       -2.2621
   3       -0.9150
   4       -0.8802
   5       -0.7376
   6       -0.7263
   7       -0.6556
   8       -0.4856
   9       -0.3445
  10       -0.2262
  11        0.0172
  12        0.0555
  13        0.2794
  14        0.4071
  15        0.5408
  16        0.5737
  17        0.5767
  18        0.6585
  19        0.7781
  20        0.9872
  21        0.9875
  22        1.0765
  23        5.0590
  24        6.7744
  25        7.5559
  26        9.6006
 
  0.5000000E+00  0.1666667E+00  0.0000000E+00  0.6944444E-02
   1       -2.9317
   2       -2.9317
   3       -0.8304
   4       -0.8304
   5       -0.6117
   6       -0.6117
   7       -0.5683
   8       -0.5683
   9       -0.4575
  10       -0.4575
  11        0.0112
  12        0.0112
  13        0.4224
  14        0.4224
  15        0.5150
  16        0.5150
  17        0.5166
  18        0.5166
  19        0.8927
  20        0.8927
  21        0.9866
  22        0.9866
  23        5.8659
  24        5.8659
  25        8.5328
  26        8.5328
 
  0.2500000E+00  0.2500000E+00  0.0000000E+00  0.6944444E-02
   1       -4.3598
   2       -1.3148
   3       -1.3148
   4       -1.0650
   5       -0.8792
   6       -0.8748
   7       -0.8748
   8       -0.3091
   9        0.0450
  10        0.0507
  11        0.0507
  12        0.1011
  13        0.1408
  14        0.3911
  15        0.6573
  16        0.6798
  17        0.7690
  18        0.7690
  19        0.8726
  20        0.8726
  21        0.9426
  22        2.6568
  23        2.6568
  24        6.4846
  25        7.6529
  26        9.2187
 
  0.3333333E+00  0.2500000E+00  0.0000000E+00  0.1388889E-01
   1       -3.8788
   2       -1.5396
   3       -1.1034
   4       -0.9449
   5       -0.7958
   6       -0.7873
   7       -0.7636
   8       -0.3789
   9       -0.2186
  10       -0.0974
  11       -0.0516
  12        0.0360
  13        0.1805
  14        0.3609
  15        0.5716
  16        0.6595
  17        0.6990
  18        0.7305
  19        0.7801
  20        0.8715
  21        0.9046
  22        1.8686
  23        3.2273
  24        6.5027
  25        7.2009
  26        9.5283
 
  0.4166667E+00  0.2500000E+00  0.0000000E+00  0.1388889E-01
   1       -3.2921
   2       -2.0118
   3       -0.9024
   4       -0.8087
   5       -0.7376
   6       -0.6856
   7       -0.6210
   8       -0.4720
   9       -0.4502
  10       -0.2557
  11       -0.1380
  12       -0.0122
  13        0.2923
  14        0.3828
  15        0.5011
  16        0.5534
  17        0.5779
  18        0.5894
  19        0.8717
  20        0.8843
  21        0.9125
  22        1.3748
  23        3.8765
  24        5.4956
  25        8.0448
  26        9.9534
 
  0.5000000E+00  0.2500000E+00  0.0000000E+00  0.6944444E-02
   1       -2.6418
   2       -2.6418
   3       -0.7681
   4       -0.7681
   5       -0.6444
   6       -0.6444
   7       -0.5776
   8       -0.5776
   9       -0.4496
  10       -0.4496
  11       -0.0881
  12       -0.0881
  13        0.4280
  14        0.4280
  15        0.4694
  16        0.4694
  17        0.4898
  18        0.4898
  19        0.8749
  20        0.8749
  21        1.0918
  22        1.0918
  23        4.6254
  24        4.6254
  25        8.9978
  26        8.9978
 
  0.3333333E+00  0.3333333E+00  0.0000000E+00  0.6944444E-02
   1       -3.4198
   2       -1.2893
   3       -1.2893
   4       -0.8878
   5       -0.7134
   6       -0.6946
   7       -0.6946
   8       -0.4104
   9       -0.2955
  10       -0.2955
  11       -0.1664
  12        0.0007
  13        0.2354
  14        0.3236
  15        0.5006
  16        0.5960
  17        0.5960
  18        0.7315
  19        0.7315
  20        0.8309
  21        0.9191
  22        2.3422
  23        2.3422
  24        5.3617
  25        7.8794
  26        9.8697
 
  0.4166667E+00  0.3333333E+00  0.0000000E+00  0.1388889E-01
   1       -2.8675
   2       -1.7043
   3       -1.0520
   4       -0.8594
   5       -0.6273
   6       -0.6166
   7       -0.5789
   8       -0.4652
   9       -0.4484
  10       -0.3030
  11       -0.2585
  12       -0.0626
  13        0.3246
  14        0.3251
  15        0.4397
  16        0.4950
  17        0.4957
  18        0.5844
  19        0.7372
  20        0.7807
  21        1.1003
  22        1.7313
  23        2.8981
  24        4.3845
  25        8.6911
  26       10.3316
 
  0.5000000E+00  0.3333333E+00  0.0000000E+00  0.6944444E-02
   1       -2.2685
   2       -2.2685
   3       -0.8971
   4       -0.8971
   5       -0.5528
   6       -0.5528
   7       -0.5371
   8       -0.5371
   9       -0.4452
  10       -0.4452
  11       -0.1612
  12       -0.1612
  13        0.3905
  14        0.3905
  15        0.4325
  16        0.4325
  17        0.4448
  18        0.4448
  19        0.7516
  20        0.7516
  21        1.3487
  22        1.3487
  23        3.5690
  24        3.5690
  25        9.6184
  26        9.6184
 
  0.4166667E+00  0.4166667E+00  0.0000000E+00  0.6944444E-02
   1       -2.3704
   2       -1.3910
   3       -1.3910
   4       -0.9618
   5       -0.5353
   6       -0.5353
   7       -0.5075
   8       -0.4730
   9       -0.3691
  10       -0.3449
  11       -0.3449
  12       -0.1220
  13        0.2884
  14        0.3761
  15        0.3872
  16        0.4049
  17        0.4049
  18        0.6018
  19        0.6018
  20        0.6957
  21        1.3420
  22        2.1693
  23        2.1693
  24        3.4622
  25        9.4736
  26       10.8365
 
  0.5000000E+00  0.4166667E+00  0.0000000E+00  0.6944444E-02
   1       -1.8540
   2       -1.8540
   3       -1.1328
   4       -1.1328
   5       -0.4977
   6       -0.4977
   7       -0.4496
   8       -0.4496
   9       -0.4163
  10       -0.4163
  11       -0.2204
  12       -0.2204
  13        0.3195
  14        0.3195
  15        0.3558
  16        0.3558
  17        0.4812
  18        0.4812
  19        0.6367
  20        0.6367
  21        1.6744
  22        1.6744
  23        2.7316
  24        2.7316
  25       10.3766
  26       10.3766
 
  0.5000000E+00  0.5000000E+00  0.0000000E+00  0.1736111E-02
   1       -1.4575
   2       -1.4575
   3       -1.4575
   4       -1.4575
   5       -0.4669
   6       -0.4669
   7       -0.4669
   8       -0.4669
   9       -0.2986
  10       -0.2986
  11       -0.2986
  12       -0.2986
  13        0.3035
  14        0.3035
  15        0.3035
  16        0.3035
  17        0.5444
  18        0.5444
  19        0.5444
  20        0.5444
  21        2.1144
  22        2.1144
  23        2.1144
  24        2.1144
  25       11.2580
  26       11.2580
 
  0.8333333E-01  0.8333333E-01  0.8333333E-01  0.4629630E-02
   1       -5.4456
   2       -1.4626
   3       -1.4626
   4       -1.4626
   5       -1.1153
   6       -1.1153
   7       -1.1153
   8       -0.1332
   9       -0.0582
  10       -0.0582
  11        0.5340
  12        0.5340
  13        0.8750
  14        0.8750
  15        0.8750
  16        0.9109
  17        0.9109
  18        0.9109
  19        1.0636
  20        1.0636
  21        1.0636
  22        3.9246
  23        3.9246
  24        3.9246
  25        9.3104
  26        9.3104
 
  0.1666667E+00  0.8333333E-01  0.8333333E-01  0.1388889E-01
   1       -5.2232
   2       -1.4816
   3       -1.3709
   4       -1.3709
   5       -1.0653
   6       -1.0614
   7       -1.0614
   8       -0.1782
   9       -0.0222
  10       -0.0189
  11        0.4888
  12        0.5606
  13        0.6357
  14        0.6357
  15        0.7647
  16        0.8521
  17        0.8555
  18        0.8555
  19        1.0299
  20        1.0554
  21        1.0554
  22        2.8756
  23        4.3407
  24        4.3407
  25        9.4459
  26        9.4459
 
  0.2500000E+00  0.8333333E-01  0.8333333E-01  0.1388889E-01
   1       -4.8577
   2       -1.5724
   3       -1.2335
   4       -1.2335
   5       -0.9854
   6       -0.9714
   7       -0.9714
   8       -0.2593
   9        0.0419
  10        0.0457
  11        0.3361
  12        0.3361
  13        0.4253
  14        0.5736
  15        0.6028
  16        0.7575
  17        0.7674
  18        0.7674
  19        0.9817
  20        1.0486
  21        1.0486
  22        1.8844
  23        4.9285
  24        4.9285
  25        9.6810
  26        9.6810
 
  0.3333333E+00  0.8333333E-01  0.8333333E-01  0.1388889E-01
   1       -4.3584
   2       -1.8431
   3       -1.0746
   4       -1.0746
   5       -0.8807
   6       -0.8473
   7       -0.8473
   8       -0.3667
   9        0.0342
  10        0.0342
  11        0.1073
  12        0.1342
  13        0.3182
  14        0.3775
  15        0.6370
  16        0.6576
  17        0.6581
  18        0.6581
  19        0.9234
  20        1.0447
  21        1.0447
  22        1.1976
  23        5.6310
  24        5.6310
  25        9.3051
  26        9.3051
 
  0.4166667E+00  0.8333333E-01  0.8333333E-01  0.1388889E-01
   1       -3.7441
   2       -2.3701
   3       -0.9334
   4       -0.9334
   5       -0.7579
   6       -0.6948
   7       -0.6948
   8       -0.4918
   9       -0.2403
  10       -0.2403
  11        0.1129
  12        0.1301
  13        0.2436
  14        0.4249
  15        0.5035
  16        0.5594
  17        0.5594
  18        0.7212
  19        0.8135
  20        0.8583
  21        1.0429
  22        1.0429
  23        6.4193
  24        6.4193
  25        8.2661
  26        8.2661
 
  0.5000000E+00  0.8333333E-01  0.8333333E-01  0.6944444E-02
   1       -3.0534
   2       -3.0534
   3       -0.8730
   4       -0.8730
   5       -0.6253
   6       -0.6253
   7       -0.5546
   8       -0.5546
   9       -0.4259
  10       -0.4259
  11        0.0858
  12        0.0858
  13        0.3691
  14        0.3691
  15        0.5177
  16        0.5177
  17        0.5781
  18        0.5781
  19        0.7895
  20        0.7895
  21        1.0423
  22        1.0423
  23        7.1716
  24        7.1716
  25        7.4316
  26        7.4316
 
  0.1666667E+00  0.1666667E+00  0.8333333E-01  0.1388889E-01
   1       -5.0037
   2       -1.3831
   3       -1.3831
   4       -1.2883
   5       -1.0140
   6       -1.0140
   7       -1.0123
   8       -0.2056
   9       -0.0000
  10        0.0045
  11        0.4829
  12        0.4863
  13        0.5071
  14        0.5071
  15        0.5631
  16        0.7801
  17        0.8039
  18        0.8039
  19        1.0253
  20        1.0253
  21        1.0317
  22        3.2675
  23        3.2675
  24        4.7097
  25        9.5878
  26       10.2990
 
  0.2500000E+00  0.1666667E+00  0.8333333E-01  0.2777778E-01
   1       -4.6432
   2       -1.4616
   3       -1.2354
   4       -1.1652
   5       -0.9380
   6       -0.9314
   7       -0.9283
   8       -0.2691
   9        0.0411
  10        0.0529
  11        0.2090
  12        0.2540
  13        0.3142
  14        0.4410
  15        0.6109
  16        0.6990
  17        0.7094
  18        0.7362
  19        0.9803
  20        1.0064
  21        1.0080
  22        2.2581
  23        3.7978
  24        5.2504
  25        9.0357
  26        9.8362
 
  0.3333333E+00  0.1666667E+00  0.8333333E-01  0.2777778E-01
   1       -4.1519
   2       -1.7135
   3       -1.0629
   4       -1.0188
   5       -0.8384
   6       -0.8290
   7       -0.8120
   8       -0.3628
   9       -0.0747
  10        0.0001
  11        0.0684
  12        0.1085
  13        0.1295
  14        0.4202
  15        0.5880
  16        0.6070
  17        0.6419
  18        0.6826
  19        0.9142
  20        0.9912
  21        0.9912
  22        1.5169
  23        4.4218
  24        5.9087
  25        7.9016
  26        9.5596
 
  0.4166667E+00  0.1666667E+00  0.8333333E-01  0.2777778E-01
   1       -3.5495
   2       -2.2162
   3       -0.8994
   4       -0.8699
   5       -0.7339
   6       -0.7226
   7       -0.6863
   8       -0.4759
   9       -0.3121
  10       -0.2332
  11       -0.0046
  12        0.0453
  13        0.2233
  14        0.4583
  15        0.4870
  16        0.5253
  17        0.5474
  18        0.7697
  19        0.8080
  20        0.9823
  21        0.9827
  22        1.0811
  23        5.1283
  24        6.5427
  25        7.0130
  26        8.5228
 
  0.5000000E+00  0.1666667E+00  0.8333333E-01  0.1388889E-01
   1       -2.8762
   2       -2.8762
   3       -0.8048
   4       -0.8048
   5       -0.6517
   6       -0.6517
   7       -0.5989
   8       -0.5989
   9       -0.3917
  10       -0.3917
  11       -0.0035
  12       -0.0035
  13        0.3340
  14        0.3340
  15        0.4981
  16        0.4981
  17        0.6394
  18        0.6394
  19        0.8794
  20        0.8794
  21        0.9798
  22        0.9798
  23        5.9156
  24        5.9156
  25        7.5910
  26        7.5910
 
  0.2500000E+00  0.2500000E+00  0.8333333E-01  0.1388889E-01
   1       -4.2919
   2       -1.2958
   3       -1.2958
   4       -1.0687
   5       -0.8626
   6       -0.8581
   7       -0.8581
   8       -0.3030
   9        0.0400
  10        0.0400
  11        0.0428
  12        0.0833
  13        0.1132
  14        0.4263
  15        0.6159
  16        0.6603
  17        0.6603
  18        0.6685
  19        0.9482
  20        0.9482
  21        0.9634
  22        2.7354
  23        2.7354
  24        5.7308
  25        7.7626
  26       10.0999
 
  0.3333333E+00  0.2500000E+00  0.8333333E-01  0.2777778E-01
   1       -3.8154
   2       -1.5195
   3       -1.1043
   4       -0.9595
   5       -0.7774
   6       -0.7666
   7       -0.7492
   8       -0.3670
   9       -0.2033
  10       -0.1008
  11       -0.0622
  12        0.0337
  13        0.1383
  14        0.4192
  15        0.5332
  16        0.5483
  17        0.5877
  18        0.7682
  19        0.8690
  20        0.9163
  21        0.9259
  22        1.9144
  23        3.2907
  24        6.1957
  25        6.7765
  26        9.9723
 
  0.4166667E+00  0.2500000E+00  0.8333333E-01  0.2777778E-01
   1       -3.2356
   2       -1.9802
   3       -0.9247
   4       -0.8469
   5       -0.7169
   6       -0.6630
   7       -0.6444
   8       -0.4547
   9       -0.3792
  10       -0.2338
  11       -0.1388
  12       -0.0145
  13        0.2122
  14        0.4240
  15        0.4671
  16        0.4815
  17        0.5052
  18        0.7552
  19        0.8972
  20        0.8986
  21        0.9018
  22        1.3820
  23        3.9299
  24        5.5154
  25        7.1885
  26        8.9349
 
  0.5000000E+00  0.2500000E+00  0.8333333E-01  0.1388889E-01
   1       -2.5959
   2       -2.5959
   3       -0.8060
   4       -0.8060
   5       -0.6711
   6       -0.6711
   7       -0.5563
   8       -0.5563
   9       -0.3685
  10       -0.3685
  11       -0.0896
  12       -0.0896
  13        0.3080
  14        0.3080
  15        0.4531
  16        0.4531
  17        0.6108
  18        0.6108
  19        0.8925
  20        0.8925
  21        1.0795
  22        1.0795
  23        4.6690
  24        4.6690
  25        8.0040
  26        8.0040
 
  0.3333333E+00  0.3333333E+00  0.8333333E-01  0.1388889E-01
   1       -3.3631
   2       -1.2976
   3       -1.2976
   4       -0.9254
   5       -0.6888
   6       -0.6652
   7       -0.6652
   8       -0.3900
   9       -0.2755
  10       -0.2755
  11       -0.1501
  12        0.0007
  13        0.1606
  14        0.4115
  15        0.4543
  16        0.4934
  17        0.4934
  18        0.8229
  19        0.8229
  20        0.8642
  21        0.9050
  22        2.3787
  23        2.3787
  24        5.3692
  25        7.0546
  26       10.5310
 
  0.4166667E+00  0.3333333E+00  0.8333333E-01  0.2777778E-01
   1       -2.8216
   2       -1.6968
   3       -1.0984
   4       -0.9208
   5       -0.6025
   6       -0.5784
   7       -0.5521
   8       -0.4359
   9       -0.3913
  10       -0.2510
  11       -0.2467
  12       -0.0605
  13        0.2016
  14        0.3805
  15        0.3927
  16        0.4266
  17        0.4605
  18        0.7046
  19        0.7951
  20        0.8172
  21        1.0849
  22        1.7379
  23        2.9304
  24        4.4113
  25        7.7455
  26        9.4905
 
  0.5000000E+00  0.3333333E+00  0.8333333E-01  0.1388889E-01
   1       -2.2392
   2       -2.2392
   3       -0.9687
   4       -0.9687
   5       -0.5416
   6       -0.5416
   7       -0.5006
   8       -0.5006
   9       -0.3566
  10       -0.3566
  11       -0.1560
  12       -0.1560
  13        0.2762
  14        0.2762
  15        0.3808
  16        0.3808
  17        0.5713
  18        0.5713
  19        0.7931
  20        0.7931
  21        1.3372
  22        1.3372
  23        3.5993
  24        3.5993
  25        8.5620
  26        8.5620
 
  0.4166667E+00  0.4166667E+00  0.8333333E-01  0.1388889E-01
   1       -2.3415
   2       -1.4174
   3       -1.4174
   4       -1.0315
   5       -0.4859
   6       -0.4740
   7       -0.4740
   8       -0.4288
   9       -0.3252
  10       -0.3252
  11       -0.2914
  12       -0.1161
  13        0.1999
  14        0.3242
  15        0.3282
  16        0.3282
  17        0.4836
  18        0.6794
  19        0.6794
  20        0.7421
  21        1.3266
  22        2.1773
  23        2.1773
  24        3.4833
  25        8.4380
  26       10.1790
 
  0.5000000E+00  0.4166667E+00  0.8333333E-01  0.1388889E-01
   1       -1.8504
   2       -1.8504
   3       -1.1910
   4       -1.1910
   5       -0.4397
   6       -0.4397
   7       -0.4036
   8       -0.4036
   9       -0.3594
  10       -0.3594
  11       -0.2110
  12       -0.2110
  13        0.2417
  14        0.2417
  15        0.2979
  16        0.2979
  17        0.5649
  18        0.5649
  19        0.6922
  20        0.6922
  21        1.6652
  22        1.6652
  23        2.7449
  24        2.7449
  25        9.2502
  26        9.2502
 
  0.5000000E+00  0.5000000E+00  0.8333333E-01  0.3472222E-02
   1       -1.4865
   2       -1.4865
   3       -1.4865
   4       -1.4865
   5       -0.3894
   6       -0.3894
   7       -0.3894
   8       -0.3894
   9       -0.2850
  10       -0.2850
  11       -0.2850
  12       -0.2850
  13        0.2411
  14        0.2411
  15        0.2411
  16        0.2411
  17        0.6084
  18        0.6084
  19        0.6084
  20        0.6084
  21        2.1130
  22        2.1130
  23        2.1130
  24        2.1130
  25       10.0615
  26       10.0615
 
  0.1666667E+00  0.1666667E+00  0.1666667E+00  0.4629630E-02
   1       -4.7876
   2       -1.2987
   3       -1.2987
   4       -1.2987
   5       -0.9654
   6       -0.9654
   7       -0.9654
   8       -0.2228
   9        0.0145
  10        0.0145
  11        0.3661
  12        0.3661
  13        0.3661
  14        0.5287
  15        0.5287
  16        0.6973
  17        0.6973
  18        0.6973
  19        1.0353
  20        1.0353
  21        1.0353
  22        3.5978
  23        3.5978
  24        3.5978
  25       10.5506
  26       10.5506
 
  0.2500000E+00  0.1666667E+00  0.1666667E+00  0.1388889E-01
   1       -4.4334
   2       -1.3729
   3       -1.1754
   4       -1.1754
   5       -0.8888
   6       -0.8844
   7       -0.8844
   8       -0.2701
   9        0.0396
  10        0.0439
  11        0.1472
  12        0.1472
  13        0.1870
  14        0.4915
  15        0.5896
  16        0.5967
  17        0.6227
  18        0.6227
  19        1.0155
  20        1.0155
  21        1.0201
  22        2.5456
  23        4.0738
  24        4.0738
  25        9.2921
  26        9.2921
 
  0.3333333E+00  0.1666667E+00  0.1666667E+00  0.1388889E-01
   1       -3.9521
   2       -1.6114
   3       -1.0335
   4       -1.0335
   5       -0.7888
   6       -0.7840
   7       -0.7840
   8       -0.3478
   9       -0.0761
  10       -0.0761
  11        0.0134
  12        0.0518
  13        0.0923
  14        0.4722
  15        0.4971
  16        0.5488
  17        0.5488
  18        0.6783
  19        0.9822
  20        0.9876
  21        0.9876
  22        1.7271
  23        4.6526
  24        4.6526
  25        8.1590
  26        8.1590
 
  0.4166667E+00  0.1666667E+00  0.1666667E+00  0.1388889E-01
   1       -3.3653
   2       -2.0860
   3       -0.8898
   4       -0.8898
   5       -0.7139
   6       -0.7139
   7       -0.6756
   8       -0.4471
   9       -0.2465
  10       -0.2465
  11       -0.0648
  12        0.0155
  13        0.1616
  14        0.3565
  15        0.4775
  16        0.4775
  17        0.6013
  18        0.7651
  19        0.9236
  20        0.9670
  21        0.9670
  22        1.1733
  23        5.3008
  24        5.3008
  25        7.1791
  26        7.1791
 
  0.5000000E+00  0.1666667E+00  0.1666667E+00  0.6944444E-02
   1       -2.7152
   2       -2.7152
   3       -0.7888
   4       -0.7888
   5       -0.7301
   6       -0.7301
   7       -0.5590
   8       -0.5590
   9       -0.3073
  10       -0.3073
  11       -0.0438
  12       -0.0438