<?xml version="1.0" encoding="ISO-8859-1"?>
<modeling>
 <generator>
  <i name="program" type="string">vasp</i>
  <i name="version" type="string">4.6.28 </i>
  <i name="subversion" type="string">25Jul05 complex  parallel</i>
  <i name="platform" type="string">LinuxIFC</i>
  <i name="date" type="string">2016 12 21</i>
  <i name="time" type="string">11:40:49</i>
 </generator>
 <incar>
  <i type="string" name="PREC">accurate</i>
  <i type="int" name="IALGO">    38</i>
  <i type="logical" name="ADDGRID"> T  </i>
  <i name="EDIFF">      0.00000001</i>
  <i type="int" name="IBRION">    -1</i>
  <i name="ENCUT">    750.00000000</i>
  <i type="logical" name="LREAL"> F  </i>
  <i type="int" name="ISMEAR">     0</i>
  <i name="SIGMA">      0.01000000</i>
  <i type="logical" name="LWAVE"> F  </i>
  <i type="logical" name="LCHARG"> F  </i>
 </incar>
 <kpoints>
  <generation param="Gamma">
   <v type="int" name="divisions">      12      12      12</v>
   <v name="usershift">      0.00000000      0.00000000      0.00000000</v>
   <v name="genvec1">      0.08333333      0.00000000      0.00000000</v>
   <v name="genvec2">      0.00000000      0.08333333      0.00000000</v>
   <v name="genvec3">      0.00000000      0.00000000      0.08333333</v>
   <v name="shift">      0.00000000      0.00000000      0.00000000</v>
  </generation>
  <varray name="kpointlist" >
   <v>       0.00000000      0.00000000      0.00000000</v>
   <v>       0.08333333      0.00000000      0.00000000</v>
   <v>       0.16666667      0.00000000      0.00000000</v>
   <v>       0.25000000      0.00000000      0.00000000</v>
   <v>       0.33333333      0.00000000      0.00000000</v>
   <v>       0.41666667      0.00000000      0.00000000</v>
   <v>       0.50000000      0.00000000      0.00000000</v>
   <v>       0.08333333      0.08333333      0.00000000</v>
   <v>       0.16666667      0.08333333      0.00000000</v>
   <v>       0.25000000      0.08333333      0.00000000</v>
   <v>       0.33333333      0.08333333      0.00000000</v>
   <v>       0.41666667      0.08333333      0.00000000</v>
   <v>       0.50000000      0.08333333      0.00000000</v>
   <v>       0.16666667      0.16666667      0.00000000</v>
   <v>       0.25000000      0.16666667      0.00000000</v>
   <v>       0.33333333      0.16666667      0.00000000</v>
   <v>       0.41666667      0.16666667      0.00000000</v>
   <v>       0.50000000      0.16666667      0.00000000</v>
   <v>       0.25000000      0.25000000      0.00000000</v>
   <v>       0.33333333      0.25000000      0.00000000</v>
   <v>       0.41666667      0.25000000      0.00000000</v>
   <v>       0.50000000      0.25000000      0.00000000</v>
   <v>       0.33333333      0.33333333      0.00000000</v>
   <v>       0.41666667      0.33333333      0.00000000</v>
   <v>       0.50000000      0.33333333      0.00000000</v>
   <v>       0.41666667      0.41666667      0.00000000</v>
   <v>       0.50000000      0.41666667      0.00000000</v>
   <v>       0.50000000      0.50000000      0.00000000</v>
   <v>       0.08333333      0.08333333      0.08333333</v>
   <v>       0.16666667      0.08333333      0.08333333</v>
   <v>       0.25000000      0.08333333      0.08333333</v>
   <v>       0.33333333      0.08333333      0.08333333</v>
   <v>       0.41666667      0.08333333      0.08333333</v>
   <v>       0.50000000      0.08333333      0.08333333</v>
   <v>       0.16666667      0.16666667      0.08333333</v>
   <v>       0.25000000      0.16666667      0.08333333</v>
   <v>       0.33333333      0.16666667      0.08333333</v>
   <v>       0.41666667      0.16666667      0.08333333</v>
   <v>       0.50000000      0.16666667      0.08333333</v>
   <v>       0.25000000      0.25000000      0.08333333</v>
   <v>       0.33333333      0.25000000      0.08333333</v>
   <v>       0.41666667      0.25000000      0.08333333</v>
   <v>       0.50000000      0.25000000      0.08333333</v>
   <v>       0.33333333      0.33333333      0.08333333</v>
   <v>       0.41666667      0.33333333      0.08333333</v>
   <v>       0.50000000      0.33333333      0.08333333</v>
   <v>       0.41666667      0.41666667      0.08333333</v>
   <v>       0.50000000      0.41666667      0.08333333</v>
   <v>       0.50000000      0.50000000      0.08333333</v>
   <v>       0.16666667      0.16666667      0.16666667</v>
   <v>       0.25000000      0.16666667      0.16666667</v>
   <v>       0.33333333      0.16666667      0.16666667</v>
   <v>       0.41666667      0.16666667      0.16666667</v>
   <v>       0.50000000      0.16666667      0.16666667</v>
   <v>       0.25000000      0.25000000      0.16666667</v>
   <v>       0.33333333      0.25000000      0.16666667</v>
   <v>       0.41666667      0.25000000      0.16666667</v>
   <v>       0.50000000      0.25000000      0.16666667</v>
   <v>       0.33333333      0.33333333      0.16666667</v>
   <v>       0.41666667      0.33333333      0.16666667</v>
   <v>       0.50000000      0.33333333      0.16666667</v>
   <v>       0.41666667      0.41666667      0.16666667</v>
   <v>       0.50000000      0.41666667      0.16666667</v>
   <v>       0.50000000      0.50000000      0.16666667</v>
   <v>       0.25000000      0.25000000      0.25000000</v>
   <v>       0.33333333      0.25000000      0.25000000</v>
   <v>       0.41666667      0.25000000      0.25000000</v>
   <v>       0.50000000      0.25000000      0.25000000</v>
   <v>       0.33333333      0.33333333      0.25000000</v>
   <v>       0.41666667      0.33333333      0.25000000</v>
   <v>       0.50000000      0.33333333      0.25000000</v>
   <v>       0.41666667      0.41666667      0.25000000</v>
   <v>       0.50000000      0.41666667      0.25000000</v>
   <v>       0.50000000      0.50000000      0.25000000</v>
   <v>       0.33333333      0.33333333      0.33333333</v>
   <v>       0.41666667      0.33333333      0.33333333</v>
   <v>       0.50000000      0.33333333      0.33333333</v>
   <v>       0.41666667      0.41666667      0.33333333</v>
   <v>       0.50000000      0.41666667      0.33333333</v>
   <v>       0.50000000      0.50000000      0.33333333</v>
   <v>       0.41666667      0.41666667      0.41666667</v>
   <v>       0.50000000      0.41666667      0.41666667</v>
   <v>       0.50000000      0.50000000      0.41666667</v>
   <v>       0.50000000      0.50000000      0.50000000</v>
  </varray>
  <varray name="weights" >
   <v>       0.00057870</v>
   <v>       0.00347222</v>
   <v>       0.00347222</v>
   <v>       0.00347222</v>
   <v>       0.00347222</v>
   <v>       0.00347222</v>
   <v>       0.00173611</v>
   <v>       0.00694444</v>
   <v>       0.01388889</v>
   <v>       0.01388889</v>
   <v>       0.01388889</v>
   <v>       0.01388889</v>
   <v>       0.00694444</v>
   <v>       0.00694444</v>
   <v>       0.01388889</v>
   <v>       0.01388889</v>
   <v>       0.01388889</v>
   <v>       0.00694444</v>
   <v>       0.00694444</v>
   <v>       0.01388889</v>
   <v>       0.01388889</v>
   <v>       0.00694444</v>
   <v>       0.00694444</v>
   <v>       0.01388889</v>
   <v>       0.00694444</v>
   <v>       0.00694444</v>
   <v>       0.00694444</v>
   <v>       0.00173611</v>
   <v>       0.00462963</v>
   <v>       0.01388889</v>
   <v>       0.01388889</v>
   <v>       0.01388889</v>
   <v>       0.01388889</v>
   <v>       0.00694444</v>
   <v>       0.01388889</v>
   <v>       0.02777778</v>
   <v>       0.02777778</v>
   <v>       0.02777778</v>
   <v>       0.01388889</v>
   <v>       0.01388889</v>
   <v>       0.02777778</v>
   <v>       0.02777778</v>
   <v>       0.01388889</v>
   <v>       0.01388889</v>
   <v>       0.02777778</v>
   <v>       0.01388889</v>
   <v>       0.01388889</v>
   <v>       0.01388889</v>
   <v>       0.00347222</v>
   <v>       0.00462963</v>
   <v>       0.01388889</v>
   <v>       0.01388889</v>
   <v>       0.01388889</v>
   <v>       0.00694444</v>
   <v>       0.01388889</v>
   <v>       0.02777778</v>
   <v>       0.02777778</v>
   <v>       0.01388889</v>
   <v>       0.01388889</v>
   <v>       0.02777778</v>
   <v>       0.01388889</v>
   <v>       0.01388889</v>
   <v>       0.01388889</v>
   <v>       0.00347222</v>
   <v>       0.00462963</v>
   <v>       0.01388889</v>
   <v>       0.01388889</v>
   <v>       0.00694444</v>
   <v>       0.01388889</v>
   <v>       0.02777778</v>
   <v>       0.01388889</v>
   <v>       0.01388889</v>
   <v>       0.01388889</v>
   <v>       0.00347222</v>
   <v>       0.00462963</v>
   <v>       0.01388889</v>
   <v>       0.00694444</v>
   <v>       0.01388889</v>
   <v>       0.01388889</v>
   <v>       0.00347222</v>
   <v>       0.00462963</v>
   <v>       0.00694444</v>
   <v>       0.00347222</v>
   <v>       0.00057870</v>
  </varray>
 </kpoints>
 <parameters>
  <separator name="general" >
   <i type="string" name="SYSTEM">unknown system</i>
   <i type="logical" name="LCOMPAT"> F  </i>
  </separator>
  <separator name="electronic" >
   <i type="string" name="PREC">accura</i>
   <i name="ENMAX">    750.00000000</i>
   <i name="ENAUG">    516.45600000</i>
   <i name="EDIFF">      0.00000001</i>
   <i type="int" name="IALGO">    38</i>
   <i type="int" name="IWAVPR">    10</i>
   <i type="int" name="NBANDS">    26</i>
   <i name="NELECT">     44.00000000</i>
   <separator name="electronic smearing" >
    <i type="int" name="ISMEAR">     0</i>
    <i name="SIGMA">      0.01000000</i>
   </separator>
   <separator name="electronic projectors" >
    <i type="logical" name="LREAL"> F  </i>
    <v name="ROPT">      0.00000000</v>
    <i type="int" name="LMAXPAW">  -100</i>
    <i type="int" name="LMAXMIX">     2</i>
   </separator>
   <separator name="electronic startup" >
    <i type="int" name="ISTART">     0</i>
    <i type="int" name="ICHARG">     2</i>
    <i type="int" name="INIWAV">     1</i>
   </separator>
   <separator name="electronic spin" >
    <i type="int" name="ISPIN">     1</i>
    <i type="logical" name="LNONCOLLINEAR"> F  </i>
    <v name="MAGMOM">      1.00000000      1.00000000      1.00000000      1.00000000</v>
    <i name="NUPDOWN">     -1.00000000</i>
    <i type="logical" name="LSORBIT"> F  </i>
    <v name="SAXIS">      0.00000000      0.00000000      1.00000000</v>
    <i type="logical" name="LSPIRAL"> F  </i>
    <v name="QSPIRAL">      0.00000000      0.00000000      0.00000000</v>
    <i type="logical" name="LZEROZ"> F  </i>
   </separator>
   <separator name="electronic exchange-correlation" >
    <i type="string" name="GGA">--</i>
    <i type="int" name="VOSKOWN">     0</i>
    <i type="logical" name="LASPH"> F  </i>
    <i type="logical" name="LMETAGGA"> F  </i>
    <i type="string" name="GGA2">--</i>
   </separator>
   <separator name="electronic convergence" >
    <i type="int" name="NELM">    60</i>
    <i type="int" name="NELMDL">     0</i>
    <i type="int" name="NELMIN">     2</i>
    <i name="ENINI">    750.00000000</i>
    <separator name="electronic convergence detail" >
     <i type="logical" name="LDIAG"> T  </i>
     <i name="WEIMIN">      0.00000000</i>
     <i name="EBREAK">      0.00000000</i>
     <i name="DEPER">      0.30000000</i>
     <i type="int" name="NRMM">     4</i>
     <i name="TIME">      0.10000000</i>
    </separator>
   </separator>
   <separator name="electronic mixer" >
    <i name="AMIX">      0.40000000</i>
    <i name="BMIX">      1.00000000</i>
    <i name="AMIN">      0.10000000</i>
    <i name="AMIX_MAG">      1.60000000</i>
    <i name="BMIX_MAG">      1.00000000</i>
    <separator name="electronic mixer details" >
     <i type="int" name="IMIX">     4</i>
     <i type="int" name="MAXMIX">   -45</i>
     <i name="WC">    100.00000000</i>
     <i type="int" name="INIMIX">     1</i>
     <i type="int" name="MIXPRE">     1</i>
     <i type="int" name="MREMOVE">     5</i>
    </separator>
   </separator>
   <separator name="electronic dipolcorrection" >
    <i type="int" name="IDIPOL">     0</i>
    <i type="logical" name="LDIPOL"> F  </i>
    <v name="DIPOL">   -100.00000000</v>
    <i name="EFIELD">      0.00000000</i>
   </separator>
  </separator>
  <separator name="grids" >
   <i type="int" name="NGX">    36</i>
   <i type="int" name="NGY">    36</i>
   <i type="int" name="NGZ">    36</i>
   <i type="int" name="NGXF">    72</i>
   <i type="int" name="NGYF">    72</i>
   <i type="int" name="NGZF">    72</i>
   <i type="logical" name="ADDGRID"> T  </i>
  </separator>
  <separator name="ionic" >
   <i type="int" name="NSW">     0</i>
   <i type="int" name="IBRION">    -1</i>
   <i type="int" name="ISIF">     2</i>
   <i name="PSTRESS">      0.00000000</i>
   <i name="EDIFFG">      0.00000010</i>
   <i type="int" name="NFREE">     0</i>
   <i name="POTIM">      0.50000000</i>
   <i name="SMASS">     -3.00000000</i>
  </separator>
  <separator name="ionic md" >
   <i name="TEBEG">      0.00010000</i>
   <i name="TEEND">      0.00010000</i>
   <i type="int" name="NBLOCK">     1</i>
   <i type="int" name="KBLOCK">     1</i>
   <i type="int" name="NPACO">   256</i>
   <i name="APACO">     16.00000000</i>
  </separator>
  <separator name="symmetry" >
   <i type="int" name="ISYM">     2</i>
   <i name="SYMPREC">      0.00001000</i>
  </separator>
  <separator name="dos" >
   <i type="logical" name="LORBIT"> F  </i>
   <v name="RWIGS">     -1.00000000</v>
   <i type="int" name="NEDOS">   301</i>
   <i name="EMIN">     10.00000000</i>
   <i name="EMAX">    -10.00000000</i>
  </separator>
  <separator name="writing" >
   <i type="int" name="NWRITE">     2</i>
   <i type="logical" name="LWAVE"> F  </i>
   <i type="logical" name="LCHARG"> F  </i>
   <i type="logical" name="LPARD"> F  </i>
   <i type="logical" name="LVTOT"> F  </i>
   <i type="logical" name="LELF"> F  </i>
   <i type="logical" name="LOPTICS"> F  </i>
   <i name="STM">      0.00000000</i>
  </separator>
  <separator name="performance" >
   <i type="int" name="NPAR">     2</i>
   <i type="int" name="NSIM">     4</i>
   <i type="int" name="NBLK">   256</i>
   <i type="logical" name="LPLANE"> T  </i>
   <i type="logical" name="LCRITICAL_MEM"> F  </i>
   <i type="logical" name="LSCALAPACK"> F  </i>
   <i type="logical" name="LSCALU"> F  </i>
   <i type="logical" name="LASYNC"> F  </i>
  </separator>
  <separator name="miscellaneous" >
   <i type="int" name="IDIOT">     3</i>
   <i type="logical" name="LMUSIC"> F  </i>
   <v name="POMASS">     63.54600000</v>
   <i type="logical" name="LCORR"> T  </i>
  </separator>
  <i type="logical" name="LREAL_COMPAT"> F  </i>
  <i type="logical" name="GGA_COMPAT"> T  </i>
  <i type="logical" name="LBERRY"> F  </i>
  <i type="int" name="ICORELEVEL">     0</i>
  <i type="logical" name="LDAU"> F  </i>
  <i type="int" name="I_CONSTRAINED_M">     0</i>
 </parameters>
 <atominfo>
  <atoms>       4</atoms>
  <types>       1</types>
  <array name="atoms" >
   <dimension dim="1">ion</dimension>
   <field type="string">element</field>
   <field type="int">atomtype</field>
   <set>
    <rc><c>Cu</c><c>   1</c></rc>
    <rc><c>Cu</c><c>   1</c></rc>
    <rc><c>Cu</c><c>   1</c></rc>
    <rc><c>Cu</c><c>   1</c></rc>
   </set>
  </array>
  <array name="atomtypes" >
   <dimension dim="1">type</dimension>
   <field type="int">atomspertype</field>
   <field type="string">element</field>
   <field>mass</field>
   <field>valence</field>
   <field type="string">pseudopotential</field>
   <set>
    <rc><c>   4</c><c>Cu</c><c>     63.54600000</c><c>     11.00000000</c><c> PAW_PBE Cu 05Jan2001                   </c></rc>
   </set>
  </array>
 </atominfo>
 <structure name="initialpos" >
  <crystal>
   <varray name="basis" >
    <v>       3.81823660      0.00000000      0.00000000</v>
    <v>       0.00000000      3.81823660      0.00000000</v>
    <v>       0.00000000      0.00000000      3.81823660</v>
   </varray>
   <i name="volume">     55.66580702</i>
   <varray name="rec_basis" >
    <v>       0.26190100      0.00000000      0.00000000</v>
    <v>       0.00000000      0.26190100      0.00000000</v>
    <v>       0.00000000      0.00000000      0.26190100</v>
   </varray>
  </crystal>
  <varray name="positions" >
   <v>       0.00000000      0.00000000      0.00000000</v>
   <v>       0.50000000      0.50000000      0.00000000</v>
   <v>       0.50000000      0.00000000      0.50000000</v>
   <v>       0.00000000      0.50000000      0.50000000</v>
  </varray>
 </structure>
 <calculation>
  <scstep>
   <time name="dav">    7.08    7.09</time>
   <time name="total">    7.44    7.45</time>
   <energy>
    <i name="alphaZ">    367.22723653</i>
    <i name="ewald">  -4184.41627465</i>
    <i name="hartreedc">  -1432.28342022</i>
    <i name="XCdc">    173.91865105</i>
    <i name="pawpsdc">   4328.20916945</i>
    <i name="pawaedc">  -4904.30802700</i>
    <i name="eentropy">     -0.00016382</i>
    <i name="bandstr">    402.72719889</i>
    <i name="atom">   5563.91755062</i>
    <i name="e_fr_energy">    314.99192084</i>
    <i name="e_wo_entrp">    314.99208465</i>
    <i name="e_0_energy">    314.99200275</i>
   </energy>
  </scstep>
  <scstep>
   <time name="dav">    7.02    7.02</time>
   <time name="total">    7.03    7.03</time>
   <energy>
    <i name="e_fr_energy">      1.59667007</i>
    <i name="e_wo_entrp">      1.59684175</i>
    <i name="e_0_energy">      1.59675591</i>
   </energy>
  </scstep>
  <scstep>
   <time name="dav">   10.45   19.42</time>
   <time name="total">   10.46   19.45</time>
   <energy>
    <i name="e_fr_energy">    -17.43947888</i>
    <i name="e_wo_entrp">    -17.43936827</i>
    <i name="e_0_energy">    -17.43942357</i>
   </energy>
  </scstep>
  <scstep>
   <time name="dav">   35.87  156.98</time>
   <time name="total">   35.99  157.56</time>
   <energy>
    <i name="e_fr_energy">    -17.66542857</i>
    <i name="e_wo_entrp">    -17.66532319</i>
    <i name="e_0_energy">    -17.66537588</i>
   </energy>
  </scstep>
  <scstep>
   <time name="dav">   31.89  159.43</time>
   <time name="total">   32.82  164.14</time>
   <energy>
    <i name="e_fr_energy">    -17.66658338</i>
    <i name="e_wo_entrp">    -17.66647923</i>
    <i name="e_0_energy">    -17.66653131</i>
   </energy>
  </scstep>
  <scstep>
   <time name="dav">   34.51  172.62</time>
   <time name="total">   36.42  182.17</time>
   <energy>
    <i name="e_fr_energy">    -16.17729309</i>
    <i name="e_wo_entrp">    -16.17724926</i>
    <i name="e_0_energy">    -16.17727118</i>
   </energy>
  </scstep>
  <scstep>
   <time name="dav">   40.21  201.13</time>
   <time name="total">   42.18  210.96</time>
   <energy>
    <i name="e_fr_energy">    -14.52546386</i>
    <i name="e_wo_entrp">    -14.52530907</i>
    <i name="e_0_energy">    -14.52538647</i>
   </energy>
  </scstep>
  <scstep>
   <time name="dav">   33.04  165.26</time>
   <time name="total">   34.91  174.61</time>
   <energy>
    <i name="e_fr_energy">    -14.51613847</i>
    <i name="e_wo_entrp">    -14.51597127</i>
    <i name="e_0_energy">    -14.51605487</i>
   </energy>
  </scstep>
  <scstep>
   <time name="dav">   22.81  114.12</time>
   <time name="total">   24.28  121.49</time>
   <energy>
    <i name="e_fr_energy">    -14.50047882</i>
    <i name="e_wo_entrp">    -14.50032403</i>
    <i name="e_0_energy">    -14.50040142</i>
   </energy>
  </scstep>
  <scstep>
   <time name="dav">   27.31  136.62</time>
   <time name="total">   28.72  143.68</time>
   <energy>
    <i name="e_fr_energy">    -14.50051374</i>
    <i name="e_wo_entrp">    -14.50035895</i>
    <i name="e_0_energy">    -14.50043634</i>
   </energy>
  </scstep>
  <scstep>
   <time name="dav">   30.64  153.25</time>
   <time name="total">   31.85  159.31</time>
   <energy>
    <i name="e_fr_energy">    -14.50050995</i>
    <i name="e_wo_entrp">    -14.50035516</i>
    <i name="e_0_energy">    -14.50043256</i>
   </energy>
  </scstep>
  <scstep>
   <time name="dav">   24.90  124.56</time>
   <time name="total">   26.26  131.37</time>
   <energy>
    <i name="e_fr_energy">    -14.50051343</i>
    <i name="e_wo_entrp">    -14.50035864</i>
    <i name="e_0_energy">    -14.50043603</i>
   </energy>
  </scstep>
  <scstep>
   <time name="dav">   20.75  103.80</time>
   <time name="total">   22.41  112.12</time>
   <energy>
    <i name="e_fr_energy">    -14.50051434</i>
    <i name="e_wo_entrp">    -14.50035955</i>
    <i name="e_0_energy">    -14.50043694</i>
   </energy>
  </scstep>
  <scstep>
   <time name="dav">   21.35  106.78</time>
   <time name="total">   23.22  116.14</time>
   <energy>
    <i name="e_fr_energy">    -14.50051440</i>
    <i name="e_wo_entrp">    -14.50035961</i>
    <i name="e_0_energy">    -14.50043700</i>
   </energy>
  </scstep>
  <scstep>
   <time name="dav">   18.94   94.74</time>
   <time name="total">   19.57   97.87</time>
   <energy>
    <i name="alphaZ">    367.22723653</i>
    <i name="ewald">  -4184.41627465</i>
    <i name="hartreedc">  -1349.94483366</i>
    <i name="XCdc">    169.98581534</i>
    <i name="pawpsdc">   4313.61694644</i>
    <i name="pawaedc">  -4890.28464835</i>
    <i name="eentropy">     -0.00015479</i>
    <i name="bandstr">     -4.60215186</i>
    <i name="atom">   5563.91755062</i>
    <i name="e_fr_energy">    -14.50051439</i>
    <i name="e_wo_entrp">    -14.50035960</i>
    <i name="e_0_energy">    -14.50043700</i>
   </energy>
  </scstep>
  <structure>
   <crystal>
    <varray name="basis" >
     <v>       3.81823660      0.00000000      0.00000000</v>
     <v>       0.00000000      3.81823660      0.00000000</v>
     <v>       0.00000000      0.00000000      3.81823660</v>
    </varray>
    <i name="volume">     55.66580702</i>
    <varray name="rec_basis" >
     <v>       0.26190100      0.00000000      0.00000000</v>
     <v>       0.00000000      0.26190100      0.00000000</v>
     <v>       0.00000000      0.00000000      0.26190100</v>
    </varray>
   </crystal>
   <varray name="positions" >
    <v>       0.00000000      0.00000000      0.00000000</v>
    <v>       0.50000000      0.50000000      0.00000000</v>
    <v>       0.50000000      0.00000000      0.50000000</v>
    <v>       0.00000000      0.50000000      0.50000000</v>
   </varray>
  </structure>
  <varray name="forces" >
   <v>      -0.00000000      0.00000000      0.00000000</v>
   <v>       0.00000000     -0.00000000      0.00000000</v>
   <v>      -0.00000000      0.00000000      0.00000000</v>
   <v>      -0.00000000      0.00000000     -0.00000000</v>
  </varray>
  <varray name="stress" >
   <v>    -138.99098779      0.00000000     -0.00000000</v>
   <v>      -0.00000000   -138.99098779      0.00000000</v>
   <v>       0.00000000      0.00000000   -138.99098779</v>
  </varray>
  <energy>
   <i name="e_fr_energy">    -14.50051439</i>
   <i name="e_wo_entrp">    -14.50043700</i>
   <i name="e_0_energy">     -0.00015479</i>
  </energy>
  <eigenvalues>
   <array>
    <dimension dim="1">band</dimension>
    <dimension dim="2">kpoint</dimension>
    <dimension dim="3">spin</dimension>
    <field>eigene</field>
    <field>occ</field>
    <set>
     <set comment="spin 1">
      <set comment="kpoint 1">
       <r>  -5.6702  1.0000</r>
       <r>  -1.5247  1.0000</r>
       <r>  -1.5247  1.0000</r>
       <r>  -1.5247  1.0000</r>
       <r>  -1.1691  1.0000</r>
       <r>  -1.1691  1.0000</r>
       <r>  -1.1691  1.0000</r>
       <r>  -0.0944  1.0000</r>
       <r>  -0.0944  1.0000</r>
       <r>  -0.0944  1.0000</r>
       <r>   0.5467  1.0000</r>
       <r>   0.5467  1.0000</r>
       <r>   0.9739  1.0000</r>
       <r>   0.9739  1.0000</r>
       <r>   0.9739  1.0000</r>
       <r>   1.0932  1.0000</r>
       <r>   1.0932  1.0000</r>
       <r>   1.0932  1.0000</r>
       <r>   1.0932  1.0000</r>
       <r>   1.0932  1.0000</r>
       <r>   1.0932  1.0000</r>
       <r>   4.1297  0.0000</r>
       <r>   4.1297  0.0000</r>
       <r>   4.1297  0.0000</r>
       <r>   8.5366  0.0000</r>
       <r>   8.5366  0.0000</r>
      </set>
      <set comment="kpoint 2">
       <r>  -5.5951  1.0000</r>
       <r>  -1.5278  1.0000</r>
       <r>  -1.4925  1.0000</r>
       <r>  -1.4925  1.0000</r>
       <r>  -1.1515  1.0000</r>
       <r>  -1.1504  1.0000</r>
       <r>  -1.1504  1.0000</r>
       <r>  -0.1135  1.0000</r>
       <r>  -0.0788  1.0000</r>
       <r>  -0.0788  1.0000</r>
       <r>   0.5295  1.0000</r>
       <r>   0.5538  1.0000</r>
       <r>   0.9517  1.0000</r>
       <r>   0.9517  1.0000</r>
       <r>   0.9665  1.0000</r>
       <r>   0.9889  1.0000</r>
       <r>   0.9889  1.0000</r>
       <r>   1.0668  1.0000</r>
       <r>   1.0668  1.0000</r>
       <r>   1.0933  1.0000</r>
       <r>   1.0933  1.0000</r>
       <r>   3.6002  0.0000</r>
       <r>   4.3034  0.0000</r>
       <r>   4.3034  0.0000</r>
       <r>   8.5694  0.0000</r>
       <r>   8.5694  0.0000</r>
      </set>
      <set comment="kpoint 3">
       <r>  -5.3709  1.0000</r>
       <r>  -1.5520  1.0000</r>
       <r>  -1.4003  1.0000</r>
       <r>  -1.4003  1.0000</r>
       <r>  -1.0997  1.0000</r>
       <r>  -1.0939  1.0000</r>
       <r>  -1.0939  1.0000</r>
       <r>  -0.1690  1.0000</r>
       <r>  -0.0320  1.0000</r>
       <r>  -0.0320  1.0000</r>
       <r>   0.4798  1.0000</r>
       <r>   0.5748  1.0000</r>
       <r>   0.7316  1.0000</r>
       <r>   0.7316  1.0000</r>
       <r>   0.8871  1.0000</r>
       <r>   0.8871  1.0000</r>
       <r>   0.9448  1.0000</r>
       <r>   0.9911  1.0000</r>
       <r>   0.9911  1.0000</r>
       <r>   1.0934  1.0000</r>
       <r>   1.0934  1.0000</r>
       <r>   2.5437  0.0000</r>
       <r>   4.7684  0.0000</r>
       <r>   4.7684  0.0000</r>
       <r>   8.6706  0.0000</r>
       <r>   8.6706  0.0000</r>
      </set>
      <set comment="kpoint 4">
       <r>  -5.0023  1.0000</r>
       <r>  -1.6521  1.0000</r>
       <r>  -1.2628  1.0000</r>
       <r>  -1.2628  1.0000</r>
       <r>  -1.0168  1.0000</r>
       <r>  -0.9986  1.0000</r>
       <r>  -0.9986  1.0000</r>
       <r>  -0.2569  1.0000</r>
       <r>   0.0445  1.0000</r>
       <r>   0.0445  1.0000</r>
       <r>   0.4042  1.0000</r>
       <r>   0.4130  1.0000</r>
       <r>   0.4130  1.0000</r>
       <r>   0.6083  1.0000</r>
       <r>   0.7872  1.0000</r>
       <r>   0.7872  1.0000</r>
       <r>   0.8755  1.0000</r>
       <r>   0.8755  1.0000</r>
       <r>   0.9104  1.0000</r>
       <r>   1.0935  1.0000</r>
       <r>   1.0935  1.0000</r>
       <r>   1.4966  1.0000</r>
       <r>   5.4318  0.0000</r>
       <r>   5.4318  0.0000</r>
       <r>   8.8482  0.0000</r>
       <r>   8.8482  0.0000</r>
      </set>
      <set comment="kpoint 5">
       <r>  -4.4982  1.0000</r>
       <r>  -1.9362  1.0000</r>
       <r>  -1.1068  1.0000</r>
       <r>  -1.1068  1.0000</r>
       <r>  -0.9081  1.0000</r>
       <r>  -0.8631  1.0000</r>
       <r>  -0.8631  1.0000</r>
       <r>  -0.3708  1.0000</r>
       <r>   0.0912  1.0000</r>
       <r>   0.0912  1.0000</r>
       <r>   0.1486  1.0000</r>
       <r>   0.1486  1.0000</r>
       <r>   0.3148  1.0000</r>
       <r>   0.6521  1.0000</r>
       <r>   0.6691  1.0000</r>
       <r>   0.6691  1.0000</r>
       <r>   0.7148  1.0000</r>
       <r>   0.7331  1.0000</r>
       <r>   0.7331  1.0000</r>
       <r>   0.8657  1.0000</r>
       <r>   1.0936  1.0000</r>
       <r>   1.0936  1.0000</r>
       <r>   6.2335  0.0000</r>
       <r>   6.2335  0.0000</r>
       <r>   9.1148  0.0000</r>
       <r>   9.1148  0.0000</r>
      </set>
      <set comment="kpoint 6">
       <r>  -3.8767  1.0000</r>
       <r>  -2.4786  1.0000</r>
       <r>  -0.9752  1.0000</r>
       <r>  -0.9752  1.0000</r>
       <r>  -0.7804  1.0000</r>
       <r>  -0.6860  1.0000</r>
       <r>  -0.6860  1.0000</r>
       <r>  -0.5022  1.0000</r>
       <r>  -0.2060  1.0000</r>
       <r>  -0.2060  1.0000</r>
       <r>   0.2341  1.0000</r>
       <r>   0.2762  1.0000</r>
       <r>   0.2762  1.0000</r>
       <r>   0.3151  1.0000</r>
       <r>   0.5653  1.0000</r>
       <r>   0.5653  1.0000</r>
       <r>   0.5777  1.0000</r>
       <r>   0.5777  1.0000</r>
       <r>   0.7033  1.0000</r>
       <r>   0.8138  1.0000</r>
       <r>   1.0937  1.0000</r>
       <r>   1.0937  1.0000</r>
       <r>   7.1430  0.0000</r>
       <r>   7.1430  0.0000</r>
       <r>   9.2267  0.0000</r>
       <r>   9.2267  0.0000</r>
      </set>
      <set comment="kpoint 7">
       <r>  -3.1757  1.0000</r>
       <r>  -3.1757  1.0000</r>
       <r>  -0.9218  1.0000</r>
       <r>  -0.9218  1.0000</r>
       <r>  -0.6420  1.0000</r>
       <r>  -0.6420  1.0000</r>
       <r>  -0.4667  1.0000</r>
       <r>  -0.4667  1.0000</r>
       <r>  -0.4667  1.0000</r>
       <r>  -0.4667  1.0000</r>
       <r>   0.2051  1.0000</r>
       <r>   0.2051  1.0000</r>
       <r>   0.4219  1.0000</r>
       <r>   0.4219  1.0000</r>
       <r>   0.4219  1.0000</r>
       <r>   0.4219  1.0000</r>
       <r>   0.5220  1.0000</r>
       <r>   0.5220  1.0000</r>
       <r>   0.7584  1.0000</r>
       <r>   0.7584  1.0000</r>
       <r>   1.0938  1.0000</r>
       <r>   1.0938  1.0000</r>
       <r>   8.1442  0.0000</r>
       <r>   8.1442  0.0000</r>
       <r>   8.1442  0.0000</r>
       <r>   8.1442  0.0000</r>
      </set>
      <set comment="kpoint 8">
       <r>  -5.5202  1.0000</r>
       <r>  -1.4947  1.0000</r>
       <r>  -1.4947  1.0000</r>
       <r>  -1.4611  1.0000</r>
       <r>  -1.1331  1.0000</r>
       <r>  -1.1331  1.0000</r>
       <r>  -1.1322  1.0000</r>
       <r>  -0.1237  1.0000</r>
       <r>  -0.0714  1.0000</r>
       <r>  -0.0646  1.0000</r>
       <r>   0.5249  1.0000</r>
       <r>   0.5500  1.0000</r>
       <r>   0.9113  1.0000</r>
       <r>   0.9208  1.0000</r>
       <r>   0.9208  1.0000</r>
       <r>   0.9304  1.0000</r>
       <r>   0.9809  1.0000</r>
       <r>   0.9809  1.0000</r>
       <r>   1.0668  1.0000</r>
       <r>   1.0668  1.0000</r>
       <r>   1.0761  1.0000</r>
       <r>   3.7683  0.0000</r>
       <r>   3.7683  0.0000</r>
       <r>   4.4676  0.0000</r>
       <r>   8.6029  0.0000</r>
       <r>   9.2663  0.0000</r>
      </set>
      <set comment="kpoint 9">
       <r>  -5.2969  1.0000</r>
       <r>  -1.5161  1.0000</r>
       <r>  -1.3999  1.0000</r>
       <r>  -1.3716  1.0000</r>
       <r>  -1.0823  1.0000</r>
       <r>  -1.0777  1.0000</r>
       <r>  -1.0775  1.0000</r>
       <r>  -0.1736  1.0000</r>
       <r>  -0.0291  1.0000</r>
       <r>  -0.0228  1.0000</r>
       <r>   0.4820  1.0000</r>
       <r>   0.5692  1.0000</r>
       <r>   0.6787  1.0000</r>
       <r>   0.6825  1.0000</r>
       <r>   0.8290  1.0000</r>
       <r>   0.8684  1.0000</r>
       <r>   0.8951  1.0000</r>
       <r>   0.9555  1.0000</r>
       <r>   0.9909  1.0000</r>
       <r>   1.0667  1.0000</r>
       <r>   1.0670  1.0000</r>
       <r>   2.7205  0.0000</r>
       <r>   4.2067  0.0000</r>
       <r>   4.9136  0.0000</r>
       <r>   8.7062  0.0000</r>
       <r>   9.3995  0.0000</r>
      </set>
      <set comment="kpoint 10">
       <r>  -4.9298  1.0000</r>
       <r>  -1.6112  1.0000</r>
       <r>  -1.2581  1.0000</r>
       <r>  -1.2376  1.0000</r>
       <r>  -1.0011  1.0000</r>
       <r>  -0.9858  1.0000</r>
       <r>  -0.9842  1.0000</r>
       <r>  -0.2584  1.0000</r>
       <r>   0.0433  1.0000</r>
       <r>   0.0460  1.0000</r>
       <r>   0.3614  1.0000</r>
       <r>   0.3840  1.0000</r>
       <r>   0.4128  1.0000</r>
       <r>   0.6066  1.0000</r>
       <r>   0.6676  1.0000</r>
       <r>   0.7724  1.0000</r>
       <r>   0.7943  1.0000</r>
       <r>   0.8751  1.0000</r>
       <r>   0.9114  1.0000</r>
       <r>   1.0649  1.0000</r>
       <r>   1.0665  1.0000</r>
       <r>   1.7226  1.0000</r>
       <r>   4.8143  0.0000</r>
       <r>   5.5596  0.0000</r>
       <r>   8.8873  0.0000</r>
       <r>   9.6313  0.0000</r>
      </set>
      <set comment="kpoint 11">
       <r>  -4.4280  1.0000</r>
       <r>  -1.8884  1.0000</r>
       <r>  -1.0963  1.0000</r>
       <r>  -1.0836  1.0000</r>
       <r>  -0.8946  1.0000</r>
       <r>  -0.8586  1.0000</r>
       <r>  -0.8514  1.0000</r>
       <r>  -0.3692  1.0000</r>
       <r>   0.0447  1.0000</r>
       <r>   0.0764  1.0000</r>
       <r>   0.1196  1.0000</r>
       <r>   0.1493  1.0000</r>
       <r>   0.3452  1.0000</r>
       <r>   0.4172  1.0000</r>
       <r>   0.6564  1.0000</r>
       <r>   0.6587  1.0000</r>
       <r>   0.6760  1.0000</r>
       <r>   0.7326  1.0000</r>
       <r>   0.8335  1.0000</r>
       <r>   1.0646  1.0000</r>
       <r>   1.0662  1.0000</r>
       <r>   1.0772  1.0000</r>
       <r>   5.5321  0.0000</r>
       <r>   6.3483  0.0000</r>
       <r>   9.1571  0.0000</r>
       <r>   9.2196  0.0000</r>
      </set>
      <set comment="kpoint 12">
       <r>  -3.8099  1.0000</r>
       <r>  -2.4233  1.0000</r>
       <r>  -0.9575  1.0000</r>
       <r>  -0.9502  1.0000</r>
       <r>  -0.7696  1.0000</r>
       <r>  -0.6969  1.0000</r>
       <r>  -0.6782  1.0000</r>
       <r>  -0.4976  1.0000</r>
       <r>  -0.2445  1.0000</r>
       <r>  -0.2108  1.0000</r>
       <r>   0.1459  1.0000</r>
       <r>   0.1945  1.0000</r>
       <r>   0.2764  1.0000</r>
       <r>   0.3585  1.0000</r>
       <r>   0.5600  1.0000</r>
       <r>   0.5703  1.0000</r>
       <r>   0.5773  1.0000</r>
       <r>   0.6593  1.0000</r>
       <r>   0.7155  1.0000</r>
       <r>   0.8632  1.0000</r>
       <r>   1.0649  1.0000</r>
       <r>   1.0658  1.0000</r>
       <r>   6.3345  0.0000</r>
       <r>   7.2483  0.0000</r>
       <r>   8.1722  0.0000</r>
       <r>   9.3210  0.0000</r>
      </set>
      <set comment="kpoint 13">
       <r>  -3.1138  1.0000</r>
       <r>  -3.1138  1.0000</r>
       <r>  -0.8977  1.0000</r>
       <r>  -0.8977  1.0000</r>
       <r>  -0.6342  1.0000</r>
       <r>  -0.6342  1.0000</r>
       <r>  -0.4937  1.0000</r>
       <r>  -0.4937  1.0000</r>
       <r>  -0.4641  1.0000</r>
       <r>  -0.4641  1.0000</r>
       <r>   0.1285  1.0000</r>
       <r>   0.1285  1.0000</r>
       <r>   0.4217  1.0000</r>
       <r>   0.4217  1.0000</r>
       <r>   0.4825  1.0000</r>
       <r>   0.4825  1.0000</r>
       <r>   0.5224  1.0000</r>
       <r>   0.5224  1.0000</r>
       <r>   0.7821  1.0000</r>
       <r>   0.7821  1.0000</r>
       <r>   1.0653  1.0000</r>
       <r>   1.0653  1.0000</r>
       <r>   7.2136  0.0000</r>
       <r>   7.2136  0.0000</r>
       <r>   8.2429  0.0000</r>
       <r>   8.2429  0.0000</r>
      </set>
      <set comment="kpoint 14">
       <r>  -5.0763  1.0000</r>
       <r>  -1.4131  1.0000</r>
       <r>  -1.4131  1.0000</r>
       <r>  -1.2897  1.0000</r>
       <r>  -1.0300  1.0000</r>
       <r>  -1.0300  1.0000</r>
       <r>  -1.0280  1.0000</r>
       <r>  -0.2030  1.0000</r>
       <r>  -0.0042  1.0000</r>
       <r>   0.0038  1.0000</r>
       <r>   0.4666  1.0000</r>
       <r>   0.5277  1.0000</r>
       <r>   0.5459  1.0000</r>
       <r>   0.5459  1.0000</r>
       <r>   0.5761  1.0000</r>
       <r>   0.8136  1.0000</r>
       <r>   0.8921  1.0000</r>
       <r>   0.8921  1.0000</r>
       <r>   0.9903  1.0000</r>
       <r>   0.9903  1.0000</r>
       <r>   1.0254  1.0000</r>
       <r>   3.1455  0.0000</r>
       <r>   3.1455  0.0000</r>
       <r>   5.3189  0.0000</r>
       <r>   8.8156  0.0000</r>
       <r>  10.2091  0.0000</r>
      </set>
      <set comment="kpoint 15">
       <r>  -4.7138  1.0000</r>
       <r>  -1.4935  1.0000</r>
       <r>  -1.2579  1.0000</r>
       <r>  -1.1671  1.0000</r>
       <r>  -0.9539  1.0000</r>
       <r>  -0.9464  1.0000</r>
       <r>  -0.9420  1.0000</r>
       <r>  -0.2707  1.0000</r>
       <r>   0.0427  1.0000</r>
       <r>   0.0590  1.0000</r>
       <r>   0.2274  1.0000</r>
       <r>   0.2930  1.0000</r>
       <r>   0.3530  1.0000</r>
       <r>   0.4180  1.0000</r>
       <r>   0.6202  1.0000</r>
       <r>   0.7281  1.0000</r>
       <r>   0.7966  1.0000</r>
       <r>   0.8575  1.0000</r>
       <r>   0.8741  1.0000</r>
       <r>   0.9893  1.0000</r>
       <r>   1.0016  1.0000</r>
       <r>   2.1519  1.0000</r>
       <r>   3.6995  0.0000</r>
       <r>   5.9243  0.0000</r>
       <r>   8.9303  0.0000</r>
       <r>   9.0217  0.0000</r>
      </set>
      <set comment="kpoint 16">
       <r>  -4.2193  1.0000</r>
       <r>  -1.7503  1.0000</r>
       <r>  -1.0775  1.0000</r>
       <r>  -1.0212  1.0000</r>
       <r>  -0.8543  1.0000</r>
       <r>  -0.8410  1.0000</r>
       <r>  -0.8174  1.0000</r>
       <r>  -0.3685  1.0000</r>
       <r>  -0.0755  1.0000</r>
       <r>   0.0299  1.0000</r>
       <r>   0.0730  1.0000</r>
       <r>   0.1414  1.0000</r>
       <r>   0.1560  1.0000</r>
       <r>   0.3774  1.0000</r>
       <r>   0.6265  1.0000</r>
       <r>   0.6813  1.0000</r>
       <r>   0.6896  1.0000</r>
       <r>   0.7315  1.0000</r>
       <r>   0.7821  1.0000</r>
       <r>   0.9882  1.0000</r>
       <r>   0.9913  1.0000</r>
       <r>   1.4518  1.0000</r>
       <r>   4.3396  0.0000</r>
       <r>   6.6803  0.0000</r>
       <r>   7.7976  0.0000</r>
       <r>   9.2949  0.0000</r>
      </set>
      <set comment="kpoint 17">
       <r>  -3.6121  1.0000</r>
       <r>  -2.2621  1.0000</r>
       <r>  -0.9150  1.0000</r>
       <r>  -0.8802  1.0000</r>
       <r>  -0.7376  1.0000</r>
       <r>  -0.7263  1.0000</r>
       <r>  -0.6556  1.0000</r>
       <r>  -0.4856  1.0000</r>
       <r>  -0.3445  1.0000</r>
       <r>  -0.2262  1.0000</r>
       <r>   0.0172  1.0000</r>
       <r>   0.0555  1.0000</r>
       <r>   0.2794  1.0000</r>
       <r>   0.4071  1.0000</r>
       <r>   0.5408  1.0000</r>
       <r>   0.5737  1.0000</r>
       <r>   0.5767  1.0000</r>
       <r>   0.6585  1.0000</r>
       <r>   0.7781  1.0000</r>
       <r>   0.9872  1.0000</r>
       <r>   0.9875  1.0000</r>
       <r>   1.0765  1.0000</r>
       <r>   5.0590  0.0000</r>
       <r>   6.7744  0.0000</r>
       <r>   7.5559  0.0000</r>
       <r>   9.6006  0.0000</r>
      </set>
      <set comment="kpoint 18">
       <r>  -2.9317  1.0000</r>
       <r>  -2.9317  1.0000</r>
       <r>  -0.8304  1.0000</r>
       <r>  -0.8304  1.0000</r>
       <r>  -0.6117  1.0000</r>
       <r>  -0.6117  1.0000</r>
       <r>  -0.5683  1.0000</r>
       <r>  -0.5683  1.0000</r>
       <r>  -0.4575  1.0000</r>
       <r>  -0.4575  1.0000</r>
       <r>   0.0112  1.0000</r>
       <r>   0.0112  1.0000</r>
       <r>   0.4224  1.0000</r>
       <r>   0.4224  1.0000</r>
       <r>   0.5150  1.0000</r>
       <r>   0.5150  1.0000</r>
       <r>   0.5166  1.0000</r>
       <r>   0.5166  1.0000</r>
       <r>   0.8927  1.0000</r>
       <r>   0.8927  1.0000</r>
       <r>   0.9866  1.0000</r>
       <r>   0.9866  1.0000</r>
       <r>   5.8659  0.0000</r>
       <r>   5.8659  0.0000</r>
       <r>   8.5328  0.0000</r>
       <r>   8.5328  0.0000</r>
      </set>
      <set comment="kpoint 19">
       <r>  -4.3598  1.0000</r>
       <r>  -1.3148  1.0000</r>
       <r>  -1.3148  1.0000</r>
       <r>  -1.0650  1.0000</r>
       <r>  -0.8792  1.0000</r>
       <r>  -0.8748  1.0000</r>
       <r>  -0.8748  1.0000</r>
       <r>  -0.3091  1.0000</r>
       <r>   0.0450  1.0000</r>
       <r>   0.0507  1.0000</r>
       <r>   0.0507  1.0000</r>
       <r>   0.1011  1.0000</r>
       <r>   0.1408  1.0000</r>
       <r>   0.3911  1.0000</r>
       <r>   0.6573  1.0000</r>
       <r>   0.6798  1.0000</r>
       <r>   0.7690  1.0000</r>
       <r>   0.7690  1.0000</r>
       <r>   0.8726  1.0000</r>
       <r>   0.8726  1.0000</r>
       <r>   0.9426  1.0000</r>
       <r>   2.6568  0.0000</r>
       <r>   2.6568  0.0000</r>
       <r>   6.4846  0.0000</r>
       <r>   7.6529  0.0000</r>
       <r>   9.2187  0.0000</r>
      </set>
      <set comment="kpoint 20">
       <r>  -3.8788  1.0000</r>
       <r>  -1.5396  1.0000</r>
       <r>  -1.1034  1.0000</r>
       <r>  -0.9449  1.0000</r>
       <r>  -0.7958  1.0000</r>
       <r>  -0.7873  1.0000</r>
       <r>  -0.7636  1.0000</r>
       <r>  -0.3789  1.0000</r>
       <r>  -0.2186  1.0000</r>
       <r>  -0.0974  1.0000</r>
       <r>  -0.0516  1.0000</r>
       <r>   0.0360  1.0000</r>
       <r>   0.1805  1.0000</r>
       <r>   0.3609  1.0000</r>
       <r>   0.5716  1.0000</r>
       <r>   0.6595  1.0000</r>
       <r>   0.6990  1.0000</r>
       <r>   0.7305  1.0000</r>
       <r>   0.7801  1.0000</r>
       <r>   0.8715  1.0000</r>
       <r>   0.9046  1.0000</r>
       <r>   1.8686  1.0000</r>
       <r>   3.2273  0.0000</r>
       <r>   6.5027  0.0000</r>
       <r>   7.2009  0.0000</r>
       <r>   9.5283  0.0000</r>
      </set>
      <set comment="kpoint 21">
       <r>  -3.2921  1.0000</r>
       <r>  -2.0118  1.0000</r>
       <r>  -0.9024  1.0000</r>
       <r>  -0.8087  1.0000</r>
       <r>  -0.7376  1.0000</r>
       <r>  -0.6856  1.0000</r>
       <r>  -0.6210  1.0000</r>
       <r>  -0.4720  1.0000</r>
       <r>  -0.4502  1.0000</r>
       <r>  -0.2557  1.0000</r>
       <r>  -0.1380  1.0000</r>
       <r>  -0.0122  1.0000</r>
       <r>   0.2923  1.0000</r>
       <r>   0.3828  1.0000</r>
       <r>   0.5011  1.0000</r>
       <r>   0.5534  1.0000</r>
       <r>   0.5779  1.0000</r>
       <r>   0.5894  1.0000</r>
       <r>   0.8717  1.0000</r>
       <r>   0.8843  1.0000</r>
       <r>   0.9125  1.0000</r>
       <r>   1.3748  1.0000</r>
       <r>   3.8765  0.0000</r>
       <r>   5.4956  0.0000</r>
       <r>   8.0448  0.0000</r>
       <r>   9.9534  0.0000</r>
      </set>
      <set comment="kpoint 22">
       <r>  -2.6418  1.0000</r>
       <r>  -2.6418  1.0000</r>
       <r>  -0.7681  1.0000</r>
       <r>  -0.7681  1.0000</r>
       <r>  -0.6444  1.0000</r>
       <r>  -0.6444  1.0000</r>
       <r>  -0.5776  1.0000</r>
       <r>  -0.5776  1.0000</r>
       <r>  -0.4496  1.0000</r>
       <r>  -0.4496  1.0000</r>
       <r>  -0.0881  1.0000</r>
       <r>  -0.0881  1.0000</r>
       <r>   0.4280  1.0000</r>
       <r>   0.4280  1.0000</r>
       <r>   0.4694  1.0000</r>
       <r>   0.4694  1.0000</r>
       <r>   0.4898  1.0000</r>
       <r>   0.4898  1.0000</r>
       <r>   0.8749  1.0000</r>
       <r>   0.8749  1.0000</r>
       <r>   1.0918  1.0000</r>
       <r>   1.0918  1.0000</r>
       <r>   4.6254  0.0000</r>
       <r>   4.6254  0.0000</r>
       <r>   8.9978  0.0000</r>
       <r>   8.9978  0.0000</r>
      </set>
      <set comment="kpoint 23">
       <r>  -3.4198  1.0000</r>
       <r>  -1.2893  1.0000</r>
       <r>  -1.2893  1.0000</r>
       <r>  -0.8878  1.0000</r>
       <r>  -0.7134  1.0000</r>
       <r>  -0.6946  1.0000</r>
       <r>  -0.6946  1.0000</r>
       <r>  -0.4104  1.0000</r>
       <r>  -0.2955  1.0000</r>
       <r>  -0.2955  1.0000</r>
       <r>  -0.1664  1.0000</r>
       <r>   0.0007  1.0000</r>
       <r>   0.2354  1.0000</r>
       <r>   0.3236  1.0000</r>
       <r>   0.5006  1.0000</r>
       <r>   0.5960  1.0000</r>
       <r>   0.5960  1.0000</r>
       <r>   0.7315  1.0000</r>
       <r>   0.7315  1.0000</r>
       <r>   0.8309  1.0000</r>
       <r>   0.9191  1.0000</r>
       <r>   2.3422  1.0000</r>
       <r>   2.3422  1.0000</r>
       <r>   5.3617  0.0000</r>
       <r>   7.8794  0.0000</r>
       <r>   9.8697  0.0000</r>
      </set>
      <set comment="kpoint 24">
       <r>  -2.8675  1.0000</r>
       <r>  -1.7043  1.0000</r>
       <r>  -1.0520  1.0000</r>
       <r>  -0.8594  1.0000</r>
       <r>  -0.6273  1.0000</r>
       <r>  -0.6166  1.0000</r>
       <r>  -0.5789  1.0000</r>
       <r>  -0.4652  1.0000</r>
       <r>  -0.4484  1.0000</r>
       <r>  -0.3030  1.0000</r>
       <r>  -0.2585  1.0000</r>
       <r>  -0.0626  1.0000</r>
       <r>   0.3246  1.0000</r>
       <r>   0.3251  1.0000</r>
       <r>   0.4397  1.0000</r>
       <r>   0.4950  1.0000</r>
       <r>   0.4957  1.0000</r>
       <r>   0.5844  1.0000</r>
       <r>   0.7372  1.0000</r>
       <r>   0.7807  1.0000</r>
       <r>   1.1003  1.0000</r>
       <r>   1.7313  1.0000</r>
       <r>   2.8981  0.0000</r>
       <r>   4.3845  0.0000</r>
       <r>   8.6911  0.0000</r>
       <r>  10.3316  0.0000</r>
      </set>
      <set comment="kpoint 25">
       <r>  -2.2685  1.0000</r>
       <r>  -2.2685  1.0000</r>
       <r>  -0.8971  1.0000</r>
       <r>  -0.8971  1.0000</r>
       <r>  -0.5528  1.0000</r>
       <r>  -0.5528  1.0000</r>
       <r>  -0.5371  1.0000</r>
       <r>  -0.5371  1.0000</r>
       <r>  -0.4452  1.0000</r>
       <r>  -0.4452  1.0000</r>
       <r>  -0.1612  1.0000</r>
       <r>  -0.1612  1.0000</r>
       <r>   0.3905  1.0000</r>
       <r>   0.3905  1.0000</r>
       <r>   0.4325  1.0000</r>
       <r>   0.4325  1.0000</r>
       <r>   0.4448  1.0000</r>
       <r>   0.4448  1.0000</r>
       <r>   0.7516  1.0000</r>
       <r>   0.7516  1.0000</r>
       <r>   1.3487  1.0000</r>
       <r>   1.3487  1.0000</r>
       <r>   3.5690  0.0000</r>
       <r>   3.5690  0.0000</r>
       <r>   9.6184  0.0000</r>
       <r>   9.6184  0.0000</r>
      </set>
      <set comment="kpoint 26">
       <r>  -2.3704  1.0000</r>
       <r>  -1.3910  1.0000</r>
       <r>  -1.3910  1.0000</r>
       <r>  -0.9618  1.0000</r>
       <r>  -0.5353  1.0000</r>
       <r>  -0.5353  1.0000</r>
       <r>  -0.5075  1.0000</r>
       <r>  -0.4730  1.0000</r>
       <r>  -0.3691  1.0000</r>
       <r>  -0.3449  1.0000</r>
       <r>  -0.3449  1.0000</r>
       <r>  -0.1220  1.0000</r>
       <r>   0.2884  1.0000</r>
       <r>   0.3761  1.0000</r>
       <r>   0.3872  1.0000</r>
       <r>   0.4049  1.0000</r>
       <r>   0.4049  1.0000</r>
       <r>   0.6018  1.0000</r>
       <r>   0.6018  1.0000</r>
       <r>   0.6957  1.0000</r>
       <r>   1.3420  1.0000</r>
       <r>   2.1693  1.0000</r>
       <r>   2.1693  1.0000</r>
       <r>   3.4622  0.0000</r>
       <r>   9.4736  0.0000</r>
       <r>  10.8365  0.0000</r>
      </set>
      <set comment="kpoint 27">
       <r>  -1.8540  1.0000</r>
       <r>  -1.8540  1.0000</r>
       <r>  -1.1328  1.0000</r>
       <r>  -1.1328  1.0000</r>
       <r>  -0.4977  1.0000</r>
       <r>  -0.4977  1.0000</r>
       <r>  -0.4496  1.0000</r>
       <r>  -0.4496  1.0000</r>
       <r>  -0.4163  1.0000</r>
       <r>  -0.4163  1.0000</r>
       <r>  -0.2204  1.0000</r>
       <r>  -0.2204  1.0000</r>
       <r>   0.3195  1.0000</r>
       <r>   0.3195  1.0000</r>
       <r>   0.3558  1.0000</r>
       <r>   0.3558  1.0000</r>
       <r>   0.4812  1.0000</r>
       <r>   0.4812  1.0000</r>
       <r>   0.6367  1.0000</r>
       <r>   0.6367  1.0000</r>
       <r>   1.6744  1.0000</r>
       <r>   1.6744  1.0000</r>
       <r>   2.7316  0.0000</r>
       <r>   2.7316  0.0000</r>
       <r>  10.3766  0.0000</r>
       <r>  10.3766  0.0000</r>
      </set>
      <set comment="kpoint 28">
       <r>  -1.4575  1.0000</r>
       <r>  -1.4575  1.0000</r>
       <r>  -1.4575  1.0000</r>
       <r>  -1.4575  1.0000</r>
       <r>  -0.4669  1.0000</r>
       <r>  -0.4669  1.0000</r>
       <r>  -0.4669  1.0000</r>
       <r>  -0.4669  1.0000</r>
       <r>  -0.2986  1.0000</r>
       <r>  -0.2986  1.0000</r>
       <r>  -0.2986  1.0000</r>
       <r>  -0.2986  1.0000</r>
       <r>   0.3035  1.0000</r>
       <r>   0.3035  1.0000</r>
       <r>   0.3035  1.0000</r>
       <r>   0.3035  1.0000</r>
       <r>   0.5444  1.0000</r>
       <r>   0.5444  1.0000</r>
       <r>   0.5444  1.0000</r>
       <r>   0.5444  1.0000</r>
       <r>   2.1144  1.0000</r>
       <r>   2.1144  1.0000</r>
       <r>   2.1144  1.0000</r>
       <r>   2.1144  1.0000</r>
       <r>  11.2580  0.0000</r>
       <r>  11.2580  0.0000</r>
      </set>
      <set comment="kpoint 29">
       <r>  -5.4456  1.0000</r>
       <r>  -1.4626  1.0000</r>
       <r>  -1.4626  1.0000</r>
       <r>  -1.4626  1.0000</r>
       <r>  -1.1153  1.0000</r>
       <r>  -1.1153  1.0000</r>
       <r>  -1.1153  1.0000</r>
       <r>  -0.1332  1.0000</r>
       <r>  -0.0582  1.0000</r>
       <r>  -0.0582  1.0000</r>
       <r>   0.5340  1.0000</r>
       <r>   0.5340  1.0000</r>
       <r>   0.8750  1.0000</r>
       <r>   0.8750  1.0000</r>
       <r>   0.8750  1.0000</r>
       <r>   0.9109  1.0000</r>
       <r>   0.9109  1.0000</r>
       <r>   0.9109  1.0000</r>
       <r>   1.0636  1.0000</r>
       <r>   1.0636  1.0000</r>
       <r>   1.0636  1.0000</r>
       <r>   3.9246  0.0000</r>
       <r>   3.9246  0.0000</r>
       <r>   3.9246  0.0000</r>
       <r>   9.3104  0.0000</r>
       <r>   9.3104  0.0000</r>
      </set>
      <set comment="kpoint 30">
       <r>  -5.2232  1.0000</r>
       <r>  -1.4816  1.0000</r>
       <r>  -1.3709  1.0000</r>
       <r>  -1.3709  1.0000</r>
       <r>  -1.0653  1.0000</r>
       <r>  -1.0614  1.0000</r>
       <r>  -1.0614  1.0000</r>
       <r>  -0.1782  1.0000</r>
       <r>  -0.0222  1.0000</r>
       <r>  -0.0189  1.0000</r>
       <r>   0.4888  1.0000</r>
       <r>   0.5606  1.0000</r>
       <r>   0.6357  1.0000</r>
       <r>   0.6357  1.0000</r>
       <r>   0.7647  1.0000</r>
       <r>   0.8521  1.0000</r>
       <r>   0.8555  1.0000</r>
       <r>   0.8555  1.0000</r>
       <r>   1.0299  1.0000</r>
       <r>   1.0554  1.0000</r>
       <r>   1.0554  1.0000</r>
       <r>   2.8756  0.0000</r>
       <r>   4.3407  0.0000</r>
       <r>   4.3407  0.0000</r>
       <r>   9.4459  0.0000</r>
       <r>   9.4459  0.0000</r>
      </set>
      <set comment="kpoint 31">
       <r>  -4.8577  1.0000</r>
       <r>  -1.5724  1.0000</r>
       <r>  -1.2335  1.0000</r>
       <r>  -1.2335  1.0000</r>
       <r>  -0.9854  1.0000</r>
       <r>  -0.9714  1.0000</r>
       <r>  -0.9714  1.0000</r>
       <r>  -0.2593  1.0000</r>
       <r>   0.0419  1.0000</r>
       <r>   0.0457  1.0000</r>
       <r>   0.3361  1.0000</r>
       <r>   0.3361  1.0000</r>
       <r>   0.4253  1.0000</r>
       <r>   0.5736  1.0000</r>
       <r>   0.6028  1.0000</r>
       <r>   0.7575  1.0000</r>
       <r>   0.7674  1.0000</r>
       <r>   0.7674  1.0000</r>
       <r>   0.9817  1.0000</r>
       <r>   1.0486  1.0000</r>
       <r>   1.0486  1.0000</r>
       <r>   1.8844  1.0000</r>
       <r>   4.9285  0.0000</r>
       <r>   4.9285  0.0000</r>
       <r>   9.6810  0.0000</r>
       <r>   9.6810  0.0000</r>
      </set>
      <set comment="kpoint 32">
       <r>  -4.3584  1.0000</r>
       <r>  -1.8431  1.0000</r>
       <r>  -1.0746  1.0000</r>
       <r>  -1.0746  1.0000</r>
       <r>  -0.8807  1.0000</r>
       <r>  -0.8473  1.0000</r>
       <r>  -0.8473  1.0000</r>
       <r>  -0.3667  1.0000</r>
       <r>   0.0342  1.0000</r>
       <r>   0.0342  1.0000</r>
       <r>   0.1073  1.0000</r>
       <r>   0.1342  1.0000</r>
       <r>   0.3182  1.0000</r>
       <r>   0.3775  1.0000</r>
       <r>   0.6370  1.0000</r>
       <r>   0.6576  1.0000</r>
       <r>   0.6581  1.0000</r>
       <r>   0.6581  1.0000</r>
       <r>   0.9234  1.0000</r>
       <r>   1.0447  1.0000</r>
       <r>   1.0447  1.0000</r>
       <r>   1.1976  1.0000</r>
       <r>   5.6310  0.0000</r>
       <r>   5.6310  0.0000</r>
       <r>   9.3051  0.0000</r>
       <r>   9.3051  0.0000</r>
      </set>
      <set comment="kpoint 33">
       <r>  -3.7441  1.0000</r>
       <r>  -2.3701  1.0000</r>
       <r>  -0.9334  1.0000</r>
       <r>  -0.9334  1.0000</r>
       <r>  -0.7579  1.0000</r>
       <r>  -0.6948  1.0000</r>
       <r>  -0.6948  1.0000</r>
       <r>  -0.4918  1.0000</r>
       <r>  -0.2403  1.0000</r>
       <r>  -0.2403  1.0000</r>
       <r>   0.1129  1.0000</r>
       <r>   0.1301  1.0000</r>
       <r>   0.2436  1.0000</r>
       <r>   0.4249  1.0000</r>
       <r>   0.5035  1.0000</r>
       <r>   0.5594  1.0000</r>
       <r>   0.5594  1.0000</r>
       <r>   0.7212  1.0000</r>
       <r>   0.8135  1.0000</r>
       <r>   0.8583  1.0000</r>
       <r>   1.0429  1.0000</r>
       <r>   1.0429  1.0000</r>
       <r>   6.4193  0.0000</r>
       <r>   6.4193  0.0000</r>
       <r>   8.2661  0.0000</r>
       <r>   8.2661  0.0000</r>
      </set>
      <set comment="kpoint 34">
       <r>  -3.0534  1.0000</r>
       <r>  -3.0534  1.0000</r>
       <r>  -0.8730  1.0000</r>
       <r>  -0.8730  1.0000</r>
       <r>  -0.6253  1.0000</r>
       <r>  -0.6253  1.0000</r>
       <r>  -0.5546  1.0000</r>
       <r>  -0.5546  1.0000</r>
       <r>  -0.4259  1.0000</r>
       <r>  -0.4259  1.0000</r>
       <r>   0.0858  1.0000</r>
       <r>   0.0858  1.0000</r>
       <r>   0.3691  1.0000</r>
       <r>   0.3691  1.0000</r>
       <r>   0.5177  1.0000</r>
       <r>   0.5177  1.0000</r>
       <r>   0.5781  1.0000</r>
       <r>   0.5781  1.0000</r>
       <r>   0.7895  1.0000</r>
       <r>   0.7895  1.0000</r>
       <r>   1.0423  1.0000</r>
       <r>   1.0423  1.0000</r>
       <r>   7.1716  0.0000</r>
       <r>   7.1716  0.0000</r>
       <r>   7.4316  0.0000</r>
       <r>   7.4316  0.0000</r>
      </set>
      <set comment="kpoint 35">
       <r>  -5.0037  1.0000</r>
       <r>  -1.3831  1.0000</r>
       <r>  -1.3831  1.0000</r>
       <r>  -1.2883  1.0000</r>
       <r>  -1.0140  1.0000</r>
       <r>  -1.0140  1.0000</r>
       <r>  -1.0123  1.0000</r>
       <r>  -0.2056  1.0000</r>
       <r>  -0.0000  1.0000</r>
       <r>   0.0045  1.0000</r>
       <r>   0.4829  1.0000</r>
       <r>   0.4863  1.0000</r>
       <r>   0.5071  1.0000</r>
       <r>   0.5071  1.0000</r>
       <r>   0.5631  1.0000</r>
       <r>   0.7801  1.0000</r>
       <r>   0.8039  1.0000</r>
       <r>   0.8039  1.0000</r>
       <r>   1.0253  1.0000</r>
       <r>   1.0253  1.0000</r>
       <r>   1.0317  1.0000</r>
       <r>   3.2675  0.0000</r>
       <r>   3.2675  0.0000</r>
       <r>   4.7097  0.0000</r>
       <r>   9.5878  0.0000</r>
       <r>  10.2990  0.0000</r>
      </set>
      <set comment="kpoint 36">
       <r>  -4.6432  1.0000</r>
       <r>  -1.4616  1.0000</r>
       <r>  -1.2354  1.0000</r>
       <r>  -1.1652  1.0000</r>
       <r>  -0.9380  1.0000</r>
       <r>  -0.9314  1.0000</r>
       <r>  -0.9283  1.0000</r>
       <r>  -0.2691  1.0000</r>
       <r>   0.0411  1.0000</r>
       <r>   0.0529  1.0000</r>
       <r>   0.2090  1.0000</r>
       <r>   0.2540  1.0000</r>
       <r>   0.3142  1.0000</r>
       <r>   0.4410  1.0000</r>
       <r>   0.6109  1.0000</r>
       <r>   0.6990  1.0000</r>
       <r>   0.7094  1.0000</r>
       <r>   0.7362  1.0000</r>
       <r>   0.9803  1.0000</r>
       <r>   1.0064  1.0000</r>
       <r>   1.0080  1.0000</r>
       <r>   2.2581  1.0000</r>
       <r>   3.7978  0.0000</r>
       <r>   5.2504  0.0000</r>
       <r>   9.0357  0.0000</r>
       <r>   9.8362  0.0000</r>
      </set>
      <set comment="kpoint 37">
       <r>  -4.1519  1.0000</r>
       <r>  -1.7135  1.0000</r>
       <r>  -1.0629  1.0000</r>
       <r>  -1.0188  1.0000</r>
       <r>  -0.8384  1.0000</r>
       <r>  -0.8290  1.0000</r>
       <r>  -0.8120  1.0000</r>
       <r>  -0.3628  1.0000</r>
       <r>  -0.0747  1.0000</r>
       <r>   0.0001  1.0000</r>
       <r>   0.0684  1.0000</r>
       <r>   0.1085  1.0000</r>
       <r>   0.1295  1.0000</r>
       <r>   0.4202  1.0000</r>
       <r>   0.5880  1.0000</r>
       <r>   0.6070  1.0000</r>
       <r>   0.6419  1.0000</r>
       <r>   0.6826  1.0000</r>
       <r>   0.9142  1.0000</r>
       <r>   0.9912  1.0000</r>
       <r>   0.9912  1.0000</r>
       <r>   1.5169  1.0000</r>
       <r>   4.4218  0.0000</r>
       <r>   5.9087  0.0000</r>
       <r>   7.9016  0.0000</r>
       <r>   9.5596  0.0000</r>
      </set>
      <set comment="kpoint 38">
       <r>  -3.5495  1.0000</r>
       <r>  -2.2162  1.0000</r>
       <r>  -0.8994  1.0000</r>
       <r>  -0.8699  1.0000</r>
       <r>  -0.7339  1.0000</r>
       <r>  -0.7226  1.0000</r>
       <r>  -0.6863  1.0000</r>
       <r>  -0.4759  1.0000</r>
       <r>  -0.3121  1.0000</r>
       <r>  -0.2332  1.0000</r>
       <r>  -0.0046  1.0000</r>
       <r>   0.0453  1.0000</r>
       <r>   0.2233  1.0000</r>
       <r>   0.4583  1.0000</r>
       <r>   0.4870  1.0000</r>
       <r>   0.5253  1.0000</r>
       <r>   0.5474  1.0000</r>
       <r>   0.7697  1.0000</r>
       <r>   0.8080  1.0000</r>
       <r>   0.9823  1.0000</r>
       <r>   0.9827  1.0000</r>
       <r>   1.0811  1.0000</r>
       <r>   5.1283  0.0000</r>
       <r>   6.5427  0.0000</r>
       <r>   7.0130  0.0000</r>
       <r>   8.5228  0.0000</r>
      </set>
      <set comment="kpoint 39">
       <r>  -2.8762  1.0000</r>
       <r>  -2.8762  1.0000</r>
       <r>  -0.8048  1.0000</r>
       <r>  -0.8048  1.0000</r>
       <r>  -0.6517  1.0000</r>
       <r>  -0.6517  1.0000</r>
       <r>  -0.5989  1.0000</r>
       <r>  -0.5989  1.0000</r>
       <r>  -0.3917  1.0000</r>
       <r>  -0.3917  1.0000</r>
       <r>  -0.0035  1.0000</r>
       <r>  -0.0035  1.0000</r>
       <r>   0.3340  1.0000</r>
       <r>   0.3340  1.0000</r>
       <r>   0.4981  1.0000</r>
       <r>   0.4981  1.0000</r>
       <r>   0.6394  1.0000</r>
       <r>   0.6394  1.0000</r>
       <r>   0.8794  1.0000</r>
       <r>   0.8794  1.0000</r>
       <r>   0.9798  1.0000</r>
       <r>   0.9798  1.0000</r>
       <r>   5.9156  0.0000</r>
       <r>   5.9156  0.0000</r>
       <r>   7.5910  0.0000</r>
       <r>   7.5910  0.0000</r>
      </set>
      <set comment="kpoint 40">
       <r>  -4.2919  1.0000</r>
       <r>  -1.2958  1.0000</r>
       <r>  -1.2958  1.0000</r>
       <r>  -1.0687  1.0000</r>
       <r>  -0.8626  1.0000</r>
       <r>  -0.8581  1.0000</r>
       <r>  -0.8581  1.0000</r>
       <r>  -0.3030  1.0000</r>
       <r>   0.0400  1.0000</r>
       <r>   0.0400  1.0000</r>
       <r>   0.0428  1.0000</r>
       <r>   0.0833  1.0000</r>
       <r>   0.1132  1.0000</r>
       <r>   0.4263  1.0000</r>
       <r>   0.6159  1.0000</r>
       <r>   0.6603  1.0000</r>
       <r>   0.6603  1.0000</r>
       <r>   0.6685  1.0000</r>
       <r>   0.9482  1.0000</r>
       <r>   0.9482  1.0000</r>
       <r>   0.9634  1.0000</r>
       <r>   2.7354  0.0000</r>
       <r>   2.7354  0.0000</r>
       <r>   5.7308  0.0000</r>
       <r>   7.7626  0.0000</r>
       <r>  10.0999  0.0000</r>
      </set>
      <set comment="kpoint 41">
       <r>  -3.8154  1.0000</r>
       <r>  -1.5195  1.0000</r>
       <r>  -1.1043  1.0000</r>
       <r>  -0.9595  1.0000</r>
       <r>  -0.7774  1.0000</r>
       <r>  -0.7666  1.0000</r>
       <r>  -0.7492  1.0000</r>
       <r>  -0.3670  1.0000</r>
       <r>  -0.2033  1.0000</r>
       <r>  -0.1008  1.0000</r>
       <r>  -0.0622  1.0000</r>
       <r>   0.0337  1.0000</r>
       <r>   0.1383  1.0000</r>
       <r>   0.4192  1.0000</r>
       <r>   0.5332  1.0000</r>
       <r>   0.5483  1.0000</r>
       <r>   0.5877  1.0000</r>
       <r>   0.7682  1.0000</r>
       <r>   0.8690  1.0000</r>
       <r>   0.9163  1.0000</r>
       <r>   0.9259  1.0000</r>
       <r>   1.9144  1.0000</r>
       <r>   3.2907  0.0000</r>
       <r>   6.1957  0.0000</r>
       <r>   6.7765  0.0000</r>
       <r>   9.9723  0.0000</r>
      </set>
      <set comment="kpoint 42">
       <r>  -3.2356  1.0000</r>
       <r>  -1.9802  1.0000</r>
       <r>  -0.9247  1.0000</r>
       <r>  -0.8469  1.0000</r>
       <r>  -0.7169  1.0000</r>
       <r>  -0.6630  1.0000</r>
       <r>  -0.6444  1.0000</r>
       <r>  -0.4547  1.0000</r>
       <r>  -0.3792  1.0000</r>
       <r>  -0.2338  1.0000</r>
       <r>  -0.1388  1.0000</r>
       <r>  -0.0145  1.0000</r>
       <r>   0.2122  1.0000</r>
       <r>   0.4240  1.0000</r>
       <r>   0.4671  1.0000</r>
       <r>   0.4815  1.0000</r>
       <r>   0.5052  1.0000</r>
       <r>   0.7552  1.0000</r>
       <r>   0.8972  1.0000</r>
       <r>   0.8986  1.0000</r>
       <r>   0.9018  1.0000</r>
       <r>   1.3820  1.0000</r>
       <r>   3.9299  0.0000</r>
       <r>   5.5154  0.0000</r>
       <r>   7.1885  0.0000</r>
       <r>   8.9349  0.0000</r>
      </set>
      <set comment="kpoint 43">
       <r>  -2.5959  1.0000</r>
       <r>  -2.5959  1.0000</r>
       <r>  -0.8060  1.0000</r>
       <r>  -0.8060  1.0000</r>
       <r>  -0.6711  1.0000</r>
       <r>  -0.6711  1.0000</r>
       <r>  -0.5563  1.0000</r>
       <r>  -0.5563  1.0000</r>
       <r>  -0.3685  1.0000</r>
       <r>  -0.3685  1.0000</r>
       <r>  -0.0896  1.0000</r>
       <r>  -0.0896  1.0000</r>
       <r>   0.3080  1.0000</r>
       <r>   0.3080  1.0000</r>
       <r>   0.4531  1.0000</r>
       <r>   0.4531  1.0000</r>
       <r>   0.6108  1.0000</r>
       <r>   0.6108  1.0000</r>
       <r>   0.8925  1.0000</r>
       <r>   0.8925  1.0000</r>
       <r>   1.0795  1.0000</r>
       <r>   1.0795  1.0000</r>
       <r>   4.6690  0.0000</r>
       <r>   4.6690  0.0000</r>
       <r>   8.0040  0.0000</r>
       <r>   8.0040  0.0000</r>
      </set>
      <set comment="kpoint 44">
       <r>  -3.3631  1.0000</r>
       <r>  -1.2976  1.0000</r>
       <r>  -1.2976  1.0000</r>
       <r>  -0.9254  1.0000</r>
       <r>  -0.6888  1.0000</r>
       <r>  -0.6652  1.0000</r>
       <r>  -0.6652  1.0000</r>
       <r>  -0.3900  1.0000</r>
       <r>  -0.2755  1.0000</r>
       <r>  -0.2755  1.0000</r>
       <r>  -0.1501  1.0000</r>
       <r>   0.0007  1.0000</r>
       <r>   0.1606  1.0000</r>
       <r>   0.4115  1.0000</r>
       <r>   0.4543  1.0000</r>
       <r>   0.4934  1.0000</r>
       <r>   0.4934  1.0000</r>
       <r>   0.8229  1.0000</r>
       <r>   0.8229  1.0000</r>
       <r>   0.8642  1.0000</r>
       <r>   0.9050  1.0000</r>
       <r>   2.3787  1.0000</r>
       <r>   2.3787  1.0000</r>
       <r>   5.3692  0.0000</r>
       <r>   7.0546  0.0000</r>
       <r>  10.5310  0.0000</r>
      </set>
      <set comment="kpoint 45">
       <r>  -2.8216  1.0000</r>
       <r>  -1.6968  1.0000</r>
       <r>  -1.0984  1.0000</r>
       <r>  -0.9208  1.0000</r>
       <r>  -0.6025  1.0000</r>
       <r>  -0.5784  1.0000</r>
       <r>  -0.5521  1.0000</r>
       <r>  -0.4359  1.0000</r>
       <r>  -0.3913  1.0000</r>
       <r>  -0.2510  1.0000</r>
       <r>  -0.2467  1.0000</r>
       <r>  -0.0605  1.0000</r>
       <r>   0.2016  1.0000</r>
       <r>   0.3805  1.0000</r>
       <r>   0.3927  1.0000</r>
       <r>   0.4266  1.0000</r>
       <r>   0.4605  1.0000</r>
       <r>   0.7046  1.0000</r>
       <r>   0.7951  1.0000</r>
       <r>   0.8172  1.0000</r>
       <r>   1.0849  1.0000</r>
       <r>   1.7379  1.0000</r>
       <r>   2.9304  0.0000</r>
       <r>   4.4113  0.0000</r>
       <r>   7.7455  0.0000</r>
       <r>   9.4905  0.0000</r>
      </set>
      <set comment="kpoint 46">
       <r>  -2.2392  1.0000</r>
       <r>  -2.2392  1.0000</r>
       <r>  -0.9687  1.0000</r>
       <r>  -0.9687  1.0000</r>
       <r>  -0.5416  1.0000</r>
       <r>  -0.5416  1.0000</r>
       <r>  -0.5006  1.0000</r>
       <r>  -0.5006  1.0000</r>
       <r>  -0.3566  1.0000</r>
       <r>  -0.3566  1.0000</r>
       <r>  -0.1560  1.0000</r>
       <r>  -0.1560  1.0000</r>
       <r>   0.2762  1.0000</r>
       <r>   0.2762  1.0000</r>
       <r>   0.3808  1.0000</r>
       <r>   0.3808  1.0000</r>
       <r>   0.5713  1.0000</r>
       <r>   0.5713  1.0000</r>
       <r>   0.7931  1.0000</r>
       <r>   0.7931  1.0000</r>
       <r>   1.3372  1.0000</r>
       <r>   1.3372  1.0000</r>
       <r>   3.5993  0.0000</r>
       <r>   3.5993  0.0000</r>
       <r>   8.5620  0.0000</r>
       <r>   8.5620  0.0000</r>
      </set>
      <set comment="kpoint 47">
       <r>  -2.3415  1.0000</r>
       <r>  -1.4174  1.0000</r>
       <r>  -1.4174  1.0000</r>
       <r>  -1.0315  1.0000</r>
       <r>  -0.4859  1.0000</r>
       <r>  -0.4740  1.0000</r>
       <r>  -0.4740  1.0000</r>
       <r>  -0.4288  1.0000</r>
       <r>  -0.3252  1.0000</r>
       <r>  -0.3252  1.0000</r>
       <r>  -0.2914  1.0000</r>
       <r>  -0.1161  1.0000</r>
       <r>   0.1999  1.0000</r>
       <r>   0.3242  1.0000</r>
       <r>   0.3282  1.0000</r>
       <r>   0.3282  1.0000</r>
       <r>   0.4836  1.0000</r>
       <r>   0.6794  1.0000</r>
       <r>   0.6794  1.0000</r>
       <r>   0.7421  1.0000</r>
       <r>   1.3266  1.0000</r>
       <r>   2.1773  1.0000</r>
       <r>   2.1773  1.0000</r>
       <r>   3.4833  0.0000</r>
       <r>   8.4380  0.0000</r>
       <r>  10.1790  0.0000</r>
      </set>
      <set comment="kpoint 48">
       <r>  -1.8504  1.0000</r>
       <r>  -1.8504  1.0000</r>
       <r>  -1.1910  1.0000</r>
       <r>  -1.1910  1.0000</r>
       <r>  -0.4397  1.0000</r>
       <r>  -0.4397  1.0000</r>
       <r>  -0.4036  1.0000</r>
       <r>  -0.4036  1.0000</r>
       <r>  -0.3594  1.0000</r>
       <r>  -0.3594  1.0000</r>
       <r>  -0.2110  1.0000</r>
       <r>  -0.2110  1.0000</r>
       <r>   0.2417  1.0000</r>
       <r>   0.2417  1.0000</r>
       <r>   0.2979  1.0000</r>
       <r>   0.2979  1.0000</r>
       <r>   0.5649  1.0000</r>
       <r>   0.5649  1.0000</r>
       <r>   0.6922  1.0000</r>
       <r>   0.6922  1.0000</r>
       <r>   1.6652  1.0000</r>
       <r>   1.6652  1.0000</r>
       <r>   2.7449  0.0000</r>
       <r>   2.7449  0.0000</r>
       <r>   9.2502  0.0000</r>
       <r>   9.2502  0.0000</r>
      </set>
      <set comment="kpoint 49">
       <r>  -1.4865  1.0000</r>
       <r>  -1.4865  1.0000</r>
       <r>  -1.4865  1.0000</r>
       <r>  -1.4865  1.0000</r>
       <r>  -0.3894  1.0000</r>
       <r>  -0.3894  1.0000</r>
       <r>  -0.3894  1.0000</r>
       <r>  -0.3894  1.0000</r>
       <r>  -0.2850  1.0000</r>
       <r>  -0.2850  1.0000</r>
       <r>  -0.2850  1.0000</r>
       <r>  -0.2850  1.0000</r>
       <r>   0.2411  1.0000</r>
       <r>   0.2411  1.0000</r>
       <r>   0.2411  1.0000</r>
       <r>   0.2411  1.0000</r>
       <r>   0.6084  1.0000</r>
       <r>   0.6084  1.0000</r>
       <r>   0.6084  1.0000</r>
       <r>   0.6084  1.0000</r>
       <r>   2.1130  1.0000</r>
       <r>   2.1130  1.0000</r>
       <r>   2.1130  1.0000</r>
       <r>   2.1130  1.0000</r>
       <r>  10.0615  0.0000</r>
       <r>  10.0615  0.0000</r>
      </set>
      <set comment="kpoint 50">
       <r>  -4.7876  1.0000</r>
       <r>  -1.2987  1.0000</r>
       <r>  -1.2987  1.0000</r>
       <r>  -1.2987  1.0000</r>
       <r>  -0.9654  1.0000</r>
       <r>  -0.9654  1.0000</r>
       <r>  -0.9654  1.0000</r>
       <r>  -0.2228  1.0000</r>
       <r>   0.0145  1.0000</r>
       <r>   0.0145  1.0000</r>
       <r>   0.3661  1.0000</r>
       <r>   0.3661  1.0000</r>
       <r>   0.3661  1.0000</r>
       <r>   0.5287  1.0000</r>
       <r>   0.5287  1.0000</r>
       <r>   0.6973  1.0000</r>
       <r>   0.6973  1.0000</r>
       <r>   0.6973  1.0000</r>
       <r>   1.0353  1.0000</r>
       <r>   1.0353  1.0000</r>
       <r>   1.0353  1.0000</r>
       <r>   3.5978  0.0000</r>
       <r>   3.5978  0.0000</r>
       <r>   3.5978  0.0000</r>
       <r>  10.5506  0.0000</r>
       <r>  10.5506  0.0000</r>
      </set>
      <set comment="kpoint 51">
       <r>  -4.4334  1.0000</r>
       <r>  -1.3729  1.0000</r>
       <r>  -1.1754  1.0000</r>
       <r>  -1.1754  1.0000</r>
       <r>  -0.8888  1.0000</r>
       <r>  -0.8844  1.0000</r>
       <r>  -0.8844  1.0000</r>
       <r>  -0.2701  1.0000</r>
       <r>   0.0396  1.0000</r>
       <r>   0.0439  1.0000</r>
       <r>   0.1472  1.0000</r>
       <r>   0.1472  1.0000</r>
       <r>   0.1870  1.0000</r>
       <r>   0.4915  1.0000</r>
       <r>   0.5896  1.0000</r>
       <r>   0.5967  1.0000</r>
       <r>   0.6227  1.0000</r>
       <r>   0.6227  1.0000</r>
       <r>   1.0155  1.0000</r>
       <r>   1.0155  1.0000</r>
       <r>   1.0201  1.0000</r>
       <r>   2.5456  0.0000</r>
       <r>   4.0738  0.0000</r>
       <r>   4.0738  0.0000</r>
       <r>   9.2921  0.0000</r>
       <r>   9.2921  0.0000</r>
      </set>
      <set comment="kpoint 52">
       <r>  -3.9521  1.0000</r>
       <r>  -1.6114  1.0000</r>
       <r>  -1.0335  1.0000</r>
       <r>  -1.0335  1.0000</r>
       <r>  -0.7888  1.0000</r>
       <r>  -0.7840  1.0000</r>
       <r>  -0.7840  1.0000</r>
       <r>  -0.3478  1.0000</r>
       <r>  -0.0761  1.0000</r>
       <r>  -0.0761  1.0000</r>
       <r>   0.0134  1.0000</r>
       <r>   0.0518  1.0000</r>
       <r>   0.0923  1.0000</r>
       <r>   0.4722  1.0000</r>
       <r>   0.4971  1.0000</r>
       <r>   0.5488  1.0000</r>
       <r>   0.5488  1.0000</r>
       <r>   0.6783  1.0000</r>
       <r>   0.9822  1.0000</r>
       <r>   0.9876  1.0000</r>
       <r>   0.9876  1.0000</r>
       <r>   1.7271  1.0000</r>
       <r>   4.6526  0.0000</r>
       <r>   4.6526  0.0000</r>
       <r>   8.1590  0.0000</r>
       <r>   8.1590  0.0000</r>
      </set>
      <set comment="kpoint 53">
       <r>  -3.3653  1.0000</r>
       <r>  -2.0860  1.0000</r>
       <r>  -0.8898  1.0000</r>
       <r>  -0.8898  1.0000</r>
       <r>  -0.7139  1.0000</r>
       <r>  -0.7139  1.0000</r>
       <r>  -0.6756  1.0000</r>
       <r>  -0.4471  1.0000</r>
       <r>  -0.2465  1.0000</r>
       <r>  -0.2465  1.0000</r>
       <r>  -0.0648  1.0000</r>
       <r>   0.0155  1.0000</r>
       <r>   0.1616  1.0000</r>
       <r>   0.3565  1.0000</r>
       <r>   0.4775  1.0000</r>
       <r>   0.4775  1.0000</r>
       <r>   0.6013  1.0000</r>
       <r>   0.7651  1.0000</r>
       <r>   0.9236  1.0000</r>
       <r>   0.9670  1.0000</r>
       <r>   0.9670  1.0000</r>
       <r>   1.1733  1.0000</r>
       <r>   5.3008  0.0000</r>
       <r>   5.3008  0.0000</r>
       <r>   7.1791  0.0000</r>
       <r>   7.1791  0.0000</r>
      </set>
      <set comment="kpoint 54">
       <r>  -2.7152  1.0000</r>
       <r>  -2.7152  1.0000</r>
       <r>  -0.7888  1.0000</r>
       <r>  -0.7888  1.0000</r>
       <r>  -0.7301  1.0000</r>
       <r>  -0.7301  1.0000</r>
       <r>  -0.5590  1.0000</r>
       <r>  -0.5590  1.0000</r>
       <r>  -0.3073  1.0000</r>
       <r>  -0.3073  1.0000</r>
       <r>  -0.0438  1.0000</r>
       <r>  -0.0438  1.0000</r>
       <r>   0.2509  1.0000</r>
       <r>   0.2509  1.0000</r>
       <r>   0.4450  1.0000</r>
       <r>   0.4450  1.0000</r>
       <r>   0.8197  1.0000</r>
       <r>   0.8197  1.0000</r>
       <r>   0.8492  1.0000</r>
       <r>   0.8492  1.0000</r>
       <r>   0.9597  1.0000</r>
       <r>   0.9597  1.0000</r>
       <r>   5.7813  0.0000</r>
       <r>   5.7813  0.0000</r>
       <r>   6.5882  0.0000</r>
       <r>   6.5882  0.0000</r>
      </set>
      <set comment="kpoint 55">
       <r>  -4.0907  1.0000</r>
       <r>  -1.2483  1.0000</r>
       <r>  -1.2483  1.0000</r>
       <r>  -1.0975  1.0000</r>
       <r>  -0.8076  1.0000</r>
       <r>  -0.8046  1.0000</r>
       <r>  -0.8046  1.0000</r>
       <r>  -0.2874  1.0000</r>
       <r>   0.0045  1.0000</r>
       <r>   0.0045  1.0000</r>
       <r>   0.0374  1.0000</r>
       <r>   0.0389  1.0000</r>
       <r>   0.0510  1.0000</r>
       <r>   0.5097  1.0000</r>
       <r>   0.5183  1.0000</r>
       <r>   0.5183  1.0000</r>
       <r>   0.5214  1.0000</r>
       <r>   0.6397  1.0000</r>
       <r>   0.9978  1.0000</r>
       <r>   1.0069  1.0000</r>
       <r>   1.0069  1.0000</r>
       <r>   2.9607  0.0000</r>
       <r>   2.9607  0.0000</r>
       <r>   4.4853  0.0000</r>
       <r>   8.0233  0.0000</r>
       <r>   9.7066  0.0000</r>
      </set>
      <set comment="kpoint 56">
       <r>  -3.6284  1.0000</r>
       <r>  -1.4689  1.0000</r>
       <r>  -1.1166  1.0000</r>
       <r>  -1.0201  1.0000</r>
       <r>  -0.7136  1.0000</r>
       <r>  -0.7010  1.0000</r>
       <r>  -0.6968  1.0000</r>
       <r>  -0.3312  1.0000</r>
       <r>  -0.1637  1.0000</r>
       <r>  -0.1118  1.0000</r>
       <r>  -0.0870  1.0000</r>
       <r>   0.0263  1.0000</r>
       <r>   0.0756  1.0000</r>
       <r>   0.4034  1.0000</r>
       <r>   0.4436  1.0000</r>
       <r>   0.4588  1.0000</r>
       <r>   0.5288  1.0000</r>
       <r>   0.7376  1.0000</r>
       <r>   0.9650  1.0000</r>
       <r>   0.9711  1.0000</r>
       <r>   0.9720  1.0000</r>
       <r>   2.0612  1.0000</r>
       <r>   3.4729  0.0000</r>
       <r>   4.9710  0.0000</r>
       <r>   6.9414  0.0000</r>
       <r>   8.5668  0.0000</r>
      </set>
      <set comment="kpoint 57">
       <r>  -3.0712  1.0000</r>
       <r>  -1.8945  1.0000</r>
       <r>  -1.0046  1.0000</r>
       <r>  -0.9578  1.0000</r>
       <r>  -0.6457  1.0000</r>
       <r>  -0.6192  1.0000</r>
       <r>  -0.5906  1.0000</r>
       <r>  -0.4001  1.0000</r>
       <r>  -0.2532  1.0000</r>
       <r>  -0.1826  1.0000</r>
       <r>  -0.1420  1.0000</r>
       <r>  -0.0226  1.0000</r>
       <r>   0.1236  1.0000</r>
       <r>   0.2927  1.0000</r>
       <r>   0.3849  1.0000</r>
       <r>   0.4002  1.0000</r>
       <r>   0.6259  1.0000</r>
       <r>   0.8597  1.0000</r>
       <r>   0.9029  1.0000</r>
       <r>   0.9354  1.0000</r>
       <r>   0.9380  1.0000</r>
       <r>   1.4266  1.0000</r>
       <r>   4.0733  0.0000</r>
       <r>   5.2497  0.0000</r>
       <r>   6.3216  0.0000</r>
       <r>   7.5681  0.0000</r>
      </set>
      <set comment="kpoint 58">
       <r>  -2.4657  1.0000</r>
       <r>  -2.4657  1.0000</r>
       <r>  -0.9431  1.0000</r>
       <r>  -0.9431  1.0000</r>
       <r>  -0.6183  1.0000</r>
       <r>  -0.6183  1.0000</r>
       <r>  -0.4880  1.0000</r>
       <r>  -0.4880  1.0000</r>
       <r>  -0.2376  1.0000</r>
       <r>  -0.2376  1.0000</r>
       <r>  -0.0952  1.0000</r>
       <r>  -0.0952  1.0000</r>
       <r>   0.1971  1.0000</r>
       <r>   0.1971  1.0000</r>
       <r>   0.3658  1.0000</r>
       <r>   0.3658  1.0000</r>
       <r>   0.7826  1.0000</r>
       <r>   0.7826  1.0000</r>
       <r>   0.9244  1.0000</r>
       <r>   0.9244  1.0000</r>
       <r>   1.0480  1.0000</r>
       <r>   1.0480  1.0000</r>
       <r>   4.7431  0.0000</r>
       <r>   4.7431  0.0000</r>
       <r>   6.7393  0.0000</r>
       <r>   6.7393  0.0000</r>
      </set>
      <set comment="kpoint 59">
       <r>  -3.1976  1.0000</r>
       <r>  -1.3223  1.0000</r>
       <r>  -1.3223  1.0000</r>
       <r>  -1.0314  1.0000</r>
       <r>  -0.6160  1.0000</r>
       <r>  -0.5809  1.0000</r>
       <r>  -0.5809  1.0000</r>
       <r>  -0.3253  1.0000</r>
       <r>  -0.2180  1.0000</r>
       <r>  -0.2180  1.0000</r>
       <r>  -0.1086  1.0000</r>
       <r>  -0.0009  1.0000</r>
       <r>   0.0734  1.0000</r>
       <r>   0.3523  1.0000</r>
       <r>   0.3523  1.0000</r>
       <r>   0.3542  1.0000</r>
       <r>   0.5373  1.0000</r>
       <r>   0.8654  1.0000</r>
       <r>   0.9260  1.0000</r>
       <r>   0.9283  1.0000</r>
       <r>   0.9283  1.0000</r>
       <r>   2.4915  0.4375</r>
       <r>   2.4915  0.4375</r>
       <r>   5.0609  0.0000</r>
       <r>   6.2321  0.0000</r>
       <r>   9.1174  0.0000</r>
      </set>
      <set comment="kpoint 60">
       <r>  -2.6906  1.0000</r>
       <r>  -1.6793  1.0000</r>
       <r>  -1.2012  1.0000</r>
       <r>  -1.0622  1.0000</r>
       <r>  -0.5323  1.0000</r>
       <r>  -0.4850  1.0000</r>
       <r>  -0.4660  1.0000</r>
       <r>  -0.3409  1.0000</r>
       <r>  -0.2492  1.0000</r>
       <r>  -0.2103  1.0000</r>
       <r>  -0.1357  1.0000</r>
       <r>  -0.0565  1.0000</r>
       <r>   0.0979  1.0000</r>
       <r>   0.2468  1.0000</r>
       <r>   0.2927  1.0000</r>
       <r>   0.3049  1.0000</r>
       <r>   0.6011  1.0000</r>
       <r>   0.8471  1.0000</r>
       <r>   0.8854  1.0000</r>
       <r>   0.8863  1.0000</r>
       <r>   1.0394  1.0000</r>
       <r>   1.7663  1.0000</r>
       <r>   3.0221  0.0000</r>
       <r>   4.4221  0.0000</r>
       <r>   6.5336  0.0000</r>
       <r>   8.1037  0.0000</r>
      </set>
      <set comment="kpoint 61">
       <r>  -2.1596  1.0000</r>
       <r>  -2.1596  1.0000</r>
       <r>  -1.1159  1.0000</r>
       <r>  -1.1159  1.0000</r>
       <r>  -0.4841  1.0000</r>
       <r>  -0.4841  1.0000</r>
       <r>  -0.3846  1.0000</r>
       <r>  -0.3846  1.0000</r>
       <r>  -0.1863  1.0000</r>
       <r>  -0.1863  1.0000</r>
       <r>  -0.1424  1.0000</r>
       <r>  -0.1424  1.0000</r>
       <r>   0.1581  1.0000</r>
       <r>   0.1581  1.0000</r>
       <r>   0.2753  1.0000</r>
       <r>   0.2753  1.0000</r>
       <r>   0.7249  1.0000</r>
       <r>   0.7249  1.0000</r>
       <r>   0.8684  1.0000</r>
       <r>   0.8684  1.0000</r>
       <r>   1.3056  1.0000</r>
       <r>   1.3056  1.0000</r>
       <r>   3.6691  0.0000</r>
       <r>   3.6691  0.0000</r>
       <r>   7.2330  0.0000</r>
       <r>   7.2330  0.0000</r>
      </set>
      <set comment="kpoint 62">
       <r>  -2.2626  1.0000</r>
       <r>  -1.4799  1.0000</r>
       <r>  -1.4799  1.0000</r>
       <r>  -1.1799  1.0000</r>
       <r>  -0.4252  1.0000</r>
       <r>  -0.3418  1.0000</r>
       <r>  -0.3418  1.0000</r>
       <r>  -0.2869  1.0000</r>
       <r>  -0.2384  1.0000</r>
       <r>  -0.2384  1.0000</r>
       <r>  -0.1185  1.0000</r>
       <r>  -0.1011  1.0000</r>
       <r>   0.0909  1.0000</r>
       <r>   0.2085  1.0000</r>
       <r>   0.2085  1.0000</r>
       <r>   0.2203  1.0000</r>
       <r>   0.6154  1.0000</r>
       <r>   0.8005  1.0000</r>
       <r>   0.8005  1.0000</r>
       <r>   0.8296  1.0000</r>
       <r>   1.2799  1.0000</r>
       <r>   2.2030  1.0000</r>
       <r>   2.2030  1.0000</r>
       <r>   3.5230  0.0000</r>
       <r>   7.1251  0.0000</r>
       <r>   8.7737  0.0000</r>
      </set>
      <set comment="kpoint 63">
       <r>  -1.8417  1.0000</r>
       <r>  -1.8417  1.0000</r>
       <r>  -1.3151  1.0000</r>
       <r>  -1.3151  1.0000</r>
       <r>  -0.3517  1.0000</r>
       <r>  -0.3517  1.0000</r>
       <r>  -0.2641  1.0000</r>
       <r>  -0.2641  1.0000</r>
       <r>  -0.1862  1.0000</r>
       <r>  -0.1862  1.0000</r>
       <r>  -0.1591  1.0000</r>
       <r>  -0.1591  1.0000</r>
       <r>   0.1295  1.0000</r>
       <r>   0.1295  1.0000</r>
       <r>   0.1900  1.0000</r>
       <r>   0.1900  1.0000</r>
       <r>   0.6946  1.0000</r>
       <r>   0.6946  1.0000</r>
       <r>   0.7926  1.0000</r>
       <r>   0.7926  1.0000</r>
       <r>   1.6378  1.0000</r>
       <r>   1.6378  1.0000</r>
       <r>   2.7781  0.0000</r>
       <r>   2.7781  0.0000</r>
       <r>   7.8801  0.0000</r>
       <r>   7.8801  0.0000</r>
      </set>
      <set comment="kpoint 64">
       <r>  -1.5545  1.0000</r>
       <r>  -1.5545  1.0000</r>
       <r>  -1.5545  1.0000</r>
       <r>  -1.5545  1.0000</r>
       <r>  -0.2488  1.0000</r>
       <r>  -0.2488  1.0000</r>
       <r>  -0.2488  1.0000</r>
       <r>  -0.2488  1.0000</r>
       <r>  -0.1766  1.0000</r>
       <r>  -0.1766  1.0000</r>
       <r>  -0.1766  1.0000</r>
       <r>  -0.1766  1.0000</r>
       <r>   0.1333  1.0000</r>
       <r>   0.1333  1.0000</r>
       <r>   0.1333  1.0000</r>
       <r>   0.1333  1.0000</r>
       <r>   0.7206  1.0000</r>
       <r>   0.7206  1.0000</r>
       <r>   0.7206  1.0000</r>
       <r>   0.7206  1.0000</r>
       <r>   2.1071  1.0000</r>
       <r>   2.1071  1.0000</r>
       <r>   2.1071  1.0000</r>
       <r>   2.1071  1.0000</r>
       <r>   8.6611  0.0000</r>
       <r>   8.6611  0.0000</r>
      </set>
      <set comment="kpoint 65">
       <r>  -3.7643  1.0000</r>
       <r>  -1.1936  1.0000</r>
       <r>  -1.1936  1.0000</r>
       <r>  -1.1936  1.0000</r>
       <r>  -0.7125  1.0000</r>
       <r>  -0.7125  1.0000</r>
       <r>  -0.7125  1.0000</r>
       <r>  -0.2727  1.0000</r>
       <r>  -0.0550  1.0000</r>
       <r>  -0.0550  1.0000</r>
       <r>  -0.0550  1.0000</r>
       <r>   0.0301  1.0000</r>
       <r>   0.0301  1.0000</r>
       <r>   0.4090  1.0000</r>
       <r>   0.4090  1.0000</r>
       <r>   0.4090  1.0000</r>
       <r>   0.6128  1.0000</r>
       <r>   0.6128  1.0000</r>
       <r>   1.0159  1.0000</r>
       <r>   1.0159  1.0000</r>
       <r>   1.0159  1.0000</r>
       <r>   3.3073  0.0000</r>
       <r>   3.3073  0.0000</r>
       <r>   3.3073  0.0000</r>
       <r>   8.4327  0.0000</r>
       <r>   8.4327  0.0000</r>
      </set>
      <set comment="kpoint 66">
       <r>  -3.3290  1.0000</r>
       <r>  -1.4097  1.0000</r>
       <r>  -1.1480  1.0000</r>
       <r>  -1.1480  1.0000</r>
       <r>  -0.6052  1.0000</r>
       <r>  -0.6052  1.0000</r>
       <r>  -0.5903  1.0000</r>
       <r>  -0.2739  1.0000</r>
       <r>  -0.1274  1.0000</r>
       <r>  -0.1112  1.0000</r>
       <r>  -0.1112  1.0000</r>
       <r>   0.0116  1.0000</r>
       <r>   0.0320  1.0000</r>
       <r>   0.2971  1.0000</r>
       <r>   0.3360  1.0000</r>
       <r>   0.3360  1.0000</r>
       <r>   0.6327  1.0000</r>
       <r>   0.7197  1.0000</r>
       <r>   0.9911  1.0000</r>
       <r>   0.9911  1.0000</r>
       <r>   1.0071  1.0000</r>
       <r>   2.3193  1.0000</r>
       <r>   3.7461  0.0000</r>
       <r>   3.7461  0.0000</r>
       <r>   7.3247  0.0000</r>
       <r>   7.3247  0.0000</r>
      </set>
      <set comment="kpoint 67">
       <r>  -2.8146  1.0000</r>
       <r>  -1.7789  1.0000</r>
       <r>  -1.1179  1.0000</r>
       <r>  -1.1179  1.0000</r>
       <r>  -0.5338  1.0000</r>
       <r>  -0.5338  1.0000</r>
       <r>  -0.4643  1.0000</r>
       <r>  -0.3020  1.0000</r>
       <r>  -0.1458  1.0000</r>
       <r>  -0.1223  1.0000</r>
       <r>  -0.1223  1.0000</r>
       <r>  -0.0379  1.0000</r>
       <r>   0.0606  1.0000</r>
       <r>   0.1970  1.0000</r>
       <r>   0.2847  1.0000</r>
       <r>   0.2847  1.0000</r>
       <r>   0.7658  1.0000</r>
       <r>   0.8200  1.0000</r>
       <r>   0.9576  1.0000</r>
       <r>   0.9576  1.0000</r>
       <r>   0.9695  1.0000</r>
       <r>   1.5710  1.0000</r>
       <r>   4.2224  0.0000</r>
       <r>   4.2224  0.0000</r>
       <r>   6.4417  0.0000</r>
       <r>   6.4417  0.0000</r>
      </set>
      <set comment="kpoint 68">
       <r>  -2.2727  1.0000</r>
       <r>  -2.2727  1.0000</r>
       <r>  -1.1070  1.0000</r>
       <r>  -1.1070  1.0000</r>
       <r>  -0.5156  1.0000</r>
       <r>  -0.5156  1.0000</r>
       <r>  -0.3633  1.0000</r>
       <r>  -0.3633  1.0000</r>
       <r>  -0.1097  1.0000</r>
       <r>  -0.1097  1.0000</r>
       <r>  -0.1060  1.0000</r>
       <r>  -0.1060  1.0000</r>
       <r>   0.1165  1.0000</r>
       <r>   0.1165  1.0000</r>
       <r>   0.2617  1.0000</r>
       <r>   0.2617  1.0000</r>
       <r>   0.9054  1.0000</r>
       <r>   0.9054  1.0000</r>
       <r>   0.9423  1.0000</r>
       <r>   0.9423  1.0000</r>
       <r>   1.0649  1.0000</r>
       <r>   1.0649  1.0000</r>
       <r>   4.4988  0.0000</r>
       <r>   4.4988  0.0000</r>
       <r>   6.0285  0.0000</r>
       <r>   6.0285  0.0000</r>
      </set>
      <set comment="kpoint 69">
       <r>  -2.9388  1.0000</r>
       <r>  -1.3579  1.0000</r>
       <r>  -1.3579  1.0000</r>
       <r>  -1.1907  1.0000</r>
       <r>  -0.5038  1.0000</r>
       <r>  -0.4667  1.0000</r>
       <r>  -0.4667  1.0000</r>
       <r>  -0.2076  1.0000</r>
       <r>  -0.1238  1.0000</r>
       <r>  -0.1238  1.0000</r>
       <r>  -0.0539  1.0000</r>
       <r>  -0.0080  1.0000</r>
       <r>   0.0090  1.0000</r>
       <r>   0.2296  1.0000</r>
       <r>   0.2296  1.0000</r>
       <r>   0.2426  1.0000</r>
       <r>   0.6631  1.0000</r>
       <r>   0.8111  1.0000</r>
       <r>   0.9765  1.0000</r>
       <r>   0.9892  1.0000</r>
       <r>   0.9892  1.0000</r>
       <r>   2.6849  0.0000</r>
       <r>   2.6849  0.0000</r>
       <r>   4.0329  0.0000</r>
       <r>   6.3429  0.0000</r>
       <r>   7.8562  0.0000</r>
      </set>
      <set comment="kpoint 70">
       <r>  -2.4948  1.0000</r>
       <r>  -1.6600  1.0000</r>
       <r>  -1.3152  1.0000</r>
       <r>  -1.2348  1.0000</r>
       <r>  -0.4300  1.0000</r>
       <r>  -0.3991  1.0000</r>
       <r>  -0.3180  1.0000</r>
       <r>  -0.1626  1.0000</r>
       <r>  -0.1239  1.0000</r>
       <r>  -0.0632  1.0000</r>
       <r>  -0.0563  1.0000</r>
       <r>  -0.0009  1.0000</r>
       <r>   0.0201  1.0000</r>
       <r>   0.1363  1.0000</r>
       <r>   0.1839  1.0000</r>
       <r>   0.1869  1.0000</r>
       <r>   0.7410  1.0000</r>
       <r>   0.9457  1.0000</r>
       <r>   0.9512  1.0000</r>
       <r>   0.9516  1.0000</r>
       <r>   0.9673  1.0000</r>
       <r>   1.8454  1.0000</r>
       <r>   3.1497  0.0000</r>
       <r>   4.0793  0.0000</r>
       <r>   5.8885  0.0000</r>
       <r>   6.9041  0.0000</r>
      </set>
      <set comment="kpoint 71">
       <r>  -2.0500  1.0000</r>
       <r>  -2.0500  1.0000</r>
       <r>  -1.2759  1.0000</r>
       <r>  -1.2759  1.0000</r>
       <r>  -0.3957  1.0000</r>
       <r>  -0.3957  1.0000</r>
       <r>  -0.1908  1.0000</r>
       <r>  -0.1908  1.0000</r>
       <r>  -0.1128  1.0000</r>
       <r>  -0.1128  1.0000</r>
       <r>   0.0057  1.0000</r>
       <r>   0.0057  1.0000</r>
       <r>   0.0645  1.0000</r>
       <r>   0.0645  1.0000</r>
       <r>   0.1640  1.0000</r>
       <r>   0.1640  1.0000</r>
       <r>   0.8684  1.0000</r>
       <r>   0.8684  1.0000</r>
       <r>   0.9305  1.0000</r>
       <r>   0.9305  1.0000</r>
       <r>   1.2702  1.0000</r>
       <r>   1.2702  1.0000</r>
       <r>   3.6774  0.0000</r>
       <r>   3.6774  0.0000</r>
       <r>   6.1819  0.0000</r>
       <r>   6.1819  0.0000</r>
      </set>
      <set comment="kpoint 72">
       <r>  -2.1529  1.0000</r>
       <r>  -1.5507  1.0000</r>
       <r>  -1.5507  1.0000</r>
       <r>  -1.3451  1.0000</r>
       <r>  -0.3407  1.0000</r>
       <r>  -0.2649  1.0000</r>
       <r>  -0.2649  1.0000</r>
       <r>  -0.0913  1.0000</r>
       <r>  -0.0172  1.0000</r>
       <r>  -0.0135  1.0000</r>
       <r>  -0.0135  1.0000</r>
       <r>   0.0021  1.0000</r>
       <r>   0.0903  1.0000</r>
       <r>   0.1068  1.0000</r>
       <r>   0.1068  1.0000</r>
       <r>   0.1127  1.0000</r>
       <r>   0.7399  1.0000</r>
       <r>   0.9051  1.0000</r>
       <r>   0.9051  1.0000</r>
       <r>   0.9104  1.0000</r>
       <r>   1.1998  1.0000</r>
       <r>   2.2502  1.0000</r>
       <r>   2.2502  1.0000</r>
       <r>   3.4741  0.0000</r>
       <r>   6.1020  0.0000</r>
       <r>   7.5318  0.0000</r>
      </set>
      <set comment="kpoint 73">
       <r>  -1.8305  1.0000</r>
       <r>  -1.8305  1.0000</r>
       <r>  -1.4485  1.0000</r>
       <r>  -1.4485  1.0000</r>
       <r>  -0.2842  1.0000</r>
       <r>  -0.2842  1.0000</r>
       <r>  -0.1566  1.0000</r>
       <r>  -0.1566  1.0000</r>
       <r>   0.0051  1.0000</r>
       <r>   0.0051  1.0000</r>
       <r>   0.0559  1.0000</r>
       <r>   0.0559  1.0000</r>
       <r>   0.0701  1.0000</r>
       <r>   0.0701  1.0000</r>
       <r>   0.1145  1.0000</r>
       <r>   0.1145  1.0000</r>
       <r>   0.8184  1.0000</r>
       <r>   0.8184  1.0000</r>
       <r>   0.8849  1.0000</r>
       <r>   0.8849  1.0000</r>
       <r>   1.5951  1.0000</r>
       <r>   1.5951  1.0000</r>
       <r>   2.8009  0.0000</r>
       <r>   2.8009  0.0000</r>
       <r>   6.7104  0.0000</r>
       <r>   6.7104  0.0000</r>
      </set>
      <set comment="kpoint 74">
       <r>  -1.6305  1.0000</r>
       <r>  -1.6305  1.0000</r>
       <r>  -1.6305  1.0000</r>
       <r>  -1.6305  1.0000</r>
       <r>  -0.2015  1.0000</r>
       <r>  -0.2015  1.0000</r>
       <r>  -0.2015  1.0000</r>
       <r>  -0.2015  1.0000</r>
       <r>   0.0324  1.0000</r>
       <r>   0.0324  1.0000</r>
       <r>   0.0324  1.0000</r>
       <r>   0.0324  1.0000</r>
       <r>   0.1343  1.0000</r>
       <r>   0.1343  1.0000</r>
       <r>   0.1343  1.0000</r>
       <r>   0.1343  1.0000</r>
       <r>   0.8274  1.0000</r>
       <r>   0.8274  1.0000</r>
       <r>   0.8274  1.0000</r>
       <r>   0.8274  1.0000</r>
       <r>   2.0912  1.0000</r>
       <r>   2.0912  1.0000</r>
       <r>   2.0912  1.0000</r>
       <r>   2.0912  1.0000</r>
       <r>   7.4278  0.0000</r>
       <r>   7.4278  0.0000</r>
      </set>
      <set comment="kpoint 75">
       <r>  -2.6146  1.0000</r>
       <r>  -1.3936  1.0000</r>
       <r>  -1.3936  1.0000</r>
       <r>  -1.3936  1.0000</r>
       <r>  -0.3696  1.0000</r>
       <r>  -0.3696  1.0000</r>
       <r>  -0.3696  1.0000</r>
       <r>  -0.0390  1.0000</r>
       <r>  -0.0266  1.0000</r>
       <r>  -0.0266  1.0000</r>
       <r>   0.0074  1.0000</r>
       <r>   0.0074  1.0000</r>
       <r>   0.0074  1.0000</r>
       <r>   0.1393  1.0000</r>
       <r>   0.1393  1.0000</r>
       <r>   0.1393  1.0000</r>
       <r>   0.7788  1.0000</r>
       <r>   0.7788  1.0000</r>
       <r>   1.0000  1.0000</r>
       <r>   1.0000  1.0000</r>
       <r>   1.0000  1.0000</r>
       <r>   2.9501  0.0000</r>
       <r>   2.9501  0.0000</r>
       <r>   2.9501  0.0000</r>
       <r>   6.7951  0.0000</r>
       <r>   6.7951  0.0000</r>
      </set>
      <set comment="kpoint 76">
       <r>  -2.2651  1.0000</r>
       <r>  -1.6394  1.0000</r>
       <r>  -1.4193  1.0000</r>
       <r>  -1.4193  1.0000</r>
       <r>  -0.3160  1.0000</r>
       <r>  -0.3160  1.0000</r>
       <r>  -0.2374  1.0000</r>
       <r>  -0.0646  1.0000</r>
       <r>  -0.0307  1.0000</r>
       <r>   0.0551  1.0000</r>
       <r>   0.0730  1.0000</r>
       <r>   0.0816  1.0000</r>
       <r>   0.0816  1.0000</r>
       <r>   0.1105  1.0000</r>
       <r>   0.1452  1.0000</r>
       <r>   0.1452  1.0000</r>
       <r>   0.8763  1.0000</r>
       <r>   0.8890  1.0000</r>
       <r>   0.9774  1.0000</r>
       <r>   0.9774  1.0000</r>
       <r>   0.9909  1.0000</r>
       <r>   2.0201  1.0000</r>
       <r>   3.2339  0.0000</r>
       <r>   3.2339  0.0000</r>
       <r>   6.0171  0.0000</r>
       <r>   6.0171  0.0000</r>
      </set>
      <set comment="kpoint 77">
       <r>  -1.9315  1.0000</r>
       <r>  -1.9315  1.0000</r>
       <r>  -1.4286  1.0000</r>
       <r>  -1.4286  1.0000</r>
       <r>  -0.3001  1.0000</r>
       <r>  -0.3001  1.0000</r>
       <r>  -0.1324  1.0000</r>
       <r>  -0.1324  1.0000</r>
       <r>  -0.0029  1.0000</r>
       <r>  -0.0029  1.0000</r>
       <r>   0.0658  1.0000</r>
       <r>   0.0658  1.0000</r>
       <r>   0.1292  1.0000</r>
       <r>   0.1292  1.0000</r>
       <r>   0.2032  1.0000</r>
       <r>   0.2032  1.0000</r>
       <r>   0.9488  1.0000</r>
       <r>   0.9488  1.0000</r>
       <r>   0.9606  1.0000</r>
       <r>   0.9606  1.0000</r>
       <r>   1.3091  1.0000</r>
       <r>   1.3091  1.0000</r>
       <r>   3.3769  0.0000</r>
       <r>   3.3769  0.0000</r>
       <r>   5.7061  0.0000</r>
       <r>   5.7061  0.0000</r>
      </set>
      <set comment="kpoint 78">
       <r>  -2.0322  1.0000</r>
       <r>  -1.6113  1.0000</r>
       <r>  -1.6113  1.0000</r>
       <r>  -1.5045  1.0000</r>
       <r>  -0.2516  1.0000</r>
       <r>  -0.2118  1.0000</r>
       <r>  -0.2118  1.0000</r>
       <r>  -0.0801  1.0000</r>
       <r>  -0.0591  1.0000</r>
       <r>   0.0065  1.0000</r>
       <r>   0.0065  1.0000</r>
       <r>   0.0203  1.0000</r>
       <r>   0.2870  1.0000</r>
       <r>   0.2870  1.0000</r>
       <r>   0.3132  1.0000</r>
       <r>   0.3871  1.0000</r>
       <r>   0.8466  1.0000</r>
       <r>   0.9661  1.0000</r>
       <r>   0.9720  1.0000</r>
       <r>   0.9720  1.0000</r>
       <r>   1.0843  1.0000</r>
       <r>   2.3227  1.0000</r>
       <r>   2.3227  1.0000</r>
       <r>   3.1065  0.0000</r>
       <r>   5.6495  0.0000</r>
       <r>   6.5134  0.0000</r>
      </set>
      <set comment="kpoint 79">
       <r>  -1.8138  1.0000</r>
       <r>  -1.8138  1.0000</r>
       <r>  -1.5680  1.0000</r>
       <r>  -1.5680  1.0000</r>
       <r>  -0.2161  1.0000</r>
       <r>  -0.2161  1.0000</r>
       <r>  -0.1315  1.0000</r>
       <r>  -0.1315  1.0000</r>
       <r>  -0.0427  1.0000</r>
       <r>  -0.0427  1.0000</r>
       <r>  -0.0067  1.0000</r>
       <r>  -0.0067  1.0000</r>
       <r>   0.3848  1.0000</r>
       <r>   0.3848  1.0000</r>
       <r>   0.4082  1.0000</r>
       <r>   0.4082  1.0000</r>
       <r>   0.9215  1.0000</r>
       <r>   0.9215  1.0000</r>
       <r>   0.9504  1.0000</r>
       <r>   0.9504  1.0000</r>
       <r>   1.5587  1.0000</r>
       <r>   1.5587  1.0000</r>
       <r>   2.7318  0.0000</r>
       <r>   2.7318  0.0000</r>
       <r>   5.8764  0.0000</r>
       <r>   5.8764  0.0000</r>
      </set>
      <set comment="kpoint 80">
       <r>  -1.6948  1.0000</r>
       <r>  -1.6948  1.0000</r>
       <r>  -1.6948  1.0000</r>
       <r>  -1.6948  1.0000</r>
       <r>  -0.1565  1.0000</r>
       <r>  -0.1565  1.0000</r>
       <r>  -0.1565  1.0000</r>
       <r>  -0.1565  1.0000</r>
       <r>  -0.0465  1.0000</r>
       <r>  -0.0465  1.0000</r>
       <r>  -0.0465  1.0000</r>
       <r>  -0.0465  1.0000</r>
       <r>   0.4979  1.0000</r>
       <r>   0.4979  1.0000</r>
       <r>   0.4979  1.0000</r>
       <r>   0.4979  1.0000</r>
       <r>   0.9123  1.0000</r>
       <r>   0.9123  1.0000</r>
       <r>   0.9123  1.0000</r>
       <r>   0.9123  1.0000</r>
       <r>   2.0559  1.0000</r>
       <r>   2.0559  1.0000</r>
       <r>   2.0559  1.0000</r>
       <r>   2.0559  1.0000</r>
       <r>   6.4263  0.0000</r>
       <r>   6.4263  0.0000</r>
      </set>
      <set comment="kpoint 81">
       <r>  -1.9100  1.0000</r>
       <r>  -1.6511  1.0000</r>
       <r>  -1.6511  1.0000</r>
       <r>  -1.6511  1.0000</r>
       <r>  -0.1747  1.0000</r>
       <r>  -0.1747  1.0000</r>
       <r>  -0.1747  1.0000</r>
       <r>  -0.0885  1.0000</r>
       <r>  -0.0885  1.0000</r>
       <r>  -0.0472  1.0000</r>
       <r>  -0.0472  1.0000</r>
       <r>  -0.0472  1.0000</r>
       <r>   0.5368  1.0000</r>
       <r>   0.5368  1.0000</r>
       <r>   0.5368  1.0000</r>
       <r>   0.9272  1.0000</r>
       <r>   0.9272  1.0000</r>
       <r>   0.9507  1.0000</r>
       <r>   0.9890  1.0000</r>
       <r>   0.9890  1.0000</r>
       <r>   0.9890  1.0000</r>
       <r>   2.4077  1.0000</r>
       <r>   2.4077  1.0000</r>
       <r>   2.4077  1.0000</r>
       <r>   5.8073  0.0000</r>
       <r>   5.8073  0.0000</r>
      </set>
      <set comment="kpoint 82">
       <r>  -1.7849  1.0000</r>
       <r>  -1.7849  1.0000</r>
       <r>  -1.6650  1.0000</r>
       <r>  -1.6650  1.0000</r>
       <r>  -0.1602  1.0000</r>
       <r>  -0.1602  1.0000</r>
       <r>  -0.1193  1.0000</r>
       <r>  -0.1193  1.0000</r>
       <r>  -0.0845  1.0000</r>
       <r>  -0.0845  1.0000</r>
       <r>  -0.0673  1.0000</r>
       <r>  -0.0673  1.0000</r>
       <r>   0.6487  1.0000</r>
       <r>   0.6487  1.0000</r>
       <r>   0.7473  1.0000</r>
       <r>   0.7473  1.0000</r>
       <r>   0.9759  1.0000</r>
       <r>   0.9759  1.0000</r>
       <r>   0.9785  1.0000</r>
       <r>   0.9785  1.0000</r>
       <r>   1.6375  1.0000</r>
       <r>   1.6375  1.0000</r>
       <r>   2.4510  1.0000</r>
       <r>   2.4510  1.0000</r>
       <r>   5.5454  0.0000</r>
       <r>   5.5454  0.0000</r>
      </set>
      <set comment="kpoint 83">
       <r>  -1.7368  1.0000</r>
       <r>  -1.7368  1.0000</r>
       <r>  -1.7368  1.0000</r>
       <r>  -1.7368  1.0000</r>
       <r>  -0.1247  1.0000</r>
       <r>  -0.1247  1.0000</r>
       <r>  -0.1247  1.0000</r>
       <r>  -0.1247  1.0000</r>
       <r>  -0.0963  1.0000</r>
       <r>  -0.0963  1.0000</r>
       <r>  -0.0963  1.0000</r>
       <r>  -0.0963  1.0000</r>
       <r>   0.8331  1.0000</r>
       <r>   0.8331  1.0000</r>
       <r>   0.8331  1.0000</r>
       <r>   0.8331  1.0000</r>
       <r>   0.9665  1.0000</r>
       <r>   0.9665  1.0000</r>
       <r>   0.9665  1.0000</r>
       <r>   0.9665  1.0000</r>
       <r>   1.9971  1.0000</r>
       <r>   1.9971  1.0000</r>
       <r>   1.9971  1.0000</r>
       <r>   1.9971  1.0000</r>
       <r>   5.7447  0.0000</r>
       <r>   5.7447  0.0000</r>
      </set>
      <set comment="kpoint 84">
       <r>  -1.7514  1.0000</r>
       <r>  -1.7514  1.0000</r>
       <r>  -1.7514  1.0000</r>
       <r>  -1.7514  1.0000</r>
       <r>  -0.1134  1.0000</r>
       <r>  -0.1134  1.0000</r>
       <r>  -0.1134  1.0000</r>
       <r>  -0.1134  1.0000</r>
       <r>  -0.1134  1.0000</r>
       <r>  -0.1134  1.0000</r>
       <r>  -0.1134  1.0000</r>
       <r>  -0.1134  1.0000</r>
       <r>   0.9851  1.0000</r>
       <r>   0.9851  1.0000</r>
       <r>   0.9851  1.0000</r>
       <r>   0.9851  1.0000</r>
       <r>   0.9851  1.0000</r>
       <r>   0.9851  1.0000</r>
       <r>   0.9851  1.0000</r>
       <r>   0.9851  1.0000</r>
       <r>   1.9574  1.0000</r>
       <r>   1.9574  1.0000</r>
       <r>   1.9574  1.0000</r>
       <r>   1.9574  1.0000</r>
       <r>   5.4972  0.0000</r>
       <r>   5.4972  0.0000</r>
      </set>
     </set>
    </set>
   </array>
  </eigenvalues>
 </calculation>
 <structure name="finalpos" >
  <crystal>
   <varray name="basis" >
    <v>       3.81823660      0.00000000      0.00000000</v>
    <v>       0.00000000      3.81823660      0.00000000</v>
    <v>       0.00000000      0.00000000      3.81823660</v>
   </varray>
   <i name="volume">     55.66580702</i>
   <varray name="rec_basis" >
    <v>       0.26190100      0.00000000      0.00000000</v>
    <v>       0.00000000      0.26190100      0.00000000</v>
    <v>       0.00000000      0.00000000      0.26190100</v>
   </varray>
  </crystal>
  <varray name="positions" >
   <v>       0.00000000      0.00000000      0.00000000</v>
   <v>       0.50000000      0.50000000      0.00000000</v>
   <v>       0.50000000      0.00000000      0.50000000</v>
   <v>       0.00000000      0.50000000      0.50000000</v>
  </varray>
 </structure>
</modeling>
