   4   4   0   0
  0.2089141E+02  0.4371958E-09  0.4371958E-09  0.4371958E-09  0.5000000E-15
  1.000000000000000E-004
  CAR 
 unknown system                          
     18.18095897     -5.57174540  301      1.95445240      1.00000000
     -5.572  0.0000E+00  0.0000E+00
     -5.493  0.0000E+00  0.0000E+00
     -5.413  0.0000E+00  0.0000E+00
     -5.334  0.0000E+00  0.0000E+00
     -5.255  0.0000E+00  0.0000E+00
     -5.176  0.0000E+00  0.0000E+00
     -5.097  0.0000E+00  0.0000E+00
     -5.018  0.0000E+00  0.0000E+00
     -4.938  0.0000E+00  0.0000E+00
     -4.859  0.0000E+00  0.0000E+00
     -4.780  0.0000E+00  0.0000E+00
     -4.701  0.0000E+00  0.0000E+00
     -4.622  0.0000E+00  0.0000E+00
     -4.542  0.2817E-15  0.2231E-16
     -4.463  0.1907E-01  0.1510E-02
     -4.384  0.1182E+00  0.1103E-01
     -4.305  0.1893E+00  0.2611E-01
     -4.226  0.2179E+00  0.4406E-01
     -4.147  0.2755E+00  0.6617E-01
     -4.067  0.3002E+00  0.9092E-01
     -3.988  0.3882E+00  0.1218E+00
     -3.909  0.3855E+00  0.1535E+00
     -3.830  0.4026E+00  0.1874E+00
     -3.751  0.4817E+00  0.2265E+00
     -3.672  0.5507E+00  0.2703E+00
     -3.592  0.5475E+00  0.3154E+00
     -3.513  0.7235E+00  0.3729E+00
     -3.434  0.7819E+00  0.4372E+00
     -3.355  0.2316E+01  0.6224E+00
     -3.276  0.6915E+01  0.1178E+01
     -3.196  0.1035E+02  0.2022E+01
     -3.117  0.1310E+02  0.3084E+01
     -3.038  0.1756E+02  0.4509E+01
     -2.959  0.2043E+02  0.6181E+01
     -2.880  0.1670E+02  0.7545E+01
     -2.801  0.1486E+02  0.8760E+01
     -2.721  0.1241E+02  0.9771E+01
     -2.642  0.1055E+02  0.1064E+02
     -2.563  0.1332E+02  0.1172E+02
     -2.484  0.1599E+02  0.1302E+02
     -2.405  0.1538E+02  0.1428E+02
     -2.326  0.1459E+02  0.1547E+02
     -2.246  0.1427E+02  0.1664E+02
     -2.167  0.1779E+02  0.1809E+02
     -2.088  0.2518E+02  0.2015E+02
     -2.009  0.2102E+02  0.2190E+02
     -1.930  0.1560E+02  0.2319E+02
     -1.850  0.1263E+02  0.2423E+02
     -1.771  0.1558E+02  0.2550E+02
     -1.692  0.1661E+02  0.2685E+02
     -1.613  0.1781E+02  0.2832E+02
     -1.534  0.1892E+02  0.2986E+02
     -1.455  0.1705E+02  0.3125E+02
     -1.375  0.1534E+02  0.3251E+02
     -1.296  0.1468E+02  0.3371E+02
     -1.217  0.1496E+02  0.3492E+02
     -1.138  0.1658E+02  0.3627E+02
     -1.059  0.2196E+02  0.3806E+02
     -0.980  0.2408E+02  0.4003E+02
     -0.900  0.1118E+02  0.4095E+02
     -0.821  0.2952E+01  0.4120E+02
     -0.742  0.1119E+01  0.4129E+02
     -0.663  0.7128E+00  0.4135E+02
     -0.584  0.1089E+01  0.4144E+02
     -0.505  0.8108E+00  0.4151E+02
     -0.425  0.1008E+01  0.4159E+02
     -0.346  0.7927E+00  0.4165E+02
     -0.267  0.9998E+00  0.4174E+02
     -0.188  0.7028E+00  0.4180E+02
     -0.109  0.1081E+01  0.4188E+02
     -0.029  0.8017E+00  0.4195E+02
      0.050  0.1010E+01  0.4203E+02
      0.129  0.9150E+00  0.4210E+02
      0.208  0.9109E+00  0.4218E+02
      0.287  0.9935E+00  0.4226E+02
      0.366  0.7491E+00  0.4232E+02
      0.446  0.9944E+00  0.4240E+02
      0.525  0.1026E+01  0.4249E+02
      0.604  0.8565E+00  0.4256E+02
      0.683  0.1026E+01  0.4264E+02
      0.762  0.8725E+00  0.4271E+02
      0.841  0.1051E+01  0.4280E+02
      0.921  0.1007E+01  0.4288E+02
      1.000  0.9015E+00  0.4295E+02
      1.079  0.1038E+01  0.4304E+02
      1.158  0.1071E+01  0.4312E+02
      1.237  0.8830E+00  0.4320E+02
      1.317  0.1164E+01  0.4329E+02
      1.396  0.9659E+00  0.4337E+02
      1.475  0.1063E+01  0.4346E+02
      1.554  0.1026E+01  0.4354E+02
      1.633  0.1133E+01  0.4364E+02
      1.712  0.9917E+00  0.4372E+02
      1.792  0.1148E+01  0.4381E+02
      1.871  0.1166E+01  0.4390E+02
      1.950  0.1130E+01  0.4400E+02
      2.029  0.1140E+01  0.4409E+02
      2.108  0.1318E+01  0.4419E+02
      2.187  0.1123E+01  0.4429E+02
      2.267  0.1138E+01  0.4438E+02
      2.346  0.1255E+01  0.4448E+02
      2.425  0.1174E+01  0.4458E+02
      2.504  0.1182E+01  0.4467E+02
      2.583  0.1159E+01  0.4477E+02
      2.663  0.1278E+01  0.4487E+02
      2.742  0.1080E+01  0.4496E+02
      2.821  0.1209E+01  0.4506E+02
      2.900  0.1124E+01  0.4515E+02
      2.979  0.1182E+01  0.4525E+02
      3.058  0.1122E+01  0.4534E+02
      3.138  0.1081E+01  0.4543E+02
      3.217  0.1183E+01  0.4553E+02
      3.296  0.1041E+01  0.4561E+02
      3.375  0.1138E+01  0.4571E+02
      3.454  0.1088E+01  0.4580E+02
      3.533  0.1058E+01  0.4588E+02
      3.613  0.1151E+01  0.4598E+02
      3.692  0.1097E+01  0.4606E+02
      3.771  0.1201E+01  0.4616E+02
      3.850  0.1165E+01  0.4626E+02
      3.929  0.9770E+00  0.4634E+02
      4.009  0.1038E+01  0.4643E+02
      4.088  0.1109E+01  0.4652E+02
      4.167  0.1003E+01  0.4660E+02
      4.246  0.9606E+00  0.4668E+02
      4.325  0.9695E+00  0.4676E+02
      4.404  0.9707E+00  0.4683E+02
      4.484  0.8863E+00  0.4691E+02
      4.563  0.1008E+01  0.4699E+02
      4.642  0.1304E+01  0.4709E+02
      4.721  0.1521E+01  0.4722E+02
      4.800  0.1229E+01  0.4732E+02
      4.879  0.1419E+01  0.4744E+02
      4.959  0.1521E+01  0.4756E+02
      5.038  0.1518E+01  0.4768E+02
      5.117  0.1390E+01  0.4779E+02
      5.196  0.1323E+01  0.4790E+02
      5.275  0.1625E+01  0.4804E+02
      5.354  0.1286E+01  0.4814E+02
      5.434  0.1436E+01  0.4826E+02
      5.513  0.1368E+01  0.4837E+02
      5.592  0.1370E+01  0.4849E+02
      5.671  0.1382E+01  0.4860E+02
      5.750  0.1431E+01  0.4872E+02
      5.830  0.1192E+01  0.4882E+02
      5.909  0.1290E+01  0.4892E+02
      5.988  0.1407E+01  0.4904E+02
      6.067  0.1114E+01  0.4913E+02
      6.146  0.1370E+01  0.4924E+02
      6.225  0.1305E+01  0.4935E+02
      6.305  0.1200E+01  0.4945E+02
      6.384  0.1255E+01  0.4955E+02
      6.463  0.1165E+01  0.4965E+02
      6.542  0.1257E+01  0.4975E+02
      6.621  0.1252E+01  0.4986E+02
      6.700  0.1124E+01  0.4995E+02
      6.780  0.1334E+01  0.5006E+02
      6.859  0.1178E+01  0.5015E+02
      6.938  0.1189E+01  0.5025E+02
      7.017  0.1269E+01  0.5035E+02
      7.096  0.1103E+01  0.5045E+02
      7.176  0.1260E+01  0.5055E+02
      7.255  0.1394E+01  0.5066E+02
      7.334  0.1796E+01  0.5080E+02
      7.413  0.1948E+01  0.5096E+02
      7.492  0.1419E+01  0.5108E+02
      7.571  0.1712E+01  0.5122E+02
      7.651  0.1604E+01  0.5135E+02
      7.730  0.1407E+01  0.5146E+02
      7.809  0.1035E+01  0.5155E+02
      7.888  0.1608E+01  0.5168E+02
      7.967  0.1824E+01  0.5183E+02
      8.046  0.1640E+01  0.5196E+02
      8.126  0.1765E+01  0.5211E+02
      8.205  0.1541E+01  0.5223E+02
      8.284  0.1975E+01  0.5239E+02
      8.363  0.1984E+01  0.5255E+02
      8.442  0.1787E+01  0.5270E+02
      8.522  0.1644E+01  0.5283E+02
      8.601  0.1582E+01  0.5296E+02
      8.680  0.1759E+01  0.5310E+02
      8.759  0.2102E+01  0.5327E+02
      8.838  0.1661E+01  0.5340E+02
      8.917  0.1710E+01  0.5354E+02
      8.997  0.1429E+01  0.5366E+02
      9.076  0.1783E+01  0.5380E+02
      9.155  0.1735E+01  0.5395E+02
      9.234  0.2104E+01  0.5412E+02
      9.313  0.1540E+01  0.5424E+02
      9.392  0.1890E+01  0.5440E+02
      9.472  0.1834E+01  0.5455E+02
      9.551  0.1577E+01  0.5468E+02
      9.630  0.1728E+01  0.5482E+02
      9.709  0.1977E+01  0.5498E+02
      9.788  0.1996E+01  0.5514E+02
      9.868  0.1972E+01  0.5531E+02
      9.947  0.1710E+01  0.5545E+02
     10.026  0.1756E+01  0.5559E+02
     10.105  0.1910E+01  0.5575E+02
     10.184  0.1590E+01  0.5588E+02
     10.263  0.2387E+01  0.5607E+02
     10.343  0.1919E+01  0.5623E+02
     10.422  0.1783E+01  0.5638E+02
     10.501  0.2062E+01  0.5654E+02
     10.580  0.1695E+01  0.5668E+02
     10.659  0.1828E+01  0.5683E+02
     10.738  0.2365E+01  0.5702E+02
     10.818  0.2109E+01  0.5719E+02
     10.897  0.1956E+01  0.5735E+02
     10.976  0.1931E+01  0.5751E+02
     11.055  0.2081E+01  0.5768E+02
     11.134  0.1814E+01  0.5782E+02
     11.213  0.2393E+01  0.5802E+02
     11.293  0.2033E+01  0.5818E+02
     11.372  0.2462E+01  0.5838E+02
     11.451  0.1974E+01  0.5854E+02
     11.530  0.1986E+01  0.5871E+02
     11.609  0.2157E+01  0.5888E+02
     11.689  0.2601E+01  0.5909E+02
     11.768  0.2378E+01  0.5929E+02
     11.847  0.2109E+01  0.5946E+02
     11.926  0.2338E+01  0.5965E+02
     12.005  0.2153E+01  0.5983E+02
     12.084  0.1899E+01  0.5998E+02
     12.164  0.2305E+01  0.6017E+02
     12.243  0.2263E+01  0.6035E+02
     12.322  0.1636E+01  0.6049E+02
     12.401  0.2149E+01  0.6066E+02
     12.480  0.2149E+01  0.6084E+02
     12.559  0.1753E+01  0.6098E+02
     12.639  0.1908E+01  0.6114E+02
     12.718  0.1904E+01  0.6129E+02
     12.797  0.1974E+01  0.6145E+02
     12.876  0.1745E+01  0.6159E+02
     12.955  0.1342E+01  0.6171E+02
     13.035  0.1531E+01  0.6184E+02
     13.114  0.1667E+01  0.6197E+02
     13.193  0.1292E+01  0.6207E+02
     13.272  0.1283E+01  0.6218E+02
     13.351  0.1220E+01  0.6228E+02
     13.430  0.1054E+01  0.6236E+02
     13.510  0.1085E+01  0.6245E+02
     13.589  0.9039E+00  0.6253E+02
     13.668  0.1069E+01  0.6261E+02
     13.747  0.8382E+00  0.6268E+02
     13.826  0.9101E+00  0.6276E+02
     13.905  0.9656E+00  0.6284E+02
     13.985  0.6689E+00  0.6289E+02
     14.064  0.8226E+00  0.6296E+02
     14.143  0.8161E+00  0.6303E+02
     14.222  0.4803E+00  0.6307E+02
     14.301  0.6616E+00  0.6312E+02
     14.381  0.8475E+00  0.6319E+02
     14.460  0.4072E+00  0.6322E+02
     14.539  0.6767E+00  0.6328E+02
     14.618  0.3978E+00  0.6331E+02
     14.697  0.5722E+00  0.6336E+02
     14.776  0.3959E+00  0.6339E+02
     14.856  0.5320E+00  0.6344E+02
     14.935  0.2677E+00  0.6346E+02
     15.014  0.4811E+00  0.6350E+02
     15.093  0.4085E+00  0.6353E+02
     15.172  0.3375E+00  0.6356E+02
     15.251  0.3952E+00  0.6359E+02
     15.331  0.4166E+00  0.6363E+02
     15.410  0.2433E+00  0.6365E+02
     15.489  0.3597E+00  0.6367E+02
     15.568  0.2764E+00  0.6370E+02
     15.647  0.2644E+00  0.6372E+02
     15.727  0.2945E+00  0.6374E+02
     15.806  0.2610E+00  0.6377E+02
     15.885  0.1949E+00  0.6378E+02
     15.964  0.2692E+00  0.6381E+02
     16.043  0.2196E+00  0.6382E+02
     16.122  0.1912E+00  0.6384E+02
     16.202  0.2348E+00  0.6386E+02
     16.281  0.1868E+00  0.6387E+02
     16.360  0.2143E+00  0.6389E+02
     16.439  0.9681E-01  0.6390E+02
     16.518  0.1589E+00  0.6391E+02
     16.597  0.2009E+00  0.6393E+02
     16.677  0.1450E+00  0.6394E+02
     16.756  0.1497E+00  0.6395E+02
     16.835  0.1230E+00  0.6396E+02
     16.914  0.1472E+00  0.6397E+02
     16.993  0.1727E+00  0.6399E+02
     17.072  0.1385E+00  0.6400E+02
     17.152  0.2165E-01  0.6400E+02
     17.231  0.0000E+00  0.6400E+02
     17.310  0.0000E+00  0.6400E+02
     17.389  0.0000E+00  0.6400E+02
     17.468  0.0000E+00  0.6400E+02
     17.548  0.0000E+00  0.6400E+02
     17.627  0.0000E+00  0.6400E+02
     17.706  0.0000E+00  0.6400E+02
     17.785  0.0000E+00  0.6400E+02
     17.864  0.0000E+00  0.6400E+02
     17.943  0.0000E+00  0.6400E+02
     18.023  0.0000E+00  0.6400E+02
     18.102  0.0000E+00  0.6400E+02
     18.181  0.0000E+00  0.6400E+02
