    4    4    1    1
  0.2089141E+02  0.4371958E-09  0.4371958E-09  0.4371958E-09  0.5000000E-15
  1.000000000000000E-004
  CAR 
 unknown system                          
   44 1330   32
 
  0.0000000E+00  0.0000000E+00  0.0000000E+00  0.2143347E-04
   1       -4.4921
   2       -3.4142
   3       -3.4142
   4       -3.4142
   5       -3.3408
   6       -3.3408
   7       -3.3408
   8       -2.2960
   9       -2.2960
  10       -2.2960
  11       -1.5783
  12       -1.5783
  13       -1.0469
  14       -1.0469
  15       -1.0469
  16       -0.8785
  17       -0.8785
  18       -0.8785
  19       -0.8785
  20       -0.8785
  21       -0.8785
  22        3.6974
  23        3.6974
  24        3.6974
  25        7.2276
  26        7.2276
  27        7.2276
  28       11.6670
  29       11.6670
  30       11.6670
  31       11.6670
  32       11.6670
 
  0.2777778E-01  0.0000000E+00  0.0000000E+00  0.1286008E-03
   1       -4.4852
   2       -3.4117
   3       -3.4110
   4       -3.4110
   5       -3.3390
   6       -3.3380
   7       -3.3380
   8       -2.2982
   9       -2.2939
  10       -2.2939
  11       -1.5804
  12       -1.5773
  13       -1.0497
  14       -1.0497
  15       -1.0479
  16       -0.8880
  17       -0.8880
  18       -0.8820
  19       -0.8820
  20       -0.8785
  21       -0.8785
  22        3.6335
  23        3.7130
  24        3.7130
  25        7.2292
  26        7.2292
  27        7.3032
  28       11.6366
  29       11.6366
  30       11.6367
  31       11.6367
  32       11.6783
 
  0.5555556E-01  0.0000000E+00  0.0000000E+00  0.1286008E-03
   1       -4.4645
   2       -3.4043
   3       -3.4014
   4       -3.4014
   5       -3.3335
   6       -3.3295
   7       -3.3295
   8       -2.3046
   9       -2.2875
  10       -2.2875
  11       -1.5869
  12       -1.5744
  13       -1.0582
  14       -1.0582
  15       -1.0511
  16       -0.9163
  17       -0.9163
  18       -0.8925
  19       -0.8925
  20       -0.8784
  21       -0.8784
  22        3.4563
  23        3.7596
  24        3.7596
  25        7.2341
  26        7.2341
  27        7.5155
  28       11.5480
  29       11.5480
  30       11.5489
  31       11.5489
  32       11.7122
 
  0.8333333E-01  0.0000000E+00  0.0000000E+00  0.1286008E-03
   1       -4.4301
   2       -3.3921
   3       -3.3856
   4       -3.3856
   5       -3.3244
   6       -3.3154
   7       -3.3154
   8       -2.3154
   9       -2.2769
  10       -2.2769
  11       -1.5974
  12       -1.5696
  13       -1.0722
  14       -1.0722
  15       -1.0563
  16       -0.9619
  17       -0.9619
  18       -0.9098
  19       -0.9098
  20       -0.8784
  21       -0.8784
  22        3.1975
  23        3.8358
  24        3.8358
  25        7.2424
  26        7.2424
  27        7.8331
  28       11.4072
  29       11.4072
  30       11.4132
  31       11.4132
  32       11.7683
 
  0.1111111E+00  0.0000000E+00  0.0000000E+00  0.1286008E-03
   1       -4.3823
   2       -3.3751
   3       -3.3638
   4       -3.3638
   5       -3.3117
   6       -3.2956
   7       -3.2956
   8       -2.3302
   9       -2.2621
  10       -2.2621
  11       -1.6118
  12       -1.5628
  13       -1.0916
  14       -1.0916
  15       -1.0636
  16       -1.0233
  17       -1.0233
  18       -0.9337
  19       -0.9337
  20       -0.8784
  21       -0.8784
  22        2.8876
  23        3.9397
  24        3.9397
  25        7.2540
  26        7.2540
  27        8.2251
  28       11.2228
  29       11.2228
  30       11.2412
  31       11.2412
  32       11.8466
 
  0.1388889E+00  0.0000000E+00  0.0000000E+00  0.1286008E-03
   1       -4.3212
   2       -3.3538
   3       -3.3362
   4       -3.3362
   5       -3.2956
   6       -3.2701
   7       -3.2701
   8       -2.3491
   9       -2.2433
  10       -2.2433
  11       -1.6298
  12       -1.5543
  13       -1.1160
  14       -1.1160
  15       -1.0981
  16       -1.0981
  17       -1.0728
  18       -0.9638
  19       -0.9638
  20       -0.8784
  21       -0.8784
  22        2.5488
  23        4.0693
  24        4.0693
  25        7.2691
  26        7.2691
  27        8.6697
  28       11.0035
  29       11.0035
  30       11.0447
  31       11.0447
  32       11.9464
 
  0.1666667E+00  0.0000000E+00  0.0000000E+00  0.1286008E-03
   1       -4.2473
   2       -3.3284
   3       -3.3035
   4       -3.3035
   5       -3.2760
   6       -3.2391
   7       -3.2391
   8       -2.3718
   9       -2.2203
  10       -2.2203
  11       -1.6507
  12       -1.5439
  13       -1.1841
  14       -1.1841
  15       -1.1454
  16       -1.1454
  17       -1.0838
  18       -0.9996
  19       -0.9996
  20       -0.8783
  21       -0.8783
  22        2.1955
  23        4.2220
  24        4.2220
  25        7.2877
  26        7.2877
  27        9.1524
  28       10.7572
  29       10.7572
  30       10.8338
  31       10.8338
  32       12.0673
 
  0.1944444E+00  0.0000000E+00  0.0000000E+00  0.1286008E-03
   1       -4.1611
   2       -3.2992
   3       -3.2660
   4       -3.2660
   5       -3.2532
   6       -3.2025
   7       -3.2025
   8       -2.3981
   9       -2.1933
  10       -2.1933
  11       -1.6738
  12       -1.5319
  13       -1.2790
  14       -1.2790
  15       -1.1790
  16       -1.1790
  17       -1.0967
  18       -1.0407
  19       -1.0407
  20       -0.8783
  21       -0.8783
  22        1.8370
  23        4.3954
  24        4.3954
  25        7.3098
  26        7.3098
  27        9.6639
  28       10.4904
  29       10.4904
  30       10.6167
  31       10.6167
  32       12.2086
 
  0.2222222E+00  0.0000000E+00  0.0000000E+00  0.1286008E-03
   1       -4.0634
   2       -3.2667
   3       -3.2272
   4       -3.2246
   5       -3.2246
   6       -3.1603
   7       -3.1603
   8       -2.4277
   9       -2.1624
  10       -2.1624
  11       -1.6983
  12       -1.5182
  13       -1.3805
  14       -1.3805
  15       -1.2165
  16       -1.2165
  17       -1.1113
  18       -1.0866
  19       -1.0866
  20       -0.8782
  21       -0.8782
  22        1.4795
  23        4.5873
  24        4.5873
  25        7.3354
  26        7.3354
  27       10.1985
  28       10.2087
  29       10.2087
  30       10.3997
  31       10.3997
  32       12.3697
 
  0.2500000E+00  0.0000000E+00  0.0000000E+00  0.1286008E-03
   1       -3.9552
   2       -3.2317
   3       -3.1983
   4       -3.1799
   5       -3.1799
   6       -3.1126
   7       -3.1126
   8       -2.4605
   9       -2.1278
  10       -2.1278
  11       -1.7228
  12       -1.5030
  13       -1.4868
  14       -1.4868
  15       -1.2571
  16       -1.2571
  17       -1.1366
  18       -1.1366
  19       -1.1274
  20       -0.8781
  21       -0.8781
  22        1.1270
  23        4.7957
  24        4.7957
  25        7.3644
  26        7.3644
  27        9.9161
  28        9.9161
  29       10.1879
  30       10.1879
  31       10.7519
  32       12.5498
 
  0.2777778E+00  0.0000000E+00  0.0000000E+00  0.1286008E-03
   1       -3.8379
   2       -3.1948
   3       -3.1665
   4       -3.1331
   5       -3.1331
   6       -3.0594
   7       -3.0594
   8       -2.4960
   9       -2.0895
  10       -2.0895
  11       -1.7458
  12       -1.5962
  13       -1.5962
  14       -1.4864
  15       -1.2999
  16       -1.2999
  17       -1.1902
  18       -1.1902
  19       -1.1449
  20       -0.8781
  21       -0.8781
  22        0.7826
  23        5.0187
  24        5.0187
  25        7.3966
  26        7.3966
  27        9.6159
  28        9.6159
  29        9.9851
  30        9.9851
  31       11.3215
  32       12.7481
 
  0.3055556E+00  0.0000000E+00  0.0000000E+00  0.1286008E-03
   1       -3.7137
   2       -3.1569
   3       -3.1322
   4       -3.0853
   5       -3.0853
   6       -3.0008
   7       -3.0008
   8       -2.5340
   9       -2.0477
  10       -2.0477
  11       -1.7648
  12       -1.7072
  13       -1.7072
  14       -1.4684
  15       -1.3439
  16       -1.3439
  17       -1.2467
  18       -1.2467
  19       -1.1638
  20       -0.8780
  21       -0.8780
  22        0.4487
  23        5.2546
  24        5.2546
  25        7.4315
  26        7.4315
  27        9.3106
  28        9.3106
  29        9.7947
  30        9.7947
  31       11.9051
  32       12.9638
 
  0.3333333E+00  0.0000000E+00  0.0000000E+00  0.1286008E-03
   1       -3.5853
   2       -3.1193
   3       -3.0955
   4       -3.0379
   5       -3.0379
   6       -2.9369
   7       -2.9369
   8       -2.5741
   9       -2.0026
  10       -2.0026
  11       -1.8186
  12       -1.8186
  13       -1.7767
  14       -1.4493
  15       -1.3877
  16       -1.3877
  17       -1.3055
  18       -1.3055
  19       -1.1837
  20       -0.8780
  21       -0.8780
  22        0.1276
  23        5.5020
  24        5.5020
  25        7.4685
  26        7.4685
  27        9.0024
  28        9.0024
  29        9.6195
  30        9.6195
  31       12.5008
  32       13.1960
 
  0.3611111E+00  0.0000000E+00  0.0000000E+00  0.1286008E-03
   1       -3.4570
   2       -3.0835
   3       -3.0567
   4       -2.9927
   5       -2.9927
   6       -2.8677
   7       -2.8677
   8       -2.6161
   9       -1.9543
  10       -1.9543
  11       -1.9294
  12       -1.9294
  13       -1.7771
  14       -1.4297
  15       -1.4297
  16       -1.4291
  17       -1.3660
  18       -1.3660
  19       -1.2046
  20       -0.8780
  21       -0.8780
  22       -0.1787
  23        5.7597
  24        5.7597
  25        7.5062
  26        7.5062
  27        8.6929
  28        8.6929
  29        9.4624
  30        9.4624
  31       13.1069
  32       13.4437
 
  0.3888889E+00  0.0000000E+00  0.0000000E+00  0.1286008E-03
   1       -3.3342
   2       -3.0515
   3       -3.0160
   4       -2.9514
   5       -2.9514
   6       -2.7934
   7       -2.7934
   8       -2.6595
   9       -2.0388
  10       -2.0388
  11       -1.9032
  12       -1.9032
  13       -1.7602
  14       -1.4683
  15       -1.4683
  16       -1.4277
  17       -1.4277
  18       -1.4080
  19       -1.2264
  20       -0.8779
  21       -0.8779
  22       -0.4678
  23        6.0266
  24        6.0266
  25        7.5431
  26        7.5431
  27        8.3833
  28        8.3833
  29        9.3264
  30        9.3264
  31       13.7062
  32       13.7063
 
  0.4166667E+00  0.0000000E+00  0.0000000E+00  0.1286008E-03
   1       -3.2237
   2       -3.0258
   3       -2.9737
   4       -2.9161
   5       -2.9161
   6       -2.7142
   7       -2.7142
   8       -2.7039
   9       -2.1458
  10       -2.1458
  11       -1.8495
  12       -1.8495
  13       -1.7190
  14       -1.5014
  15       -1.5014
  16       -1.4900
  17       -1.4900
  18       -1.3862
  19       -1.2487
  20       -0.8779
  21       -0.8779
  22       -0.7370
  23        6.3017
  24        6.3017
  25        7.5767
  26        7.5767
  27        8.0750
  28        8.0750
  29        9.2148
  30        9.2148
  31       13.9824
  32       13.9824
 
  0.4444444E+00  0.0000000E+00  0.0000000E+00  0.1286008E-03
   1       -3.1324
   2       -3.0098
   3       -2.9301
   4       -2.8890
   5       -2.8890
   6       -2.7491
   7       -2.6301
   8       -2.6301
   9       -2.2501
  10       -2.2501
  11       -1.7934
  12       -1.7934
  13       -1.6461
  14       -1.5524
  15       -1.5524
  16       -1.5269
  17       -1.5269
  18       -1.3637
  19       -1.2715
  20       -0.9829
  21       -0.8779
  22       -0.8779
  23        6.5840
  24        6.5840
  25        7.6041
  26        7.6041
  27        7.7689
  28        7.7689
  29        9.1311
  30        9.1311
  31       14.2714
  32       14.2714
 
  0.4722222E+00  0.0000000E+00  0.0000000E+00  0.1286008E-03
   1       -3.0658
   2       -3.0079
   3       -2.8855
   4       -2.8719
   5       -2.8719
   6       -2.7947
   7       -2.5414
   8       -2.5414
   9       -2.3510
  10       -2.3510
  11       -1.7352
  12       -1.7352
  13       -1.6144
  14       -1.6144
  15       -1.5431
  16       -1.5431
  17       -1.5360
  18       -1.3409
  19       -1.2946
  20       -1.2011
  21       -0.8779
  22       -0.8779
  23        6.8726
  24        6.8726
  25        7.4659
  26        7.4659
  27        7.6223
  28        7.6223
  29        9.0791
  30        9.0791
  31       14.5723
  32       14.5723
 
  0.5000000E+00  0.0000000E+00  0.0000000E+00  0.6430041E-04
   1       -3.0250
   2       -3.0250
   3       -2.8660
   4       -2.8660
   5       -2.8403
   6       -2.8403
   7       -2.4482
   8       -2.4482
   9       -2.4482
  10       -2.4482
  11       -1.6754
  12       -1.6754
  13       -1.6754
  14       -1.6754
  15       -1.5486
  16       -1.5486
  17       -1.3869
  18       -1.3869
  19       -1.3178
  20       -1.3178
  21       -0.8779
  22       -0.8779
  23        7.1669
  24        7.1669
  25        7.1669
  26        7.1669
  27        7.6286
  28        7.6286
  29        9.0614
  30        9.0614
  31       14.8841
  32       14.8841
 
  0.2777778E-01  0.2777778E-01  0.0000000E+00  0.2572016E-03
   1       -4.4783
   2       -3.4085
   3       -3.4085
   4       -3.4079
   5       -3.3362
   6       -3.3362
   7       -3.3351
   8       -2.2989
   9       -2.2931
  10       -2.2918
  11       -1.5810
  12       -1.5779
  13       -1.0525
  14       -1.0509
  15       -1.0509
  16       -0.8951
  17       -0.8914
  18       -0.8914
  19       -0.8820
  20       -0.8820
  21       -0.8809
  22        3.6490
  23        3.6490
  24        3.7286
  25        7.2308
  26        7.3050
  27        7.3050
  28       11.5271
  29       11.6478
  30       11.6478
  31       11.6479
  32       11.6479
 
  0.5555556E-01  0.2777778E-01  0.0000000E+00  0.5144033E-03
   1       -4.4576
   2       -3.4011
   3       -3.3989
   4       -3.3986
   5       -3.3307
   6       -3.3277
   7       -3.3264
   8       -2.3047
   9       -2.2874
  10       -2.2854
  11       -1.5868
  12       -1.5755
  13       -1.0610
  14       -1.0597
  15       -1.0543
  16       -0.9219
  17       -0.9193
  18       -0.9016
  19       -0.8925
  20       -0.8822
  21       -0.8820
  22        3.4714
  23        3.6950
  24        3.7750
  25        7.2358
  26        7.3104
  27        7.5177
  28       11.3685
  29       11.5591
  30       11.5599
  31       11.6801
  32       11.6816
 
  0.8333333E-01  0.2777778E-01  0.0000000E+00  0.5144033E-03
   1       -4.4233
   2       -3.3888
   3       -3.3832
   4       -3.3831
   5       -3.3216
   6       -3.3136
   7       -3.3118
   8       -2.3153
   9       -2.2770
  10       -2.2749
  11       -1.5972
  12       -1.5707
  13       -1.0749
  14       -1.0745
  15       -1.0601
  16       -0.9670
  17       -0.9642
  18       -0.9184
  19       -0.9098
  20       -0.8824
  21       -0.8820
  22        3.2121
  23        3.7703
  24        3.8509
  25        7.2440
  26        7.3195
  27        7.8356
  28       11.1712
  29       11.4181
  30       11.4239
  31       11.6124
  32       11.7373
 
  0.1111111E+00  0.2777778E-01  0.0000000E+00  0.5144033E-03
   1       -4.3755
   2       -3.3719
   3       -3.3620
   4       -3.3612
   5       -3.3090
   6       -3.2938
   7       -3.2915
   8       -2.3301
   9       -2.2623
  10       -2.2603
  11       -1.6116
  12       -1.5640
  13       -1.0960
  14       -1.0942
  15       -1.0683
  16       -1.0279
  17       -1.0234
  18       -0.9413
  19       -0.9337
  20       -0.8825
  21       -0.8819
  22        2.9019
  23        3.8730
  24        3.9546
  25        7.2556
  26        7.3323
  27        8.2280
  28       10.9455
  29       11.2335
  30       11.2516
  31       11.4933
  32       11.8151
 
  0.1388889E+00  0.2777778E-01  0.0000000E+00  0.5144033E-03
   1       -4.3146
   2       -3.3505
   3       -3.3353
   4       -3.3337
   5       -3.2928
   6       -3.2684
   7       -3.2653
   8       -2.3488
   9       -2.2434
  10       -2.2415
  11       -1.6294
  12       -1.5553
  13       -1.1298
  14       -1.1186
  15       -1.1023
  16       -1.0889
  17       -1.0791
  18       -0.9699
  19       -0.9638
  20       -0.8825
  21       -0.8819
  22        2.5629
  23        4.0008
  24        4.0837
  25        7.2705
  26        7.3489
  27        8.6726
  28       10.6999
  29       11.0139
  30       11.0548
  31       11.3330
  32       11.9141
 
  0.1666667E+00  0.2777778E-01  0.0000000E+00  0.5144033E-03
   1       -4.2408
   2       -3.3251
   3       -3.3035
   4       -3.3009
   5       -3.2733
   6       -3.2374
   7       -3.2335
   8       -2.3715
   9       -2.2204
  10       -2.2187
  11       -1.6501
  12       -1.5448
  13       -1.1972
  14       -1.1878
  15       -1.1478
  16       -1.1367
  17       -1.0928
  18       -1.0032
  19       -0.9996
  20       -0.8825
  21       -0.8819
  22        2.2096
  23        4.1513
  24        4.2360
  25        7.2889
  26        7.3694
  27        9.1552
  28       10.4412
  29       10.7674
  30       10.8438
  31       11.1425
  32       12.0340
 
  0.1944444E+00  0.2777778E-01  0.0000000E+00  0.5144033E-03
   1       -4.1547
   2       -3.2958
   3       -3.2670
   4       -3.2635
   5       -3.2506
   6       -3.2008
   7       -3.1961
   8       -2.3977
   9       -2.1935
  10       -2.1920
  11       -1.6731
  12       -1.5326
  13       -1.2881
  14       -1.2822
  15       -1.1813
  16       -1.1742
  17       -1.1107
  18       -1.0408
  19       -1.0395
  20       -0.8824
  21       -0.8818
  22        1.8512
  23        4.3220
  24        4.4090
  25        7.3108
  26        7.3938
  27        9.6666
  28       10.1742
  29       10.5005
  30       10.6266
  31       10.9317
  32       12.1743
 
  0.2222222E+00  0.2777778E-01  0.0000000E+00  0.5144033E-03
   1       -4.0572
   2       -3.2634
   3       -3.2265
   4       -3.2246
   5       -3.2220
   6       -3.1587
   7       -3.1532
   8       -2.4272
   9       -2.1626
  10       -2.1615
  11       -1.6973
  12       -1.5187
  13       -1.3882
  14       -1.3833
  15       -1.2186
  16       -1.2129
  17       -1.1356
  18       -1.0867
  19       -1.0751
  20       -0.8824
  21       -0.8818
  22        1.4938
  23        4.5105
  24        4.6005
  25        7.3359
  26        7.4221
  27        9.9024
  28       10.2007
  29       10.2186
  30       10.4098
  31       10.7096
  32       12.3342
 
  0.2500000E+00  0.2777778E-01  0.0000000E+00  0.5144033E-03
   1       -3.9492
   2       -3.2283
   3       -3.1958
   4       -3.1825
   5       -3.1773
   6       -3.1111
   7       -3.1050
   8       -2.4599
   9       -2.1279
  10       -2.1274
  11       -1.7214
  12       -1.5033
  13       -1.4937
  14       -1.4892
  15       -1.2590
  16       -1.2542
  17       -1.1713
  18       -1.1367
  19       -1.1057
  20       -0.8823
  21       -0.8818
  22        1.1416
  23        4.7148
  24        4.8085
  25        7.3641
  26        7.4544
  27        9.6278
  28        9.9259
  29       10.1984
  30       10.4836
  31       10.7536
  32       12.5137
 
  0.2777778E+00  0.2777778E-01  0.0000000E+00  0.5144033E-03
   1       -3.8321
   2       -3.1913
   3       -3.1641
   4       -3.1360
   5       -3.1304
   6       -3.0580
   7       -3.0518
   8       -2.4953
   9       -2.0900
  10       -2.0896
  11       -1.7435
  12       -1.6024
  13       -1.5982
  14       -1.4864
  15       -1.3017
  16       -1.2974
  17       -1.2176
  18       -1.1903
  19       -1.1309
  20       -0.8822
  21       -0.8817
  22        0.7976
  23        4.9328
  24        5.0311
  25        7.3949
  26        7.4902
  27        9.3518
  28        9.6256
  29        9.9965
  30       10.2603
  31       11.3224
  32       12.7116
 
  0.3055556E+00  0.2777778E-01  0.0000000E+00  0.5144033E-03
   1       -3.7081
   2       -3.1534
   3       -3.1298
   4       -3.0881
   5       -3.0826
   6       -2.9995
   7       -2.9936
   8       -2.5332
   9       -2.0497
  10       -2.0479
  11       -1.7611
  12       -1.7129
  13       -1.7089
  14       -1.4682
  15       -1.3455
  16       -1.3417
  17       -1.2705
  18       -1.2468
  19       -1.1537
  20       -0.8821
  21       -0.8817
  22        0.4643
  23        5.1628
  24        5.2666
  25        7.4273
  26        7.5293
  27        9.0755
  28        9.3203
  29        9.8073
  30       10.0450
  31       11.9046
  32       12.9248
 
  0.3333333E+00  0.2777778E-01  0.0000000E+00  0.5144033E-03
   1       -3.5801
   2       -3.1157
   3       -3.0932
   4       -3.0402
   5       -3.0352
   6       -2.9357
   7       -2.9305
   8       -2.5732
   9       -2.0072
  10       -2.0027
  11       -1.8238
  12       -1.8199
  13       -1.7705
  14       -1.4487
  15       -1.3891
  16       -1.3858
  17       -1.3276
  18       -1.3056
  19       -1.1760
  20       -0.8821
  21       -0.8817
  22        0.1439
  23        5.4032
  24        5.5137
  25        7.4597
  26        7.5708
  27        8.8002
  28        9.0121
  29        9.6341
  30        9.8427
  31       12.4978
  32       13.1557
 
  0.3611111E+00  0.2777778E-01  0.0000000E+00  0.5144033E-03
   1       -3.4521
   2       -3.0798
   3       -3.0545
   4       -2.9941
   5       -2.9899
   6       -2.8667
   7       -2.8625
   8       -2.6151
   9       -1.9634
  10       -1.9545
  11       -1.9340
  12       -1.9304
  13       -1.7667
  14       -1.4310
  15       -1.4282
  16       -1.4281
  17       -1.3875
  18       -1.3662
  19       -1.1985
  20       -0.8820
  21       -0.8817
  22       -0.1615
  23        5.6524
  24        5.7711
  25        7.4884
  26        7.6136
  27        8.5285
  28        8.7026
  29        9.4801
  30        9.6577
  31       13.0968
  32       13.4055
 
  0.3888889E+00  0.2777778E-01  0.0000000E+00  0.5144033E-03
   1       -3.3295
   2       -3.0477
   3       -3.0139
   4       -2.9519
   5       -2.9486
   6       -2.7925
   7       -2.7895
   8       -2.6583
   9       -2.0427
  10       -2.0394
  11       -1.9190
  12       -1.9034
  13       -1.7433
  14       -1.4694
  15       -1.4670
  16       -1.4492
  17       -1.4279
  18       -1.4067
  19       -1.2214
  20       -0.8819
  21       -0.8817
  22       -0.4494
  23        5.9089
  24        6.0377
  25        7.5055
  26        7.6557
  27        8.2671
  28        8.3931
  29        9.3487
  30        9.4939
  31       13.6188
  32       13.6618
 
  0.4166667E+00  0.2777778E-01  0.0000000E+00  0.5144033E-03
   1       -3.2192
   2       -3.0219
   3       -2.9717
   4       -2.9157
   5       -2.9134
   6       -2.7134
   7       -2.7116
   8       -2.7027
   9       -2.1491
  10       -2.1463
  11       -1.8727
  12       -1.8496
  13       -1.6950
  14       -1.5121
  15       -1.5022
  16       -1.5004
  17       -1.4902
  18       -1.3845
  19       -1.2446
  20       -0.8819
  21       -0.8817
  22       -0.7170
  23        6.1711
  24        6.3125
  25        7.4911
  26        7.6949
  27        8.0343
  28        8.0849
  29        9.2440
  30        9.3553
  31       13.9173
  32       13.9350
 
  0.4444444E+00  0.2777778E-01  0.0000000E+00  0.5144033E-03
   1       -3.1281
   2       -3.0058
   3       -2.9282
   4       -2.8878
   5       -2.8863
   6       -2.7477
   7       -2.6294
   8       -2.6288
   9       -2.2527
  10       -2.2503
  11       -1.8215
  12       -1.7935
  13       -1.6177
  14       -1.5757
  15       -1.5526
  16       -1.5275
  17       -1.5262
  18       -1.3616
  19       -1.2683
  20       -0.9607
  21       -0.8818
  22       -0.8817
  23        6.4369
  24        6.5946
  25        7.3999
  26        7.7284
  27        7.7789
  28        7.8729
  29        9.1702
  30        9.2461
  31       14.2054
  32       14.2205
 
  0.4722222E+00  0.2777778E-01  0.0000000E+00  0.5144033E-03
   1       -3.0615
   2       -3.0038
   3       -2.8838
   4       -2.8701
   5       -2.8693
   6       -2.7932
   7       -2.5412
   8       -2.5409
   9       -2.3528
  10       -2.3510
  11       -1.7642
  12       -1.7354
  13       -1.6395
  14       -1.6145
  15       -1.5434
  16       -1.5427
  17       -1.5075
  18       -1.3380
  19       -1.2928
  20       -1.1756
  21       -0.8818
  22       -0.8817
  23        6.7035
  24        6.8831
  25        7.2093
  26        7.4760
  27        7.7546
  28        7.8028
  29        9.1318
  30        9.1703
  31       14.5023
  32       14.5170
 
  0.5000000E+00  0.2777778E-01  0.0000000E+00  0.2572016E-03
   1       -3.0209
   2       -3.0209
   3       -2.8637
   4       -2.8637
   5       -2.8386
   6       -2.8386
   7       -2.4491
   8       -2.4491
   9       -2.4480
  10       -2.4480
  11       -1.7028
  12       -1.7028
  13       -1.6756
  14       -1.6756
  15       -1.5486
  16       -1.5486
  17       -1.3628
  18       -1.3628
  19       -1.3122
  20       -1.3122
  21       -0.8817
  22       -0.8817
  23        6.9654
  24        6.9654
  25        7.1771
  26        7.1771
  27        7.7755
  28        7.7755
  29        9.1316
  30        9.1316
  31       14.8091
  32       14.8198
 
  0.5555556E-01  0.5555556E-01  0.0000000E+00  0.2572016E-03
   1       -4.4371
   2       -3.3915
   3       -3.3915
   4       -3.3901
   5       -3.3223
   6       -3.3223
   7       -3.3169
   8       -2.3077
   9       -2.2845
  10       -2.2792
  11       -1.5892
  12       -1.5765
  13       -1.0693
  14       -1.0642
  15       -1.0642
  16       -0.9433
  17       -0.9285
  18       -0.9285
  19       -0.8925
  20       -0.8925
  21       -0.8882
  22        3.5162
  23        3.5162
  24        3.8209
  25        7.2406
  26        7.5242
  27        7.5242
  28       11.1509
  29       11.5923
  30       11.5923
  31       11.5929
  32       11.5929
 
  0.8333333E-01  0.5555556E-01  0.0000000E+00  0.5144033E-03
   1       -4.4029
   2       -3.3792
   3       -3.3760
   4       -3.3756
   5       -3.3132
   6       -3.3082
   7       -3.3013
   8       -2.3164
   9       -2.2758
  10       -2.2690
  11       -1.5978
  12       -1.5732
  13       -1.0831
  14       -1.0815
  15       -1.0720
  16       -0.9845
  17       -0.9708
  18       -0.9433
  19       -0.9098
  20       -0.8925
  21       -0.8917
  22        3.2557
  23        3.5895
  24        3.8960
  25        7.2488
  26        7.5352
  27        7.8432
  28       10.9061
  29       11.4507
  30       11.4560
  31       11.6475
  32       11.6476
 
  0.1111111E+00  0.5555556E-01  0.0000000E+00  0.5144033E-03
   1       -4.3553
   2       -3.3622
   3       -3.3566
   4       -3.3537
   5       -3.3007
   6       -3.2885
   7       -3.2794
   8       -2.3303
   9       -2.2618
  10       -2.2546
  11       -1.6114
  12       -1.5666
  13       -1.1089
  14       -1.1021
  15       -1.0834
  16       -1.0430
  17       -1.0242
  18       -0.9631
  19       -0.9337
  20       -0.8932
  21       -0.8925
  22        2.9445
  23        3.6892
  24        3.9987
  25        7.2601
  26        7.5506
  27        8.2363
  28       10.6430
  29       11.2654
  30       11.2828
  31       11.7181
  32       11.7241
 
  0.1388889E+00  0.5555556E-01  0.0000000E+00  0.5144033E-03
   1       -4.2947
   2       -3.3408
   3       -3.3320
   4       -3.3261
   5       -3.2847
   6       -3.2632
   7       -3.2516
   8       -2.3486
   9       -2.2433
  10       -2.2363
  11       -1.6287
  12       -1.5578
  13       -1.1540
  14       -1.1262
  15       -1.1155
  16       -1.0989
  17       -1.0782
  18       -0.9870
  19       -0.9639
  20       -0.8939
  21       -0.8925
  22        2.6049
  23        3.8131
  24        4.1267
  25        7.2748
  26        7.5705
  27        8.6813
  28       10.3685
  29       11.0452
  30       11.0853
  31       11.6165
  32       11.8209
 
  0.1666667E+00  0.5555556E-01  0.0000000E+00  0.5144033E-03
   1       -4.2212
   2       -3.3152
   3       -3.3025
   4       -3.2933
   5       -3.2653
   6       -3.2324
   7       -3.2179
   8       -2.3708
   9       -2.2205
  10       -2.2141
  11       -1.6490
  12       -1.5470
  13       -1.2239
  14       -1.1994
  15       -1.1550
  16       -1.1233
  17       -1.1198
  18       -1.0134
  19       -0.9998
  20       -0.8942
  21       -0.8925
  22        2.2514
  23        3.9585
  24        4.2778
  25        7.2926
  26        7.5951
  27        9.1636
  28       10.0881
  29       10.7980
  30       10.8737
  31       11.4720
  32       11.9387
 
  0.1944444E+00  0.5555556E-01  0.0000000E+00  0.5144033E-03
   1       -4.1356
   2       -3.2859
   3       -3.2682
   4       -3.2557
   5       -3.2427
   6       -3.1960
   7       -3.1788
   8       -2.3967
   9       -2.1937
  10       -2.1882
  11       -1.6713
  12       -1.5343
  13       -1.3117
  14       -1.2923
  15       -1.1881
  16       -1.1635
  17       -1.1470
  18       -1.0409
  19       -1.0405
  20       -0.8943
  21       -0.8925
  22        1.8931
  23        4.1230
  24        4.4496
  25        7.3135
  26        7.6243
  27        9.6743
  28        9.8059
  29       10.5306
  30       10.6566
  31       11.2956
  32       12.0765
 
  0.2222222E+00  0.5555556E-01  0.0000000E+00  0.5144033E-03
   1       -4.0386
   2       -3.2533
   3       -3.2297
   4       -3.2169
   5       -3.2142
   6       -3.1541
   7       -3.1344
   8       -2.4259
   9       -2.1629
  10       -2.1588
  11       -1.6946
  12       -1.5198
  13       -1.4095
  14       -1.3920
  15       -1.2250
  16       -1.2042
  17       -1.1816
  18       -1.0868
  19       -1.0669
  20       -0.8944
  21       -0.8925
  22        1.5362
  23        4.3041
  24        4.6399
  25        7.3369
  26        7.6580
  27        9.5249
  28       10.2072
  29       10.2483
  30       10.4404
  31       11.0975
  32       12.2332
 
  0.2500000E+00  0.5555556E-01  0.0000000E+00  0.5144033E-03
   1       -3.9312
   2       -3.2181
   3       -3.1883
   4       -3.1873
   5       -3.1694
   6       -3.1067
   7       -3.0854
   8       -2.4582
   9       -2.1283
  10       -2.1264
  11       -1.7173