  32  32   0   0
  0.1202155E+02  0.7272832E-09  0.7272832E-09  0.7272832E-09  0.5000000E-15
  1.000000000000000E-004
  CAR 
 unknown system                          
     14.64236731     -6.53642617  301      3.63911109      1.00000000
     -6.536  0.0000E+00  0.0000E+00
     -6.466  0.0000E+00  0.0000E+00
     -6.395  0.0000E+00  0.0000E+00
     -6.325  0.0000E+00  0.0000E+00
     -6.254  0.0000E+00  0.0000E+00
     -6.183  0.0000E+00  0.0000E+00
     -6.113  0.0000E+00  0.0000E+00
     -6.042  0.0000E+00  0.0000E+00
     -5.972  0.0000E+00  0.0000E+00
     -5.901  0.0000E+00  0.0000E+00
     -5.830  0.0000E+00  0.0000E+00
     -5.760  0.0000E+00  0.0000E+00
     -5.689  0.0000E+00  0.0000E+00
     -5.619  0.8702E-11  0.6144E-12
     -5.548  0.8258E-01  0.5830E-02
     -5.477  0.4957E+00  0.4082E-01
     -5.407  0.9976E+00  0.1112E+00
     -5.336  0.7371E+00  0.1633E+00
     -5.266  0.1750E+01  0.2869E+00
     -5.195  0.2570E+01  0.4683E+00
     -5.125  0.1432E-06  0.4723E+00
     -5.054  0.9915E+00  0.5423E+00
     -4.983  0.2511E+01  0.7196E+00
     -4.913  0.2545E+01  0.8993E+00
     -4.842  0.1974E+01  0.1039E+01
     -4.772  0.2048E+01  0.1183E+01
     -4.701  0.3965E+01  0.1464E+01
     -4.630  0.3512E-02  0.1464E+01
     -4.560  0.1808E+01  0.1591E+01
     -4.489  0.5277E+01  0.1964E+01
     -4.419  0.2267E+01  0.2128E+01
     -4.348  0.1985E+01  0.2268E+01
     -4.277  0.4444E+01  0.2582E+01
     -4.207  0.1500E+01  0.2688E+01
     -4.136  0.1979E+01  0.2828E+01
     -4.066  0.2533E+01  0.3007E+01
     -3.995  0.6362E+01  0.3456E+01
     -3.924  0.2172E+01  0.3609E+01
     -3.854  0.5868E+01  0.4024E+01
     -3.783  0.4031E+01  0.4309E+01
     -3.713  0.2975E+00  0.4330E+01
     -3.642  0.4442E+01  0.4644E+01
     -3.571  0.4151E+01  0.4939E+01
     -3.501  0.5582E+01  0.5333E+01
     -3.430  0.2496E+01  0.5509E+01
     -3.360  0.6236E+01  0.5952E+01
     -3.289  0.3763E+00  0.5980E+01
     -3.218  0.8992E+01  0.6615E+01
     -3.148  0.5886E+01  0.7041E+01
     -3.077  0.2039E+01  0.7185E+01
     -3.007  0.6335E+01  0.7633E+01
     -2.936  0.4141E+01  0.7925E+01
     -2.865  0.5478E+00  0.7964E+01
     -2.795  0.9154E+01  0.8610E+01
     -2.724  0.6004E+01  0.9034E+01
     -2.654  0.2838E+01  0.9242E+01
     -2.583  0.1290E+02  0.1015E+02
     -2.512  0.5872E+01  0.1057E+02
     -2.442  0.2867E+01  0.1079E+02
     -2.371  0.4526E+01  0.1111E+02
     -2.301  0.6471E+01  0.1156E+02
     -2.230  0.8408E+01  0.1216E+02
     -2.159  0.5424E+01  0.1254E+02
     -2.089  0.9817E+01  0.1324E+02
     -2.018  0.1100E+02  0.1402E+02
     -1.948  0.1001E+02  0.1472E+02
     -1.877  0.9807E+00  0.1479E+02
     -1.806  0.1087E+02  0.1556E+02
     -1.736  0.9401E+01  0.1622E+02
     -1.665  0.1837E+02  0.1753E+02
     -1.595  0.1075E+02  0.1829E+02
     -1.524  0.1183E+02  0.1913E+02
     -1.454  0.1470E+02  0.2018E+02
     -1.383  0.1204E+02  0.2104E+02
     -1.312  0.2645E+02  0.2291E+02
     -1.242  0.1967E+02  0.2430E+02
     -1.171  0.3528E+02  0.2680E+02
     -1.101  0.1993E+02  0.2822E+02
     -1.030  0.4666E+02  0.3151E+02
     -0.959  0.4009E+02  0.3436E+02
     -0.889  0.4023E+02  0.3721E+02
     -0.818  0.4335E+02  0.4028E+02
     -0.748  0.3521E+02  0.4278E+02
     -0.677  0.4857E+02  0.4622E+02
     -0.606  0.5748E+02  0.5028E+02
     -0.536  0.6954E+02  0.5520E+02
     -0.465  0.6515E+02  0.5983E+02
     -0.395  0.8216E+02  0.6564E+02
     -0.324  0.7981E+02  0.7129E+02
     -0.253  0.7406E+02  0.7654E+02
     -0.183  0.6569E+02  0.8120E+02
     -0.112  0.6855E+02  0.8608E+02
     -0.042  0.7198E+02  0.9120E+02
      0.029  0.6686E+02  0.9594E+02
      0.100  0.6369E+02  0.1005E+03
      0.170  0.7871E+02  0.1061E+03
      0.241  0.8233E+02  0.1119E+03
      0.311  0.9037E+02  0.1183E+03
      0.382  0.1070E+03  0.1259E+03
      0.453  0.1120E+03  0.1338E+03
      0.523  0.9418E+02  0.1405E+03
      0.594  0.1234E+03  0.1493E+03
      0.664  0.1249E+03  0.1581E+03
      0.735  0.1509E+03  0.1688E+03
      0.806  0.1469E+03  0.1792E+03
      0.876  0.1346E+03  0.1888E+03
      0.947  0.9788E+02  0.1957E+03
      1.017  0.1044E+03  0.2031E+03
      1.088  0.8330E+02  0.2091E+03
      1.159  0.8228E+02  0.2149E+03
      1.229  0.9485E+02  0.2216E+03
      1.300  0.1089E+03  0.2294E+03
      1.370  0.1253E+03  0.2383E+03
      1.441  0.1173E+03  0.2466E+03
      1.512  0.1243E+03  0.2554E+03
      1.582  0.1041E+03  0.2628E+03
      1.653  0.1016E+03  0.2700E+03
      1.723  0.1159E+03  0.2782E+03
      1.794  0.9249E+02  0.2848E+03
      1.864  0.1311E+03  0.2941E+03
      1.935  0.1537E+03  0.3050E+03
      2.006  0.2143E+03  0.3202E+03
      2.076  0.1391E+03  0.3300E+03
      2.147  0.6232E+02  0.3345E+03
      2.217  0.1343E+02  0.3354E+03
      2.288  0.2875E+02  0.3374E+03
      2.359  0.3990E+01  0.3377E+03
      2.429  0.1169E+02  0.3386E+03
      2.500  0.1145E+02  0.3394E+03
      2.570  0.1927E+02  0.3407E+03
      2.641  0.1245E+02  0.3416E+03
      2.712  0.6454E+01  0.3421E+03
      2.782  0.1179E+02  0.3429E+03
      2.853  0.1071E+02  0.3437E+03
      2.923  0.1639E+02  0.3448E+03
      2.994  0.8950E+01  0.3455E+03
      3.065  0.7988E+01  0.3460E+03
      3.135  0.1003E+02  0.3467E+03
      3.206  0.2756E+01  0.3469E+03
      3.276  0.1829E+02  0.3482E+03
      3.347  0.2072E+02  0.3497E+03
      3.418  0.4211E+01  0.3500E+03
      3.488  0.8864E+01  0.3506E+03
      3.559  0.8692E+01  0.3513E+03
      3.629  0.6791E+01  0.3517E+03
      3.700  0.6377E+01  0.3522E+03
      3.771  0.1215E+02  0.3530E+03
      3.841  0.2918E+01  0.3533E+03
      3.912  0.2027E+02  0.3547E+03
      3.982  0.3753E+01  0.3549E+03
      4.053  0.1205E+02  0.3558E+03
      4.124  0.2071E+02  0.3573E+03
      4.194  0.3115E+01  0.3575E+03
      4.265  0.3788E+01  0.3578E+03
      4.335  0.6595E+01  0.3582E+03
      4.406  0.8991E+01  0.3589E+03
      4.477  0.2000E+01  0.3590E+03
      4.547  0.1289E+02  0.3599E+03
      4.618  0.1004E+02  0.3606E+03
      4.688  0.1642E+02  0.3618E+03
      4.759  0.5147E+01  0.3622E+03
      4.830  0.5182E+01  0.3625E+03
      4.900  0.1199E+02  0.3634E+03
      4.971  0.7078E+01  0.3639E+03
      5.041  0.8556E+01  0.3645E+03
      5.112  0.8173E+01  0.3651E+03
      5.183  0.5247E+01  0.3654E+03
      5.253  0.8821E+01  0.3661E+03
      5.324  0.1331E+01  0.3661E+03
      5.394  0.1810E+02  0.3674E+03
      5.465  0.3944E+01  0.3677E+03
      5.535  0.1060E+02  0.3685E+03
      5.606  0.1148E+02  0.3693E+03
      5.677  0.3660E+01  0.3695E+03
      5.747  0.5418E+01  0.3699E+03
      5.818  0.7054E+01  0.3704E+03
      5.888  0.8454E+01  0.3710E+03
      5.959  0.1113E+02  0.3718E+03
      6.030  0.5024E+01  0.3721E+03
      6.100  0.6931E+01  0.3726E+03
      6.171  0.1912E+01  0.3728E+03
      6.241  0.3714E+01  0.3730E+03
      6.312  0.1307E+02  0.3740E+03
      6.383  0.1391E+02  0.3749E+03
      6.453  0.5766E-05  0.3749E+03
      6.524  0.2987E+01  0.3751E+03
      6.594  0.3819E+01  0.3754E+03
      6.665  0.1300E+02  0.3763E+03
      6.736  0.4507E+01  0.3767E+03
      6.806  0.8923E+01  0.3773E+03
      6.877  0.2429E+01  0.3775E+03
      6.947  0.1414E-01  0.3775E+03
      7.018  0.5651E+01  0.3779E+03
      7.089  0.8236E+01  0.3784E+03
      7.159  0.2088E+01  0.3786E+03
      7.230  0.1077E+02  0.3793E+03
      7.300  0.1338E+00  0.3794E+03
      7.371  0.7586E+01  0.3799E+03
      7.442  0.1245E+02  0.3808E+03
      7.512  0.6809E+01  0.3813E+03
      7.583  0.9899E+01  0.3820E+03
      7.653  0.5955E+01  0.3824E+03
      7.724  0.8290E+01  0.3830E+03
      7.795  0.7879E+01  0.3835E+03
      7.865  0.1163E+02  0.3843E+03
      7.936  0.1032E+02  0.3851E+03
      8.006  0.8511E+01  0.3857E+03
      8.077  0.7704E+01  0.3862E+03
      8.148  0.6904E+01  0.3867E+03
      8.218  0.1183E+02  0.3876E+03
      8.289  0.9977E+01  0.3883E+03
      8.359  0.1556E+02  0.3894E+03
      8.430  0.6355E+01  0.3898E+03
      8.501  0.2443E+01  0.3900E+03
      8.571  0.1037E+02  0.3907E+03
      8.642  0.1067E+02  0.3915E+03
      8.712  0.6772E+01  0.3920E+03
      8.783  0.1425E+02  0.3930E+03
      8.853  0.8787E+01  0.3936E+03
      8.924  0.8829E+01  0.3942E+03
      8.995  0.7286E+01  0.3947E+03
      9.065  0.1095E+02  0.3955E+03
      9.136  0.1266E+02  0.3964E+03
      9.206  0.1982E+01  0.3966E+03
      9.277  0.3966E+01  0.3968E+03
      9.348  0.6935E+01  0.3973E+03
      9.418  0.1222E+02  0.3982E+03
      9.489  0.9483E+01  0.3989E+03
      9.559  0.8964E+01  0.3995E+03
      9.630  0.9906E+01  0.4002E+03
      9.701  0.5704E+01  0.4006E+03
      9.771  0.1045E+02  0.4013E+03
      9.842  0.5495E+01  0.4017E+03
      9.912  0.7138E+01  0.4022E+03
      9.983  0.5835E+01  0.4026E+03
     10.054  0.9685E+01  0.4033E+03
     10.124  0.1134E+02  0.4041E+03
     10.195  0.1660E+01  0.4043E+03
     10.265  0.1134E+02  0.4051E+03
     10.336  0.8185E+01  0.4056E+03
     10.407  0.5053E+01  0.4060E+03
     10.477  0.4224E+01  0.4063E+03
     10.548  0.4681E+01  0.4066E+03
     10.618  0.1040E+02  0.4074E+03
     10.689  0.7855E+01  0.4079E+03
     10.760  0.1091E+02  0.4087E+03
     10.830  0.1335E+02  0.4096E+03
     10.901  0.7890E+01  0.4102E+03
     10.971  0.7696E+01  0.4107E+03
     11.042  0.7676E+01  0.4113E+03
     11.113  0.1111E+02  0.4121E+03
     11.183  0.7270E+01  0.4126E+03
     11.254  0.1281E+02  0.4135E+03
     11.324  0.1587E+02  0.4146E+03
     11.395  0.4472E+01  0.4149E+03
     11.466  0.1196E+02  0.4158E+03
     11.536  0.1629E+02  0.4169E+03
     11.607  0.5920E+01  0.4174E+03
     11.677  0.1446E+02  0.4184E+03
     11.748  0.4295E+01  0.4187E+03
     11.819  0.1502E+02  0.4198E+03
     11.889  0.7470E+01  0.4203E+03
     11.960  0.6888E+01  0.4208E+03
     12.030  0.1238E+02  0.4217E+03
     12.101  0.1944E+02  0.4230E+03
     12.172  0.4147E+01  0.4233E+03
     12.242  0.9070E+01  0.4240E+03
     12.313  0.1048E+02  0.4247E+03
     12.383  0.1755E+02  0.4259E+03
     12.454  0.1052E+02  0.4267E+03
     12.524  0.4738E+01  0.4270E+03
     12.595  0.9276E+01  0.4277E+03
     12.666  0.1731E+02  0.4289E+03
     12.736  0.6674E+01  0.4294E+03
     12.807  0.9951E+01  0.4301E+03
     12.877  0.5176E+01  0.4305E+03
     12.948  0.5204E+01  0.4308E+03
     13.019  0.3418E+01  0.4311E+03
     13.089  0.6475E+01  0.4315E+03
     13.160  0.1454E+01  0.4316E+03
     13.230  0.1472E-01  0.4316E+03
     13.301  0.3289E+01  0.4319E+03
     13.372  0.0000E+00  0.4319E+03
     13.442  0.0000E+00  0.4319E+03
     13.513  0.0000E+00  0.4319E+03
     13.583  0.0000E+00  0.4319E+03
     13.654  0.3362E-01  0.4319E+03
     13.725  0.1949E+01  0.4320E+03
     13.795  0.0000E+00  0.4320E+03
     13.866  0.0000E+00  0.4320E+03
     13.936  0.0000E+00  0.4320E+03
     14.007  0.0000E+00  0.4320E+03
     14.078  0.0000E+00  0.4320E+03
     14.148  0.0000E+00  0.4320E+03
     14.219  0.0000E+00  0.4320E+03
     14.289  0.0000E+00  0.4320E+03
     14.360  0.0000E+00  0.4320E+03
     14.431  0.0000E+00  0.4320E+03
     14.501  0.0000E+00  0.4320E+03
     14.572  0.0000E+00  0.4320E+03
     14.642  0.0000E+00  0.4320E+03
