   32   32    1    1
  0.1202155E+02  0.7272832E-09  0.7272832E-09  0.7272832E-09  0.5000000E-15
  1.000000000000000E-004
  CAR 
 unknown system                          
  352   40  216
 
  0.0000000E+00  0.0000000E+00  0.0000000E+00  0.2915452E-02
   1       -5.5738
   2       -2.8719
   3       -2.8420
   4       -2.8419
   5       -2.8419
   6       -2.8418
   7       -2.8136
   8       -1.3543
   9       -1.3543
  10       -1.3539
  11       -1.3536
  12       -1.1544
  13       -1.1518
  14       -1.1513
  15       -1.0076
  16       -0.9893
  17       -0.9893
  18       -0.9783
  19       -0.9772
  20       -0.9771
  21       -0.9761
  22       -0.9761
  23       -0.9737
  24       -0.9639
  25       -0.9639
  26       -0.9428
  27       -0.7119
  28       -0.7107
  29       -0.7107
  30       -0.4480
  31       -0.4288
  32       -0.4287
  33       -0.4287
  34       -0.4284
  35       -0.4128
  36       -0.0717
  37       -0.0542
  38       -0.0542
  39       -0.0517
  40       -0.0515
  41       -0.0389
  42        0.1184
  43        0.1307
  44        0.1307
  45        0.1532
  46        0.1538
  47        0.1538
  48        0.1539
  49        0.1550
  50        0.1552
  51        0.1560
  52        0.1560
  53        0.1576
  54        0.1576
  55        0.1585
  56        0.1589
  57        0.1589
  58        0.1589
  59        0.1604
  60        0.1604
  61        0.1608
  62        0.1613
  63        0.1807
  64        0.1807
  65        0.2000
  66        0.3364
  67        0.3583
  68        0.3583
  69        0.3587
  70        0.3629
  71        0.3629
  72        0.3631
  73        0.3636
  74        0.3647
  75        0.3680
  76        0.3680
  77        0.3890
  78        0.6111
  79        0.6123
  80        0.6123
  81        0.6145
  82        0.6149
  83        0.6149
  84        0.6156
  85        0.6171
  86        0.6415
  87        0.6415
  88        0.6439
  89        0.9926
  90        1.0038
  91        1.0088
  92        1.0088
  93        1.0092
  94        1.0221
  95        1.1163
  96        1.1248
  97        1.1284
  98        1.1284
  99        1.1340
 100        1.1340
 101        1.1342
 102        1.1343
 103        1.1383
 104        1.1383
 105        1.1471
 106        1.1491
 107        1.2672
 108        1.2672
 109        1.2843
 110        1.2843
 111        1.2863
 112        1.2865
 113        1.2878
 114        1.2880
 115        1.2883
 116        1.2883
 117        1.3017
 118        1.3017
 119        1.3998
 120        1.4069
 121        1.4069
 122        1.4107
 123        1.4114
 124        1.4176
 125        1.4297
 126        1.4297
 127        1.4379
 128        1.4386
 129        1.4419
 130        1.4423
 131        1.4424
 132        1.4424
 133        1.4433
 134        1.4465
 135        1.4490
 136        1.4593
 137        1.4641
 138        1.4641
 139        1.7051
 140        1.7130
 141        1.7132
 142        1.7132
 143        1.7133
 144        1.7210
 145        1.9823
 146        1.9830
 147        1.9836
 148        1.9956
 149        1.9965
 150        1.9965
 151        1.9965
 152        1.9969
 153        1.9971
 154        1.9971
 155        1.9982
 156        2.1264
 157        2.1311
 158        2.1326
 159        2.1326
 160        2.1333
 161        2.1333
 162        2.1336
 163        2.1338
 164        2.1338
 165        2.1339
 166        2.1340
 167        2.1400
 168        2.6956
 169        2.6976
 170        2.6976
 171        2.6982
 172        3.2926
 173        3.2950
 174        3.2950
 175        3.3039
 176        3.3058
 177        3.3062
 178        3.3062
 179        3.3063
 180        3.3095
 181        3.3177
 182        3.3177
 183        3.3198
 184        5.1652
 185        5.1652
 186        5.1696
 187        7.3015
 188        7.3015
 189        7.3023
 190        7.3030
 191        9.7513
 192        9.7513
 193        9.7844
 194        9.7844
 195        9.7882
 196        9.7883
 197        9.7887
 198        9.7917
 199        9.7917
 200        9.7927
 201        9.8232
 202        9.8232
 203       10.6331
 204       10.6365
 205       10.6365
 206       11.8449
 207       11.8738
 208       11.8739
 209       11.8752
 210       11.8752
 211       11.8963
 212       12.3148
 213       12.3176
 214       12.3202
 215       12.3211
 216       12.3222
 
  0.1428571E+00  0.0000000E+00  0.0000000E+00  0.5830904E-02
   1       -5.5125
   2       -3.4946
   3       -2.7933
   4       -2.7921
   5       -2.7920
   6       -2.7920
   7       -2.2037
   8       -1.3520
   9       -1.3431
  10       -1.3431
  11       -1.3417
  12       -1.3401
  13       -1.3393
  14       -1.3393
  15       -1.3308
  16       -1.1522
  17       -1.1238
  18       -1.1229
  19       -1.0051
  20       -1.0045
  21       -1.0044
  22       -1.0044
  23       -0.6958
  24       -0.6939
  25       -0.6939
  26       -0.6660
  27       -0.6660
  28       -0.6659
  29       -0.6648
  30       -0.4811
  31       -0.4761
  32       -0.4068
  33       -0.4068
  34       -0.4067
  35       -0.4054
  36       -0.2031
  37       -0.0823
  38       -0.0823
  39       -0.0491
  40       -0.0445
  41       -0.0441
  42       -0.0441
  43        0.0940
  44        0.1158
  45        0.1242
  46        0.1242
  47        0.1283
  48        0.1299
  49        0.1317
  50        0.1324
  51        0.1324
  52        0.1548
  53        0.1581
  54        0.1583
  55        0.1583
  56        0.1775
  57        0.1787
  58        0.1787
  59        0.1899
  60        0.2228
  61        0.2246
  62        0.2246
  63        0.2349
  64        0.2350
  65        0.2351
  66        0.2372
  67        0.2372
  68        0.3770
  69        0.3770
  70        0.3780
  71        0.3790
  72        0.4293
  73        0.4293
  74        0.4520
  75        0.4541
  76        0.4541
  77        0.4564
  78        0.6034
  79        0.6034
  80        0.6042
  81        0.6058
  82        0.6261
  83        0.6266
  84        0.6280
  85        0.6280
  86        0.6301
  87        0.6559
  88        0.6559
  89        0.9312
  90        0.9344
  91        0.9347
  92        0.9347
  93        1.0345
  94        1.0694
  95        1.0730
  96        1.0730
  97        1.0743
  98        1.0964
  99        1.1275
 100        1.1275
 101        1.1441
 102        1.1456
 103        1.1456
 104        1.1500
 105        1.1861
 106        1.1861
 107        1.1884
 108        1.1916
 109        1.2854
 110        1.2854
 111        1.2861
 112        1.2876
 113        1.3436
 114        1.3436
 115        1.3454
 116        1.3468
 117        1.3715
 118        1.3715
 119        1.3718
 120        1.3723
 121        1.4091
 122        1.4109
 123        1.4109
 124        1.4111
 125        1.4328
 126        1.4478
 127        1.4517
 128        1.4557
 129        1.4557
 130        1.4582
 131        1.5036
 132        1.5047
 133        1.5047
 134        1.5083
 135        1.5395
 136        1.5397
 137        1.5425
 138        1.5425
 139        1.6536
 140        1.7333
 141        1.7334
 142        1.7334
 143        1.7334
 144        1.7730
 145        1.8011
 146        1.8019
 147        1.8019
 148        1.8023
 149        1.9616
 150        1.9623
 151        1.9764
 152        1.9796
 153        1.9799
 154        1.9799
 155        1.9812
 156        2.0273
 157        2.0273
 158        2.1072
 159        2.1072
 160        2.1072
 161        2.1072
 162        2.1082
 163        2.1082
 164        2.1265
 165        2.1318
 166        2.1336
 167        2.1400
 168        2.8210
 169        2.8210
 170        2.8212
 171        2.8233
 172        2.8702
 173        2.8708
 174        2.8725
 175        2.8725
 176        3.2987
 177        3.2992
 178        3.2992
 179        3.2993
 180        3.8760
 181        3.8760
 182        3.8763
 183        3.8766
 184        4.7748
 185        5.3265
 186        5.3265
 187        7.4776
 188        7.4776
 189        7.4784
 190        7.4790
 191        8.8232
 192        8.8232
 193        9.0293
 194        9.0293
 195        9.0311
 196        9.0333
 197        9.8707
 198        9.8708
 199        9.8709
 200        9.8709
 201       10.6595
 202       10.6596
 203       10.8129
 204       10.8129
 205       11.1484
 206       11.6086
 207       11.6087
 208       12.1187
 209       12.1187
 210       12.1200
 211       12.1202
 212       12.2598
 213       12.2621
 214       12.2621
 215       12.2635
 216       12.4191
 
  0.2857143E+00  0.0000000E+00  0.0000000E+00  0.5830904E-02
   1       -5.3295
   2       -4.0959
   3       -2.6465
   4       -2.6449
   5       -2.6448
   6       -2.6448
   7       -1.7312
   8       -1.7279
   9       -1.7278
  10       -1.7278
  11       -1.6790
  12       -1.3007
  13       -1.3007
  14       -1.3001
  15       -1.2994
  16       -1.1620
  17       -1.0741
  18       -1.0735
  19       -1.0731
  20       -1.0731
  21       -1.0417
  22       -1.0406
  23       -0.6483
  24       -0.6428
  25       -0.6428
  26       -0.6010
  27       -0.5995
  28       -0.4254
  29       -0.4254
  30       -0.4250
  31       -0.4244
  32       -0.3464
  33       -0.3442
  34       -0.3442
  35       -0.3442
  36       -0.3428
  37       -0.2758
  38       -0.2758
  39       -0.0298
  40       -0.0263
  41       -0.0263
  42       -0.0243
  43        0.0626
  44        0.0651
  45        0.0651
  46        0.0654
  47        0.0824
  48        0.0877
  49        0.0877
  50        0.0893
  51        0.0900
  52        0.0909
  53        0.0909
  54        0.0924
  55        0.1550
  56        0.1639
  57        0.1639
  58        0.1645
  59        0.1839
  60        0.1853
  61        0.1853
  62        0.1948
  63        0.2497
  64        0.3963
  65        0.3963
  66        0.3971
  67        0.3980
  68        0.4285
  69        0.4293
  70        0.4293
  71        0.4306
  72        0.5205
  73        0.5223
  74        0.5223
  75        0.5228
  76        0.5707
  77        0.5710
  78        0.5710
  79        0.5740
  80        0.5751
  81        0.6719
  82        0.6731
  83        0.6731
  84        0.6762
  85        0.6981
  86        0.6981
  87        0.7355
  88        0.7355
  89        0.8065
  90        0.8084
  91        0.8096
  92        0.8096
  93        0.9588
  94        0.9606
  95        0.9606
  96        0.9613
  97        0.9873
  98        0.9873
  99        1.1186
 100        1.2098
 101        1.2122
 102        1.2131
 103        1.2131
 104        1.2673
 105        1.2673
 106        1.2680
 107        1.2687
 108        1.2865
 109        1.2865
 110        1.2865
 111        1.2874
 112        1.3258
 113        1.3258
 114        1.3265
 115        1.3268
 116        1.3838
 117        1.3928
 118        1.3934
 119        1.3975
 120        1.3975
 121        1.4044
 122        1.4081
 123        1.4081
 124        1.4118
 125        1.4253
 126        1.4310
 127        1.4310
 128        1.4312
 129        1.4357
 130        1.4727
 131        1.5536
 132        1.5549
 133        1.5950
 134        1.6213
 135        1.6213
 136        1.6214
 137        1.6227
 138        1.6227
 139        1.6266
 140        1.6592
 141        1.6593
 142        1.6599
 143        1.6599
 144        1.7615
 145        1.7615
 146        1.8244
 147        1.8251
 148        1.8254
 149        1.8254
 150        1.8297
 151        1.9004
 152        1.9015
 153        1.9286
 154        1.9292
 155        1.9292
 156        1.9304
 157        1.9568
 158        2.0319
 159        2.0320
 160        2.0324
 161        2.0324
 162        2.0366
 163        2.0366
 164        2.1265
 165        2.1321
 166        2.1336
 167        2.1400
 168        2.5267
 169        2.5268
 170        2.5268
 171        2.5274
 172        3.0077
 173        3.0095
 174        3.0098
 175        3.0098
 176        3.2752
 177        3.2760
 178        3.2760
 179        3.2762
 180        3.8897
 181        4.6126
 182        4.6126
 183        4.6135
 184        4.6135
 185        5.7572
 186        5.7572
 187        7.7945
 188        7.7945
 189        7.7971
 190        7.7973
 191        7.9213
 192        7.9213
 193        7.9859
 194        7.9876
 195        7.9903
 196        7.9903
 197       10.1134
 198       10.1134
 199       10.1137
 200       10.1138
 201       10.7304
 202       10.7305
 203       10.9643
 204       10.9650
 205       10.9650
 206       10.9660
 207       11.2883
 208       11.2884
 209       11.6699
 210       11.6699
 211       11.6717
 212       11.6718
 213       11.8930
 214       11.8930
 215       12.2897
 216       12.2899
 
  0.4285714E+00  0.0000000E+00  0.0000000E+00  0.5830904E-02
   1       -5.0281
   2       -4.6127
   3       -2.4114
   4       -2.4077
   5       -2.4076
   6       -2.4076
   7       -2.0942
   8       -2.0941
   9       -2.0941
  10       -2.0922
  11       -1.3586
  12       -1.2393
  13       -1.2393
  14       -1.2385
  15       -1.2374
  16       -1.2089
  17       -1.1577
  18       -1.1568
  19       -1.1553
  20       -1.1553
  21       -0.9154
  22       -0.9134
  23       -0.7573
  24       -0.7573
  25       -0.5718
  26       -0.5573
  27       -0.5573
  28       -0.4667
  29       -0.4342
  30       -0.4342
  31       -0.2670
  32       -0.2643
  33       -0.2643
  34       -0.2610
  35       -0.2575
  36       -0.2567
  37       -0.2544
  38       -0.2544
  39       -0.0387
  40       -0.0366
  41       -0.0362
  42       -0.0362
  43       -0.0251
  44       -0.0251
  45       -0.0247
  46       -0.0192
  47       -0.0019
  48        0.0051
  49        0.0051
  50        0.0072
  51        0.0463
  52        0.0469
  53        0.0469
  54        0.0471
  55        0.1589
  56        0.1709
  57        0.1709
  58        0.1727
  59        0.1817
  60        0.1840
  61        0.1840
  62        0.1980
  63        0.3785
  64        0.4649
  65        0.4649
  66        0.4654
  67        0.4664
  68        0.4893
  69        0.5222
  70        0.5222
  71        0.5234
  72        0.5235
  73        0.5933
  74        0.5953
  75        0.5953
  76        0.5980
  77        0.6866
  78        0.6866
  79        0.6871
  80        0.6884
  81        0.6930
  82        0.6946
  83        0.6950
  84        0.6950
  85        0.7479
  86        0.7487
  87        0.7487
  88        0.7502
  89        0.7688
  90        0.7688
  91        0.8476
  92        0.8478
  93        0.8480
  94        0.8480
  95        0.8671
  96        0.8671
  97        1.0393
  98        1.0400
  99        1.0404
 100        1.0404
 101        1.0724
 102        1.0724
 103        1.2174
 104        1.2891
 105        1.2891
 106        1.2898
 107        1.2921
 108        1.2951
 109        1.2991
 110        1.2991
 111        1.2997
 112        1.3022
 113        1.3039
 114        1.3048
 115        1.3048
 116        1.3137
 117        1.3396
 118        1.3403
 119        1.3403
 120        1.3411
 121        1.3719
 122        1.3728
 123        1.3746
 124        1.3746
 125        1.3867
 126        1.3867
 127        1.3896
 128        1.3917
 129        1.4245
 130        1.4245
 131        1.5032
 132        1.5470
 133        1.6805
 134        1.6817
 135        1.7419
 136        1.7421
 137        1.7421
 138        1.7428
 139        1.7823
 140        1.7823
 141        1.7904
 142        1.7904
 143        1.7910
 144        1.7910
 145        1.8023
 146        1.8042
 147        1.8477
 148        1.8484
 149        1.8491
 150        1.8491
 151        1.8821
 152        1.9210
 153        1.9210
 154        1.9216
 155        1.9216
 156        1.9240
 157        1.9250
 158        1.9250
 159        2.0044
 160        2.0065
 161        2.0065
 162        2.0066
 163        2.0361
 164        2.1265
 165        2.1321
 166        2.1335
 167        2.1399
 168        2.2432
 169        2.2435
 170        2.2435
 171        2.2441
 172        2.9003
 173        3.1443
 174        3.1445
 175        3.1453
 176        3.1453
 177        3.2292
 178        3.2292
 179        3.2299
 180        3.2317
 181        5.5248
 182        5.5248
 183        5.5257
 184        5.5262
 185        6.3675
 186        6.3675
 187        6.5989
 188        6.5989
 189        6.5991
 190        6.6000
 191        7.1015
 192        7.1015
 193        8.7728
 194        8.7728
 195        8.7734
 196        8.7735
 197        9.7829
 198        9.7829
 199        9.7836
 200        9.7837
 201       10.5050
 202       10.5050
 203       10.5051
 204       10.5052
 205       10.8539
 206       10.8540
 207       11.0296
 208       11.0297
 209       11.0304
 210       11.0304
 211       11.0371
 212       11.0371
 213       12.5255
 214       12.5255
 215       12.5259
 216       12.5260
 
  0.0000000E+00  0.1428571E+00  0.0000000E+00  0.1166181E-01
   1       -5.5125
   2       -3.4944
   3       -2.8145
   4       -2.7920
   5       -2.7919
   6       -2.7709
   7       -2.2040
   8       -1.3646
   9       -1.3508
  10       -1.3451
  11       -1.3406
  12       -1.3401
  13       -1.3363
  14       -1.3317
  15       -1.3197
  16       -1.1524
  17       -1.1249
  18       -1.1229
  19       -1.0147
  20       -1.0060
  21       -1.0026
  22       -0.9925
  23       -0.6969
  24       -0.6956
  25       -0.6946
  26       -0.6789
  27       -0.6661
  28       -0.6652
  29       -0.6511
  30       -0.4801
  31       -0.4764
  32       -0.4186
  33       -0.4068
  34       -0.4064
  35       -0.3945
  36       -0.2029
  37       -0.0852
  38       -0.0797
  39       -0.0564
  40       -0.0471
  41       -0.0446
  42       -0.0330
  43        0.0920
  44        0.1144
  45        0.1172
  46        0.1280
  47        0.1287
  48        0.1294
  49        0.1325
  50        0.1361
  51        0.1426
  52        0.1468
  53        0.1562
  54        0.1582
  55        0.1680
  56        0.1721
  57        0.1771
  58        0.1780
  59        0.1917
  60        0.2164
  61        0.2175
  62        0.2265
  63        0.2296
  64        0.2342
  65        0.2373
  66        0.2440
  67        0.2485
  68        0.3666
  69        0.3739
  70        0.3802
  71        0.3827
  72        0.4258
  73        0.4290
  74        0.4466
  75        0.4553
  76        0.4554
  77        0.4653
  78        0.5995
  79        0.6015
  80        0.6030
  81        0.6037
  82        0.6236
  83        0.6294
  84        0.6300
  85        0.6310
  86        0.6324
  87        0.6558
  88        0.6582
  89        0.9210
  90        0.9338
  91        0.9350
  92        0.9464
  93        1.0355
  94        1.0704
  95        1.0736
  96        1.0743
  97        1.0754
  98        1.1015
  99        1.1272
 100        1.1291
 101        1.1376
 102        1.1453
 103        1.1473
 104        1.1517
 105        1.1796
 106        1.1850
 107        1.1861
 108        1.1928
 109        1.2726
 110        1.2861
 111        1.2870
 112        1.2958
 113        1.3329
 114        1.3448
 115        1.3466
 116        1.3545
 117        1.3611
 118        1.3718
 119        1.3729
 120        1.3813
 121        1.4042
 122        1.4112
 123        1.4146
 124        1.4168
 125        1.4325
 126        1.4447
 127        1.4531
 128        1.4548
 129        1.4555
 130        1.4606
 131        1.4958
 132        1.5040
 133        1.5043
 134        1.5159
 135        1.5317
 136        1.5396
 137        1.5434
 138        1.5493
 139        1.6539
 140        1.7272
 141        1.7334
 142        1.7334
 143        1.7395
 144        1.7726
 145        1.7951
 146        1.7999
 147        1.8049
 148        1.8093
 149        1.9612
 150        1.9626
 151        1.9754
 152        1.9778
 153        1.9794
 154        1.9796
 155        1.9809
 156        2.0261
 157        2.0280
 158        2.1029
 159        2.1060
 160        2.1073
 161        2.1075
 162        2.1088
 163        2.1121
 164        2.1330
 165        2.1334
 166        2.1338
 167        2.1342
 168        2.8149
 169        2.8205
 170        2.8212
 171        2.8306
 172        2.8647
 173        2.8703
 174        2.8711
 175        2.8792
 176        3.2896
 177        3.2985
 178        3.3004
 179        3.3093
 180        3.8656
 181        3.8759
 182        3.8761
 183        3.8871
 184        4.7708
 185        5.3265
 186        5.3306
 187        7.4740
 188        7.4768
 189        7.4793
 190        7.4828
 191        8.8230
 192        8.8233
 193        9.0108
 194        9.0307
 195        9.0309
 196        9.0522
 197        9.8415
 198        9.8703
 199        9.8730
 200        9.8981
 201       10.6531
 202       10.6596
 203       10.8125
 204       10.8143
 205       11.1535
 206       11.6059
 207       11.6089
 208       12.0930
 209       12.1197
 210       12.1212
 211       12.1376
 212       12.2483
 213       12.2622
 214       12.2643
 215       12.2780
 216       12.4093
 
  0.1428571E+00  0.1428571E+00  0.0000000E+00  0.2332362E-01
   1       -5.4513
   2       -3.4510
   3       -3.4309
   4       -2.7439
   5       -2.7432
   6       -2.1673
   7       -2.1497
   8       -1.8037
   9       -1.3783
  10       -1.3771
  11       -1.3535
  12       -1.3528
  13       -1.3393
  14       -1.3385
  15       -1.2791
  16       -1.2780
  17       -1.1244
  18       -1.1228
  19       -1.0956
  20       -0.9283
  21       -0.9184
  22       -0.7250
  23       -0.7220
  24       -0.7112
  25       -0.7061
  26       -0.6790
  27       -0.6766
  28       -0.6765
  29       -0.4769
  30       -0.4706
  31       -0.4565
  32       -0.4557
  33       -0.4444
  34       -0.3845
  35       -0.3838
  36       -0.1984
  37       -0.1890
  38       -0.0974
  39       -0.0868
  40       -0.0776
  41       -0.0710
  42       -0.0375
  43       -0.0372
  44        0.0723
  45        0.0767
  46        0.0877
  47        0.0946
  48        0.1029
  49        0.1108
  50        0.1293
  51        0.1491
  52        0.1733
  53        0.1741
  54        0.1835
  55        0.1838
  56        0.1933
  57        0.1955
  58        0.2204
  59        0.2273
  60        0.2323
  61        0.2348
  62        0.2541
  63        0.2699
  64        0.2735
  65        0.2776
  66        0.2856
  67        0.3139
  68        0.3246
  69        0.3886
  70        0.4018
  71        0.4238
  72        0.4275
  73        0.4589
  74        0.4618
  75        0.4685
  76        0.4715
  77        0.5610
  78        0.5690
  79        0.5705
  80        0.6067
  81        0.6071
  82        0.6151
  83        0.6416
  84        0.6417
  85        0.6551
  86        0.6561
  87        0.6639
  88        0.6691
  89        0.8870
  90        0.8890
  91        0.9500
  92        0.9522
  93        0.9913
  94        1.0031
  95        1.0690
  96        1.0719
  97        1.0730
  98        1.0760
  99        1.1112
 100        1.1208
 101        1.1241
 102        1.1281
 103        1.1318
 104        1.1372
 105        1.1378
 106        1.1996
 107        1.2074
 108        1.2126
 109        1.2282
 110        1.2306
 111        1.2362
 112        1.2397
 113        1.2725
 114        1.4046
 115        1.4047
 116        1.4262
 117        1.4344
 118        1.4378
 119        1.4380
 120        1.4446
 121        1.4454
 122        1.4474
 123        1.4498
 124        1.4509
 125        1.4522
 126        1.4528
 127        1.4574
 128        1.4598
 129        1.4676
 130        1.4913
 131        1.5035
 132        1.5252
 133        1.5359
 134        1.5887
 135        1.5890
 136        1.5926
 137        1.5928
 138        1.5960
 139        1.5996
 140        1.6081
 141        1.6622
 142        1.6693
 143        1.7159
 144        1.7159
 145        1.7427
 146        1.7427
 147        1.8077
 148        1.8084
 149        1.9390
 150        1.9418
 151        1.9444
 152        1.9454
 153        1.9875
 154        1.9882
 155        1.9908
 156        1.9912
 157        2.0110
 158        2.0133
 159        2.0842
 160        2.0846
 161        2.1019
 162        2.1047
 163        2.1070
 164        2.1080
 165        2.1093
 166        2.1120
 167        2.1186
 168        2.5185
 169        2.5682
 170        2.5683
 171        2.8555
 172        2.8561
 173        2.8623
 174        2.8630
 175        3.2315
 176        3.2328
 177        3.3430
 178        3.3534
 179        3.8704
 180        3.8741
 181        3.8801
 182        3.8839
 183        4.5340
 184        4.9292
 185        4.9341
 186        5.4788
 187        7.3352
 188        7.3355
 189        7.9277
 190        7.9284
 191        8.1625
 192        8.1765
 193        8.8996
 194        8.9183
 195        8.9267
 196        8.9296
 197        9.2984
 198        9.3000
 199        9.9246
 200        9.9570
 201       10.6828
 202       10.8834
 203       10.8990
 204       11.1761
 205       11.1835
 206       11.4792
 207       11.4831
 208       11.4877
 209       11.4934
 210       11.5591
 211       11.7021
 212       11.7032
 213       12.3285
 214       12.3530
 215       12.7845
 216       12.7867
 
  0.2857143E+00  0.1428571E+00  0.0000000E+00  0.2332362E-01
   1       -5.2690
   2       -4.0398
   3       -3.2825
   4       -2.6001
   5       -2.5991
   6       -2.2625
   7       -2.0246
   8       -1.7133
   9       -1.7122
  10       -1.6397
  11       -1.3916
  12       -1.3907
  13       -1.3578
  14       -1.3564
  15       -1.2276
  16       -1.1946
  17       -1.1942
  18       -1.1312
  19       -1.0395
  20       -1.0148
  21       -0.8300
  22       -0.8295
  23       -0.6323
  24       -0.6275
  25       -0.6275
  26       -0.5929
  27       -0.5881
  28       -0.5782
  29       -0.4861
  30       -0.4855
  31       -0.4135
  32       -0.3860
  33       -0.3456
  34       -0.3314
  35       -0.3219
  36       -0.3209
  37       -0.2757
  38       -0.2663
  39       -0.1652
  40       -0.1250
  41       -0.0568
  42       -0.0188
  43       -0.0178
  44       -0.0107
  45       -0.0079
  46       -0.0008
  47        0.0148
  48        0.0535
  49        0.0942
  50        0.0943
  51        0.1136
  52        0.1239
  53        0.1269
  54        0.1559
  55        0.1918
  56        0.2227
  57        0.2245
  58        0.2455
  59        0.2687
  60        0.2728
  61        0.2905
  62        0.2913
  63        0.3071
  64        0.3148
  65        0.3369
  66        0.3386
  67        0.4052
  68        0.4144
  69        0.4469
  70        0.4488
  71        0.4941
  72        0.4944
  73        0.5123
  74        0.5130
  75        0.5301
  76        0.5305
  77        0.5682
  78        0.5938
  79        0.5948
  80        0.6352
  81        0.6781
  82        0.6791
  83        0.6951
  84        0.7008
  85        0.7086
  86        0.7107
  87        0.7119
  88        0.7250
  89        0.7884
  90        0.7909
  91        0.8227
  92        0.8473
  93        0.9393
  94        0.9527
  95        0.9533
  96        0.9872
  97        1.0170
  98        1.0186
  99        1.1089
 100        1.1104
 101        1.1318
 102        1.1459
 103        1.1650
 104        1.1994
 105        1.2004
 106        1.2050
 107        1.2101
 108        1.2163
 109        1.2229
 110        1.2732
 111        1.2747
 112        1.2977
 113        1.2987
 114        1.3187
 115        1.3259
 116        1.3534
 117        1.3540
 118        1.3856
 119        1.3934
 120        1.3945
 121        1.4290
 122        1.4396
 123        1.4409
 124        1.4528
 125        1.4583
 126        1.4663
 127        1.4704
 128        1.5201
 129        1.5202
 130        1.5450
 131        1.5593
 132        1.5624
 133        1.5827
 134        1.5835
 135        1.6053
 136        1.6219
 137        1.6374
 138        1.6952
 139        1.6981
 140        1.7004
 141        1.7036
 142        1.7045
 143        1.7099
 144        1.7153
 145        1.7215
 146        1.7431
 147        1.8146
 148        1.8151
 149        1.8686
 150        1.8824
 151        1.9091
 152        1.9245
 153        1.9370
 154        1.9387
 155        1.9643
 156        1.9649
 157        1.9730
 158        1.9784
 159        2.0203
 160        2.0213
 161        2.0321
 162        2.0330
 163        2.0365
 164        2.1011
 165        2.1065
 166        2.1083
 167        2.1140
 168        2.2469
 169        2.5146
 170        2.5150
 171        2.5864
 172        2.5872
 173        2.8251
 174        2.8253
 175        2.9174
 176        3.5720
 177        3.5733
 178        3.8740
 179        3.8753
 180        3.9977
 181        4.0567
 182        4.6241
 183        4.6249
 184        5.3419
 185        5.3477
 186        5.8913
 187        7.0106
 188        7.3580
 189        7.5619
 190        7.5628
 191        7.8171
 192        7.8188
 193        8.0196
 194        8.6257
 195        8.6261
 196        8.6511
 197        9.1681
 198        9.3952
 199        9.3954
 200       10.2198
 201       10.2199
 202       10.7539
 203       10.7898
 204       10.7999
 205       10.8019
 206       10.8681
 207       11.1248
 208       11.2736
 209       11.4101
 210       11.8084
 211       11.8097
 212       11.8371
 213       11.9683
 214       11.9778
 215       12.4486
 216       12.6342
 
  0.4285714E+00  0.1428571E+00  0.0000000E+00  0.2332362E-01
   1       -4.9686
   2       -4.5546
   3       -3.0255
   4       -2.6789
   5       -2.3691
   6       -2.3679
   7       -2.0639
   8       -2.0638
   9       -1.8112
  10       -1.5355
  11       -1.3912
  12       -1.3889
  13       -1.3724
  14       -1.3709
  15       -1.3201
  16       -1.1778
  17       -1.0870
  18       -1.0863
  19       -0.9614
  20       -0.9610
  21       -0.9104
  22       -0.8901
  23       -0.7497
  24       -0.7351
  25       -0.5569
  26       -0.5444
  27       -0.5433
  28       -0.4533
  29       -0.4264
  30       -0.4221