 running on    8 nodes
 distr:  one band on    1 nodes,    8 groups
 vasp.4.6.28 25Jul05 complex 
 POSCAR found :  1 types and    4 ions
 LDA part: xc-table for Pade appr. of Perdew
 POSCAR, INCAR and KPOINTS ok, starting setup
 FFT: planning ...           1
 reading WAVECAR
 entering main loop
       N       E                     dE             d eps       ncg     rms          rms(c)
DAV:   1     0.348670583795E+03    0.34867E+03   -0.30668E+04 85704   0.303E+03
DAV:   2     0.900597967451E+01   -0.33966E+03   -0.32493E+03 85152   0.451E+02
DAV:   3    -0.160254558864E+02   -0.25031E+02   -0.24176E+02 94664   0.145E+02
DAV:   4    -0.163768227444E+02   -0.35137E+00   -0.35107E+00 94688   0.171E+01
DAV:   5    -0.163775762372E+02   -0.75349E-03   -0.75348E-03 95992   0.729E-01    0.126E+01
DAV:   6    -0.155384527029E+02    0.83912E+00   -0.27466E+01 93360   0.782E+01    0.837E+00
DAV:   7    -0.136280732075E+02    0.19104E+01   -0.63052E+00 96504   0.368E+01    0.635E-01
DAV:   8    -0.136274534162E+02    0.61979E-03   -0.13205E-01101032   0.422E+00    0.949E-01
DAV:   9    -0.136103351799E+02    0.17118E-01   -0.61317E-02 98032   0.355E+00    0.144E-01
DAV:  10    -0.136100472892E+02    0.28789E-03   -0.15535E-03 98880   0.540E-01    0.238E-02
DAV:  11    -0.136100461021E+02    0.11871E-05   -0.36085E-05 97400   0.700E-02    0.211E-03
DAV:  12    -0.136100476824E+02   -0.15803E-05   -0.15264E-06 96984   0.138E-02    0.151E-03
DAV:  13    -0.136100484177E+02   -0.73527E-06   -0.13412E-07 95592   0.434E-03    0.242E-04
DAV:  14    -0.136100483666E+02    0.51064E-07   -0.46869E-09 57968   0.845E-04    0.417E-05
DAV:  15    -0.136100483470E+02    0.19580E-07   -0.59626E-10 53472   0.171E-04    0.172E-05
DAV:  16    -0.136100483460E+02    0.98771E-09   -0.29546E-11 52776   0.637E-05
   1 F= -.13610048E+02 E0= -.13610012E+02  d E =-.721523E-04
