   4   4   0   0
  0.1915140E+02  0.4247045E-09  0.4247045E-09  0.4247045E-09  0.5000000E-15
  1.000000000000000E-004
  CAR 
 unknown system                          
     19.38572321     -5.53938337  301      2.57960317      1.00000000
     -5.539  0.0000E+00  0.0000E+00
     -5.456  0.0000E+00  0.0000E+00
     -5.373  0.0000E+00  0.0000E+00
     -5.290  0.0000E+00  0.0000E+00
     -5.207  0.0000E+00  0.0000E+00
     -5.124  0.0000E+00  0.0000E+00
     -5.041  0.0000E+00  0.0000E+00
     -4.958  0.0000E+00  0.0000E+00
     -4.875  0.0000E+00  0.0000E+00
     -4.792  0.0000E+00  0.0000E+00
     -4.709  0.0000E+00  0.0000E+00
     -4.625  0.0000E+00  0.0000E+00
     -4.542  0.0000E+00  0.0000E+00
     -4.459  0.1959E-16  0.1628E-17
     -4.376  0.1741E-01  0.1446E-02
     -4.293  0.1105E+00  0.1080E-01
     -4.210  0.1728E+00  0.2531E-01
     -4.127  0.1970E+00  0.4297E-01
     -4.044  0.2405E+00  0.6386E-01
     -3.961  0.2784E+00  0.8891E-01
     -3.878  0.3258E+00  0.1173E+00
     -3.795  0.3310E+00  0.1471E+00
     -3.712  0.3950E+00  0.1809E+00
     -3.628  0.4457E+00  0.2189E+00
     -3.545  0.4330E+00  0.2589E+00
     -3.462  0.5472E+00  0.3069E+00
     -3.379  0.5947E+00  0.3590E+00
     -3.296  0.6004E+00  0.4125E+00
     -3.213  0.8225E+00  0.4837E+00
     -3.130  0.2734E+01  0.7174E+00
     -3.047  0.6355E+01  0.1269E+01
     -2.964  0.8893E+01  0.2051E+01
     -2.881  0.1107E+02  0.3016E+01
     -2.798  0.1390E+02  0.4228E+01
     -2.715  0.1814E+02  0.5812E+01
     -2.631  0.1460E+02  0.7106E+01
     -2.548  0.1292E+02  0.8249E+01
     -2.465  0.1163E+02  0.9272E+01
     -2.382  0.9015E+01  0.1007E+02
     -2.299  0.1020E+02  0.1096E+02
     -2.216  0.1072E+02  0.1190E+02
     -2.133  0.1299E+02  0.1306E+02
     -2.050  0.1280E+02  0.1418E+02
     -1.967  0.1194E+02  0.1523E+02
     -1.884  0.1155E+02  0.1625E+02
     -1.801  0.1360E+02  0.1744E+02
     -1.718  0.1752E+02  0.1898E+02
     -1.634  0.2307E+02  0.2099E+02
     -1.551  0.1544E+02  0.2235E+02
     -1.468  0.1226E+02  0.2344E+02
     -1.385  0.1115E+02  0.2442E+02
     -1.302  0.1266E+02  0.2554E+02
     -1.219  0.1299E+02  0.2668E+02
     -1.136  0.1490E+02  0.2798E+02
     -1.053  0.1442E+02  0.2926E+02
     -0.970  0.1583E+02  0.3065E+02
     -0.887  0.1297E+02  0.3181E+02
     -0.804  0.1237E+02  0.3290E+02
     -0.721  0.1201E+02  0.3395E+02
     -0.637  0.1234E+02  0.3504E+02
     -0.554  0.1329E+02  0.3621E+02
     -0.471  0.1698E+02  0.3770E+02
     -0.388  0.2238E+02  0.3965E+02
     -0.305  0.1194E+02  0.4074E+02
     -0.222  0.5732E+01  0.4126E+02
     -0.139  0.1027E+01  0.4135E+02
     -0.056  0.8264E+00  0.4142E+02
      0.027  0.7519E+00  0.4149E+02
      0.110  0.1065E+01  0.4159E+02
      0.193  0.6297E+00  0.4164E+02
      0.276  0.1042E+01  0.4173E+02
      0.360  0.7915E+00  0.4180E+02
      0.443  0.9117E+00  0.4188E+02
      0.526  0.8462E+00  0.4195E+02
      0.609  0.7938E+00  0.4202E+02
      0.692  0.8762E+00  0.4211E+02
      0.775  0.7513E+00  0.4217E+02
      0.858  0.1037E+01  0.4226E+02
      0.941  0.7934E+00  0.4233E+02
      1.024  0.8391E+00  0.4240E+02
      1.107  0.9851E+00  0.4249E+02
      1.190  0.7868E+00  0.4256E+02
      1.273  0.9683E+00  0.4264E+02
      1.357  0.8994E+00  0.4273E+02
      1.440  0.8010E+00  0.4280E+02
      1.523  0.1077E+01  0.4289E+02
      1.606  0.9244E+00  0.4297E+02
      1.689  0.8071E+00  0.4304E+02
      1.772  0.1025E+01  0.4313E+02
      1.855  0.9579E+00  0.4322E+02
      1.938  0.9251E+00  0.4330E+02
      2.021  0.9999E+00  0.4338E+02
      2.104  0.1061E+01  0.4348E+02
      2.187  0.8733E+00  0.4356E+02
      2.270  0.1043E+01  0.4365E+02
      2.354  0.9950E+00  0.4374E+02
      2.437  0.1039E+01  0.4383E+02
      2.520  0.1118E+01  0.4393E+02
      2.603  0.1153E+01  0.4403E+02
      2.686  0.1016E+01  0.4412E+02
      2.769  0.1189E+01  0.4422E+02
      2.852  0.1036E+01  0.4431E+02
      2.935  0.1067E+01  0.4441E+02
      3.018  0.1134E+01  0.4450E+02
      3.101  0.1058E+01  0.4460E+02
      3.184  0.1118E+01  0.4470E+02
      3.267  0.1047E+01  0.4479E+02
      3.351  0.1102E+01  0.4488E+02
      3.434  0.1106E+01  0.4498E+02
      3.517  0.1037E+01  0.4507E+02
      3.600  0.9516E+00  0.4516E+02
      3.683  0.1129E+01  0.4525E+02
      3.766  0.1121E+01  0.4535E+02
      3.849  0.8690E+00  0.4543E+02
      3.932  0.1147E+01  0.4553E+02
      4.015  0.1078E+01  0.4562E+02
      4.098  0.9722E+00  0.4571E+02
      4.181  0.9217E+00  0.4580E+02
      4.264  0.1162E+01  0.4590E+02
      4.348  0.1104E+01  0.4600E+02
      4.431  0.9714E+00  0.4608E+02
      4.514  0.1001E+01  0.4617E+02
      4.597  0.1118E+01  0.4627E+02
      4.680  0.9239E+00  0.4634E+02
      4.763  0.9166E+00  0.4643E+02
      4.846  0.1058E+01  0.4652E+02
      4.929  0.8959E+00  0.4660E+02
      5.012  0.8530E+00  0.4668E+02
      5.095  0.7773E+00  0.4675E+02
      5.178  0.9927E+00  0.4683E+02
      5.261  0.8244E+00  0.4691E+02
      5.345  0.7829E+00  0.4698E+02
      5.428  0.6186E+00  0.4704E+02
      5.511  0.9371E+00  0.4712E+02
      5.594  0.7982E+00  0.4719E+02
      5.677  0.1139E+01  0.4729E+02
      5.760  0.1216E+01  0.4740E+02
      5.843  0.1408E+01  0.4752E+02
      5.926  0.1323E+01  0.4764E+02
      6.009  0.1367E+01  0.4776E+02
      6.092  0.1409E+01  0.4788E+02
      6.175  0.1288E+01  0.4799E+02
      6.259  0.1440E+01  0.4812E+02
      6.342  0.1197E+01  0.4823E+02
      6.425  0.1340E+01  0.4834E+02
      6.508  0.1380E+01  0.4846E+02
      6.591  0.1194E+01  0.4857E+02
      6.674  0.1218E+01  0.4868E+02
      6.757  0.1258E+01  0.4879E+02
      6.840  0.1120E+01  0.4889E+02
      6.923  0.1422E+01  0.4902E+02
      7.006  0.1066E+01  0.4911E+02
      7.089  0.1289E+01  0.4922E+02
      7.172  0.1269E+01  0.4933E+02
      7.256  0.1090E+01  0.4943E+02
      7.339  0.1250E+01  0.4954E+02
      7.422  0.1025E+01  0.4963E+02
      7.505  0.1274E+01  0.4974E+02
      7.588  0.1142E+01  0.4985E+02
      7.671  0.1000E+01  0.4993E+02
      7.754  0.1210E+01  0.5004E+02
      7.837  0.1169E+01  0.5014E+02
      7.920  0.1100E+01  0.5023E+02
      8.003  0.1028E+01  0.5033E+02
      8.086  0.1058E+01  0.5042E+02
      8.169  0.1180E+01  0.5052E+02
      8.253  0.1028E+01  0.5062E+02
      8.336  0.1055E+01  0.5071E+02
      8.419  0.1152E+01  0.5081E+02
      8.502  0.1235E+01  0.5093E+02
      8.585  0.1860E+01  0.5109E+02
      8.668  0.1495E+01  0.5122E+02
      8.751  0.1353E+01  0.5134E+02
      8.834  0.1732E+01  0.5149E+02
      8.917  0.1213E+01  0.5160E+02
      9.000  0.1173E+01  0.5170E+02
      9.083  0.1582E+01  0.5184E+02
      9.166  0.1920E+01  0.5201E+02
      9.250  0.1525E+01  0.5215E+02
      9.333  0.1743E+01  0.5230E+02
      9.416  0.1414E+01  0.5242E+02
      9.499  0.1869E+01  0.5259E+02
      9.582  0.1890E+01  0.5275E+02
      9.665  0.1555E+01  0.5289E+02
      9.748  0.1500E+01  0.5302E+02
      9.831  0.1755E+01  0.5317E+02
      9.914  0.1476E+01  0.5330E+02
      9.997  0.1935E+01  0.5346E+02
     10.080  0.1632E+01  0.5361E+02
     10.163  0.1605E+01  0.5375E+02
     10.247  0.1601E+01  0.5389E+02
     10.330  0.1468E+01  0.5402E+02
     10.413  0.1606E+01  0.5416E+02
     10.496  0.1929E+01  0.5433E+02
     10.579  0.1824E+01  0.5449E+02
     10.662  0.1620E+01  0.5464E+02
     10.745  0.1633E+01  0.5478E+02
     10.828  0.1513E+01  0.5491E+02
     10.911  0.1593E+01  0.5505E+02
     10.994  0.2333E+01  0.5525E+02
     11.077  0.1647E+01  0.5540E+02
     11.160  0.1578E+01  0.5554E+02
     11.244  0.1665E+01  0.5569E+02
     11.327  0.1656E+01  0.5583E+02
     11.410  0.1891E+01  0.5600E+02
     11.493  0.2000E+01  0.5617E+02
     11.576  0.1961E+01  0.5635E+02
     11.659  0.1640E+01  0.5650E+02
     11.742  0.1781E+01  0.5665E+02
     11.825  0.1648E+01  0.5680E+02
     11.908  0.1982E+01  0.5697E+02
     11.991  0.1959E+01  0.5714E+02
     12.074  0.2105E+01  0.5733E+02
     12.157  0.1826E+01  0.5748E+02
     12.241  0.1805E+01  0.5764E+02
     12.324  0.1949E+01  0.5781E+02
     12.407  0.1976E+01  0.5799E+02
     12.490  0.2065E+01  0.5817E+02
     12.573  0.1960E+01  0.5835E+02
     12.656  0.2172E+01  0.5853E+02
     12.739  0.2191E+01  0.5873E+02
     12.822  0.1784E+01  0.5889E+02
     12.905  0.2181E+01  0.5908E+02
     12.988  0.2289E+01  0.5928E+02
     13.071  0.1920E+01  0.5945E+02
     13.154  0.2093E+01  0.5963E+02
     13.238  0.1919E+01  0.5980E+02
     13.321  0.2028E+01  0.5998E+02
     13.404  0.1769E+01  0.6013E+02
     13.487  0.2097E+01  0.6032E+02
     13.570  0.1626E+01  0.6046E+02
     13.653  0.2181E+01  0.6065E+02
     13.736  0.1661E+01  0.6080E+02
     13.819  0.1741E+01  0.6095E+02
     13.902  0.1858E+01  0.6111E+02
     13.985  0.1620E+01  0.6126E+02
     14.068  0.1774E+01  0.6142E+02
     14.151  0.1668E+01  0.6156E+02
     14.235  0.1468E+01  0.6169E+02
     14.318  0.1348E+01  0.6181E+02
     14.401  0.1532E+01  0.6195E+02
     14.484  0.1180E+01  0.6205E+02
     14.567  0.1209E+01  0.6216E+02
     14.650  0.1037E+01  0.6225E+02
     14.733  0.1038E+01  0.6235E+02
     14.816  0.1097E+01  0.6244E+02
     14.899  0.8827E+00  0.6252E+02
     14.982  0.9778E+00  0.6260E+02
     15.065  0.9212E+00  0.6268E+02
     15.148  0.8617E+00  0.6275E+02
     15.232  0.8727E+00  0.6283E+02
     15.315  0.6122E+00  0.6289E+02
     15.398  0.7962E+00  0.6295E+02
     15.481  0.7526E+00  0.6302E+02
     15.564  0.5030E+00  0.6307E+02
     15.647  0.6353E+00  0.6312E+02
     15.730  0.7354E+00  0.6319E+02
     15.813  0.4405E+00  0.6323E+02
     15.896  0.5676E+00  0.6327E+02
     15.979  0.4700E+00  0.6332E+02
     16.062  0.5107E+00  0.6336E+02
     16.145  0.4919E+00  0.6340E+02
     16.229  0.4313E+00  0.6344E+02
     16.312  0.2775E+00  0.6347E+02
     16.395  0.4462E+00  0.6351E+02
     16.478  0.3021E+00  0.6354E+02
     16.561  0.4158E+00  0.6357E+02
     16.644  0.3572E+00  0.6360E+02
     16.727  0.3173E+00  0.6363E+02
     16.810  0.3566E+00  0.6366E+02
     16.893  0.2942E+00  0.6369E+02
     16.976  0.2607E+00  0.6371E+02
     17.059  0.2336E+00  0.6374E+02
     17.142  0.3194E+00  0.6376E+02
     17.226  0.2658E+00  0.6379E+02
     17.309  0.2847E+00  0.6381E+02
     17.392  0.1222E+00  0.6383E+02
     17.475  0.2765E+00  0.6385E+02
     17.558  0.2010E+00  0.6387E+02
     17.641  0.2439E+00  0.6389E+02
     17.724  0.1442E+00  0.6390E+02
     17.807  0.2798E+00  0.6393E+02
     17.890  0.1978E+00  0.6395E+02
     17.973  0.1918E+00  0.6396E+02
     18.056  0.2396E+00  0.6398E+02
     18.139  0.1192E+00  0.6400E+02
     18.223  0.4122E-01  0.6400E+02
     18.306  0.1238E-01  0.6400E+02
     18.389  0.0000E+00  0.6400E+02
     18.472  0.0000E+00  0.6400E+02
     18.555  0.0000E+00  0.6400E+02
     18.638  0.0000E+00  0.6400E+02
     18.721  0.0000E+00  0.6400E+02
     18.804  0.0000E+00  0.6400E+02
     18.887  0.0000E+00  0.6400E+02
     18.970  0.0000E+00  0.6400E+02
     19.053  0.0000E+00  0.6400E+02
     19.136  0.0000E+00  0.6400E+02
     19.220  0.0000E+00  0.6400E+02
     19.303  0.0000E+00  0.6400E+02
     19.386  0.0000E+00  0.6400E+02
