    4    4    1    1
  0.1915140E+02  0.4247045E-09  0.4247045E-09  0.4247045E-09  0.5000000E-15
  1.000000000000000E-004
  CAR 
 unknown system                          
   44 1330   32
 
  0.0000000E+00  0.0000000E+00  0.0000000E+00  0.2143347E-04
   1       -4.4064
   2       -3.2185
   3       -3.2185
   4       -3.2185
   5       -3.1198
   6       -3.1198
   7       -3.1198
   8       -1.8979
   9       -1.8979
  10       -1.8979
  11       -1.0569
  12       -1.0569
  13       -0.4358
  14       -0.4358
  15       -0.4358
  16       -0.2401
  17       -0.2401
  18       -0.2401
  19       -0.2401
  20       -0.2401
  21       -0.2401
  22        4.2671
  23        4.2671
  24        4.2671
  25        8.4452
  26        8.4452
  27        8.4452
  28       12.7675
  29       12.7675
  30       12.7675
  31       12.7675
  32       12.7675
 
  0.2777778E-01  0.0000000E+00  0.0000000E+00  0.1286008E-03
   1       -4.3990
   2       -3.2157
   3       -3.2148
   4       -3.2148
   5       -3.1176
   6       -3.1165
   7       -3.1165
   8       -1.9005
   9       -1.8954
  10       -1.8954
  11       -1.0595
  12       -1.0558
  13       -0.4392
  14       -0.4392
  15       -0.4371
  16       -0.2520
  17       -0.2520
  18       -0.2443
  19       -0.2443
  20       -0.2401
  21       -0.2401
  22        4.2061
  23        4.2853
  24        4.2853
  25        8.4467
  26        8.4467
  27        8.5184
  28       12.7374
  29       12.7374
  30       12.7374
  31       12.7374
  32       12.7800
 
  0.5555556E-01  0.0000000E+00  0.0000000E+00  0.1286008E-03
   1       -4.3769
   2       -3.2072
   3       -3.2039
   4       -3.2039
   5       -3.1113
   6       -3.1068
   7       -3.1068
   8       -1.9081
   9       -1.8881
  10       -1.8881
  11       -1.0671
  12       -1.0524
  13       -0.4493
  14       -0.4493
  15       -0.4407
  16       -0.2870
  17       -0.2870
  18       -0.2567
  19       -0.2567
  20       -0.2401
  21       -0.2401
  22        4.0347
  23        4.3394
  24        4.3394
  25        8.4511
  26        8.4511
  27        8.7263
  28       12.6493
  29       12.6493
  30       12.6503
  31       12.6503
  32       12.8174
 
  0.8333333E-01  0.0000000E+00  0.0000000E+00  0.1286008E-03
   1       -4.3401
   2       -3.1933
   3       -3.1857
   4       -3.1857
   5       -3.1008
   6       -3.0906
   7       -3.0906
   8       -1.9208
   9       -1.8759
  10       -1.8759
  11       -1.0797
  12       -1.0468
  13       -0.4661
  14       -0.4661
  15       -0.4469
  16       -0.3435
  17       -0.3435
  18       -0.2773
  19       -0.2773
  20       -0.2400
  21       -0.2400
  22        3.7796
  23        4.4276
  24        4.4276
  25        8.4586
  26        8.4586
  27        9.0421
  28       12.5087
  29       12.5087
  30       12.5148
  31       12.5148
  32       12.8795
 
  0.1111111E+00  0.0000000E+00  0.0000000E+00  0.1286008E-03
   1       -4.2888
   2       -3.1740
   3       -3.1607
   4       -3.1607
   5       -3.0861
   6       -3.0679
   7       -3.0679
   8       -1.9384
   9       -1.8588
  10       -1.8588
  11       -1.0969
  12       -1.0390
  13       -0.4892
  14       -0.4892
  15       -0.4554
  16       -0.4189
  17       -0.4189
  18       -0.3057
  19       -0.3057
  20       -0.2400
  21       -0.2400
  22        3.4688
  23        4.5473
  24        4.5473
  25        8.4692
  26        8.4692
  27        9.4379
  28       12.3234
  29       12.3234
  30       12.3423
  31       12.3423
  32       12.9659
 
  0.1388889E+00  0.0000000E+00  0.0000000E+00  0.1286008E-03
   1       -4.2234
   2       -3.1497
   3       -3.1292
   4       -3.1292
   5       -3.0674
   6       -3.0388
   7       -3.0388
   8       -1.9608
   9       -1.8370
  10       -1.8370
  11       -1.1184
  12       -1.0290
  13       -0.5185
  14       -0.5185
  15       -0.5102
  16       -0.5102
  17       -0.4662
  18       -0.3414
  19       -0.3414
  20       -0.2399
  21       -0.2399
  22        3.1244
  23        4.6955
  24        4.6955
  25        8.4830
  26        8.4830
  27        9.8918
  28       12.1016
  29       12.1016
  30       12.1444
  31       12.1444
  32       13.0761
 
  0.1666667E+00  0.0000000E+00  0.0000000E+00  0.1286008E-03
   1       -4.1443
   2       -3.1208
   3       -3.0917
   4       -3.0917
   5       -3.0448
   6       -3.0033
   7       -3.0033
   8       -1.9876
   9       -1.8104
  10       -1.8104
  11       -1.1434
  12       -1.0170
  13       -0.6144
  14       -0.6144
  15       -0.5535
  16       -0.5535
  17       -0.4792
  18       -0.3840
  19       -0.3840
  20       -0.2399
  21       -0.2399
  22        2.7616
  23        4.8689
  24        4.8689
  25        8.5000
  26        8.5000
  27       10.3884
  28       11.8511
  29       11.8511
  30       11.9311
  31       11.9311
  32       13.2093
 
  0.1944444E+00  0.0000000E+00  0.0000000E+00  0.1286008E-03
   1       -4.0521
   2       -3.0876
   3       -3.0488
   4       -3.0488
   5       -3.0184
   6       -2.9614
   7       -2.9614
   8       -2.0187
   9       -1.7792
  10       -1.7792
  11       -1.1713
  12       -1.0029
  13       -0.7284
  14       -0.7284
  15       -0.5937
  16       -0.5937
  17       -0.4943
  18       -0.4327
  19       -0.4327
  20       -0.2398
  21       -0.2398
  22        2.3907
  23        5.0646
  24        5.0646
  25        8.5205
  26        8.5205
  27       10.9176
  28       11.5783
  29       11.5783
  30       11.7109
  31       11.7109
  32       13.3650
 
  0.2222222E+00  0.0000000E+00  0.0000000E+00  0.1286008E-03
   1       -3.9475
   2       -3.0510
   3       -3.0012
   4       -3.0012
   5       -2.9883
   6       -2.9131
   7       -2.9131
   8       -2.0537
   9       -1.7435
  10       -1.7435
  11       -1.2011
  12       -0.9870
  13       -0.8497
  14       -0.8497
  15       -0.6385
  16       -0.6385
  17       -0.5114
  18       -0.4870
  19       -0.4870
  20       -0.2397
  21       -0.2397
  22        2.0187
  23        5.2798
  24        5.2798
  25        8.5445
  26        8.5445
  27       11.2885
  28       11.2885
  29       11.4722
  30       11.4903
  31       11.4903
  32       13.5421
 
  0.2500000E+00  0.0000000E+00  0.0000000E+00  0.1286008E-03
   1       -3.8317
   2       -3.0114
   3       -2.9547
   4       -2.9500
   5       -2.9500
   6       -2.8584
   7       -2.8584
   8       -2.0923
   9       -1.7034
  10       -1.7034
  11       -1.2313
  12       -0.9760
  13       -0.9760
  14       -0.9693
  15       -0.6868
  16       -0.6868
  17       -0.5461
  18       -0.5461
  19       -0.5303
  20       -0.2397
  21       -0.2397
  22        1.6507
  23        5.5119
  24        5.5119
  25        8.5720
  26        8.5720
  27       10.9861
  28       10.9861
  29       11.2744
  30       11.2744
  31       12.0474
  32       13.7399
 
  0.2777778E+00  0.0000000E+00  0.0000000E+00  0.1286008E-03
   1       -3.7062
   2       -2.9700
   3       -2.9179
   4       -2.8962
   5       -2.8962
   6       -2.7975
   7       -2.7975
   8       -2.1342
   9       -1.6591
  10       -1.6591
  11       -1.2603
  12       -1.1051
  13       -1.1051
  14       -0.9499
  15       -0.7378
  16       -0.7378
  17       -0.6093
  18       -0.6093
  19       -0.5508
  20       -0.2396
  21       -0.2396
  22        1.2903
  23        5.7589
  24        5.7589
  25        8.6028
  26        8.6028
  27       10.6745
  28       10.6745
  29       11.0675
  30       11.0675
  31       12.6395
  32       13.9573
 
  0.3055556E+00  0.0000000E+00  0.0000000E+00  0.1286008E-03
   1       -3.5730
   2       -2.9278
   3       -2.8781
   4       -2.8413
   5       -2.8413
   6       -2.7303
   7       -2.7303
   8       -2.1790
   9       -1.6107
  10       -1.6107
  11       -1.2855
  12       -1.2356
  13       -1.2356
  14       -0.9290
  15       -0.7901
  16       -0.7901
  17       -0.6758
  18       -0.6758
  19       -0.5729
  20       -0.2395
  21       -0.2395
  22        0.9407
  23        6.0189
  24        6.0189
  25        8.6367
  26        8.6367
  27       10.3563
  28       10.3563
  29       10.8728
  30       10.8728
  31       13.2454
  32       14.1934
 
  0.3333333E+00  0.0000000E+00  0.0000000E+00  0.1286008E-03
   1       -3.4351
   2       -2.8863
   3       -2.8355
   4       -2.7869
   5       -2.7869
   6       -2.6571
   7       -2.6571
   8       -2.2262
   9       -1.5583
  10       -1.5583
  11       -1.3660
  12       -1.3660
  13       -1.3038
  14       -0.9067
  15       -0.8422
  16       -0.8422
  17       -0.7450
  18       -0.7450
  19       -0.5963
  20       -0.2395
  21       -0.2395
  22        0.6044
  23        6.2902
  24        6.2902
  25        8.6730
  26        8.6730
  27       10.0338
  28       10.0338
  29       10.6934
  30       10.6934
  31       13.8623
  32       14.4470
 
  0.3611111E+00  0.0000000E+00  0.0000000E+00  0.1286008E-03
   1       -3.2965
   2       -2.8475
   3       -2.7904
   4       -2.7349
   5       -2.7349
   6       -2.5778
   7       -2.5778
   8       -2.2755
   9       -1.5024
  10       -1.5024
  11       -1.4952
  12       -1.4952
  13       -1.3109
  14       -0.8921
  15       -0.8921
  16       -0.8831
  17       -0.8161
  18       -0.8161
  19       -0.6208
  20       -0.2394
  21       -0.2394
  22        0.2842
  23        6.5716
  24        6.5716
  25        8.7107
  26        8.7107
  27        9.7087
  28        9.7087
  29       10.5320
  30       10.5320
  31       14.4873
  32       14.7172
 
  0.3888889E+00  0.0000000E+00  0.0000000E+00  0.1286008E-03
   1       -3.1626
   2       -2.8136
   3       -2.7430
   4       -2.6874
   5       -2.6874
   6       -2.4925
   7       -2.4925
   8       -2.3265
   9       -1.6223
  10       -1.6223
  11       -1.4431
  12       -1.4431
  13       -1.3010
  14       -0.9378
  15       -0.9378
  16       -0.8885
  17       -0.8885
  18       -0.8585
  19       -0.6462
  20       -0.2394
  21       -0.2394
  22       -0.0170
  23        6.8617
  24        6.8617
  25        8.7481
  26        8.7481
  27        9.3826
  28        9.3826
  29       10.3918
  30       10.3918
  31       15.0029
  32       15.0029
 
  0.4166667E+00  0.0000000E+00  0.0000000E+00  0.1286008E-03
   1       -3.0399
   2       -2.7880
   3       -2.6938
   4       -2.6469
   5       -2.6469
   6       -2.4015
   7       -2.4015
   8       -2.3786
   9       -1.7465
  10       -1.7465
  11       -1.3806
  12       -1.3806
  13       -1.2671
  14       -0.9770
  15       -0.9770
  16       -0.9615
  17       -0.9615
  18       -0.8330
  19       -0.6724
  20       -0.2958
  21       -0.2393
  22       -0.2393
  23        7.1596
  24        7.1596
  25        8.7829
  26        8.7829
  27        9.0565
  28        9.0565
  29       10.2761
  30       10.2761
  31       15.3029
  32       15.3029
 
  0.4444444E+00  0.0000000E+00  0.0000000E+00  0.1286008E-03
   1       -2.9358
   2       -2.7746
   3       -2.6430
   4       -2.6157
   5       -2.6157
   6       -2.4316
   7       -2.3049
   8       -2.3049
   9       -1.8671
  10       -1.8671
  11       -1.3154
  12       -1.3154
  13       -1.2016
  14       -1.0344
  15       -1.0344
  16       -1.0072
  17       -1.0072
  18       -0.8068
  19       -0.6991
  20       -0.5481
  21       -0.2393
  22       -0.2393
  23        7.4642
  24        7.4642
  25        8.7317
  26        8.7317
  27        8.8117
  28        8.8117
  29       10.1890
  30       10.1890
  31       15.6161
  32       15.6161
 
  0.4722222E+00  0.0000000E+00  0.0000000E+00  0.1286008E-03
   1       -2.8563
   2       -2.7783
   3       -2.5960
   4       -2.5960
   5       -2.5910
   6       -2.4849
   7       -2.2029
   8       -2.2029
   9       -1.9836
  10       -1.9836
  11       -1.2477
  12       -1.2477
  13       -1.1068
  14       -1.1068
  15       -1.0982
  16       -1.0263
  17       -1.0263
  18       -0.7802
  19       -0.7691
  20       -0.7261
  21       -0.2393
  22       -0.2393
  23        7.7746
  24        7.7746
  25        8.4092
  26        8.4092
  27        8.8310
  28        8.8310
  29       10.1345
  30       10.1345
  31       15.9415
  32       15.9415
 
  0.5000000E+00  0.0000000E+00  0.0000000E+00  0.6430041E-04
   1       -2.8042
   2       -2.8042
   3       -2.5892
   4       -2.5892
   5       -2.5382
   6       -2.5382
   7       -2.0957
   8       -2.0957
   9       -2.0957
  10       -2.0957
  11       -1.1780
  12       -1.1780
  13       -1.1780
  14       -1.1780
  15       -1.0328
  16       -1.0328
  17       -0.9537
  18       -0.9537
  19       -0.7532
  20       -0.7532
  21       -0.2393
  22       -0.2393
  23        8.0899
  24        8.0899
  25        8.0899
  26        8.0899
  27        8.8379
  28        8.8379
  29       10.1159
  30       10.1159
  31       16.2777
  32       16.2777
 
  0.2777778E-01  0.2777778E-01  0.0000000E+00  0.2572016E-03
   1       -4.3917
   2       -3.2120
   3       -3.2120
   4       -3.2112
   5       -3.1144
   6       -3.1144
   7       -3.1132
   8       -1.9015
   9       -1.8946
  10       -1.8930
  11       -1.0602
  12       -1.0565
  13       -0.4426
  14       -0.4406
  15       -0.4406
  16       -0.2609
  17       -0.2560
  18       -0.2560
  19       -0.2443
  20       -0.2443
  21       -0.2430
  22        4.2242
  23        4.2242
  24        4.3035
  25        8.4482
  26        8.5200
  27        8.5200
  28       12.6261
  29       12.7498
  30       12.7498
  31       12.7499
  32       12.7499
 
  0.5555556E-01  0.2777778E-01  0.0000000E+00  0.5144033E-03
   1       -4.3695
   2       -3.2035
   3       -3.2010
   4       -3.2005
   5       -3.1081
   6       -3.1047
   7       -3.1033
   8       -1.9083
   9       -1.8880
  10       -1.8857
  11       -1.0671
  12       -1.0538
  13       -0.4526
  14       -0.4511
  15       -0.4446
  16       -0.2942
  17       -0.2907
  18       -0.2681
  19       -0.2567
  20       -0.2444
  21       -0.2442
  22        4.0524
  23        4.2778
  24        4.3573
  25        8.4526
  26        8.5249
  27        8.7283
  28       12.4655
  29       12.6616
  30       12.6624
  31       12.7857
  32       12.7869
 
  0.8333333E-01  0.2777778E-01  0.0000000E+00  0.5144033E-03
   1       -4.3328
   2       -3.1896
   3       -3.1829
   4       -3.1829
   5       -3.0976
   6       -3.0885
   7       -3.0867
   8       -1.9208
   9       -1.8759
  10       -1.8736
  11       -1.0795
  12       -1.0482
  13       -0.4693
  14       -0.4689
  15       -0.4515
  16       -0.3499
  17       -0.3461
  18       -0.2881
  19       -0.2773
  20       -0.2448
  21       -0.2442
  22        3.7969
  23        4.3652
  24        4.4451
  25        8.4601
  26        8.5332
  27        9.0445
  28       12.2656
  29       12.5207
  30       12.5266
  31       12.7206
  32       12.8487
 
  0.1111111E+00  0.2777778E-01  0.0000000E+00  0.5144033E-03
   1       -4.2816
   2       -3.1703
   3       -3.1585
   4       -3.1579
   5       -3.0830
   6       -3.0659
   7       -3.0636
   8       -1.9383
   9       -1.8589
  10       -1.8566
  11       -1.0966
  12       -1.0403
  13       -0.4951
  14       -0.4924
  15       -0.4611
  16       -0.4247
  17       -0.4185
  18       -0.3153
  19       -0.3057
  20       -0.2448
  21       -0.2442
  22        3.4859
  23        4.4837
  24        4.5644
  25        8.4706
  26        8.5448
  27        9.4406
  28       12.0360
  29       12.3352
  30       12.3538
  31       12.6037
  32       12.9343
 
  0.1388889E+00  0.2777778E-01  0.0000000E+00  0.5144033E-03
   1       -4.2163
   2       -3.1460
   3       -3.1277
   4       -3.1263
   5       -3.0643
   6       -3.0368
   7       -3.0338
   8       -1.9605
   9       -1.8371
  10       -1.8350
  11       -1.1179
  12       -1.0302
  13       -0.5396
  14       -0.5216
  15       -0.5154
  16       -0.4945
  17       -0.4738
  18       -0.3492
  19       -0.3415
  20       -0.2448
  21       -0.2442
  22        3.1413
  23        4.6302
  24        4.7120
  25        8.4843
  26        8.5601
  27        9.8947
  28       11.7855
  29       12.1132
  30       12.1554
  31       12.4446
  32       13.0438
 
  0.1666667E+00  0.2777778E-01  0.0000000E+00  0.5144033E-03
   1       -4.1373
   2       -3.1170
   3       -3.0911
   4       -3.0888
   5       -3.0417
   6       -3.0014
   7       -2.9976
   8       -1.9873
   9       -1.8106
  10       -1.8087
  11       -1.1428
  12       -1.0180
  13       -0.6279
  14       -0.6190
  15       -0.5564
  16       -0.5453
  17       -0.4902
  18       -0.3885
  19       -0.3840
  20       -0.2448
  21       -0.2441
  22        2.7784
  23        4.8016
  24        4.8849
  25        8.5012
  26        8.5789
  27       10.3913
  28       11.5207
  29       11.8624
  30       11.9419
  31       12.2537
  32       13.1759
 
  0.1944444E+00  0.2777778E-01  0.0000000E+00  0.5144033E-03
   1       -4.0452
   2       -3.0838
   3       -3.0491
   4       -3.0458
   5       -3.0154
   6       -2.9595
   7       -2.9549
   8       -2.0183
   9       -1.7794
  10       -1.7778
  11       -1.1705
  12       -1.0038
  13       -0.7386
  14       -0.7325
  15       -0.5964
  16       -0.5888
  17       -0.5118
  18       -0.4327
  19       -0.4310
  20       -0.2447
  21       -0.2441
  22        2.4076
  23        4.9948
  24        5.0800
  25        8.5215
  26        8.6016
  27       10.9204
  28       11.2465
  29       11.5894
  30       11.7215
  31       12.0412
  32       13.3304
 
  0.2222222E+00  0.2777778E-01  0.0000000E+00  0.5144033E-03
   1       -3.9409
   2       -3.0471
   3       -3.0024
   4       -2.9982
   5       -2.9854
   6       -2.9112
   7       -2.9059
   8       -2.0532
   9       -1.7437
  10       -1.7425
  11       -1.1999
  12       -0.9876
  13       -0.8585
  14       -0.8532
  15       -0.6410
  16       -0.6347
  17       -0.5423
  18       -0.4870
  19       -0.4721
  20       -0.2447
  21       -0.2440
  22        2.0360
  23        5.2068
  24        5.2946
  25        8.5450
  26        8.6281
  27       10.9663
  28       11.2995
  29       11.4748
  30       11.5009
  31       11.8159
  32       13.5073
 
  0.2500000E+00  0.2777778E-01  0.0000000E+00  0.5144033E-03
   1       -3.8253
   2       -3.0075
   3       -2.9519
   4       -2.9518
   5       -2.9470
   6       -2.8567
   7       -2.8508
   8       -2.0917
   9       -1.7036
  10       -1.7031
  11       -1.2296
  12       -0.9838
  13       -0.9789
  14       -0.9696
  15       -0.6892
  16       -0.6837
  17       -0.5861
  18       -0.5462
  19       -0.5067
  20       -0.2446
  21       -0.2440
  22        1.6684
  23        5.4351
  24        5.5263
  25        8.5716
  26        8.6585
  27       10.6823
  28       10.9970
  29       11.2854
  30       11.5859
  31       12.0496
  32       13.7019
 
  0.2777778E+00  0.2777778E-01  0.0000000E+00  0.5144033E-03
   1       -3.7000
   2       -2.9660
   3       -2.9152
   4       -2.8985
   5       -2.8932
   6       -2.7959
   7       -2.7898
   8       -2.1335
   9       -1.6598
  10       -1.6593
  11       -1.2577
  12       -1.1123
  13       -1.1076
  14       -0.9500
  15       -0.7400
  16       -0.7351
  17       -0.6417
  18       -0.6094
  19       -0.5354
  20       -0.2445
  21       -0.2439
  22        1.3086
  23        5.6775
  24        5.7728
  25        8.6010
  26        8.6927
  27       10.3958
  28       10.6852
  29       11.0791
  30       11.3576
  31       12.6412
  32       13.9192
 
  0.3055556E+00  0.2777778E-01  0.0000000E+00  0.5144033E-03
   1       -3.5671
   2       -2.9237
   3       -2.8754
   4       -2.8435
   5       -2.8382
   6       -2.7288
   7       -2.7231
   8       -2.1781
   9       -1.6131
  10       -1.6108
  11       -1.2813
  12       -1.2422
  13       -1.2376
  14       -0.9287
  15       -0.7921
  16       -0.7877
  17       -0.7047
  18       -0.6759
  19       -0.5617
  20       -0.2444
  21       -0.2439
  22        0.9598
  23        5.9320
  24        6.0323
  25        8.6321
  26        8.7303
  27       10.1079
  28       10.3670
  29       10.8856
  30       11.1371
  31       13.2464
  32       14.1514
 
  0.3333333E+00  0.2777778E-01  0.0000000E+00  0.5144033E-03
   1       -3.4294
   2       -2.8822
   3       -2.8329
   4       -2.7886
   5       -2.7837
   6       -2.6557
   7       -2.6506
   8       -2.2252
   9       -1.5638
  10       -1.5586
  11       -1.3720
  12       -1.3676
  13       -1.2968
  14       -0.9060
  15       -0.8439
  16       -0.8401
  17       -0.7724
  18       -0.7451
  19       -0.5877
  20       -0.2443
  21       -0.2439
  22        0.6246
  23        6.1970
  24        6.3032
  25        8.6630
  26        8.7707
  27        9.8204
  28       10.0445
  29       10.7080
  30       10.9294
  31       13.8621
  32       14.4031
 
  0.3611111E+00  0.2777778E-01  0.0000000E+00  0.5144033E-03
   1       -3.2911
   2       -2.8432
   3       -2.7879
   4       -2.7359
   5       -2.7317
   6       -2.5765
   7       -2.5724
   8       -2.2744
   9       -1.5132
  10       -1.5026
  11       -1.5005
  12       -1.4964
  13       -1.2988
  14       -0.8936
  15       -0.8903
  16       -0.8821
  17       -0.8431
  18       -0.8163
  19       -0.6139
  20       -0.2442
  21       -0.2438
  22        0.3059
  23        6.4706
  24        6.5842
  25        8.6887
  26        8.8125
  27        9.5374
  28        9.7195
  29       10.5496
  30       10.7389
  31       14.4824
  32       14.6743
 
  0.3888889E+00  0.2777778E-01  0.0000000E+00  0.5144033E-03
   1       -3.1574
   2       -2.8093
   3       -2.7407
   4       -2.6875
   5       -2.6842
   6       -2.4914
   7       -2.4885
   8       -2.3252
   9       -1.6269
  10       -1.6231
  11       -1.4626
  12       -1.4433
  13       -1.2805
  14       -0.9391
  15       -0.9364
  16       -0.9161
  17       -0.8887
  18       -0.8571
  19       -0.6407
  20       -0.2441
  21       -0.2438
  22        0.0067
  23        6.7516
  24        6.8740
  25        8.6953
  26        8.8540
  27        9.2716
  28        9.3933
  29       10.4140
  30       10.5697
  31       14.9418
  32       14.9574
 
  0.4166667E+00  0.2777778E-01  0.0000000E+00  0.5144033E-03
   1       -3.0349
   2       -2.7836
   3       -2.6916
   4       -2.6461
   5       -2.6437
   6       -2.4006
   7       -2.3989
   8       -2.3772
   9       -1.7503
  10       -1.7470
  11       -1.4112
  12       -1.3808
  13       -1.2359
  14       -0.9905
  15       -0.9779
  16       -0.9758
  17       -0.9616
  18       -0.8311
  19       -0.6680
  20       -0.2694
  21       -0.2441
  22       -0.2438
  23        7.0383
  24        7.1716
  25        8.6388
  26        8.8922
  27        9.0658
  28        9.0674
  29       10.3055
  30       10.4257
  31       15.2416
  32       15.2540
 
  0.4444444E+00  0.2777778E-01  0.0000000E+00  0.5144033E-03
   1       -2.9310
   2       -2.7701
   3       -2.6409
   4       -2.6141
   5       -2.6126
   6       -2.4300
   7       -2.3042
   8       -2.3036
   9       -1.8701
  10       -1.8673
  11       -1.3546
  12       -1.3156
  13       -1.1624
  14       -1.0660
  15       -1.0346
  16       -1.0078
  17       -1.0064
  18       -0.8044
  19       -0.6962
  20       -0.5175
  21       -0.2440
  22       -0.2438
  23        7.3292
  24        7.4759
  25        8.4587
  26        8.7427
  27        8.9238
  28        8.9776
  29       10.2289
  30       10.3114
  31       15.5503
  32       15.5631
 
  0.4722222E+00  0.2777778E-01  0.0000000E+00  0.5144033E-03
   1       -2.8515
   2       -2.7736
   3       -2.5938
   4       -2.5930
   5       -2.5890
   6       -2.4832
   7       -2.2029
   8       -2.2023
   9       -1.9858
  10       -1.9836
  11       -1.2894
  12       -1.2479
  13       -1.1419
  14       -1.1070
  15       -1.0573
  16       -1.0266
  17       -1.0259
  18       -0.7770
  19       -0.7453
  20       -0.7127
  21       -0.2439
  22       -0.2439
  23        7.6222
  24        7.7861
  25        8.1990
  26        8.4203
  27        8.9453
  28        8.9601
  29       10.1891
  30       10.2313
  31       15.8695
  32       15.8832
 
  0.5000000E+00  0.2777778E-01  0.0000000E+00  0.2572016E-03
   1       -2.7995
   2       -2.7995
   3       -2.5866
   4       -2.5866
   5       -2.5363
   6       -2.5363
   7       -2.0968
   8       -2.0968
   9       -2.0954
  10       -2.0954
  11       -1.2172
  12       -1.2172
  13       -1.1782
  14       -1.1782
  15       -1.0328
  16       -1.0328
  17       -0.9166
  18       -0.9166
  19       -0.7489
  20       -0.7489
  21       -0.2439
  22       -0.2439
  23        7.9142
  24        7.9142
  25        8.1012
  26        8.1012
  27        8.9557
  28        8.9557
  29       10.1897
  30       10.1897
  31       16.2016
  32       16.2128
 
  0.5555556E-01  0.5555556E-01  0.0000000E+00  0.2572016E-03
   1       -4.3475
   2       -3.1925
   3       -3.1925
   4       -3.1906
   5       -3.0984
   6       -3.0984
   7       -3.0927
   8       -1.9120
   9       -1.8846
  10       -1.8786
  11       -1.0699
  12       -1.0549
  13       -0.4626
  14       -0.4565
  15       -0.4565
  16       -0.3211
  17       -0.3015
  18       -0.3015
  19       -0.2567
  20       -0.2567
  21       -0.2516
  22        4.1049
  23        4.1049
  24        4.4105
  25        8.4570
  26        8.7343
  27        8.7343
  28       12.2430
  29       12.6983
  30       12.6983
  31       12.6988
  32       12.6988
 
  0.8333333E-01  0.5555556E-01  0.0000000E+00  0.5144033E-03
   1       -4.3109
   2       -3.1785
   3       -3.1744
   4       -3.1742
   5       -3.0880
   6       -3.0823
   7       -3.0751
   8       -1.9224
   9       -1.8745
  10       -1.8667
  11       -1.0802
  12       -1.0511
  13       -0.4790
  14       -0.4775
  15       -0.4658
  16       -0.3720
  17       -0.3538
  18       -0.3190
  19       -0.2774
  20       -0.2567
  21       -0.2556
  22        3.8482
  23        4.1903
  24        4.4972
  25        8.4644
  26        8.7444
  27        9.0517
  28       11.9924
  29       12.5568
  30       12.5619
  31       12.7592
  32       12.7594
 
  0.1111111E+00  0.5555556E-01  0.0000000E+00  0.5144033E-03
   1       -4.2600
   2       -3.1592
   3       -3.1515
   4       -3.1493
   5       -3.0735
   6       -3.0598
   7       -3.0506
   8       -1.9388
   9       -1.8584
  10       -1.8502
  11       -1.0964
  12       -1.0435
  13       -0.5116
  14       -0.5018
  15       -0.4795
  16       -0.4436
  17       -0.4183
  18       -0.3425
  19       -0.3058
  20       -0.2574
  21       -0.2567
  22        3.5362
  23        4.3060
  24        4.6151
  25        8.4748
  26        8.7586
  27        9.4487
  28       11.7225
  29       12.3705
  30       12.3879
  31       12.8376
  32       12.8431
 
  0.1388889E+00  0.5555556E-01  0.0000000E+00  0.5144033E-03
   1       -4.1950
   2       -3.1348
   3       -3.1228
   4       -3.1177
   5       -3.0549
   6       -3.0309
   7       -3.0192
   8       -1.9605
   9       -1.8370
  10       -1.8290
  11       -1.1171
  12       -1.0333
  13       -0.5697
  14       -0.5319
  15       -0.5306
  16       -0.4983
  17       -0.4806
  18       -0.3705
  19       -0.3415
  20       -0.2583
  21       -0.2568
  22        3.1910
  23        4.4488
  24        4.7611
  25        8.4882
  26        8.7771
  27        9.9033
  28       11.4403
  29       12.1478
  30       12.1885
  31       12.7400
  32       12.9520
 
  0.1666667E+00  0.5555556E-01  0.0000000E+00  0.5144033E-03
   1       -4.1164
   2       -3.1057
   3       -3.0884
   4       -3.0801
   5       -3.0325
   6       -2.9955
   7       -2.9812
   8       -1.9867
   9       -1.8107
  10       -1.8034
  11       -1.1415
  12       -1.0207
  13       -0.6580
  14       -0.6334
  15       -0.5650
  16       -0.5311
  17       -0.5236
  18       -0.4012
  19       -0.3841
  20       -0.2587
  21       -0.2568
  22        2.8281
  23        4.6153
  24        4.9324
  25        8.5047
  26        8.8000
  27       10.4000
  28       11.1513
  29       11.8963
  30       11.9742
  31       12.5981
  32       13.0795
 
  0.1944444E+00  0.5555556E-01  0.0000000E+00  0.5144033E-03
   1       -4.0248
   2       -3.0725
   3       -3.0487
   4       -3.0370
   5       -3.0063
   6       -2.9539
   7       -2.9368
   8       -2.0173
   9       -1.7796
  10       -1.7735
  11       -1.1684
  12       -1.0059
  13       -0.7652
  14       -0.7449
  15       -0.6045
  16       -0.5775
  17       -0.5569
  18       -0.4329
  19       -0.4325
  20       -0.2589
  21       -0.2568
  22        2.4576
  23        4.8024
  24        5.1259
  25        8.5240
  26        8.8274
  27       10.8597
  28       10.9287
  29       11.6227
  30       11.7534
  31       12.4226
  32       13.2304
 
  0.2222222E+00  0.5555556E-01  0.0000000E+00  0.5144033E-03
   1       -3.9209
   2       -3.0356
   3       -3.0041
   4       -2.9893
   5       -2.9765
   6       -2.9058
   7       -2.8864
   8       -2.0518
   9       -1.7440
  10       -1.7396
  11       -1.1968
  12       -0.9890
  13       -0.8827
  14       -0.8638
  15       -0.6485
  16       -0.6253
  17       -0.5989
  18       -0.4873
  19       -0.4627
  20       -0.2589
  21       -0.2568
  22        2.0866
  23        5.0071
  24        5.3389
  25        8.5459
  26        8.8593
  27       10.5686
  28       11.3323
  29       11.4823
  30       11.5331
  31       12.2237
  32       13.4022
 
  0.2500000E+00  0.5555556E-01  0.0000000E+00  0.5144033E-03
   1       -3.8060
   2       -2.9958
   3       -2.9553
   4       -2.9433
   5       -2.9379
   6       -2.8516
   7       -2.8304
   8       -2.0900
   9       -1.7040
  10       -1.7022
  11       -1.2250