   4   4   0   0
  0.1097545E+02  0.3527720E-09  0.3527720E-09  0.3527720E-09  0.5000000E-15
  1.000000000000000E-004
  CAR 
 unknown system                          
     28.23752379     -7.07972657  301      4.47031484      1.00000000
     -7.080  0.0000E+00  0.0000E+00
     -6.962  0.0000E+00  0.0000E+00
     -6.844  0.0000E+00  0.0000E+00
     -6.727  0.0000E+00  0.0000E+00
     -6.609  0.0000E+00  0.0000E+00
     -6.491  0.0000E+00  0.0000E+00
     -6.373  0.0000E+00  0.0000E+00
     -6.256  0.0000E+00  0.0000E+00
     -6.138  0.0000E+00  0.0000E+00
     -6.020  0.0000E+00  0.0000E+00
     -5.902  0.0000E+00  0.0000E+00
     -5.785  0.0000E+00  0.0000E+00
     -5.667  0.0000E+00  0.0000E+00
     -5.549  0.0000E+00  0.0000E+00
     -5.432  0.1279E-01  0.1505E-02
     -5.314  0.6155E-01  0.1123E-01
     -5.196  0.8717E-01  0.2694E-01
     -5.078  0.1100E+00  0.4514E-01
     -4.961  0.1264E+00  0.6791E-01
     -4.843  0.1275E+00  0.9178E-01
     -4.725  0.1734E+00  0.1221E+00
     -4.608  0.2116E+00  0.1522E+00
     -4.490  0.1964E+00  0.1856E+00
     -4.372  0.2059E+00  0.2194E+00
     -4.254  0.2070E+00  0.2580E+00
     -4.137  0.2323E+00  0.2977E+00
     -4.019  0.2859E+00  0.3400E+00
     -3.901  0.2728E+00  0.3844E+00
     -3.783  0.2809E+00  0.4283E+00
     -3.666  0.2555E+00  0.4757E+00
     -3.548  0.3086E+00  0.5299E+00
     -3.430  0.2580E+00  0.5820E+00
     -3.313  0.3479E+00  0.6389E+00
     -3.195  0.2967E+00  0.6980E+00
     -3.077  0.3490E+00  0.7585E+00
     -2.959  0.3777E+00  0.8228E+00
     -2.842  0.3222E+00  0.8842E+00
     -2.724  0.3944E+00  0.9586E+00
     -2.606  0.3684E+00  0.1029E+01
     -2.488  0.4424E+00  0.1110E+01
     -2.371  0.4599E+00  0.1191E+01
     -2.253  0.4663E+00  0.1273E+01
     -2.135  0.5374E+00  0.1368E+01
     -2.018  0.5977E+00  0.1464E+01
     -1.900  0.6382E+00  0.1565E+01
     -1.782  0.7050E+00  0.1676E+01
     -1.664  0.6596E+00  0.1790E+01
     -1.547  0.8110E+00  0.1927E+01
     -1.429  0.8526E+00  0.2070E+01
     -1.311  0.9987E+00  0.2233E+01
     -1.194  0.1244E+01  0.2430E+01
     -1.076  0.1568E+01  0.2680E+01
     -0.958  0.1863E+01  0.3011E+01
     -0.840  0.2853E+01  0.3457E+01
     -0.723  0.2978E+01  0.3973E+01
     -0.605  0.3018E+01  0.4506E+01
     -0.487  0.3099E+01  0.5061E+01
     -0.369  0.3550E+01  0.5663E+01
     -0.252  0.4771E+01  0.6444E+01
     -0.134  0.5493E+01  0.7344E+01
     -0.016  0.6158E+01  0.8407E+01
      0.101  0.5643E+01  0.9393E+01
      0.219  0.5038E+01  0.1029E+02
      0.337  0.5291E+01  0.1120E+02
      0.455  0.4996E+01  0.1208E+02
      0.572  0.5072E+01  0.1294E+02
      0.690  0.6369E+01  0.1402E+02
      0.808  0.7099E+01  0.1526E+02
      0.926  0.7725E+01  0.1660E+02
      1.043  0.8071E+01  0.1798E+02
      1.161  0.9624E+01  0.1965E+02
      1.279  0.9715E+01  0.2129E+02
      1.396  0.1207E+02  0.2330E+02
      1.514  0.7730E+01  0.2469E+02
      1.632  0.6540E+01  0.2583E+02
      1.750  0.6203E+01  0.2690E+02
      1.867  0.7787E+01  0.2816E+02
      1.985  0.8875E+01  0.2968E+02
      2.103  0.9185E+01  0.3127E+02
      2.220  0.7885E+01  0.3269E+02
      2.338  0.7566E+01  0.3401E+02
      2.456  0.7754E+01  0.3537E+02
      2.574  0.9253E+01  0.3693E+02
      2.691  0.1481E+02  0.3925E+02
      2.809  0.9648E+01  0.4129E+02
      2.927  0.2529E+01  0.4193E+02
      3.045  0.8089E+00  0.4213E+02
      3.162  0.8202E+00  0.4231E+02
      3.280  0.9109E+00  0.4249E+02
      3.398  0.1044E+01  0.4266E+02
      3.515  0.1030E+01  0.4282E+02
      3.633  0.9688E+00  0.4298E+02
      3.751  0.8571E+00  0.4312E+02
      3.869  0.8493E+00  0.4328E+02
      3.986  0.8422E+00  0.4342E+02
      4.104  0.7009E+00  0.4357E+02
      4.222  0.9281E+00  0.4372E+02
      4.340  0.7968E+00  0.4384E+02
      4.457  0.7736E+00  0.4399E+02
      4.575  0.6065E+00  0.4411E+02
      4.693  0.8196E+00  0.4425E+02
      4.810  0.6786E+00  0.4438E+02
      4.928  0.7538E+00  0.4451E+02
      5.046  0.6559E+00  0.4463E+02
      5.164  0.7279E+00  0.4476E+02
      5.281  0.5472E+00  0.4488E+02
      5.399  0.6775E+00  0.4499E+02
      5.517  0.8054E+00  0.4513E+02
      5.634  0.6398E+00  0.4524E+02
      5.752  0.7656E+00  0.4536E+02
      5.870  0.6115E+00  0.4548E+02
      5.988  0.6846E+00  0.4560E+02
      6.105  0.7104E+00  0.4572E+02
      6.223  0.6839E+00  0.4583E+02
      6.341  0.5344E+00  0.4594E+02
      6.459  0.6905E+00  0.4605E+02
      6.576  0.6851E+00  0.4617E+02
      6.694  0.5830E+00  0.4626E+02
      6.812  0.7271E+00  0.4637E+02
      6.929  0.4881E+00  0.4647E+02
      7.047  0.4851E+00  0.4656E+02
      7.165  0.5227E+00  0.4666E+02
      7.283  0.5284E+00  0.4675E+02
      7.400  0.5630E+00  0.4684E+02
      7.518  0.4924E+00  0.4692E+02
      7.636  0.3984E+00  0.4700E+02
      7.754  0.5683E+00  0.4709E+02
      7.871  0.4245E+00  0.4716E+02
      7.989  0.4718E+00  0.4724E+02
      8.107  0.2865E+00  0.4730E+02
      8.224  0.4894E+00  0.4738E+02
      8.342  0.4624E+00  0.4745E+02
      8.460  0.2864E+00  0.4750E+02
      8.578  0.2456E+00  0.4756E+02
      8.695  0.7337E+00  0.4766E+02
      8.813  0.7076E+00  0.4778E+02
      8.931  0.7054E+00  0.4789E+02
      9.048  0.7412E+00  0.4803E+02
      9.166  0.8206E+00  0.4817E+02
      9.284  0.7970E+00  0.4830E+02
      9.402  0.7668E+00  0.4843E+02
      9.519  0.6728E+00  0.4855E+02
      9.637  0.6739E+00  0.4868E+02
      9.755  0.8145E+00  0.4882E+02
      9.873  0.7940E+00  0.4896E+02
      9.990  0.6776E+00  0.4909E+02
     10.108  0.8328E+00  0.4923E+02
     10.226  0.6970E+00  0.4935E+02
     10.343  0.7172E+00  0.4947E+02
     10.461  0.8161E+00  0.4960E+02
     10.579  0.7354E+00  0.4971E+02
     10.697  0.6197E+00  0.4983E+02
     10.814  0.6824E+00  0.4994E+02
     10.932  0.6675E+00  0.5005E+02
     11.050  0.6480E+00  0.5017E+02
     11.168  0.6058E+00  0.5027E+02
     11.285  0.6718E+00  0.5039E+02
     11.403  0.6476E+00  0.5049E+02
     11.521  0.6463E+00  0.5059E+02
     11.638  0.6778E+00  0.5070E+02
     11.756  0.5970E+00  0.5080E+02
     11.874  0.6130E+00  0.5091E+02
     11.992  0.5017E+00  0.5100E+02
     12.109  0.5952E+00  0.5111E+02
     12.227  0.7250E+00  0.5123E+02
     12.345  0.7950E+00  0.5137E+02
     12.462  0.8352E+00  0.5152E+02
     12.580  0.7066E+00  0.5166E+02
     12.698  0.7988E+00  0.5179E+02
     12.816  0.8038E+00  0.5191E+02
     12.933  0.9472E+00  0.5206E+02
     13.051  0.8916E+00  0.5221E+02
     13.169  0.8333E+00  0.5236E+02
     13.287  0.9311E+00  0.5253E+02
     13.404  0.8309E+00  0.5268E+02
     13.522  0.9421E+00  0.5285E+02
     13.640  0.9187E+00  0.5301E+02
     13.757  0.8188E+00  0.5316E+02
     13.875  0.9217E+00  0.5331E+02
     13.993  0.9048E+00  0.5347E+02
     14.111  0.1019E+01  0.5365E+02
     14.228  0.8883E+00  0.5381E+02
     14.346  0.8692E+00  0.5395E+02
     14.464  0.8694E+00  0.5410E+02
     14.582  0.1147E+01  0.5429E+02
     14.699  0.1010E+01  0.5446E+02
     14.817  0.9762E+00  0.5462E+02
     14.935  0.8873E+00  0.5477E+02
     15.052  0.9685E+00  0.5493E+02
     15.170  0.1085E+01  0.5511E+02
     15.288  0.1117E+01  0.5529E+02
     15.406  0.9522E+00  0.5545E+02
     15.523  0.8518E+00  0.5560E+02
     15.641  0.1101E+01  0.5578E+02
     15.759  0.9409E+00  0.5594E+02
     15.876  0.1045E+01  0.5611E+02
     15.994  0.9542E+00  0.5629E+02
     16.112  0.9022E+00  0.5645E+02
     16.230  0.9137E+00  0.5662E+02
     16.347  0.9469E+00  0.5680E+02
     16.465  0.9700E+00  0.5697E+02
     16.583  0.1063E+01  0.5715E+02
     16.701  0.1025E+01  0.5733E+02
     16.818  0.9056E+00  0.5749E+02
     16.936  0.1150E+01  0.5768E+02
     17.054  0.1004E+01  0.5785E+02
     17.171  0.1152E+01  0.5803E+02
     17.289  0.1150E+01  0.5822E+02
     17.407  0.1021E+01  0.5839E+02
     17.525  0.1128E+01  0.5858E+02
     17.642  0.1173E+01  0.5876E+02
     17.760  0.9576E+00  0.5894E+02
     17.878  0.1192E+01  0.5914E+02
     17.996  0.9832E+00  0.5931E+02
     18.113  0.1190E+01  0.5952E+02
     18.231  0.1111E+01  0.5972E+02
     18.349  0.1306E+01  0.5992E+02
     18.466  0.1089E+01  0.6011E+02
     18.584  0.1010E+01  0.6028E+02
     18.702  0.9309E+00  0.6046E+02
     18.820  0.1050E+01  0.6066E+02
     18.937  0.9386E+00  0.6083E+02
     19.055  0.1038E+01  0.6099E+02
     19.173  0.9353E+00  0.6117E+02
     19.290  0.8643E+00  0.6133E+02
     19.408  0.8484E+00  0.6148E+02
     19.526  0.7430E+00  0.6161E+02
     19.644  0.9233E+00  0.6178E+02
     19.761  0.7088E+00  0.6189E+02
     19.879  0.7589E+00  0.6202E+02
     19.997  0.6031E+00  0.6213E+02
     20.115  0.6393E+00  0.6224E+02
     20.232  0.4575E+00  0.6232E+02
     20.350  0.5035E+00  0.6242E+02
     20.468  0.3794E+00  0.6249E+02
     20.585  0.4781E+00  0.6258E+02
     20.703  0.3909E+00  0.6266E+02
     20.821  0.4212E+00  0.6273E+02
     20.939  0.4600E+00  0.6281E+02
     21.056  0.3034E+00  0.6286E+02
     21.174  0.3555E+00  0.6293E+02
     21.292  0.3697E+00  0.6299E+02
     21.410  0.2367E+00  0.6305E+02
     21.527  0.2756E+00  0.6309E+02
     21.645  0.3102E+00  0.6316E+02
     21.763  0.2067E+00  0.6320E+02
     21.880  0.3432E+00  0.6325E+02
     21.998  0.2386E+00  0.6329E+02
     22.116  0.2452E+00  0.6334E+02
     22.234  0.2154E+00  0.6338E+02
     22.351  0.2593E+00  0.6342E+02
     22.469  0.1792E+00  0.6344E+02
     22.587  0.3039E+00  0.6348E+02
     22.704  0.1697E+00  0.6352E+02
     22.822  0.8829E-01  0.6354E+02
     22.940  0.1665E+00  0.6357E+02
     23.058  0.2180E+00  0.6360E+02
     23.175  0.1223E+00  0.6363E+02
     23.293  0.1412E+00  0.6365E+02
     23.411  0.7705E-01  0.6367E+02
     23.529  0.6743E-01  0.6369E+02
     23.646  0.1565E+00  0.6372E+02
     23.764  0.1573E+00  0.6375E+02
     23.882  0.9544E-01  0.6376E+02
     23.999  0.1265E+00  0.6378E+02
     24.117  0.1919E+00  0.6380E+02
     24.235  0.7866E-01  0.6381E+02
     24.353  0.6665E-01  0.6383E+02
     24.470  0.8637E-01  0.6384E+02
     24.588  0.1165E+00  0.6386E+02
     24.706  0.7023E-01  0.6387E+02
     24.824  0.1047E+00  0.6389E+02
     24.941  0.5304E-01  0.6389E+02
     25.059  0.1153E+00  0.6391E+02
     25.177  0.2653E-01  0.6392E+02
     25.294  0.4689E-01  0.6393E+02
     25.412  0.3494E-01  0.6393E+02
     25.530  0.4257E-01  0.6395E+02
     25.648  0.3860E-01  0.6395E+02
     25.765  0.2518E-01  0.6396E+02
     25.883  0.3370E-01  0.6397E+02
     26.001  0.2810E-01  0.6397E+02
     26.118  0.4809E-01  0.6398E+02
     26.236  0.1748E-01  0.6398E+02
     26.354  0.2630E-01  0.6399E+02
     26.472  0.2640E-01  0.6400E+02
     26.589  0.2185E-01  0.6400E+02
     26.707  0.2913E-02  0.6400E+02
     26.825  0.0000E+00  0.6400E+02
     26.943  0.0000E+00  0.6400E+02
     27.060  0.0000E+00  0.6400E+02
     27.178  0.0000E+00  0.6400E+02
     27.296  0.0000E+00  0.6400E+02
     27.413  0.0000E+00  0.6400E+02
     27.531  0.0000E+00  0.6400E+02
     27.649  0.0000E+00  0.6400E+02
     27.767  0.0000E+00  0.6400E+02
     27.884  0.0000E+00  0.6400E+02
     28.002  0.0000E+00  0.6400E+02
     28.120  0.0000E+00  0.6400E+02
     28.238  0.0000E+00  0.6400E+02
