    4    4    1    1
  0.1238999E+02  0.3673192E-09  0.3673192E-09  0.3673192E-09  0.5000000E-15
  1.000000000000000E-004
  CAR 
 unknown system                          
   44 1330   32
 
  0.0000000E+00  0.0000000E+00  0.0000000E+00  0.2143347E-04
   1       -5.5991
   2       -1.2310
   3       -1.2310
   4       -1.2310
   5       -0.8089
   6       -0.8089
   7       -0.8089
   8        0.4818
   9        0.4818
  10        0.4818
  11        1.2503
  12        1.2503
  13        1.7611
  14        1.7611
  15        1.7611
  16        1.9042
  17        1.9042
  18        1.9042
  19        1.9042
  20        1.9042
  21        1.9042
  22        4.9368
  23        4.9368
  24        4.9368
  25       10.1789
  26       10.1789
  27       10.1789
  28       16.1842
  29       16.1842
  30       16.1842
  31       16.1842
  32       16.1842
 
  0.2777778E-01  0.0000000E+00  0.0000000E+00  0.1286008E-03
   1       -5.5900
   2       -1.2311
   3       -1.2268
   4       -1.2268
   5       -0.8066
   6       -0.8065
   7       -0.8065
   8        0.4792
   9        0.4839
  10        0.4839
  11        1.2479
  12        1.2512
  13        1.7580
  14        1.7580
  15        1.7601
  16        1.8884
  17        1.8884
  18        1.9006
  19        1.9006
  20        1.9042
  21        1.9042
  22        4.8718
  23        4.9608
  24        4.9608
  25       10.1824
  26       10.1824
  27       10.2622
  28       16.1138
  29       16.1138
  30       16.1401
  31       16.1401
  32       16.1974
 
  0.5555556E-01  0.0000000E+00  0.0000000E+00  0.1286008E-03
   1       -5.5628
   2       -1.2314
   3       -1.2144
   4       -1.2144
   5       -0.7996
   6       -0.7991
   7       -0.7991
   8        0.4715
   9        0.4901
  10        0.4901
  11        1.2409
  12        1.2541
  13        1.7490
  14        1.7490
  15        1.7571
  16        1.8427
  17        1.8427
  18        1.8899
  19        1.8899
  20        1.9042
  21        1.9042
  22        4.6884
  23        5.0311
  24        5.0311
  25       10.1931
  26       10.1931
  27       10.5005
  28       15.9165
  29       15.9165
  30       16.0128
  31       16.0128
  32       16.2370
 
  0.8333333E-01  0.0000000E+00  0.0000000E+00  0.1286008E-03
   1       -5.5174
   2       -1.2326
   3       -1.1938
   4       -1.1938
   5       -0.7880
   6       -0.7868
   7       -0.7868
   8        0.4587
   9        0.5005
  10        0.5005
  11        1.2294
  12        1.2588
  13        1.7341
  14        1.7341
  15        1.7522
  16        1.7708
  17        1.7708
  18        1.8722
  19        1.8722
  20        1.9042
  21        1.9042
  22        4.4147
  23        5.1439
  24        5.1439
  25       10.2109
  26       10.2109
  27       10.8662
  28       15.6238
  29       15.6238
  30       15.8156
  31       15.8156
  32       16.3027
 
  0.1111111E+00  0.0000000E+00  0.0000000E+00  0.1286008E-03
   1       -5.4541
   2       -1.2355
   3       -1.1655
   4       -1.1655
   5       -0.7718
   6       -0.7695
   7       -0.7695
   8        0.4410
   9        0.5149
  10        0.5149
  11        1.2134
  12        1.2654
  13        1.6780
  14        1.6780
  15        1.7133
  16        1.7133
  17        1.7453
  18        1.8478
  19        1.8478
  20        1.9043
  21        1.9043
  22        4.0813
  23        5.2940
  24        5.2940
  25       10.2361
  26       10.2361
  27       11.3295
  28       15.2677
  29       15.2677
  30       15.5652
  31       15.5652
  32       16.3943
 
  0.1388889E+00  0.0000000E+00  0.0000000E+00  0.1286008E-03
   1       -5.3730
   2       -1.2417
   3       -1.1298
   4       -1.1298
   5       -0.7512
   6       -0.7472
   7       -0.7472
   8        0.4185
   9        0.5335
  10        0.5335
  11        1.1932
  12        1.2738
  13        1.5697
  14        1.5697
  15        1.6870
  16        1.6870
  17        1.7367
  18        1.8172
  19        1.8172
  20        1.9043
  21        1.9043
  22        3.7142
  23        5.4758
  24        5.4758
  25       10.2690
  26       10.2690
  27       11.8656
  28       14.8723
  29       14.8723
  30       15.2780
  31       15.2780
  32       16.5113
 
  0.1666667E+00  0.0000000E+00  0.0000000E+00  0.1286008E-03
   1       -5.2742
   2       -1.2532
   3       -1.0874
   4       -1.0874
   5       -0.7264
   6       -0.7199
   7       -0.7199
   8        0.3914
   9        0.5560
  10        0.5560
  11        1.1691
  12        1.2839
  13        1.4506
  14        1.4506
  15        1.6555
  16        1.6555
  17        1.7262
  18        1.7806
  19        1.7806
  20        1.9044
  21        1.9044
  22        3.3326
  23        5.6847
  24        5.6847
  25       10.3099
  26       10.3099
  27       12.4569
  28       14.4537
  29       14.4537
  30       14.9678
  31       14.9678
  32       16.6532
 
  0.1944444E+00  0.0000000E+00  0.0000000E+00  0.1286008E-03
   1       -5.1580
   2       -1.2727
   3       -1.0391
   4       -1.0391
   5       -0.6973
   6       -0.6875
   7       -0.6875
   8        0.3599
   9        0.5825
  10        0.5825
  11        1.1414
  12        1.2956
  13        1.3248
  14        1.3248
  15        1.6191
  16        1.6191
  17        1.7140
  18        1.7387
  19        1.7387
  20        1.9044
  21        1.9044
  22        2.9512
  23        5.9166
  24        5.9166
  25       10.3591
  26       10.3591
  27       13.0911
  28       14.0225
  29       14.0225
  30       14.6458
  31       14.6458
  32       16.8194
 
  0.2222222E+00  0.0000000E+00  0.0000000E+00  0.1286008E-03
   1       -5.0247
   2       -1.3037
   3       -0.9858
   4       -0.9858
   5       -0.6644
   6       -0.6499
   7       -0.6499
   8        0.3242
   9        0.6129
  10        0.6129
  11        1.1105
  12        1.1952
  13        1.1952
  14        1.3090
  15        1.5786
  16        1.5786
  17        1.6921
  18        1.6921
  19        1.7002
  20        1.9045
  21        1.9045
  22        2.5814
  23        6.1682
  24        6.1682
  25       10.4171
  26       10.4171
  27       13.5855
  28       13.5855
  29       13.7596
  30       14.3202
  31       14.3202
  32       17.0093
 
  0.2500000E+00  0.0000000E+00  0.0000000E+00  0.1286008E-03
   1       -4.8748
   2       -1.3504
   3       -0.9286
   4       -0.9286
   5       -0.6277
   6       -0.6072
   7       -0.6072
   8        0.2848
   9        0.6471
  10        0.6471
  11        1.0644
  12        1.0644
  13        1.0771
  14        1.3238
  15        1.5345
  16        1.5345
  17        1.6412
  18        1.6412
  19        1.6850
  20        1.9045
  21        1.9045
  22        2.2331
  23        6.4371
  24        6.4371
  25       10.4844
  26       10.4844
  27       13.1470
  28       13.1470
  29       13.9972
  30       13.9972
  31       14.4564
  32       17.2221
 
  0.2777778E+00  0.0000000E+00  0.0000000E+00  0.1286008E-03
   1       -4.7086
   2       -1.4181
   3       -0.8688
   4       -0.8688
   5       -0.5875
   6       -0.5592
   7       -0.5592
   8        0.2420
   9        0.6849
  10        0.6849
  11        0.9342
  12        0.9342
  13        1.0417
  14        1.3400
  15        1.4878
  16        1.4878
  17        1.5868
  18        1.5868
  19        1.6683
  20        1.9046
  21        1.9046
  22        1.9146
  23        6.7215
  24        6.7215
  25       10.5616
  26       10.5616
  27       12.7100
  28       12.7100
  29       13.6815
  30       13.6815
  31       15.1772
  32       17.4571
 
  0.3055556E+00  0.0000000E+00  0.0000000E+00  0.1286008E-03
   1       -4.5270
   2       -1.5116
   3       -0.8081
   4       -0.8081
   5       -0.5442
   6       -0.5058
   7       -0.5058
   8        0.1960
   9        0.7262
  10        0.7262
  11        0.8058
  12        0.8058
  13        1.0052
  14        1.3575
  15        1.4398
  16        1.4398
  17        1.5295
  18        1.5295
  19        1.6337
  20        1.6504
  21        1.9047
  22        1.9047
  23        7.0198
  24        7.0198
  25       10.6491
  26       10.6491
  27       12.2766
  28       12.2766
  29       13.3762
  30       13.3762
  31       15.9185
  32       17.7134
 
  0.3333333E+00  0.0000000E+00  0.0000000E+00  0.1286008E-03
   1       -4.3305
   2       -1.6352
   3       -0.7483
   4       -0.7483
   5       -0.4979
   6       -0.4471
   7       -0.4471
   8        0.1472
   9        0.6804
  10        0.6804
  11        0.7709
  12        0.7709
  13        0.9685
  14        1.3761
  15        1.3919
  16        1.3919
  17        1.3962
  18        1.4698
  19        1.4698
  20        1.6314
  21        1.9047
  22        1.9047
  23        7.3309
  24        7.3309
  25       10.7477
  26       10.7477
  27       11.8482
  28       11.8482
  29       13.0840
  30       13.0840
  31       16.6774
  32       17.9904
 
  0.3611111E+00  0.0000000E+00  0.0000000E+00  0.1286008E-03
   1       -4.1201
   2       -1.7907
   3       -0.6914
   4       -0.6914
   5       -0.4491
   6       -0.3830
   7       -0.3830
   8        0.0962
   9        0.5586
  10        0.5586
  11        0.8187
  12        0.8187
  13        0.9327
  14        1.2050
  15        1.3458
  16        1.3458
  17        1.3956
  18        1.4086
  19        1.4086
  20        1.6115
  21        1.9048
  22        1.9048
  23        7.6540
  24        7.6540
  25       10.8577
  26       10.8577
  27       11.4258
  28       11.4258
  29       12.8067
  30       12.8067
  31       17.4510
  32       18.2872
 
  0.3888889E+00  0.0000000E+00  0.0000000E+00  0.1286008E-03
   1       -3.8972
   2       -1.9768
   3       -0.6400
   4       -0.6400
   5       -0.3981
   6       -0.3133
   7       -0.3133
   8        0.0432
   9        0.4411
  10        0.4411
  11        0.8695
  12        0.8695
  13        0.8994
  14        1.0596
  15        1.3036
  16        1.3036
  17        1.3462
  18        1.3462
  19        1.4161
  20        1.5907
  21        1.9048
  22        1.9048
  23        7.9882
  24        7.9882
  25       10.9794
  26       10.9794
  27       11.0103
  28       11.0103
  29       12.5458
  30       12.5458
  31       18.2367
  32       18.6030
 
  0.4166667E+00  0.0000000E+00  0.0000000E+00  0.1286008E-03
   1       -3.6632
   2       -2.1891
   3       -0.5963
   4       -0.5963
   5       -0.3452
   6       -0.2382
   7       -0.2382
   8       -0.0113
   9        0.3283
  10        0.3283
  11        0.8703
  12        0.9230
  13        0.9230
  14        0.9561
  15        1.2674
  16        1.2674
  17        1.2834
  18        1.2834
  19        1.4372
  20        1.5694
  21        1.9048
  22        1.9048
  23        8.3331
  24        8.3331
  25       10.6022
  26       10.6022
  27       11.1126
  28       11.1126
  29       12.3030
  30       12.3030
  31       18.9371
  32       18.9398
 
  0.4444444E+00  0.0000000E+00  0.0000000E+00  0.1286008E-03
   1       -3.4200
   2       -2.4212
   3       -0.5629
   4       -0.5629
   5       -0.2908
   6       -0.1574
   7       -0.1574
   8       -0.0668
   9        0.2205
  10        0.2205
  11        0.8475
  12        0.8882
  13        0.9790
  14        0.9790
  15        1.2206
  16        1.2206
  17        1.2395
  18        1.2395
  19        1.4588
  20        1.5475
  21        1.9048
  22        1.9048
  23        8.6881
  24        8.6881
  25       10.2021
  26       10.2021
  27       11.2553
  28       11.2553
  29       12.0814
  30       12.0814
  31       19.2887
  32       19.2887
 
  0.4722222E+00  0.0000000E+00  0.0000000E+00  0.1286008E-03
   1       -3.1704
   2       -2.6662
   3       -0.5418
   4       -0.5418
   5       -0.2354
   6       -0.1229
   7       -0.0712
   8       -0.0712
   9        0.1179
  10        0.1179
  11        0.8339
  12        0.8494
  13        1.0371
  14        1.0371
  15        1.1583
  16        1.1583
  17        1.2219
  18        1.2219
  19        1.4809
  20        1.5254
  21        1.9049
  22        1.9049
  23        9.0529
  24        9.0529
  25        9.8102
  26        9.8102
  27       11.3976
  28       11.3976
  29       11.8915
  30       11.8915
  31       19.6572
  32       19.6572
 
  0.5000000E+00  0.0000000E+00  0.0000000E+00  0.6430041E-04
   1       -2.9177
   2       -2.9177
   3       -0.5346
   4       -0.5346
   5       -0.1793
   6       -0.1793
   7        0.0206
   8        0.0206
   9        0.0206
  10        0.0206
  11        0.8331
  12        0.8331
  13        1.0970
  14        1.0970
  15        1.0970
  16        1.0970
  17        1.2158
  18        1.2158
  19        1.5031
  20        1.5031
  21        1.9049
  22        1.9049
  23        9.4271
  24        9.4271
  25        9.4271
  26        9.4271
  27       11.4798
  28       11.4798
  29       11.7933
  30       11.7933
  31       20.0417
  32       20.0417
 
  0.2777778E-01  0.2777778E-01  0.0000000E+00  0.2572016E-03
   1       -5.5809
   2       -1.2269
   3       -1.2269
   4       -1.2227
   5       -0.8041
   6       -0.8041
   7       -0.8040
   8        0.4777
   9        0.4849
  10        0.4859
  11        1.2473
  12        1.2506
  13        1.7550
  14        1.7569
  15        1.7569
  16        1.8752
  17        1.8849
  18        1.8849
  19        1.9006
  20        1.9006
  21        1.9019
  22        4.8956
  23        4.8956
  24        4.9845
  25       10.1860
  26       10.2659
  27       10.2659
  28       15.9389
  29       16.1269
  30       16.1269
  31       16.1532
  32       16.1532
 
  0.5555556E-01  0.2777778E-01  0.0000000E+00  0.5144033E-03
   1       -5.5537
   2       -1.2272
   3       -1.2144
   4       -1.2102
   5       -0.7972
   6       -0.7968
   7       -0.7967
   8        0.4706
   9        0.4905
  10        0.4921
  11        1.2409
  12        1.2528
  13        1.7460
  14        1.7473
  15        1.7535
  16        1.8313
  17        1.8394
  18        1.8743
  19        1.8899
  20        1.9006
  21        1.9006
  22        4.7121
  23        4.9657
  24        5.0542
  25       10.1966
  26       10.2771
  27       10.5047
  28       15.6665
  29       15.9292
  30       16.0257
  31       16.1660
  32       16.1812
 
  0.8333333E-01  0.2777778E-01  0.0000000E+00  0.5144033E-03
   1       -5.5084
   2       -1.2283
   3       -1.1937
   4       -1.1897
   5       -0.7856
   6       -0.7845
   7       -0.7844
   8        0.4580
   9        0.5008
  10        0.5023
  11        1.2295
  12        1.2575
  13        1.7292
  14        1.7312
  15        1.7478
  16        1.7607
  17        1.7703
  18        1.8568
  19        1.8722
  20        1.9003
  21        1.9006
  22        4.4384
  23        5.0779
  24        5.1661
  25       10.2145
  26       10.2959
  27       10.8710
  28       15.3324
  29       15.6362
  30       15.8281
  31       16.0511
  32       16.2311
 
  0.1111111E+00  0.2777778E-01  0.0000000E+00  0.5144033E-03
   1       -5.4451
   2       -1.2312
   3       -1.1653
   4       -1.1615
   5       -0.7695
   6       -0.7672
   7       -0.7672
   8        0.4404
   9        0.5152
  10        0.5167
  11        1.2136
  12        1.2641
  13        1.6678
  14        1.6692
  15        1.7105
  16        1.7178
  17        1.7395
  18        1.8331
  19        1.8478
  20        1.9002
  21        1.9007
  22        4.1054
  23        5.2270
  24        5.3151
  25       10.2398
  26       10.3224
  27       11.3347
  28       14.9572
  29       15.2797
  30       15.5773
  31       15.8415
  32       16.3220
 
  0.1388889E+00  0.2777778E-01  0.0000000E+00  0.5144033E-03
   1       -5.3640
   2       -1.2373
   3       -1.1296
   4       -1.1259
   5       -0.7489
   6       -0.7450
   7       -0.7450
   8        0.4179
   9        0.5337
  10        0.5350
  11        1.1936
  12        1.2726
  13        1.5618
  14        1.5620
  15        1.6843
  16        1.6890
  17        1.7282
  18        1.8038
  19        1.8172
  20        1.9002
  21        1.9007
  22        3.7390
  23        5.4074
  24        5.4959
  25       10.2727
  26       10.3570
  27       11.8714
  28       14.5567
  29       14.8840
  30       15.2896
  31       15.5755
  32       16.4399
 
  0.1666667E+00  0.2777778E-01  0.0000000E+00  0.5144033E-03
   1       -5.2652
   2       -1.2486
   3       -1.0871
   4       -1.0837
   5       -0.7241
   6       -0.7178
   7       -0.7177
   8        0.3909
   9        0.5562
  10        0.5572
  11        1.1696
  12        1.2829
  13        1.4431
  14        1.4440
  15        1.6529
  16        1.6569
  17        1.7120
  18        1.7710
  19        1.7806
  20        1.9002
  21        1.9007
  22        3.3590
  23        5.6143
  24        5.7037
  25       10.3135
  26       10.4000
  27       12.4630
  28       14.1416
  29       14.4652
  30       14.9791
  31       15.2732
  32       16.5777
 
  0.1944444E+00  0.2777778E-01  0.0000000E+00  0.5144033E-03
   1       -5.1491
   2       -1.2679
   3       -1.0386
   4       -1.0355
   5       -0.6951
   6       -0.6855
   7       -0.6854
   8        0.3595
   9        0.5827
  10        0.5834
  11        1.1420
  12        1.2948
  13        1.3175
  14        1.3192
  15        1.6168
  16        1.6204
  17        1.6865
  18        1.7387
  19        1.7395
  20        1.9003
  21        1.9008
  22        2.9802
  23        5.8436
  24        5.9345
  25       10.3628
  26       10.4518
  27       13.0974
  28       13.7193
  29       14.0339
  30       14.6566
  31       14.9500
  32       16.7420
 
  0.2222222E+00  0.2777778E-01  0.0000000E+00  0.5144033E-03
   1       -5.0159
   2       -1.2987
   3       -0.9851
   4       -0.9823
   5       -0.6622
   6       -0.6481
   7       -0.6479
   8        0.3240
   9        0.6130
  10        0.6133
  11        1.1115
  12        1.1881
  13        1.1906
  14        1.3083
  15        1.5764
  16        1.5797
  17        1.6467
  18        1.6920
  19        1.7143
  20        1.9003
  21        1.9008
  22        2.6149
  23        6.0921
  24        6.1853
  25       10.4207
  26       10.5129
  27       13.2946
  28       13.5967
  29       13.7661
  30       14.3306
  31       14.6173
  32       16.9297
 
  0.2500000E+00  0.2777778E-01  0.0000000E+00  0.5144033E-03
   1       -4.8660
   2       -1.3453
   3       -0.9277
   4       -0.9252
   5       -0.6256
   6       -0.6056
   7       -0.6053
   8        0.2847
   9        0.6468
  10        0.6472
  11        1.0574
  12        1.0606
  13        1.0785
  14        1.3234
  15        1.5325
  16        1.5356
  17        1.5933
  18        1.6411
  19        1.6933
  20        1.9004
  21        1.9009
  22        2.2744
  23        6.3573
  24        6.4534
  25       10.4879
  26       10.5839
  27       12.8707
  28       13.1582
  29       14.0073
  30       14.2834
  31       14.4631
  32       17.1403
 
  0.2777778E+00  0.2777778E-01  0.0000000E+00  0.5144033E-03
   1       -4.7000
   2       -1.4127
   3       -0.8677
   4       -0.8655
   5       -0.5856
   6       -0.5579
   7       -0.5574
   8        0.2419
   9        0.6837
  10        0.6850
  11        0.9274
  12        0.9310
  13        1.0437
  14        1.3398
  15        1.4860
  16        1.4889
  17        1.5265
  18        1.5867
  19        1.6728
  20        1.9005
  21        1.9009
  22        1.9722
  23        6.6373
  24        6.7371
  25       10.5648
  26       10.6652
  27       12.4498
  28       12.7212
  29       13.6911
  30       13.9543
  31       15.1840
  32       17.3957
 
  0.3055556E+00  0.2777778E-01  0.0000000E+00  0.5144033E-03
   1       -4.5184
   2       -1.5060
   3       -0.8068
   4       -0.8049
   5       -0.5423
   6       -0.5049
   7       -0.5042
   8        0.1960
   9        0.7237
  10        0.7263
  11        0.7993
  12        0.8033
  13        1.0083
  14        1.3575
  15        1.4364
  16        1.4382
  17        1.4409
  18        1.5294
  19        1.6466
  20        1.7321
  21        1.9006
  22        1.9009
  23        6.9305
  24        7.0348
  25       10.6516
  26       10.7576
  27       12.0338
  28       12.2878
  29       13.3855
  30       13.6343
  31       15.9251
  32       17.6246
 
  0.3333333E+00  0.2777778E-01  0.0000000E+00  0.5144033E-03
   1       -4.3221
   2       -1.6293
   3       -0.7467
   4       -0.7451
   5       -0.4962
   6       -0.4466
   7       -0.4456
   8        0.1474
   9        0.6742
  10        0.6784
  11        0.7660
  12        0.7709
  13        0.9737
  14        1.3065
  15        1.3764
  16        1.3905
  17        1.3929
  18        1.4698
  19        1.5495
  20        1.6428
  21        1.9007
  22        1.9010
  23        7.2359
  24        7.3454
  25       10.7481
  26       10.8616
  27       11.6244
  28       11.8594
  29       13.0929
  30       13.3265
  31       16.6835
  32       17.9116
 
  0.3611111E+00  0.2777778E-01  0.0000000E+00  0.5144033E-03
   1       -4.1118
   2       -1.7845
   3       -0.6896
   4       -0.6882
   5       -0.4475
   6       -0.3831
   7       -0.3816
   8        0.0965
   9        0.5528
  10        0.5572
  11        0.8085
  12        0.8187
  13        0.9431
  14        1.1582
  15        1.3447
  16        1.3468
  17        1.3963
  18        1.4085
  19        1.4499
  20        1.6183
  21        1.9007
  22        1.9010
  23        7.5523
  24        7.6679
  25       10.8487
  26       10.9778
  27       11.2283
  28       11.4372
  29       12.8153
  30       13.0334
  31       17.4556
  32       18.1882
 
  0.3888889E+00  0.2777778E-01  0.0000000E+00  0.5144033E-03
   1       -3.8890
   2       -1.9704
   3       -0.6378
   4       -0.6367
   5       -0.3966
   6       -0.3141
   7       -0.3121
   8        0.0437
   9        0.4356
  10        0.4401
  11        0.8420
  12        0.8695
  13        0.9266
  14        1.0301
  15        1.3027
  16        1.3045
  17        1.3462
  18        1.3717
  19        1.4170
  20        1.5960
  21        1.9008
  22        1.9010
  23        7.8792
  24        8.0017
  25       10.7806
  26       11.0194
  27       11.0218
  28       11.1065
  29       12.5543
  30       12.7567
  31       18.2328
  32       18.4979
 
  0.4166667E+00  0.2777778E-01  0.0000000E+00  0.5144033E-03
   1       -3.6551
   2       -2.1824
   3       -0.5939
   4       -0.5929
   5       -0.3438
   6       -0.2396
   7       -0.2371
   8       -0.0107
   9        0.3232
  10        0.3277
  11        0.8454
  12        0.9230
  13        0.9348
  14        0.9473
  15        1.2667
  16        1.2682
  17        1.2833
  18        1.3014
  19        1.4385
  20        1.5736
  21        1.9009
  22        1.9010
  23        8.2158
  24        8.3462
  25       10.4088
  26       10.6138
  27       11.1331
  28       11.2472
  29       12.3117
  30       12.4979
  31       18.8249
  32       18.8440
 
  0.4444444E+00  0.2777778E-01  0.0000000E+00  0.5144033E-03
   1       -3.4122
   2       -2.4142
   3       -0.5601
   4       -0.5595
   5       -0.2895
   6       -0.1596
   7       -0.1566
   8       -0.0660
   9        0.2159
  10        0.2202
  11        0.8314
  12        0.8715
  13        0.9790
  14        0.9942
  15        1.2205
  16        1.2348
  17        1.2391
  18        1.2401
  19        1.4605
  20        1.5511
  21        1.9009
  22        1.9010
  23        8.5616
  24        8.7009
  25       10.0264
  26       10.2139
  27       11.2759
  28       11.3969
  29       12.0917
  30       12.2592
  31       19.1682
  32       19.2084
 
  0.4722222E+00  0.2777778E-01  0.0000000E+00  0.5144033E-03
   1       -3.1628
   2       -2.6590
   3       -0.5388
   4       -0.5385
   5       -0.2342
   6       -0.1221
   7       -0.0740
   8       -0.0706
   9        0.1138
  10        0.1179
  11        0.8203
  12        0.8350
  13        1.0371
  14        1.0494
  15        1.1582
  16        1.1706
  17        1.2217
  18        1.2222
  19        1.4829
  20        1.5284
  21        1.9009
  22        1.9010
  23        8.9160
  24        9.0654
  25        9.6490
  26        9.8222
  27       11.4278
  28       11.5373
  29       11.9132
  30       12.0457
  31       19.5267
  32       19.5758
 
  0.5000000E+00  0.2777778E-01  0.0000000E+00  0.2572016E-03
   1       -2.9103
   2       -2.9103
   3       -0.5314
   4       -0.5314
   5       -0.1783
   6       -0.1783
   7        0.0171
   8        0.0171
   9        0.0210
  10        0.0210
  11        0.8198
  12        0.8198
  13        1.0970
  14        1.0970
  15        1.1086
  16        1.1086
  17        1.2159
  18        1.2159
  19        1.5056
  20        1.5056
  21        1.9010
  22        1.9010
  23        9.2787
  24        9.2787
  25        9.4393
  26        9.4393
  27       11.5588
  28       11.5588
  29       11.8866
  30       11.8866
  31       19.8996
  32       19.9015
 
  0.5555556E-01  0.5555556E-01  0.0000000E+00  0.2572016E-03
   1       -5.5265
   2       -1.2146
   3       -1.2146
   4       -1.1979
   5       -0.7898
   6       -0.7898
   7       -0.7894
   8        0.4657
   9        0.4941
  10        0.4981
  11        1.2383
  12        1.2516
  13        1.7372
  14        1.7420
  15        1.7420
  16        1.7936
  17        1.8299
  18        1.8299
  19        1.8899
  20        1.8899
  21        1.8950
  22        4.7816
  23        4.7816
  24        5.1221
  25       10.2073
  26       10.5172
  27       10.5172
  28       15.3171
  29       15.9674
  30       15.9674
  31       16.0643
  32       16.0643
 
  0.8333333E-01  0.5555556E-01  0.0000000E+00  0.5144033E-03
   1       -5.4812
   2       -1.2155
   3       -1.1938
   4       -1.1776
   5       -0.7783
   6       -0.7776
   7       -0.7773
   8        0.4546
   9        0.5029
  10        0.5080
  11        1.2288
  12        1.2547
  13        1.7153
  14        1.7225
  15        1.7286
  16        1.7325
  17        1.7683
  18        1.8148
  19        1.8722
  20        1.8899
  21        1.8917
  22        4.5076
  23        4.8926
  24        5.2315
  25       10.2253
  26       10.5383
  27       10.8852
  28       14.9284
  29       15.6732
  30       15.8656
  31       16.0308
  32       16.1283
 
  0.1111111E+00  0.5555556E-01  0.0000000E+00  0.5144033E-03
   1       -5.4181
   2       -1.2181
   3       -1.1651
   4       -1.1496
   5       -0.7623
   6       -0.7605
   7       -0.7602
   8        0.4378
   9        0.5166
  10        0.5218
  11        1.2137
  12        1.2610
  13        1.6416
  14        1.6445
  15        1.7022
  16        1.7174
  17        1.7243
  18        1.7956
  19        1.8478
  20        1.8899
  21        1.8901
  22        4.1752
  23        5.0394
  24        5.3775
  25       10.2506
  26       10.5682
  27       11.3506
  28       14.5166
  29       15.3157
  30       15.6135
  31       16.1191
  32       16.1740
 
  0.1388889E+00  0.5555556E-01  0.0000000E+00  0.5144033E-03
   1       -5.3371
   2       -1.2239
   3       -1.1291
   4       -1.1143
   5       -0.7419
   6       -0.7384
   7       -0.7383
   8        0.4158
   9        0.5347
  10        0.5394
  11        1.1942
  12        1.2696
  13        1.5384
  14        1.5399
  15        1.6763
  16        1.6933
  17        1.6946
  18        1.7745
  19        1.8171
  20        1.8892
  21        1.8899
  22        3.8108
  23        5.2164
  24        5.5551
  25       10.2836
  26       10.6070
  27       11.8886
  28       14.0925
  29       14.9191
  30       15.3246
  31       15.9810
  32       16.2317
 
  0.1666667E+00  0.5555556E-01  0.0000000E+00  0.5144033E-03
   1       -5.2384
   2       -1.2349
   3       -1.0862
   4       -1.0724
   5       -0.7172
   6       -0.7114
   7       -0.7113
   8        0.3892
   9        0.5571
  10        0.5608
  11        1.1707
  12        1.2802
  13        1.4216
  14        1.4239
  15        1.6454
  16        1.6603
  17        1.6619
  18        1.7537
  19        1.7805
  20        1.8888
  21        1.8899
  22        3.4343
  23        5.4185
  24        5.7599
  25       10.3246
  26       10.6553
  27       12.4813
  28       13.6634
  29       14.4997
  30       15.0127
  31       15.7278
  32       16.3682
 
  0.1944444E+00  0.5555556E-01  0.0000000E+00  0.5144033E-03
   1       -5.1225
   2       -1.2537
   3       -1.0373
   4       -1.0246
   5       -0.6885
   6       -0.6795
   7       -0.6792
   8        0.3582
   9        0.5834
  10        0.5859
  11        1.1438
  12        1.2926
  13        1.2962
  14        1.3022
  15        1.6097
  16        1.6182
  17        1.6234
  18        1.7336
  19        1.7386
  20        1.8886
  21        1.8899
  22        3.0614
  23        5.6417
  24        5.9880
  25       10.3738
  26       10.7134
  27       13.1166
  28       13.2343
  29       14.0679
  30       14.6890
  31       15.4357
  32       16.5279
 
  0.2222222E+00  0.5555556E-01  0.0000000E+00  0.5144033E-03
   1       -4.9895
   2       -1.2839
   3       -0.9833
   4       -0.9718
   5       -0.6558
   6       -0.6427
   7       -0.6419
   8        0.3230
   9        0.6136
  10        0.6144
  11        1.1141
  12        1.1671
  13        1.1764
  14        1.3067
  15        1.5631
  16        1.5698
  17        1.5826
  18        1.6919
  19        1.7137
  20        1.8885
  21        1.8899
  22        2.7052
  23        5.8826
  24        6.2361
  25       10.4316
  26       10.7820
  27       12.8086
  28       13.6304
  29       13.7859
  30       14.3618
  31       15.1207
  32       16.7099
 
  0.2500000E+00  0.5555556E-01  0.0000000E+00  0.5144033E-03
   1       -4.8399
   2       -1.3299
   3       -0.9253
   4       -0.9151
   5       -0.6194
   6       -0.6008
   7       -0.5996
   8        0.2841
   9        0.6462
  10        0.6477
  11        1.0369