   4   4   0   0
  0.1238999E+02  0.3673193E-09  0.3673193E-09  0.3673193E-09  0.5000000E-15
  1.000000000000000E-004
  CAR 
 unknown system                          
     25.95869683     -7.10185019  301      3.39093342      1.00000000
     -7.102  0.0000E+00  0.0000E+00
     -6.992  0.0000E+00  0.0000E+00
     -6.881  0.0000E+00  0.0000E+00
     -6.771  0.0000E+00  0.0000E+00
     -6.661  0.0000E+00  0.0000E+00
     -6.551  0.0000E+00  0.0000E+00
     -6.441  0.0000E+00  0.0000E+00
     -6.330  0.0000E+00  0.0000E+00
     -6.220  0.0000E+00  0.0000E+00
     -6.110  0.0000E+00  0.0000E+00
     -6.000  0.0000E+00  0.0000E+00
     -5.890  0.0000E+00  0.0000E+00
     -5.779  0.0000E+00  0.0000E+00
     -5.669  0.0000E+00  0.0000E+00
     -5.559  0.1639E-01  0.1806E-02
     -5.449  0.7147E-01  0.1178E-01
     -5.339  0.1223E+00  0.2693E-01
     -5.228  0.1088E+00  0.4831E-01
     -5.118  0.1348E+00  0.6766E-01
     -5.008  0.2155E+00  0.9825E-01
     -4.898  0.1647E+00  0.1251E+00
     -4.788  0.1636E+00  0.1519E+00
     -4.677  0.1957E+00  0.1936E+00
     -4.567  0.2619E+00  0.2252E+00
     -4.457  0.2497E+00  0.2658E+00
     -4.347  0.2206E+00  0.3043E+00
     -4.237  0.4149E+00  0.3508E+00
     -4.126  0.2999E+00  0.3972E+00
     -4.016  0.2740E+00  0.4354E+00
     -3.906  0.3746E+00  0.4925E+00
     -3.796  0.4331E+00  0.5441E+00
     -3.686  0.2873E+00  0.5940E+00
     -3.575  0.3994E+00  0.6541E+00
     -3.465  0.3884E+00  0.7154E+00
     -3.355  0.5268E+00  0.7769E+00
     -3.245  0.4394E+00  0.8368E+00
     -3.135  0.4124E+00  0.9041E+00
     -3.024  0.3747E+00  0.9781E+00
     -2.914  0.3368E+00  0.1036E+01
     -2.804  0.6887E+00  0.1136E+01
     -2.694  0.4430E+00  0.1206E+01
     -2.584  0.5066E+00  0.1290E+01
     -2.473  0.7062E+00  0.1393E+01
     -2.363  0.6203E+00  0.1482E+01
     -2.253  0.6925E+00  0.1580E+01
     -2.143  0.6533E+00  0.1692E+01
     -2.033  0.7144E+00  0.1803E+01
     -1.922  0.1017E+01  0.1946E+01
     -1.812  0.9143E+00  0.2074E+01
     -1.702  0.1147E+01  0.2237E+01
     -1.592  0.1301E+01  0.2420E+01
     -1.482  0.1802E+01  0.2665E+01
     -1.371  0.2268E+01  0.2946E+01
     -1.261  0.2549E+01  0.3312E+01
     -1.151  0.3350E+01  0.3813E+01
     -1.041  0.3718E+01  0.4364E+01
     -0.931  0.3514E+01  0.4911E+01
     -0.820  0.3761E+01  0.5504E+01
     -0.710  0.4948E+01  0.6292E+01
     -0.600  0.6339E+01  0.7255E+01
     -0.490  0.7810E+01  0.8392E+01
     -0.380  0.7108E+01  0.9454E+01
     -0.269  0.6421E+01  0.1043E+02
     -0.159  0.6684E+01  0.1144E+02
     -0.049  0.6371E+01  0.1243E+02
      0.061  0.7955E+01  0.1350E+02
      0.171  0.9125E+01  0.1488E+02
      0.282  0.9870E+01  0.1631E+02
      0.392  0.1023E+02  0.1788E+02
      0.502  0.1283E+02  0.1978E+02
      0.612  0.1326E+02  0.2172E+02
      0.722  0.1315E+02  0.2383E+02
      0.833  0.8809E+01  0.2523E+02
      0.943  0.7971E+01  0.2647E+02
      1.053  0.9401E+01  0.2781E+02
      1.163  0.1171E+02  0.2949E+02
      1.273  0.1227E+02  0.3133E+02
      1.384  0.1032E+02  0.3290E+02
      1.494  0.1003E+02  0.3442E+02
      1.604  0.1131E+02  0.3605E+02
      1.714  0.1465E+02  0.3808E+02
      1.824  0.1696E+02  0.4085E+02
      1.935  0.5863E+01  0.4189E+02
      2.045  0.1582E+01  0.4211E+02
      2.155  0.8391E+00  0.4225E+02
      2.265  0.1159E+01  0.4245E+02
      2.376  0.1347E+01  0.4263E+02
      2.486  0.8716E+00  0.4277E+02
      2.596  0.1319E+01  0.4296E+02
      2.706  0.8238E+00  0.4308E+02
      2.816  0.1301E+01  0.4326E+02
      2.927  0.9849E+00  0.4340E+02
      3.037  0.7199E+00  0.4352E+02
      3.147  0.9052E+00  0.4370E+02
      3.257  0.5611E+00  0.4381E+02
      3.367  0.8641E+00  0.4396E+02
      3.478  0.6573E+00  0.4411E+02
      3.588  0.8221E+00  0.4423E+02
      3.698  0.7717E+00  0.4436E+02
      3.808  0.7397E+00  0.4450E+02
      3.918  0.7095E+00  0.4463E+02
      4.029  0.4992E+00  0.4472E+02
      4.139  0.1119E+01  0.4489E+02
      4.249  0.6493E+00  0.4500E+02
      4.359  0.7623E+00  0.4511E+02
      4.469  0.5932E+00  0.4521E+02
      4.580  0.9954E+00  0.4536E+02
      4.690  0.9576E+00  0.4549E+02
      4.800  0.6064E+00  0.4558E+02
      4.910  0.6995E+00  0.4568E+02
      5.020  0.8225E+00  0.4581E+02
      5.131  0.5528E+00  0.4593E+02
      5.241  0.9955E+00  0.4606E+02
      5.351  0.5288E+00  0.4613E+02
      5.461  0.9818E+00  0.4625E+02
      5.571  0.5874E+00  0.4636E+02
      5.682  0.5434E+00  0.4647E+02
      5.792  0.7331E+00  0.4656E+02
      5.902  0.4847E+00  0.4665E+02
      6.012  0.6655E+00  0.4673E+02
      6.122  0.6915E+00  0.4685E+02
      6.233  0.5824E+00  0.4693E+02
      6.343  0.3518E+00  0.4700E+02
      6.453  0.7677E+00  0.4709E+02
      6.563  0.4545E+00  0.4717E+02
      6.673  0.5815E+00  0.4725E+02
      6.784  0.4306E+00  0.4732E+02
      6.894  0.4956E+00  0.4739E+02
      7.004  0.5409E+00  0.4746E+02
      7.114  0.1003E+01  0.4760E+02
      7.224  0.9205E+00  0.4772E+02
      7.335  0.1055E+01  0.4786E+02
      7.445  0.8448E+00  0.4799E+02
      7.555  0.8265E+00  0.4812E+02
      7.665  0.9049E+00  0.4823E+02
      7.775  0.7851E+00  0.4837E+02
      7.886  0.6742E+00  0.4850E+02
      7.996  0.8271E+00  0.4863E+02
      8.106  0.5797E+00  0.4875E+02
      8.216  0.9313E+00  0.4890E+02
      8.326  0.8461E+00  0.4902E+02
      8.437  0.7431E+00  0.4914E+02
      8.547  0.1043E+01  0.4927E+02
      8.657  0.8899E+00  0.4940E+02
      8.767  0.9469E+00  0.4952E+02
      8.877  0.5588E+00  0.4963E+02
      8.988  0.7129E+00  0.4974E+02
      9.098  0.9940E+00  0.4986E+02
      9.208  0.6094E+00  0.4997E+02
      9.318  0.9057E+00  0.5010E+02
      9.428  0.6208E+00  0.5019E+02
      9.539  0.4851E+00  0.5028E+02
      9.649  0.6053E+00  0.5040E+02
      9.759  0.7230E+00  0.5052E+02
      9.869  0.4815E+00  0.5061E+02
      9.979  0.5799E+00  0.5071E+02
     10.090  0.5597E+00  0.5081E+02
     10.200  0.7099E+00  0.5093E+02
     10.310  0.9417E+00  0.5106E+02
     10.420  0.8500E+00  0.5118E+02
     10.530  0.1149E+01  0.5133E+02
     10.641  0.1071E+01  0.5147E+02
     10.751  0.1013E+01  0.5161E+02
     10.861  0.8472E+00  0.5174E+02
     10.971  0.8091E+00  0.5187E+02
     11.081  0.1016E+01  0.5203E+02
     11.192  0.1036E+01  0.5218E+02
     11.302  0.9218E+00  0.5235E+02
     11.412  0.8533E+00  0.5249E+02
     11.522  0.1163E+01  0.5267E+02
     11.632  0.9524E+00  0.5280E+02
     11.743  0.9425E+00  0.5295E+02
     11.853  0.1225E+01  0.5312E+02
     11.963  0.1353E+01  0.5332E+02
     12.073  0.7094E+00  0.5343E+02
     12.183  0.1072E+01  0.5362E+02
     12.294  0.8469E+00  0.5374E+02
     12.404  0.1124E+01  0.5391E+02
     12.514  0.1218E+01  0.5407E+02
     12.624  0.1263E+01  0.5426E+02
     12.734  0.1300E+01  0.5443E+02
     12.845  0.7036E+00  0.5457E+02
     12.955  0.8222E+00  0.5473E+02
     13.065  0.1199E+01  0.5490E+02
     13.175  0.1304E+01  0.5505E+02
     13.285  0.1140E+01  0.5523E+02
     13.396  0.1037E+01  0.5540E+02
     13.506  0.1070E+01  0.5555E+02
     13.616  0.1353E+01  0.5573E+02
     13.726  0.1088E+01  0.5589E+02
     13.836  0.1164E+01  0.5606E+02
     13.947  0.1189E+01  0.5623E+02
     14.057  0.1367E+01  0.5642E+02
     14.167  0.9723E+00  0.5658E+02
     14.277  0.1031E+01  0.5673E+02
     14.388  0.8483E+00  0.5688E+02
     14.498  0.1507E+01  0.5707E+02
     14.608  0.1266E+01  0.5727E+02
     14.718  0.1209E+01  0.5744E+02
     14.828  0.9591E+00  0.5760E+02
     14.939  0.1230E+01  0.5777E+02
     15.049  0.1166E+01  0.5796E+02
     15.159  0.1198E+01  0.5817E+02
     15.269  0.9123E+00  0.5831E+02
     15.379  0.1269E+01  0.5848E+02
     15.490  0.1331E+01  0.5868E+02
     15.600  0.1175E+01  0.5886E+02
     15.710  0.8924E+00  0.5902E+02
     15.820  0.1285E+01  0.5924E+02
     15.930  0.1582E+01  0.5946E+02
     16.041  0.8628E+00  0.5961E+02
     16.151  0.1462E+01  0.5982E+02
     16.261  0.1169E+01  0.6000E+02
     16.371  0.1604E+01  0.6023E+02
     16.481  0.1303E+01  0.6041E+02
     16.592  0.1122E+01  0.6056E+02
     16.702  0.1165E+01  0.6073E+02
     16.812  0.1105E+01  0.6089E+02
     16.922  0.1664E+01  0.6112E+02
     17.032  0.9144E+00  0.6126E+02
     17.143  0.9236E+00  0.6140E+02
     17.253  0.1022E+01  0.6157E+02
     17.363  0.1009E+01  0.6171E+02
     17.473  0.7944E+00  0.6184E+02
     17.583  0.6168E+00  0.6195E+02
     17.694  0.6631E+00  0.6206E+02
     17.804  0.7852E+00  0.6216E+02
     17.914  0.8543E+00  0.6228E+02
     18.024  0.5587E+00  0.6238E+02
     18.134  0.4343E+00  0.6245E+02
     18.245  0.6063E+00  0.6254E+02
     18.355  0.7700E+00  0.6265E+02
     18.465  0.2783E+00  0.6270E+02
     18.575  0.5370E+00  0.6277E+02
     18.685  0.4229E+00  0.6284E+02
     18.796  0.3712E+00  0.6290E+02
     18.906  0.5690E+00  0.6297E+02
     19.016  0.3388E+00  0.6302E+02
     19.126  0.2840E+00  0.6306E+02
     19.236  0.5035E+00  0.6313E+02
     19.347  0.3663E+00  0.6320E+02
     19.457  0.3038E+00  0.6324E+02
     19.567  0.1007E+00  0.6325E+02
     19.677  0.5969E+00  0.6333E+02
     19.787  0.1970E+00  0.6335E+02
     19.898  0.2718E+00  0.6339E+02
     20.008  0.3160E+00  0.6344E+02
     20.118  0.9181E-01  0.6346E+02
     20.228  0.3268E+00  0.6350E+02
     20.338  0.1310E+00  0.6353E+02
     20.449  0.3024E+00  0.6356E+02
     20.559  0.6528E-01  0.6358E+02
     20.669  0.1848E+00  0.6361E+02
     20.779  0.8403E-01  0.6364E+02
     20.889  0.1247E+00  0.6366E+02
     21.000  0.5935E-01  0.6367E+02
     21.110  0.2311E+00  0.6370E+02
     21.220  0.5539E-01  0.6371E+02
     21.330  0.2203E+00  0.6375E+02
     21.440  0.1461E+00  0.6377E+02
     21.551  0.6302E-01  0.6378E+02
     21.661  0.9452E-01  0.6379E+02
     21.771  0.1876E+00  0.6382E+02
     21.881  0.2150E+00  0.6384E+02
     21.991  0.6500E-01  0.6385E+02
     22.102  0.6325E-01  0.6386E+02
     22.212  0.7324E-01  0.6388E+02
     22.322  0.9452E-01  0.6389E+02
     22.432  0.5011E-02  0.6389E+02
     22.542  0.1575E+00  0.6391E+02
     22.653  0.5204E-01  0.6392E+02
     22.763  0.1077E-01  0.6393E+02
     22.873  0.3528E-01  0.6394E+02
     22.983  0.0000E+00  0.6394E+02
     23.093  0.3907E-02  0.6394E+02
     23.204  0.6302E-01  0.6395E+02
     23.314  0.7351E-01  0.6396E+02
     23.424  0.6302E-01  0.6397E+02
     23.534  0.3151E-01  0.6397E+02
     23.644  0.0000E+00  0.6397E+02
     23.755  0.2659E-01  0.6398E+02
     23.865  0.6302E-01  0.6399E+02
     23.975  0.3151E-01  0.6399E+02
     24.085  0.0000E+00  0.6399E+02
     24.195  0.0000E+00  0.6399E+02
     24.306  0.4497E-01  0.6400E+02
     24.416  0.3812E-10  0.6400E+02
     24.526  0.5251E-02  0.6400E+02
     24.636  0.0000E+00  0.6400E+02
     24.746  0.0000E+00  0.6400E+02
     24.857  0.0000E+00  0.6400E+02
     24.967  0.0000E+00  0.6400E+02
     25.077  0.0000E+00  0.6400E+02
     25.187  0.0000E+00  0.6400E+02
     25.297  0.0000E+00  0.6400E+02
     25.408  0.0000E+00  0.6400E+02
     25.518  0.0000E+00  0.6400E+02
     25.628  0.0000E+00  0.6400E+02
     25.738  0.0000E+00  0.6400E+02
     25.848  0.0000E+00  0.6400E+02
     25.959  0.0000E+00  0.6400E+02
