    4    4    1    1
  0.1238999E+02  0.3673192E-09  0.3673192E-09  0.3673192E-09  0.5000000E-15
  1.000000000000000E-004
  CAR 
 unknown system                          
   44  455   32
 
  0.0000000E+00  0.0000000E+00  0.0000000E+00  0.7233796E-04
   1       -5.5991
   2       -1.2307
   3       -1.2307
   4       -1.2307
   5       -0.8086
   6       -0.8086
   7       -0.8086
   8        0.4823
   9        0.4823
  10        0.4823
  11        1.2508
  12        1.2508
  13        1.7616
  14        1.7616
  15        1.7616
  16        1.9047
  17        1.9047
  18        1.9047
  19        1.9047
  20        1.9047
  21        1.9047
  22        4.9368
  23        4.9368
  24        4.9368
  25       10.1791
  26       10.1791
  27       10.1791
  28       16.1842
  29       16.1842
  30       16.1842
  31       16.1842
  32       16.1842
 
  0.4166667E-01  0.0000000E+00  0.0000000E+00  0.4340278E-03
   1       -5.5787
   2       -1.2308
   3       -1.2213
   4       -1.2213
   5       -0.8033
   6       -0.8030
   7       -0.8030
   8        0.4765
   9        0.4869
  10        0.4869
  11        1.2455
  12        1.2529
  13        1.7548
  14        1.7548
  15        1.7594
  16        1.8696
  17        1.8696
  18        1.8966
  19        1.8966
  20        1.9047
  21        1.9047
  22        4.7933
  23        4.9903
  24        4.9903
  25       10.1870
  26       10.1870
  27       10.3637
  28       16.0292
  29       16.0292
  30       16.0861
  31       16.0861
  32       16.2139
 
  0.8333333E-01  0.0000000E+00  0.0000000E+00  0.4340278E-03
   1       -5.5175
   2       -1.2322
   3       -1.1935
   4       -1.1935
   5       -0.7876
   6       -0.7864
   7       -0.7864
   8        0.4592
   9        0.5009
  10        0.5009
  11        1.2299
  12        1.2593
  13        1.7346
  14        1.7346
  15        1.7527
  16        1.7713
  17        1.7713
  18        1.8727
  19        1.8727
  20        1.9048
  21        1.9048
  22        4.4147
  23        5.1439
  24        5.1439
  25       10.2111
  26       10.2111
  27       10.8664
  28       15.6238
  29       15.6238
  30       15.8156
  31       15.8156
  32       16.3027
 
  0.1250000E+00  0.0000000E+00  0.0000000E+00  0.4340278E-03
   1       -5.4158
   2       -1.2378
   3       -1.1482
   4       -1.1482
   5       -0.7617
   6       -0.7586
   7       -0.7586
   8        0.4308
   9        0.5242
  10        0.5242
  11        1.2043
  12        1.2699
  13        1.6259
  14        1.6259
  15        1.7014
  16        1.7014
  17        1.7418
  18        1.8338
  19        1.8338
  20        1.9048
  21        1.9048
  22        3.9006
  23        5.3812
  24        5.3812
  25       10.2518
  26       10.2518
  27       11.5898
  28       15.0738
  29       15.0738
  30       15.4252
  31       15.4252
  32       16.4496
 
  0.1666667E+00  0.0000000E+00  0.0000000E+00  0.4340278E-03
   1       -5.2742
   2       -1.2529
   3       -1.0871
   4       -1.0871
   5       -0.7260
   6       -0.7195
   7       -0.7195
   8        0.3918
   9        0.5565
  10        0.5565
  11        1.1696
  12        1.2844
  13        1.4511
  14        1.4511
  15        1.6560
  16        1.6560
  17        1.7267
  18        1.7811
  19        1.7811
  20        1.9049
  21        1.9049
  22        3.3326
  23        5.6847
  24        5.6847
  25       10.3100
  26       10.3100
  27       12.4570
  28       14.4538
  29       14.4538
  30       14.9678
  31       14.9678
  32       16.6532
 
  0.2083333E+00  0.0000000E+00  0.0000000E+00  0.4340278E-03
   1       -5.0935
   2       -1.2862
   3       -1.0127
   4       -1.0127
   5       -0.6809
   6       -0.6690
   7       -0.6690
   8        0.3430
   9        0.5977
  10        0.5977
  11        1.1268
  12        1.2607
  13        1.2607
  14        1.3026
  15        1.5999
  16        1.5999
  17        1.7079
  18        1.7165
  19        1.7165
  20        1.9050
  21        1.9050
  22        2.7643
  23        6.0401
  24        6.0401
  25       10.3871
  26       10.3871
  27       13.4216
  28       13.8045
  29       13.8045
  30       14.4830
  31       14.4830
  32       16.9114
 
  0.2500000E+00  0.0000000E+00  0.0000000E+00  0.4340278E-03
   1       -4.8748
   2       -1.3502
   3       -0.9282
   4       -0.9282
   5       -0.6273
   6       -0.6068
   7       -0.6068
   8        0.2853
   9        0.6475
  10        0.6475
  11        1.0649
  12        1.0649
  13        1.0776
  14        1.3243
  15        1.5350
  16        1.5350
  17        1.6417
  18        1.6417
  19        1.6855
  20        1.9050
  21        1.9050
  22        2.2332
  23        6.4372
  24        6.4372
  25       10.4846
  26       10.4846
  27       13.1470
  28       13.1470
  29       13.9973
  30       13.9973
  31       14.4565
  32       17.2221
 
  0.2916667E+00  0.0000000E+00  0.0000000E+00  0.4340278E-03
   1       -4.6198
   2       -1.4611
   3       -0.8381
   4       -0.8381
   5       -0.5658
   6       -0.5328
   7       -0.5328
   8        0.2198
   9        0.7056
  10        0.7056
  11        0.8701
  12        0.8701
  13        1.0240
  14        1.3491
  15        1.4644
  16        1.4644
  17        1.5589
  18        1.5589
  19        1.6600
  20        1.7693
  21        1.9051
  22        1.9051
  23        6.8691
  24        6.8691
  25       10.6042
  26       10.6042
  27       12.4928
  28       12.4928
  29       13.5274
  30       13.5274
  31       15.5456
  32       17.5826
 
  0.3333333E+00  0.0000000E+00  0.0000000E+00  0.4340278E-03
   1       -4.3305
   2       -1.6350
   3       -0.7479
   4       -0.7479
   5       -0.4975
   6       -0.4467
   7       -0.4467
   8        0.1477
   9        0.6808
  10        0.6808
  11        0.7713
  12        0.7713
  13        0.9690
  14        1.3766
  15        1.3924
  16        1.3924
  17        1.3965
  18        1.4703
  19        1.4703
  20        1.6320
  21        1.9052
  22        1.9052
  23        7.3310
  24        7.3310
  25       10.7478
  26       10.7478
  27       11.8482
  28       11.8482
  29       13.0840
  30       13.0840
  31       16.6775
  32       17.9904
 
  0.3750000E+00  0.0000000E+00  0.0000000E+00  0.4340278E-03
   1       -4.0102
   2       -1.8801
   3       -0.6645
   4       -0.6645
   5       -0.4235
   6       -0.3485
   7       -0.3485
   8        0.0703
   9        0.4997
  10        0.4997
  11        0.8442
  12        0.8442
  13        0.9162
  14        1.1271
  15        1.3246
  16        1.3246
  17        1.3780
  18        1.3780
  19        1.4063
  20        1.6017
  21        1.9053
  22        1.9053
  23        7.8198
  24        7.8198
  25       10.9172
  26       10.9172
  27       11.2172
  28       11.2172
  29       12.6741
  30       12.6741
  31       17.8427
  32       18.4428
 
  0.4166667E+00  0.0000000E+00  0.0000000E+00  0.4340278E-03
   1       -3.6632
   2       -2.1890
   3       -0.5959
   4       -0.5959
   5       -0.3448
   6       -0.2378
   7       -0.2378
   8       -0.0108
   9        0.3287
  10        0.3287
  11        0.8707
  12        0.9235
  13        0.9235
  14        0.9564
  15        1.2679
  16        1.2679
  17        1.2839
  18        1.2839
  19        1.4377
  20        1.5699
  21        1.9053
  22        1.9053
  23        8.3332
  24        8.3332
  25       10.6023
  26       10.6023
  27       11.1127
  28       11.1127
  29       12.3031
  30       12.3031
  31       18.9371
  32       18.9392
 
  0.4583333E+00  0.0000000E+00  0.0000000E+00  0.4340278E-03
   1       -3.2959
   2       -2.5425
   3       -0.5503
   4       -0.5503
   5       -0.2628
   6       -0.1146
   7       -0.1146
   8       -0.0944
   9        0.1689
  10        0.1689
  11        0.8398
  12        0.8660
  13        1.0083
  14        1.0083
  15        1.1898
  16        1.1898
  17        1.2298
  18        1.2298
  19        1.4703
  20        1.5370
  21        1.9054
  22        1.9054
  23        8.8694
  24        8.8694
  25       10.0052
  26       10.0052
  27       11.3281
  28       11.3281
  29       11.9810
  30       11.9810
  31       19.4709
  32       19.4709
 
  0.5000000E+00  0.0000000E+00  0.0000000E+00  0.2170139E-03
   1       -2.9177
   2       -2.9177
   3       -0.5343
   4       -0.5343
   5       -0.1789
   6       -0.1789
   7        0.0210
   8        0.0210
   9        0.0210
  10        0.0210
  11        0.8335
  12        0.8335
  13        1.0975
  14        1.0975
  15        1.0975
  16        1.0975
  17        1.2163
  18        1.2163
  19        1.5036
  20        1.5036
  21        1.9054
  22        1.9054
  23        9.4271
  24        9.4271
  25        9.4271
  26        9.4271
  27       11.4799
  28       11.4799
  29       11.7934
  30       11.7934
  31       20.0417
  32       20.0417
 
  0.4166667E-01  0.4166667E-01  0.0000000E+00  0.8680556E-03
   1       -5.5583
   2       -1.2214
   3       -1.2214
   4       -1.2120
   5       -0.7978
   6       -0.7978
   7       -0.7975
   8        0.4731
   9        0.4892
  10        0.4915
  11        1.2440
  12        1.2515
  13        1.7481
  14        1.7518
  15        1.7518
  16        1.8408
  17        1.8618
  18        1.8618
  19        1.8966
  20        1.8966
  21        1.8996
  22        4.8465
  23        4.8465
  24        5.0427
  25       10.1950
  26       10.3725
  27       10.3725
  28       15.6625
  29       16.0583
  30       16.0583
  31       16.1154
  32       16.1154
 
  0.8333333E-01  0.4166667E-01  0.0000000E+00  0.1736111E-02
   1       -5.4971
   2       -1.2226
   3       -1.1934
   4       -1.1843
   5       -0.7822
   6       -0.7812
   7       -0.7810
   8        0.4572
   9        0.5019
  10        0.5051
  11        1.2300
  12        1.2566
  13        1.7239
  14        1.7281
  15        1.7424
  16        1.7481
  17        1.7701
  18        1.8390
  19        1.8727
  20        1.8967
  21        1.8967
  22        4.4676
  23        4.9985
  24        5.1935
  25       10.2191
  26       10.3992
  27       10.8771
  28       15.1348
  29       15.6516
  30       15.8437
  31       16.1451
  32       16.1776
 
  0.1250000E+00  0.4166667E-01  0.0000000E+00  0.1736111E-02
   1       -5.3956
   2       -1.2279
   3       -1.1478
   4       -1.1393
   5       -0.7564
   6       -0.7536
   7       -0.7535
   8        0.4293
   9        0.5248
  10        0.5278
  11        1.2049
  12        1.2673
  13        1.6072
  14        1.6077
  15        1.6952
  16        1.7066
  17        1.7248
  18        1.8038
  19        1.8338
  20        1.8960
  21        1.8967
  22        3.9549
  23        5.2325
  24        5.4273
  25       10.2600
  26       10.4444
  27       11.6022
  28       14.5361
  29       15.1004
  30       15.4519
  31       15.9044
  32       16.2889
 
  0.1666667E+00  0.4166667E-01  0.0000000E+00  0.1736111E-02
   1       -5.2541
   2       -1.2426
   3       -1.0863
   4       -1.0786
   5       -0.7208
   6       -0.7147
   7       -0.7147
   8        0.3907
   9        0.5570
  10        0.5592
  11        1.1706
  12        1.2822
  13        1.4345
  14        1.4361
  15        1.6503
  16        1.6590
  17        1.6924
  18        1.7629
  19        1.7811
  20        1.8958
  21        1.8967
  22        3.3911
  23        5.5302
  24        5.7272
  25       10.3183
  26       10.5091
  27       12.4708
  28       13.9067
  29       14.4796
  30       14.9931
  31       15.4989
  32       16.4876
 
  0.2083333E+00  0.4166667E-01  0.0000000E+00  0.1736111E-02
   1       -5.0736
   2       -1.2753
   3       -1.0114
   4       -1.0046
   5       -0.6760
   6       -0.6647
   7       -0.6644
   8        0.3422
   9        0.5981
  10        0.5991
  11        1.1286
  12        1.2446
  13        1.2492
  14        1.3010
  15        1.5947
  16        1.6024
  17        1.6347
  18        1.7164
  19        1.7268
  20        1.8958
  21        1.8968
  22        2.8320
  23        5.8771
  24        6.0794
  25       10.3954
  26       10.5948
  27       13.2695
  28       13.4361
  29       13.8299
  30       14.5069
  31       15.0261
  32       16.7395
 
  0.2500000E+00  0.4166667E-01  0.0000000E+00  0.1736111E-02
   1       -4.8552
   2       -1.3386
   3       -0.9263
   4       -0.9206
   5       -0.6226
   6       -0.6032
   7       -0.6025
   8        0.2849
   9        0.6470
  10        0.6478
  11        1.0492
  12        1.0561
  13        1.0806
  14        1.3234
  15        1.5305
  16        1.5374
  17        1.5486
  18        1.6416
  19        1.6950
  20        1.8959
  21        1.8968
  22        2.3209
  23        6.2629
  24        6.4738
  25       10.4925
  26       10.7032
  27       12.6370
  28       13.1722
  29       14.0198
  30       14.4716
  31       14.5294
  32       17.0419
 
  0.2916667E+00  0.4166667E-01  0.0000000E+00  0.1736111E-02
   1       -4.6004
   2       -1.4487
   3       -0.8355
   4       -0.8308
   5       -0.5615
   6       -0.5302
   7       -0.5289
   8        0.2198
   9        0.7018
  10        0.7058
  11        0.8552
  12        0.8637
  13        1.0295
  14        1.3490
  15        1.4263
  16        1.4606
  17        1.4668
  18        1.5588
  19        1.6599
  20        1.8960
  21        1.8968
  22        1.9057
  23        6.6805
  24        6.9034
  25       10.6105
  26       10.8363
  27       12.0167
  28       12.5180
  29       13.5487
  30       14.0352
  31       15.5606
  32       17.3920
 
  0.3333333E+00  0.4166667E-01  0.0000000E+00  0.1736111E-02
   1       -4.3116
   2       -1.6218
   3       -0.7445
   4       -0.7408
   5       -0.4936
   6       -0.4457
   7       -0.4433
   8        0.1481
   9        0.6669
  10        0.6764
  11        0.7608
  12        0.7715
  13        0.9802
  14        1.2486
  15        1.3774
  16        1.3893
  17        1.3947
  18        1.4702
  19        1.5807
  20        1.6726
  21        1.8962
  22        1.8968
  23        7.1252
  24        7.3634
  25       10.7466
  26       10.9962
  27       11.4169
  28       11.8736
  29       13.1042
  30       13.5598
  31       16.6912
  32       17.7869
 
  0.3750000E+00  0.4166667E-01  0.0000000E+00  0.1736111E-02
   1       -3.9916
   2       -1.8659
   3       -0.6601
   4       -0.6572
   5       -0.4199
   6       -0.3493
   7       -0.3455
   8        0.0712
   9        0.4870
  10        0.4969
  11        0.8134
  12        0.8443
  13        0.9467
  14        1.0546
  15        1.3222
  16        1.3266
  17        1.3779
  18        1.4082
  19        1.4378
  20        1.6172
  21        1.8963
  22        1.8968
  23        7.5934
  24        7.8506
  25       10.7459
  26       10.9957
  27       11.1848
  28       11.2429
  29       12.6934
  30       13.1136
  31       17.8462
  32       18.2229
 
  0.4166667E+00  0.4166667E-01  0.0000000E+00  0.1736111E-02
   1       -3.6452
   2       -2.1740
   3       -0.5905
   4       -0.5884
   5       -0.3416
   6       -0.2410
   7       -0.2354
   8       -0.0095
   9        0.3174
  10        0.3273
  11        0.8264
  12        0.9119
  13        0.9235
  14        0.9665
  15        1.2664
  16        1.2695
  17        1.2838
  18        1.3205
  19        1.4407
  20        1.5803
  21        1.8964
  22        1.8968
  23        8.0828
  24        8.3626
  25       10.2158
  26       10.6284
  27       11.1483
  28       11.4018
  29       12.3228
  30       12.7034
  31       18.6971
  32       18.7542
 
  0.4583333E+00  0.4166667E-01  0.0000000E+00  0.1736111E-02
   1       -3.2785
   2       -2.5266
   3       -0.5439
   4       -0.5427
   5       -0.2601
   6       -0.1203
   7       -0.1130
   8       -0.0926
   9        0.1592
  10        0.1687
  11        0.8100
  12        0.8333
  13        1.0083
  14        1.0356
  15        1.1897
  16        1.2170
  17        1.2291
  18        1.2308
  19        1.4747
  20        1.5447
  21        1.8966
  22        1.8967
  23        8.5914
  24        8.8977
  25        9.6602
  26       10.0319
  27       11.3705
  28       11.6279
  29       12.0153
  30       12.3353
  31       19.2057
  32       19.2973
 
  0.5000000E+00  0.4166667E-01  0.0000000E+00  0.8680556E-03
   1       -2.9010
   2       -2.9010
   3       -0.5271
   4       -0.5271
   5       -0.1766
   6       -0.1766
   7        0.0132
   8        0.0132
   9        0.0218
  10        0.0218
  11        0.8053
  12        0.8053
  13        1.0974
  14        1.0974
  15        1.1218
  16        1.1218
  17        1.2165
  18        1.2165
  19        1.5095
  20        1.5095
  21        1.8967
  22        1.8967
  23        9.1177
  24        9.1177
  25        9.4546
  26        9.4546
  27       11.6084
  28       11.6084
  29       12.0283
  30       12.0283
  31       19.7460
  32       19.7523
 
  0.8333333E-01  0.8333333E-01  0.0000000E+00  0.8680556E-03
   1       -5.4362
   2       -1.1941
   3       -1.1941
   4       -1.1572
   5       -0.7658
   6       -0.7658
   7       -0.7650
   8        0.4464
   9        0.5098
  10        0.5177
  11        1.2242
  12        1.2545
  13        1.6726
  14        1.6937
  15        1.6937
  16        1.7087
  17        1.7646
  18        1.7646
  19        1.8727
  20        1.8727
  21        1.8842
  22        4.6177
  23        4.6177
  24        5.3370
  25       10.2435
  26       10.9093
  27       10.9093
  28       14.4993
  29       15.7347
  30       15.7347
  31       15.9278
  32       15.9278
 
  0.1250000E+00  0.8333333E-01  0.0000000E+00  0.1736111E-02
   1       -5.3349
   2       -1.1985
   3       -1.1477
   4       -1.1131
   5       -0.7404
   6       -0.7386
   7       -0.7381
   8        0.4222
   9        0.5294
  10        0.5385
  11        1.2038
  12        1.2623
  13        1.5478
  14        1.5624
  15        1.6453
  16        1.6769
  17        1.7129
  18        1.7533
  19        1.8337
  20        1.8726
  21        1.8767
  22        4.1064
  23        4.8457
  24        5.5614
  25       10.2846
  26       10.9638
  27       11.6397
  28       13.8365
  29       15.1800
  30       15.5318
  31       15.8718
  32       16.0669
 
  0.1666667E+00  0.8333333E-01  0.0000000E+00  0.1736111E-02
   1       -5.1939
   2       -1.2119
   3       -1.0850
   4       -1.0535
   5       -0.7054
   6       -0.7004
   7       -0.7002
   8        0.3858
   9        0.5600
  10        0.5673
  11        1.1720
  12        1.2774
  13        1.3884
  14        1.3900
  15        1.5783
  16        1.6333
  17        1.6642
  18        1.7361
  19        1.7809
  20        1.8726
  21        1.8731
  22        3.5497
  23        5.1322
  24        5.8517
  25       10.3431
  26       11.0416
  27       12.5121
  28       13.1710
  29       14.5569
  30       15.0686
  31       16.0614
  32       16.1702
 
  0.2083333E+00  0.8333333E-01  0.0000000E+00  0.1736111E-02
   1       -5.0140
   2       -1.2430
   3       -1.0085
   4       -0.9808
   5       -0.6613
   6       -0.6518
   7       -0.6506
   8        0.3390
   9        0.6002
  10        0.6034
  11        1.1324
  12        1.1986
  13        1.2138
  14        1.2977
  15        1.4905
  16        1.5794
  17        1.6074
  18        1.7130
  19        1.7161
  20        1.8714
  21        1.8725
  22        3.0050
  23        5.4624
  24        6.1951
  25       10.4197
  26       11.1442
  27       12.5167
  28       13.4800
  29       13.9058
  30       14.5783
  31       15.7957
  32       16.3012
 
  0.2500000E+00  0.8333333E-01  0.0000000E+00  0.1736111E-02
   1       -4.7963
   2       -1.3042
   3       -0.9215
   4       -0.8982
   5       -0.6087
   6       -0.5924
   7       -0.5897
   8        0.2831
   9        0.6457
  10        0.6494
  11        1.0044
  12        1.0295
  13        1.0879
  14        1.3221
  15        1.3778
  16        1.5170
  17        1.5425
  18        1.6412
  19        1.6832
  20        1.8705
  21        1.8723
  22        2.5165
  23        5.8263
  24        6.5818
  25       10.5139
  26       11.2733
  27       11.8827
  28       13.2475
  29       14.0873
  30       14.5168
  31       15.3487
  32       16.5884
 
  0.2916667E+00  0.8333333E-01  0.0000000E+00  0.1736111E-02
   1       -4.5425
   2       -1.4119
   3       -0.8284
   4       -0.8094
   5       -0.5485
   6       -0.5224
   7       -0.5172
   8        0.2194
   9        0.6919
  10        0.7069
  11        0.8125
  12        0.8444
  13        1.0429
  14        1.2364
  15        1.3502
  16        1.4491
  17        1.4720
  18        1.5584
  19        1.6438
  20        1.8702
  21        1.8722
  22        2.1228
  23        6.2172
  24        7.0049
  25       10.6168
  26       11.2840
  27       11.4308
  28       12.5932
  29       13.6125
  30       14.8744
  31       15.6055
  32       16.9201
 
  0.3333333E+00  0.8333333E-01  0.0000000E+00  0.1736111E-02
   1       -4.2548
   2       -1.5823
   3       -0.7348
   4       -0.7197
   5       -0.4816
   6       -0.4422
   7       -0.4329
   8        0.1491
   9        0.6270
  10        0.6630
  11        0.7361
  12        0.7723
  13        1.0057
  14        1.0749
  15        1.3798
  16        1.3816
  17        1.3999
  18        1.4698
  19        1.5855
  20        1.8513
  21        1.8701
  22        1.8720
  23        6.6311
  24        7.4594
  25       10.5529
  26       10.8996
  27       11.6183
  28       11.9492
  29       13.1648
  30       14.3996
  31       16.7292
  32       17.2930
 
  0.3750000E+00  0.8333333E-01  0.0000000E+00  0.1736111E-02
   1       -3.9362
   2       -1.8238
   3       -0.6475
   4       -0.6357
   5       -0.4091
   6       -0.3518
   7       -0.3367
   8        0.0737
   9        0.4504
  10        0.4885
  11        0.7648
  12        0.8448
  13        0.9251
  14        0.9927
  15        1.3149
  16        1.3314
  17        1.3775
  18        1.4157
  19        1.4912
  20        1.7019
  21        1.8703
  22        1.8718
  23        7.0652
  24        7.9420
  25       10.0497
  26       11.0050
  27       11.3194
  28       11.8362
  29       12.7522
  30       13.9405
  31       17.7038
  32       17.7834
 
  0.4166667E+00  0.8333333E-01  0.0000000E+00  0.1736111E-02
   1       -3.5913
   2       -2.1292
   3       -0.5748
   4       -0.5660
   5       -0.3321
   6       -0.2506
   7       -0.2284
   8       -0.0055
   9        0.2847
  10        0.3231
  11        0.7657
  12        0.8178
  13        0.9238
  14        1.0209
  15        1.2613
  16        1.2732
  17        1.2834
  18        1.3758
  19        1.4522
  20        1.6267
  21        1.8705
  22        1.8715
  23        7.5181
  24        8.4503
  25        9.5101
  26       10.7063
  27       11.1985
  28       12.0687
  29       12.3958
  30       13.5071
  31       18.1489
  32       18.3656
 
  0.4583333E+00  0.8333333E-01  0.0000000E+00  0.1736111E-02
   1       -3.2265
   2       -2.4791
   3       -0.5251
   4       -0.5202
   5       -0.2519
   6       -0.1369
   7       -0.1082
   8       -0.0872
   9        0.1309
  10        0.1680
  11        0.7509
  12        0.7603
  13        1.0083
  14        1.0840
  15        1.1895
  16        1.2265
  17        1.2328
  18        1.2659
  19        1.4908
  20        1.5755
  21        1.8707
  22        1.8713
  23        7.9890
  24        8.9822
  25        8.9850
  26       10.1115
  27       11.4305
  28       11.9880
  29       12.4262
  30       13.1059
  31       18.6250
  32       18.8763
 
  0.5000000E+00  0.8333333E-01  0.0000000E+00  0.8680556E-03
   1       -2.8512
   2       -2.8512
   3       -0.5058
   4       -0.5058
   5       -0.1698
   6       -0.1698
   7       -0.0098
   8       -0.0098
   9        0.0240
  10        0.0240
  11        0.7431
  12        0.7431
  13        1.0973
  14        1.0973
  15        1.1679
  16        1.1679
  17        1.2163
  18        1.2163
  19        1.5316
  20        1.5316
  21        1.8710
  22        1.8710
  23        8.4779
  24        8.4779
  25        9.5363
  26        9.5363
  27       11.6967
  28       11.6967
  29       12.7418
  30       12.7418
  31       19.1285
  32       19.1285
 
  0.1250000E+00  0.1250000E+00  0.0000000E+00  0.8680556E-03
   1       -5.2342
   2       -1.1506
   3       -1.1506
   4       -1.0703
   5       -0.7138
   6       -0.7138
   7       -0.7124
   8        0.4042
   9        0.5436
  10        0.5563
  11        1.1931
  12        1.2635
  13        1.4465
  14        1.4977
  15        1.4977
  16        1.6467
  17        1.7122
  18        1.7122
  19        1.8335
  20        1.8335
  21        1.8586
  22        4.3317
  23        4.3317
  24        5.7732
  25       10.3259
  26       11.7028
  27       11.7028
  28       13.1315
  29       15.3115
  30       15.3115
  31       15.6640
  32       15.6640
 
  0.1666667E+00  0.1250000E+00  0.0000000E+00  0.1736111E-02
   1       -5.0940
   2       -1.1619
   3       -1.0858
   4       -1.0127
   5       -0.6797
   6       -0.6764
   7       -0.6764
   8        0.3732
   9        0.5697
  10        0.5806
  11        1.1684
  12        1.2760
  13        1.3110
  14        1.3188
  15        1.4144
  16        1.6053
  17        1.6656
  18        1.7028
  19        1.7806
  20        1.8333
  21        1.8464
  22        3.7770
  23        4.6093
  24        6.0502
  25       10.3839
  26       11.7925
  27       12.4401
  28       12.5815
  29       14.6845
  30       15.1937
  31       15.4932
  32       15.8472
 
  0.2083333E+00  0.1250000E+00  0.0000000E+00  0.1736111E-02
   1       -4.9151
   2       -1.1901
   3       -1.0067
   4       -0.9423
   5       -0.6367
   6       -0.6301
   7       -0.6280
   8        0.3306
   9        0.6070
  10        0.6106
  11        1.1280
  12        1.1338
  13        1.1533
  14        1.2973
  15        1.3116
  16        1.5540
  17        1.6099
  18        1.6842
  19        1.7157
  20        1.8330
  21        1.8389
  22        3.2382
  23        4.9244
  24        6.3810
  25       10.4567
  26       11.7738
  27       11.9100
  28       13.5535
  29       14.0311
  30       14.6967
  31       15.7228
  32       16.0799
 
  0.2500000E+00  0.1250000E+00  0.0000000E+00  0.1736111E-02
   1       -4.6987
   2       -1.2479
   3       -0.9165
   4       -0.8619
   5       -0.5855
   6       -0.5740
   7       -0.5686
   8        0.2781
   9        0.6446
  10        0.6542
  11        0.9353
  12        0.9842
  13        1.0946
  14        1.1885
  15        1.3248
  16        1.4945
  17        1.5460
  18        1.6407
  19        1.6558
  20        1.8326
  21        1.8345
  22        2.7551
  23        5.2681
  24        6.7565
  25       10.5284
  26       11.1551
  27       12.0565
  28       13.3718
  29       14.1994
  30       14.5922
  31       15.9977
  32       16.1912
 
  0.2916667E+00  0.1250000E+00  0.0000000E+00  0.1736111E-02
   1       -4.4464
   2       -1.3516
   3       -0.8196
   4       -0.7751
   5       -0.5269
   6       -0.5089
   7       -0.4979
   8        0.2173
   9        0.6791
  10        0.7104
  11        0.7466
  12        0.8114
  13        1.0493
  14        1.0570
  15        1.3573
  16        1.4297
  17        1.4763
  18        1.5578
  19        1.6160
  20        1.8319
  21        1.8322
  22        2.3571
  23        5.6352
  24        7.1699
  25       10.3777
  26       10.8095
  27       12.2334
  28       12.7174
  29       13.7190
  30       15.6783
  31       15.7696
  32       16.3150
 
  0.3333333E+00  0.1250000E+00  0.0000000E+00  0.1736111E-02
   1       -4.1606
   2       -1.5178
   3       -0.7215
   4       -0.6861
   5       -0.4618
   6       -0.4357
   7       -0.4158
   8        0.1499
   9        0.5653
  10        0.6402
  11        0.7070
  12        0.7747
  13        0.9087
  14        1.0308
  15        1.3638
  16        1.3939
  17        1.4045
  18        1.4692
  19        1.5610
  20        1.8305
  21        1.8318
  22        2.0591
  23        6.0227
  24        7.6162
  25        9.8479
  26       10.8966
  27       12.0742
  28       12.4404
  29       13.2672
  30       15.3200
  31       16.6718
  32       16.7558
 
  0.3750000E+00  0.1250000E+00  0.0000000E+00  0.1736111E-02
   1       -3.8443
   2       -1.7548
   3       -0.6292
   4       -0.6011
   5       -0.3912
   6       -0.3551
   7       -0.3222
   8        0.0771
   9        0.3939
  10        0.4742
  11        0.7181
  12        0.7905
  13        0.8465
  14        1.0294
  15        1.3022
  16        1.3357
  17        1.3769
  18        1.4344
  19        1.4860
  20        1.8298
  21        1.8313
  22        1.8569
  23        6.4292
  24        8.0918
  25        9.2948
  26       11.0633
  27       11.4458
  28       12.6549
  29       12.8743
  30       14.8695
  31       17.0648
  32       17.3943
 
  0.4166667E+00  0.1250000E+00  0.0000000E+00  0.1736111E-02
   1       -3.5022
   2       -2.0556
   3       -0.5509
   4       -0.5296
   5       -0.3163
   6       -0.2658
   7       -0.2170
   8        0.0005
   9        0.2339
  10        0.3157
  11        0.7083
  12        0.7123
  13        0.9249
  14        1.0610
  15        1.2522
  16        1.2764
  17        1.2830
  18        1.3927
  19        1.4785
  20        1.7287
  21        1.8296
  22        1.8308
  23        6.8544
  24        8.5940
  25        8.7612
  26       10.8347
  27       11.2680
  28       12.4353
  29       12.9862
  30       14.4338
  31       17.4912
  32       17.8538
 
  0.4583333E+00  0.1250000E+00  0.0000000E+00  0.1736111E-02
   1       -3.1406
   2       -2.4011
   3       -0.4956
   4       -0.4834
   5       -0.2384
   6       -0.1639
   7       -0.1004
   8       -0.0786
   9        0.0866
  10        0.1665
  11        0.6759