 running on    8 nodes
 distr:  one band on    1 nodes,    8 groups
 vasp.4.6.28 25Jul05 complex 
 POSCAR found :  1 types and    4 ions
 LDA part: xc-table for Pade appr. of Perdew
 POSCAR, INCAR and KPOINTS ok, starting setup
 FFT: planning ...           1
 reading WAVECAR
 entering main loop
       N       E                     dE             d eps       ncg     rms          rms(c)
DAV:   1     0.331922689277E+03    0.33192E+03   -0.27208E+04 29984   0.283E+03
DAV:   2     0.646378559721E+01   -0.32546E+03   -0.30889E+03 29216   0.430E+02
DAV:   3    -0.179529553616E+02   -0.24417E+02   -0.23786E+02 32144   0.141E+02
DAV:   4    -0.182735586083E+02   -0.32060E+00   -0.32036E+00 32440   0.174E+01
DAV:   5    -0.182741480407E+02   -0.58943E-03   -0.58942E-03 32560   0.697E-01    0.139E+01
DAV:   6    -0.162577894741E+02    0.20164E+01   -0.24546E+01 31880   0.796E+01    0.669E+00
DAV:   7    -0.148971397950E+02    0.13606E+01   -0.47567E+00 33112   0.342E+01    0.110E+00
DAV:   8    -0.148634452341E+02    0.33695E-01   -0.41864E-02 31464   0.176E+00    0.676E-01
DAV:   9    -0.148544248358E+02    0.90204E-02   -0.15631E-02 34112   0.201E+00    0.271E-02
DAV:  10    -0.148545029031E+02   -0.78067E-04   -0.55069E-04 31504   0.196E-01    0.125E-02
DAV:  11    -0.148545010864E+02    0.18167E-05   -0.92722E-06 34656   0.388E-02    0.491E-03
DAV:  12    -0.148545057318E+02   -0.46454E-05   -0.37062E-07 33296   0.992E-03    0.973E-04
DAV:  13    -0.148545059959E+02   -0.26406E-06   -0.27284E-08 29568   0.206E-03    0.471E-04
DAV:  14    -0.148545060085E+02   -0.12646E-07   -0.26275E-09 18656   0.828E-04    0.274E-05
DAV:  15    -0.148545059846E+02    0.23905E-07   -0.10902E-09 17880   0.261E-04    0.163E-05
DAV:  16    -0.148545059898E+02   -0.52478E-08   -0.14022E-10 17064   0.149E-04
   1 F= -.14854506E+02 E0= -.14854408E+02  d E =-.196203E-03
