   4   4   0   0
  0.1557351E+02  0.3964138E-09  0.3964138E-09  0.3964138E-09  0.5000000E-15
  1.000000000000000E-004
  CAR 
 unknown system                          
     21.20032436     -6.98339585  301      1.72644364      1.00000000
     -6.983  0.0000E+00  0.0000E+00
     -6.889  0.0000E+00  0.0000E+00
     -6.796  0.0000E+00  0.0000E+00
     -6.702  0.0000E+00  0.0000E+00
     -6.608  0.0000E+00  0.0000E+00
     -6.514  0.0000E+00  0.0000E+00
     -6.420  0.0000E+00  0.0000E+00
     -6.326  0.0000E+00  0.0000E+00
     -6.232  0.0000E+00  0.0000E+00
     -6.138  0.0000E+00  0.0000E+00
     -6.044  0.0000E+00  0.0000E+00
     -5.950  0.0000E+00  0.0000E+00
     -5.856  0.0000E+00  0.0000E+00
     -5.762  0.0000E+00  0.0000E+00
     -5.668  0.1944E-01  0.1826E-02
     -5.574  0.9668E-01  0.1184E-01
     -5.480  0.1453E+00  0.2710E-01
     -5.386  0.2014E+00  0.4831E-01
     -5.292  0.1598E+00  0.6782E-01
     -5.198  0.2969E+00  0.9807E-01
     -5.104  0.1929E+00  0.1250E+00
     -5.011  0.2382E+00  0.1519E+00
     -4.917  0.2968E+00  0.1930E+00
     -4.823  0.3019E+00  0.2247E+00
     -4.729  0.3941E+00  0.2649E+00
     -4.635  0.3685E+00  0.3041E+00
     -4.541  0.4533E+00  0.3468E+00
     -4.447  0.3838E+00  0.3933E+00
     -4.353  0.3037E+00  0.4303E+00
     -4.259  0.4597E+00  0.4875E+00
     -4.165  0.5191E+00  0.5417E+00
     -4.071  0.3712E+00  0.5833E+00
     -3.977  0.4949E+00  0.6419E+00
     -3.883  0.6128E+00  0.7094E+00
     -3.789  0.4790E+00  0.7604E+00
     -3.695  0.5161E+00  0.8264E+00
     -3.601  0.5766E+00  0.8851E+00
     -3.507  0.7022E+00  0.9611E+00
     -3.413  0.7263E+00  0.1030E+01
     -3.320  0.6522E+00  0.1095E+01
     -3.226  0.7793E+00  0.1186E+01
     -3.132  0.7337E+00  0.1258E+01
     -3.038  0.6110E+00  0.1328E+01
     -2.944  0.8918E+00  0.1431E+01
     -2.850  0.8213E+00  0.1515E+01
     -2.756  0.9047E+00  0.1621E+01
     -2.662  0.9853E+00  0.1719E+01
     -2.568  0.9716E+00  0.1837E+01
     -2.474  0.1219E+01  0.1966E+01
     -2.380  0.1106E+01  0.2084E+01
     -2.286  0.1418E+01  0.2240E+01
     -2.192  0.1504E+01  0.2405E+01
     -2.098  0.2137E+01  0.2625E+01
     -2.004  0.2206E+01  0.2863E+01
     -1.910  0.3268E+01  0.3219E+01
     -1.816  0.3162E+01  0.3582E+01
     -1.722  0.4972E+01  0.4115E+01
     -1.628  0.5291E+01  0.4707E+01
     -1.535  0.5641E+01  0.5356E+01
     -1.441  0.7045E+01  0.6106E+01
     -1.347  0.9344E+01  0.7145E+01
     -1.253  0.1163E+02  0.8387E+01
     -1.159  0.1044E+02  0.9579E+01
     -1.065  0.1078E+02  0.1076E+02
     -0.971  0.1114E+02  0.1197E+02
     -0.877  0.1169E+02  0.1322E+02
     -0.783  0.1473E+02  0.1485E+02
     -0.689  0.1653E+02  0.1670E+02
     -0.595  0.1902E+02  0.1878E+02
     -0.501  0.2217E+02  0.2123E+02
     -0.407  0.2200E+02  0.2375E+02
     -0.313  0.1523E+02  0.2545E+02
     -0.219  0.1373E+02  0.2695E+02
     -0.125  0.1797E+02  0.2890E+02
     -0.031  0.2049E+02  0.3117E+02
      0.063  0.1703E+02  0.3311E+02
      0.156  0.1711E+02  0.3500E+02
      0.250  0.2064E+02  0.3723E+02
      0.344  0.3192E+02  0.4063E+02
      0.438  0.9432E+01  0.4185E+02
      0.532  0.1965E+01  0.4206E+02
      0.626  0.1471E+01  0.4222E+02
      0.720  0.1379E+01  0.4240E+02
      0.814  0.1550E+01  0.4258E+02
      0.908  0.1332E+01  0.4273E+02
      1.002  0.1611E+01  0.4291E+02
      1.096  0.9156E+00  0.4301E+02
      1.190  0.1645E+01  0.4320E+02
      1.284  0.1044E+01  0.4332E+02
      1.378  0.1462E+01  0.4346E+02
      1.472  0.1428E+01  0.4361E+02
      1.566  0.9825E+00  0.4373E+02
      1.660  0.1328E+01  0.4387E+02
      1.754  0.1524E+01  0.4402E+02
      1.848  0.1003E+01  0.4413E+02
      1.941  0.1270E+01  0.4426E+02
      2.035  0.1138E+01  0.4440E+02
      2.129  0.1211E+01  0.4452E+02
      2.223  0.9640E+00  0.4463E+02
      2.317  0.1164E+01  0.4476E+02
      2.411  0.1325E+01  0.4489E+02
      2.505  0.1053E+01  0.4500E+02
      2.599  0.6257E+00  0.4509E+02
      2.693  0.1504E+01  0.4524E+02
      2.787  0.9810E+00  0.4536E+02
      2.881  0.9865E+00  0.4545E+02
      2.975  0.1099E+01  0.4556E+02
      3.069  0.1067E+01  0.4568E+02
      3.163  0.8752E+00  0.4578E+02
      3.257  0.9937E+00  0.4590E+02
      3.351  0.8455E+00  0.4600E+02
      3.445  0.7492E+00  0.4608E+02
      3.539  0.1237E+01  0.4622E+02
      3.632  0.9388E+00  0.4632E+02
      3.726  0.6988E+00  0.4641E+02
      3.820  0.7668E+00  0.4651E+02
      3.914  0.8901E+00  0.4660E+02
      4.008  0.8575E+00  0.4670E+02
      4.102  0.9343E+00  0.4680E+02
      4.196  0.7374E+00  0.4688E+02
      4.290  0.7276E+00  0.4696E+02
      4.384  0.8538E+00  0.4706E+02
      4.478  0.1176E+01  0.4719E+02
      4.572  0.1176E+01  0.4732E+02
      4.666  0.1100E+01  0.4744E+02
      4.760  0.1155E+01  0.4757E+02
      4.854  0.1237E+01  0.4770E+02
      4.948  0.1113E+01  0.4782E+02
      5.042  0.1202E+01  0.4796E+02
      5.136  0.1396E+01  0.4810E+02
      5.230  0.9305E+00  0.4820E+02
      5.323  0.1167E+01  0.4833E+02
      5.417  0.1281E+01  0.4847E+02
      5.511  0.1303E+01  0.4860E+02
      5.605  0.1046E+01  0.4870E+02
      5.699  0.1193E+01  0.4883E+02
      5.793  0.8995E+00  0.4895E+02
      5.887  0.7995E+00  0.4905E+02
      5.981  0.1239E+01  0.4918E+02
      6.075  0.1210E+01  0.4931E+02
      6.169  0.8535E+00  0.4941E+02
      6.263  0.1049E+01  0.4953E+02
      6.357  0.9807E+00  0.4964E+02
      6.451  0.1067E+01  0.4974E+02
      6.545  0.6799E+00  0.4983E+02
      6.639  0.1255E+01  0.4997E+02
      6.733  0.8957E+00  0.5008E+02
      6.827  0.8972E+00  0.5018E+02
      6.921  0.8780E+00  0.5028E+02
      7.015  0.7544E+00  0.5036E+02
      7.108  0.9079E+00  0.5048E+02
      7.202  0.1005E+01  0.5059E+02
      7.296  0.1410E+01  0.5073E+02
      7.390  0.1245E+01  0.5086E+02
      7.484  0.1248E+01  0.5100E+02
      7.578  0.1192E+01  0.5113E+02
      7.672  0.1240E+01  0.5127E+02
      7.766  0.1121E+01  0.5139E+02
      7.860  0.1387E+01  0.5154E+02
      7.954  0.1187E+01  0.5168E+02
      8.048  0.1589E+01  0.5184E+02
      8.142  0.1247E+01  0.5198E+02
      8.236  0.1223E+01  0.5213E+02
      8.330  0.1238E+01  0.5226E+02
      8.424  0.1409E+01  0.5241E+02
      8.518  0.1289E+01  0.5256E+02
      8.612  0.1397E+01  0.5271E+02
      8.706  0.1634E+01  0.5288E+02
      8.799  0.1534E+01  0.5304E+02
      8.893  0.1347E+01  0.5318E+02
      8.987  0.1246E+01  0.5332E+02
      9.081  0.1302E+01  0.5346E+02
      9.175  0.1216E+01  0.5360E+02
      9.269  0.1369E+01  0.5375E+02
      9.363  0.1842E+01  0.5393E+02
      9.457  0.1409E+01  0.5408E+02
      9.551  0.1565E+01  0.5424E+02
      9.645  0.1426E+01  0.5439E+02
      9.739  0.1419E+01  0.5454E+02
      9.833  0.1302E+01  0.5468E+02
      9.927  0.1439E+01  0.5484E+02
     10.021  0.1452E+01  0.5500E+02
     10.115  0.1312E+01  0.5515E+02
     10.209  0.1421E+01  0.5532E+02
     10.303  0.1437E+01  0.5548E+02
     10.397  0.1588E+01  0.5565E+02
     10.491  0.1216E+01  0.5581E+02
     10.584  0.1597E+01  0.5599E+02
     10.678  0.1016E+01  0.5611E+02
     10.772  0.1479E+01  0.5625E+02
     10.866  0.1731E+01  0.5645E+02
     10.960  0.1697E+01  0.5663E+02
     11.054  0.1242E+01  0.5677E+02
     11.148  0.1326E+01  0.5692E+02
     11.242  0.1712E+01  0.5711E+02
     11.336  0.1180E+01  0.5725E+02
     11.430  0.2089E+01  0.5746E+02
     11.524  0.1173E+01  0.5760E+02
     11.618  0.1663E+01  0.5778E+02
     11.712  0.1838E+01  0.5796E+02
     11.806  0.1482E+01  0.5813E+02
     11.900  0.1250E+01  0.5827E+02
     11.994  0.1496E+01  0.5843E+02
     12.088  0.1641E+01  0.5862E+02
     12.182  0.1793E+01  0.5882E+02
     12.275  0.1402E+01  0.5897E+02
     12.369  0.1804E+01  0.5916E+02
     12.463  0.1818E+01  0.5936E+02
     12.557  0.1589E+01  0.5954E+02
     12.651  0.1388E+01  0.5970E+02
     12.745  0.1615E+01  0.5988E+02
     12.839  0.1871E+01  0.6009E+02
     12.933  0.1569E+01  0.6028E+02
     13.027  0.2108E+01  0.6049E+02
     13.121  0.1341E+01  0.6063E+02
     13.215  0.1781E+01  0.6081E+02
     13.309  0.1732E+01  0.6100E+02
     13.403  0.1603E+01  0.6117E+02
     13.497  0.1065E+01  0.6129E+02
     13.591  0.1647E+01  0.6147E+02
     13.685  0.1241E+01  0.6163E+02
     13.779  0.1139E+01  0.6175E+02
     13.873  0.9201E+00  0.6187E+02
     13.967  0.7943E+00  0.6196E+02
     14.060  0.1226E+01  0.6209E+02
     14.154  0.9052E+00  0.6218E+02
     14.248  0.1262E+01  0.6232E+02
     14.342  0.6168E+00  0.6240E+02
     14.436  0.6348E+00  0.6247E+02
     14.530  0.7833E+00  0.6256E+02
     14.624  0.8424E+00  0.6265E+02
     14.718  0.5147E+00  0.6271E+02
     14.812  0.7577E+00  0.6278E+02
     14.906  0.5585E+00  0.6284E+02
     15.000  0.5037E+00  0.6290E+02
     15.094  0.7723E+00  0.6297E+02
     15.188  0.3201E+00  0.6301E+02
     15.282  0.4531E+00  0.6306E+02
     15.376  0.6197E+00  0.6313E+02
     15.470  0.5363E+00  0.6319E+02
     15.564  0.3388E+00  0.6323E+02
     15.658  0.2547E+00  0.6326E+02
     15.751  0.4682E+00  0.6331E+02
     15.845  0.3065E+00  0.6335E+02
     15.939  0.3981E+00  0.6339E+02
     16.033  0.3341E+00  0.6342E+02
     16.127  0.2669E+00  0.6346E+02
     16.221  0.3030E+00  0.6349E+02
     16.315  0.1527E+00  0.6352E+02
     16.409  0.3674E+00  0.6356E+02
     16.503  0.3006E+00  0.6359E+02
     16.597  0.7069E-01  0.6360E+02
     16.691  0.3326E+00  0.6363E+02
     16.785  0.3656E+00  0.6366E+02
     16.879  0.1191E+00  0.6368E+02
     16.973  0.6524E-01  0.6369E+02
     17.067  0.2946E+00  0.6372E+02
     17.161  0.2587E+00  0.6374E+02
     17.255  0.5949E-01  0.6375E+02
     17.349  0.2957E+00  0.6378E+02
     17.442  0.1104E+00  0.6379E+02
     17.536  0.1117E+00  0.6381E+02
     17.630  0.1111E+00  0.6382E+02
     17.724  0.2235E+00  0.6384E+02
     17.818  0.8619E-01  0.6385E+02
     17.912  0.1497E+00  0.6387E+02
     18.006  0.3557E-01  0.6388E+02
     18.100  0.1847E+00  0.6389E+02
     18.194  0.3696E-01  0.6390E+02
     18.288  0.1990E+00  0.6392E+02
     18.382  0.0000E+00  0.6392E+02
     18.476  0.3966E-01  0.6392E+02
     18.570  0.1107E+00  0.6394E+02
     18.664  0.3696E-01  0.6395E+02
     18.758  0.2296E-01  0.6395E+02
     18.852  0.7392E-01  0.6396E+02
     18.946  0.3696E-01  0.6396E+02
     19.040  0.7392E-01  0.6397E+02
     19.134  0.3696E-01  0.6397E+02
     19.227  0.3696E-01  0.6398E+02
     19.321  0.3271E-01  0.6398E+02
     19.415  0.7388E-01  0.6399E+02
     19.509  0.3696E-01  0.6399E+02
     19.603  0.2540E-01  0.6399E+02
     19.697  0.1226E-01  0.6400E+02
     19.791  0.0000E+00  0.6400E+02
     19.885  0.4179E-08  0.6400E+02
     19.979  0.6160E-02  0.6400E+02
     20.073  0.0000E+00  0.6400E+02
     20.167  0.0000E+00  0.6400E+02
     20.261  0.0000E+00  0.6400E+02
     20.355  0.0000E+00  0.6400E+02
     20.449  0.0000E+00  0.6400E+02
     20.543  0.0000E+00  0.6400E+02
     20.637  0.0000E+00  0.6400E+02
     20.731  0.0000E+00  0.6400E+02
     20.825  0.0000E+00  0.6400E+02
     20.918  0.0000E+00  0.6400E+02
     21.012  0.0000E+00  0.6400E+02
     21.106  0.0000E+00  0.6400E+02
     21.200  0.0000E+00  0.6400E+02
