    4    4    1    1
  0.1557351E+02  0.3964138E-09  0.3964138E-09  0.3964138E-09  0.5000000E-15
  1.000000000000000E-004
  CAR 
 unknown system                          
   44  455   32
 
  0.0000000E+00  0.0000000E+00  0.0000000E+00  0.7233796E-04
   1       -5.7023
   2       -1.7865
   3       -1.7865
   4       -1.7865
   5       -1.4865
   6       -1.4865
   7       -1.4865
   8       -0.5882
   9       -0.5882
  10       -0.5882
  11       -0.0507
  12       -0.0507
  13        0.3085
  14        0.3085
  15        0.3085
  16        0.4087
  17        0.4087
  18        0.4087
  19        0.4087
  20        0.4087
  21        0.4087
  22        3.4478
  23        3.4478
  24        3.4478
  25        7.1102
  26        7.1102
  27        7.1102
  28       12.8870
  29       12.8870
  30       12.8870
  31       12.8870
  32       12.8870
 
  0.4166667E-01  0.0000000E+00  0.0000000E+00  0.4340278E-03
   1       -5.6850
   2       -1.7872
   3       -1.7794
   4       -1.7794
   5       -1.4828
   6       -1.4825
   7       -1.4825
   8       -0.5921
   9       -0.5848
  10       -0.5848
  11       -0.0543
  12       -0.0492
  13        0.3039
  14        0.3039
  15        0.3070
  16        0.3874
  17        0.3874
  18        0.4032
  19        0.4032
  20        0.4087
  21        0.4087
  22        3.2942
  23        3.4854
  24        3.4854
  25        7.1183
  26        7.1183
  27        7.3005
  28       12.7522
  29       12.7522
  30       12.7882
  31       12.7882
  32       12.9111
 
  0.8333333E-01  0.0000000E+00  0.0000000E+00  0.4340278E-03
   1       -5.6329
   2       -1.7902
   3       -1.7584
   4       -1.7584
   5       -1.4716
   6       -1.4706
   7       -1.4706
   8       -0.6039
   9       -0.5749
  10       -0.5749
  11       -0.0649
  12       -0.0446
  13        0.2902
  14        0.2902
  15        0.3023
  16        0.3265
  17        0.3265
  18        0.3868
  19        0.3868
  20        0.4088
  21        0.4088
  22        2.9065
  23        3.5952
  24        3.5952
  25        7.1425
  26        7.1425
  27        7.7988
  28       12.3990
  29       12.3990
  30       12.5199
  31       12.5199
  32       12.9830
 
  0.1250000E+00  0.0000000E+00  0.0000000E+00  0.4340278E-03
   1       -5.5464
   2       -1.7980
   3       -1.7243
   4       -1.7243
   5       -1.4533
   6       -1.4505
   7       -1.4505
   8       -0.6233
   9       -0.5583
  10       -0.5583
  11       -0.0823
  12       -0.0372
  13        0.2340
  14        0.2340
  15        0.2676
  16        0.2676
  17        0.2947
  18        0.3601
  19        0.3601
  20        0.4088
  21        0.4088
  22        2.4060
  23        3.7691
  24        3.7691
  25        7.1834
  26        7.1834
  27        8.4863
  28       11.9193
  29       11.9193
  30       12.1414
  31       12.1414
  32       13.1021
 
  0.1666667E+00  0.0000000E+00  0.0000000E+00  0.4340278E-03
   1       -5.4258
   2       -1.8152
   3       -1.6783
   4       -1.6783
   5       -1.4279
   6       -1.4224
   7       -1.4224
   8       -0.6499
   9       -0.5353
  10       -0.5353
  11       -0.1060
  12       -0.0269
  13        0.1191
  14        0.1191
  15        0.2367
  16        0.2367
  17        0.2841
  18        0.3238
  19        0.3238
  20        0.4089
  21        0.4089
  22        1.8724
  23        3.9977
  24        3.9977
  25        7.2416
  26        7.2416
  27        9.2871
  28       11.3787
  29       11.3787
  30       11.7064
  31       11.7064
  32       13.2675
 
  0.2083333E+00  0.0000000E+00  0.0000000E+00  0.4340278E-03
   1       -5.2716
   2       -1.8498
   3       -1.6223
   4       -1.6223
   5       -1.3961
   6       -1.3860
   7       -1.3860
   8       -0.6833
   9       -0.5060
  10       -0.5060
  11       -0.1351
  12       -0.0141
  13       -0.0092
  14       -0.0092
  15        0.1984
  16        0.1984
  17        0.2709
  18        0.2792
  19        0.2792
  20        0.4089
  21        0.4089
  22        1.3510
  23        4.2720
  24        4.2720
  25        7.3180
  26        7.3180
  27       10.1633
  28       10.8134
  29       10.8134
  30       11.2517
  31       11.2517
  32       13.4778
 
  0.2500000E+00  0.0000000E+00  0.0000000E+00  0.4340278E-03
   1       -5.0845
   2       -1.9133
   3       -1.5588
   4       -1.5588
   5       -1.3582
   6       -1.3411
   7       -1.3411
   8       -0.7229
   9       -0.4706
  10       -0.4706
  11       -0.1687
  12       -0.1440
  13       -0.1440
  14        0.0013
  15        0.1539
  16        0.1539
  17        0.2275
  18        0.2275
  19        0.2552
  20        0.4090
  21        0.4090
  22        0.8720
  23        4.5848
  24        4.5848
  25        7.4137
  26        7.4137
  27       10.2423
  28       10.2423
  29       10.8001
  30       10.8001
  31       11.0956
  32       13.7315
 
  0.2916667E+00  0.0000000E+00  0.0000000E+00  0.4340278E-03
   1       -4.8657
   2       -2.0214
   3       -1.4911
   4       -1.4911
   5       -1.3148
   6       -1.2877
   7       -1.2877
   8       -0.7679
   9       -0.4294
  10       -0.4294
  11       -0.2802
  12       -0.2802
  13       -0.2051
  14        0.0188
  15        0.1053
  16        0.1053
  17        0.1702
  18        0.1702
  19        0.2374
  20        0.4090
  21        0.4090
  22        0.4603
  23        4.9308
  24        4.9308
  25        7.5298
  26        7.5298
  27        9.6755
  28        9.6755
  29       10.3658
  30       10.3658
  31       12.0735
  32       14.0269
 
  0.3333333E+00  0.0000000E+00  0.0000000E+00  0.4340278E-03
   1       -4.6166
   2       -2.1898
   3       -1.4234
   4       -1.4234
   5       -1.2667
   6       -1.2256
   7       -1.2256
   8       -0.8175
   9       -0.4141
  10       -0.4141
  11       -0.3828
  12       -0.3828
  13       -0.2426
  14        0.0381
  15        0.0554
  16        0.0554
  17        0.1086
  18        0.1086
  19        0.1364
  20        0.2177
  21        0.4091
  22        0.4091
  23        5.3060
  24        5.3060
  25        7.6668
  26        7.6668
  27        9.1189
  28        9.1189
  29        9.9580
  30        9.9580
  31       13.0907
  32       14.3622
 
  0.3750000E+00  0.0000000E+00  0.0000000E+00  0.4340278E-03
   1       -4.3394
   2       -2.4242
   3       -1.3607
   4       -1.3607
   5       -1.2147
   6       -1.1545
   7       -1.1545
   8       -0.8709
   9       -0.5432
  10       -0.5432
  11       -0.3312
  12       -0.3312
  13       -0.2784
  14       -0.0909
  15        0.0081
  16        0.0081
  17        0.0442
  18        0.0442
  19        0.0591
  20        0.1965
  21        0.4091
  22        0.4091
  23        5.7074
  24        5.7074
  25        7.8244
  26        7.8244
  27        8.5762
  28        8.5762
  29        9.5840
  30        9.5840
  31       14.1433
  32       14.7354
 
  0.4166667E+00  0.0000000E+00  0.0000000E+00  0.4340278E-03
   1       -4.0372
   2       -2.7146
   3       -1.3091
   4       -1.3091
   5       -1.1596
   6       -1.0745
   7       -1.0745
   8       -0.9270
   9       -0.6658
  10       -0.6658
  11       -0.3089
  12       -0.2751
  13       -0.2751
  14       -0.2308
  15       -0.0317
  16       -0.0317
  17       -0.0216
  18       -0.0216
  19        0.0812
  20        0.1742
  21        0.4092
  22        0.4092
  23        6.1332
  24        6.1332
  25        7.9983
  26        7.9983
  27        8.0497
  28        8.0497
  29        9.2526
  30        9.2526
  31       15.1449
  32       15.1504
 
  0.4583333E+00  0.0000000E+00  0.0000000E+00  0.4340278E-03
   1       -3.7145
   2       -3.0397
   3       -1.2748
   4       -1.2748
   5       -1.1023
   6       -0.9855
   7       -0.9855
   8       -0.9850
   9       -0.7808
  10       -0.7808
  11       -0.3290
  12       -0.3037
  13       -0.2153
  14       -0.2153
  15       -0.0876
  16       -0.0876
  17       -0.0586
  18       -0.0586
  19        0.1042
  20        0.1511
  21        0.4092
  22        0.4092
  23        6.5815
  24        6.5815
  25        7.5409
  26        7.5409
  27        8.1692
  28        8.1692
  29        8.9861
  30        8.9861
  31       15.5886
  32       15.5886
 
  0.5000000E+00  0.0000000E+00  0.0000000E+00  0.2170139E-03
   1       -3.3784
   2       -3.3784
   3       -1.2627
   4       -1.2627
   5       -1.0437
   6       -1.0437
   7       -0.8875
   8       -0.8875
   9       -0.8875
  10       -0.8875
  11       -0.3310
  12       -0.3310
  13       -0.1525
  14       -0.1525
  15       -0.1525
  16       -0.1525
  17       -0.0681
  18       -0.0681
  19        0.1276
  20        0.1276
  21        0.4092
  22        0.4092
  23        7.0511
  24        7.0511
  25        7.0511
  26        7.0511
  27        8.2588
  28        8.2588
  29        8.8644
  30        8.8644
  31       16.0650
  32       16.0650
 
  0.4166667E-01  0.4166667E-01  0.0000000E+00  0.8680556E-03
   1       -5.6676
   2       -1.7801
   3       -1.7801
   4       -1.7724
   5       -1.4788
   6       -1.4788
   7       -1.4786
   8       -0.5943
   9       -0.5833
  10       -0.5816
  11       -0.0553
  12       -0.0501
  13        0.2994
  14        0.3019
  15        0.3019
  16        0.3702
  17        0.3821
  18        0.3821
  19        0.4032
  20        0.4032
  21        0.4052
  22        3.3311
  23        3.3311
  24        3.5226
  25        7.1263
  26        7.3095
  27        7.3095
  28       12.4139
  29       12.7758
  30       12.7758
  31       12.8119
  32       12.8119
 
  0.8333333E-01  0.4166667E-01  0.0000000E+00  0.1736111E-02
   1       -5.6156
   2       -1.7829
   3       -1.7589
   4       -1.7515
   5       -1.4677
   6       -1.4669
   7       -1.4667
   8       -0.6051
   9       -0.5742
  10       -0.5718
  11       -0.0648
  12       -0.0465
  13        0.2843
  14        0.2858
  15        0.2955
  16        0.3126
  17        0.3244
  18        0.3666
  19        0.3868
  20        0.4032
  21        0.4032
  22        2.9426
  23        3.4387
  24        3.6310
  25        7.1507
  26        7.3364
  27        7.8094
  28       11.9405
  29       12.4217
  30       12.5427
  31       12.8463
  32       12.8649
 
  0.1250000E+00  0.4166667E-01  0.0000000E+00  0.1736111E-02
   1       -5.5292
   2       -1.7904
   3       -1.7246
   4       -1.7177
   5       -1.4494
   6       -1.4470
   7       -1.4468
   8       -0.6241
   9       -0.5579
  10       -0.5557
  11       -0.0819
  12       -0.0389
  13        0.2196
  14        0.2223
  15        0.2634
  16        0.2732
  17        0.2837
  18        0.3424
  19        0.3600
  20        0.4027
  21        0.4032
  22        2.4423
  23        3.6086
  24        3.8032
  25        7.1918
  26        7.3819
  27        8.4981
  28       11.4080
  29       11.9412
  30       12.1631
  31       12.6017
  32       12.9632
 
  0.1666667E+00  0.4166667E-01  0.0000000E+00  0.1736111E-02
   1       -5.4086
   2       -1.8073
   3       -1.6782
   4       -1.6720
   5       -1.4242
   6       -1.4190
   7       -1.4188
   8       -0.6505
   9       -0.5350
  10       -0.5333
  11       -0.1052
  12       -0.0284
  13        0.1070
  14        0.1096
  15        0.2328
  16        0.2396
  17        0.2629
  18        0.3135
  19        0.3238
  20        0.4026
  21        0.4033
  22        1.9106
  23        3.8309
  24        4.0299
  25        7.2502
  26        7.4467
  27        9.2997
  28       10.8522
  29       11.4001
  30       11.7272
  31       12.2193
  32       13.1253
 
  0.2083333E+00  0.4166667E-01  0.0000000E+00  0.1736111E-02
   1       -5.2546
   2       -1.8413
   3       -1.6218
   4       -1.6165
   5       -1.3925
   6       -1.3827
   7       -1.3827
   8       -0.6837
   9       -0.5058
  10       -0.5049
  11       -0.1339
  12       -0.0209
  13       -0.0168
  14       -0.0151
  15        0.1949
  16        0.2006
  17        0.2264
  18        0.2792
  19        0.2870
  20        0.4026
  21        0.4033
  22        1.3936
  23        4.0964
  24        4.3023
  25        7.3269
  26        7.5318
  27       10.1763
  28       10.2926
  29       10.8345
  30       11.2718
  31       11.7791
  32       13.3313
 
  0.2500000E+00  0.4166667E-01  0.0000000E+00  0.1736111E-02
   1       -5.0677
   2       -1.9041
   3       -1.5578
   4       -1.5534
   5       -1.3548
   6       -1.3383
   7       -1.3381
   8       -0.7230
   9       -0.4709
  10       -0.4704
  11       -0.1665
  12       -0.1554
  13       -0.1499
  14        0.0007
  15        0.1508
  16        0.1560
  17        0.1716
  18        0.2275
  19        0.2642
  20        0.4027
  21        0.4033
  22        0.9240
  23        4.3976
  24        4.6135
  25        7.4228
  26        7.6383
  27        9.7403
  28       10.2631
  29       10.8197
  30       11.1086
  31       11.3200
  32       13.5798
 
  0.2916667E+00  0.4166667E-01  0.0000000E+00  0.1736111E-02
   1       -4.8491
   2       -2.0114
   3       -1.4895
   4       -1.4861
   5       -1.3117
   6       -1.2855
   7       -1.2849
   8       -0.7677
   9       -0.4319
  10       -0.4293
  11       -0.2912
  12       -0.2845
  13       -0.2013
  14        0.0188
  15        0.0965
  16        0.1026
  17        0.1073
  18        0.1701
  19        0.2410
  20        0.4027
  21        0.4033
  22        0.5347
  23        4.7291
  24        4.9580
  25        7.5387
  26        7.7674
  27        9.2013
  28        9.6964
  29       10.3854
  30       10.8649
  31       12.0862
  32       13.8685
 
  0.3333333E+00  0.4166667E-01  0.0000000E+00  0.1736111E-02
   1       -4.6003
   2       -2.1788
   3       -1.4210
   4       -1.4185
   5       -1.2639
   6       -1.2244
   7       -1.2231
   8       -0.8170
   9       -0.4245
  10       -0.4171
  11       -0.3899
  12       -0.3827
  13       -0.2348
  14       -0.0140
  15        0.0388
  16        0.0532
  17        0.0573
  18        0.1085
  19        0.2047
  20        0.2758
  21        0.4028
  22        0.4033
  23        5.0868
  24        5.3319
  25        7.6739
  26        7.9196
  27        8.6803
  28        9.1399
  29        9.9786
  30       10.4278
  31       13.1027
  32       14.1960
 
  0.3750000E+00  0.4166667E-01  0.0000000E+00  0.1736111E-02
   1       -4.3234
   2       -2.4123
   3       -1.3576
   4       -1.3558
   5       -1.2121
   6       -1.1549
   7       -1.1524
   8       -0.8701
   9       -0.5528
  10       -0.5451
  11       -0.3520
  12       -0.3311
  13       -0.2576
  14       -0.1546
  15        0.0065
  16        0.0098
  17        0.0441
  18        0.0604
  19        0.0988
  20        0.2087
  21        0.4029
  22        0.4033
  23        5.4675
  24        5.7323
  25        7.8140
  26        8.0931
  27        8.1935
  28        8.5974
  29        9.6078
  30       10.0184
  31       14.1524
  32       14.5590
 
  0.4166667E+00  0.4166667E-01  0.0000000E+00  0.1736111E-02
   1       -4.0216
   2       -2.7017
   3       -1.3052
   4       -1.3039
   5       -1.1572
   6       -1.0768
   7       -1.0729
   8       -0.9259
   9       -0.6744
  10       -0.6668
  11       -0.3410
  12       -0.2751
  13       -0.2661
  14       -0.2438
  15       -0.0327
  16       -0.0303
  17       -0.0217
  18        0.0087
  19        0.0834
  20        0.1817
  21        0.4030
  22        0.4033
  23        5.8691
  24        6.1571
  25        7.6374
  26        8.0616
  27        8.0712
  28        8.2785
  29        9.2873
  30        9.6452
  31       14.9559
  32       14.9964
 
  0.4583333E+00  0.4166667E-01  0.0000000E+00  0.1736111E-02
   1       -3.6994
   2       -3.0260
   3       -1.2701
   4       -1.2694
   5       -1.1002
   6       -0.9898
   7       -0.9844
   8       -0.9836
   9       -0.7883
  10       -0.7810
  11       -0.3506
  12       -0.3283
  13       -0.2153
  14       -0.1952
  15       -0.0877
  16       -0.0664
  17       -0.0590
  18       -0.0577
  19        0.1073
  20        0.1566
  21        0.4031
  22        0.4032
  23        6.2897
  24        6.6046
  25        7.1811
  26        7.5628
  27        8.2399
  28        8.4297
  29        9.0664
  30        9.3206
  31       15.3854
  32       15.4366
 
  0.5000000E+00  0.4166667E-01  0.0000000E+00  0.8680556E-03
   1       -3.3639
   2       -3.3639
   3       -1.2575
   4       -1.2575
   5       -1.0420
   6       -1.0420
   7       -0.8935
   8       -0.8935
   9       -0.8870
  10       -0.8870
  11       -0.3517
  12       -0.3517
  13       -0.1525
  14       -0.1525
  15       -0.1342
  16       -0.1342
  17       -0.0679
  18       -0.0679
  19        0.1318
  20        0.1318
  21        0.4032
  22        0.4032
  23        6.7278
  24        6.7278
  25        7.0736
  26        7.0736
  27        8.4094
  28        8.4094
  29        9.0844
  30        9.0844
  31       15.8449
  32       15.8969
 
  0.8333333E-01  0.8333333E-01  0.0000000E+00  0.8680556E-03
   1       -5.5637
   2       -1.7613
   3       -1.7613
   4       -1.7312
   5       -1.4560
   6       -1.4560
   7       -1.4550
   8       -0.6122
   9       -0.5687
  10       -0.5629
  11       -0.0687
  12       -0.0478
  13        0.2653
  14        0.2665
  15        0.2665
  16        0.2726
  17        0.3182
  18        0.3182
  19        0.3868
  20        0.3868
  21        0.3944
  22        3.0471
  23        3.0471
  24        3.7360
  25        7.1754
  26        7.8413
  27        7.8413
  28       11.3729
  29       12.4895
  30       12.4895
  31       12.6107
  32       12.6107
 
  0.1250000E+00  0.8333333E-01  0.0000000E+00  0.1736111E-02
   1       -5.4775
   2       -1.7680
   3       -1.7262
   4       -1.6982
   5       -1.4380
   6       -1.4363
   7       -1.4355
   8       -0.6286
   9       -0.5547
  10       -0.5480
  11       -0.0825
  12       -0.0422
  13        0.1846
  14        0.1877
  15        0.2362
  16        0.2509
  17        0.2790
  18        0.3086
  19        0.3600
  20        0.3867
  21        0.3893
  22        2.5463
  23        3.2106
  24        3.9034
  25        7.2170
  26        7.8949
  27        8.5338
  28       10.7846
  29       12.0066
  30       12.2281
  31       12.6019
  32       12.7235
 
  0.1666667E+00  0.8333333E-01  0.0000000E+00  0.1736111E-02
   1       -5.3573
   2       -1.7837
   3       -1.6788
   4       -1.6536
   5       -1.4131
   6       -1.4087
   7       -1.4081
   8       -0.6534
   9       -0.5330
  10       -0.5275
  11       -0.1042
  12       -0.0315
  13        0.0743
  14        0.0796
  15        0.1931
  16        0.2213
  17        0.2445
  18        0.2955
  19        0.3237
  20        0.3867
  21        0.3869
  22        2.0180
  23        3.4224
  24        4.1247
  25        7.2762
  26        7.9709
  27        9.3376
  28       10.1960
  29       11.4639
  30       11.7895
  31       12.7576
  32       12.8191
 
  0.2083333E+00  0.8333333E-01  0.0000000E+00  0.1736111E-02
   1       -5.2036
   2       -1.8161
   3       -1.6210
   4       -1.5994
   5       -1.3819
   6       -1.3730
   7       -1.3728
   8       -0.6855
   9       -0.5044
  10       -0.5017
  11       -0.1311
  12       -0.0540
  13       -0.0402
  14       -0.0173
  15        0.1362
  16        0.1844
  17        0.2053
  18        0.2790
  19        0.2790
  20        0.3857
  21        0.3866
  22        1.5091
  23        3.6730
  24        4.3920
  25        7.3536
  26        8.0701
  27        9.6185
  28       10.2151
  29       10.8973
  30       11.3320
  31       12.4659
  32       12.9553
 
  0.2500000E+00  0.8333333E-01  0.0000000E+00  0.1736111E-02
   1       -5.0173
   2       -1.8768
   3       -1.5554
   4       -1.5378
   5       -1.3448
   6       -1.3296
   7       -1.3290
   8       -0.7238
   9       -0.4715
  10       -0.4695
  11       -0.1881
  12       -0.1678
  13       -0.1614
  14       -0.0000
  15        0.0629
  16        0.1416
  17        0.1606
  18        0.2272
  19        0.2585
  20        0.3851
  21        0.3865
  22        1.0538
  23        3.9553
  24        4.6984
  25        7.4498
  26        8.1932
  27        9.0592
  28       10.3255
  29       10.8790
  30       11.1472
  31       12.0522
  32       13.1932
 
  0.2916667E+00  0.8333333E-01  0.0000000E+00  0.1736111E-02
   1       -4.7994
   2       -1.9816
   3       -1.4852
   4       -1.4716
   5       -1.3023
   6       -1.2788
   7       -1.2766
   8       -0.7675
   9       -0.4385
  10       -0.4286
  11       -0.3228
  12       -0.2978
  13       -0.1920
  14       -0.0307
  15        0.0198
  16        0.0947
  17        0.1120
  18        0.1698
  19        0.2325
  20        0.3849
  21        0.3864
  22        0.6838
  23        4.2641
  24        5.0387
  25        7.5636
  26        8.3401
  27        8.5240
  28        9.7587
  29       10.4454
  30       11.6175
  31       12.1234
  32       13.4694
 
  0.3333333E+00  0.8333333E-01  0.0000000E+00  0.1736111E-02
   1       -4.5514
   2       -2.1462
   3       -1.4147
   4       -1.4046
   5       -1.2552
   6       -1.2208
   7       -1.2158
   8       -0.8159
   9       -0.4544
  10       -0.4264
  11       -0.4067
  12       -0.3822
  13       -0.2172
  14       -0.1433
  15        0.0419
  16        0.0468
  17        0.0619
  18        0.1081
  19        0.1961
  20        0.3849
  21        0.3863
  22        0.4252
  23        4.5960
  24        5.4089
  25        7.6740
  26        8.0372
  27        8.5085
  28        9.2026
  29       10.0433
  30       11.1848
  31       13.1352
  32       13.7818
 
  0.3750000E+00  0.8333333E-01  0.0000000E+00  0.1736111E-02
   1       -4.2756
   2       -2.3767
   3       -1.3489
   4       -1.3413
   5       -1.2043
   6       -1.1559
   7       -1.1462
   8       -0.8680
   9       -0.5805
  10       -0.5510
  11       -0.3855
  12       -0.3309
  13       -0.2547
  14       -0.2256
  15        0.0015
  16        0.0140
  17        0.0438
  18        0.0659
  19        0.1350
  20        0.2821
  21        0.3850
  22        0.3861
  23        4.9488
  24        5.8062
  25        7.4546
  26        7.9269
  27        8.6608
  28        8.6870
  29        9.6904
  30       10.7677
  31       14.1282
  32       14.1320
 
  0.4166667E+00  0.8333333E-01  0.0000000E+00  0.1736111E-02
   1       -3.9749
   2       -2.6632
   3       -1.2940
   4       -1.2884
   5       -1.1503
   6       -1.0835
   7       -1.0680
   8       -0.9228
   9       -0.6995
  10       -0.6698
  11       -0.3835
  12       -0.3370
  13       -0.2750
  14       -0.2052
  15       -0.0360
  16       -0.0270
  17       -0.0220
  18        0.0515
  19        0.0917
  20        0.2177
  21        0.3851
  22        0.3859
  23        5.3212
  24        6.2283
  25        7.0010
  26        8.0981
  27        8.1355
  28        8.8207
  29        9.4455
  30       10.3755
  31       14.5066
  32       14.6300
 
  0.4583333E+00  0.8333333E-01  0.0000000E+00  0.1736111E-02
   1       -3.6543
   2       -2.9849
   3       -1.2566
   4       -1.2533
   5       -1.0942
   6       -1.0024
   7       -0.9810
   8       -0.9795
   9       -0.8100
  10       -0.7815
  11       -0.3925
  12       -0.3818
  13       -0.2154
  14       -0.1601
  15       -0.0879
  16       -0.0604
  17       -0.0556
  18       -0.0291
  19        0.1189
  20        0.1793
  21        0.3853
  22        0.3857
  23        5.7128
  24        6.5532
  25        6.6736
  26        7.6284
  27        8.3088
  28        8.7547
  29        9.4656
  30       10.0160
  31       14.9148
  32       15.0522
 
  0.5000000E+00  0.8333333E-01  0.0000000E+00  0.8680556E-03
   1       -3.3206
   2       -3.3206
   3       -1.2421
   4       -1.2421
   5       -1.0369
   6       -1.0369
   7       -0.9112
   8       -0.9112
   9       -0.8854
  10       -0.8854
  11       -0.3964
  12       -0.3964
  13       -0.1527
  14       -0.1527
  15       -0.1000
  16       -0.1000
  17       -0.0675
  18       -0.0675
  19        0.1478
  20        0.1478
  21        0.3855
  22        0.3855
  23        6.1235
  24        6.1235
  25        7.1407
  26        7.1407
  27        8.5394
  28        8.5394
  29        9.7007
  30        9.7007
  31       15.3508
  32       15.3510
 
  0.1250000E+00  0.1250000E+00  0.0000000E+00  0.8680556E-03
   1       -5.3917
   2       -1.7316
   3       -1.7316
   4       -1.6665
   5       -1.4188
   6       -1.4188
   7       -1.4166
   8       -0.6405
   9       -0.5448
  10       -0.5353
  11       -0.0898
  12       -0.0412
  13        0.1183
  14        0.1437
  15        0.1437
  16        0.2304
  17        0.2790
  18        0.2790
  19        0.3599
  20        0.3599
  21        0.3767
  22        2.7067
  23        2.7067
  24        4.0639
  25        7.2595
  26        8.5935
  27        8.5935
  28       10.1602
  29       12.1150
  30       12.1150
  31       12.3359
  32       12.3359
 
  0.1666667E+00  0.1250000E+00  0.0000000E+00  0.1736111E-02
   1       -5.2720
   2       -1.7453
   3       -1.6824
   4       -1.6238
   5       -1.3946
   6       -1.3918
   7       -1.3902
   8       -0.6615
   9       -0.5263
  10       -0.5179
  11       -0.1065
  12       -0.0322
  13        0.0256
  14        0.0272
  15        0.0877
  16        0.2022
  17        0.2465
  18        0.2727
  19        0.3234
  20        0.3597
  21        0.3681
  22        2.1796
  23        2.9116
  24        4.2777
  25        7.3197
  26        8.6775
  27        9.4006
  28        9.5485
  29       11.5695
  30       11.8930
  31       12.2652
  32       12.4856
 
  0.2083333E+00  0.1250000E+00  0.0000000E+00  0.1736111E-02
   1       -5.1190
   2       -1.7751
   3       -1.6223
   4       -1.5719
   5       -1.3642
   6       -1.3569
   7       -1.3561
   8       -0.6906
   9       -0.4998
  10       -0.4963
  11       -0.1300
  12       -0.1043
  13       -0.0809
  14       -0.0172
  15        0.0184
  16        0.1670
  17        0.2082
  18        0.2600
  19        0.2786
  20        0.3595
  21        0.3630
  22        1.6753
  23        3.1511
  24        4.5373
  25        7.3979
  26        8.7859
  27        8.9570
  28       10.2791
  29       11.0013
  30       11.4326
  31       12.4557
  32       12.6763
 
  0.2500000E+00  0.1250000E+00  0.0000000E+00  0.1736111E-02
   1       -4.9336
   2       -1.8324
   3       -1.5539
   4       -1.5127
   5       -1.3280
   6       -1.3148
   7       -1.3140
   8       -0.7266
   9       -0.4719
  10       -0.4662
  11       -0.2384
  12       -0.1987
  13       -0.1566
  14       -0.0655
  15        0.0022
  16        0.1262
  17        0.1643
  18        0.2268
  19        0.2409
  20        0.3592
  21        0.3601
  22        1.2260
  23        3.4187
  24        4.8366
  25        7.4924
  26        8.3925
  27        8.9180
  28       10.4288
  29       10.9789
  30       11.2099
  31       12.6850
  32       12.7929
 
  0.2916667E+00  0.1250000E+00  0.0000000E+00  0.1736111E-02
   1       -4.7168
   2       -1.9330
   3       -1.4806
   4       -1.4487
   5       -1.2867
   6       -1.2670
   7       -1.2630
   8       -0.7683
   9       -0.4469
  10       -0.4263
  11       -0.3715
  12       -0.3205
  13       -0.1821
  14       -0.1631
  15        0.0251
  16        0.0815
  17        0.1162
  18        0.1693
  19        0.2144
  20        0.3584
  21        0.3589
  22        0.8575
  23        3.7102
  24        5.1705
  25        7.5753
  26        7.8867
  27        9.0702
  28        9.8620
  29       10.5501
  30       12.1798
  31       12.4044
  32       12.9511
 
  0.3333333E+00  0.1250000E+00  0.0000000E+00  0.1736111E-02
   1       -4.4703
   2       -2.0929
   3       -1.4063
   4       -1.3827
   5       -1.2408
   6       -1.2138
   7       -1.2037
   8       -0.8147
   9       -0.5006
  10       -0.4423
  11       -0.4264
  12       -0.3807
  13       -0.2655
  14       -0.1997
  15        0.0358
  16        0.0509
  17        0.0663
  18        0.1077
  19        0.1780
  20        0.3575
  21        0.3586
  22        0.5854
  23        4.0232
  24        5.5352
  25        7.2797
  26        7.8090
  27        9.2273
  28        9.3064
  29       10.1701
  30       11.9948
  31       13.1530
  32       13.2521
 
  0.3750000E+00  0.1250000E+00  0.0000000E+00  0.1736111E-02
   1       -4.1962
   2       -2.3184
   3       -1.3365
   4       -1.3187
   5       -1.1912
   6       -1.1564
   7       -1.1360
   8       -0.8650
   9       -0.6234
  10       -0.5611
  11       -0.4176
  12       -0.3543
  13       -0.3298
  14       -0.1998
  15       -0.0070
  16        0.0182
  17        0.0433
  18        0.0794
  19        0.1277
  20        0.3570
  21        0.3582
  22        0.4059
  23        4.3565
  24        5.9276
  25        6.8019
  26        7.9650
  27        8.7656
  28        9.3150
  29        9.9189
  30       11.5871
  31       13.5860
  32       13.7581
 
  0.4166667E+00  0.1250000E+00  0.0000000E+00  0.1736111E-02
   1       -3.8977
   2       -2.6000
   3       -1.2771
   4       -1.2636
   5       -1.1388
   6       -1.0940
   7       -1.0599
   8       -0.9180
   9       -0.7384
  10       -0.6750
  11       -0.4234
  12       -0.4140
  13       -0.2744
  14       -0.1767
  15       -0.0420
  16       -0.0236
  17       -0.0224
  18        0.0626
  19        0.1106
  20        0.2975
  21        0.3569
  22        0.3579
  23        4.7099
  24        6.3382
  25        6.3456
  26        8.1593
  27        8.2418
  28        9.1730
  29        9.9599
  30       11.1945
  31       13.9510
  32       14.1474
 
  0.4583333E+00  0.1250000E+00  0.0000000E+00  0.1736111E-02
   1       -3.5796
   2       -2.9173
   3       -1.2352
   4       -1.2271
   5       -1.0843
   6       -1.0228
   7       -0.9755
   8       -0.9729
   9       -0.8443
  10       -0.7826
  11       -0.4424