   4   4   0   0
  0.2030018E+02  0.4330320E-09  0.4330320E-09  0.4330320E-09  0.5000000E-15
  1.000000000000000E-004
  CAR 
 unknown system                          
     18.61157958     -5.56556079  301      2.15245486      1.00000000
     -5.566  0.0000E+00  0.0000E+00
     -5.485  0.0000E+00  0.0000E+00
     -5.404  0.0000E+00  0.0000E+00
     -5.324  0.0000E+00  0.0000E+00
     -5.243  0.0000E+00  0.0000E+00
     -5.163  0.0000E+00  0.0000E+00
     -5.082  0.0000E+00  0.0000E+00
     -5.001  0.0000E+00  0.0000E+00
     -4.921  0.0000E+00  0.0000E+00
     -4.840  0.0000E+00  0.0000E+00
     -4.760  0.0000E+00  0.0000E+00
     -4.679  0.0000E+00  0.0000E+00
     -4.598  0.0000E+00  0.0000E+00
     -4.518  0.1088E-15  0.8766E-17
     -4.437  0.1852E-01  0.1493E-02
     -4.357  0.1156E+00  0.1097E-01
     -4.276  0.1843E+00  0.2593E-01
     -4.196  0.2116E+00  0.4379E-01
     -4.115  0.2662E+00  0.6564E-01
     -4.034  0.2914E+00  0.9041E-01
     -3.954  0.3739E+00  0.1208E+00
     -3.873  0.3627E+00  0.1519E+00
     -3.793  0.3905E+00  0.1859E+00
     -3.712  0.4687E+00  0.2248E+00
     -3.631  0.5154E+00  0.2670E+00
     -3.551  0.5522E+00  0.3129E+00
     -3.470  0.6754E+00  0.3681E+00
     -3.390  0.7567E+00  0.4313E+00
     -3.309  0.1502E+01  0.5547E+00
     -3.228  0.5117E+01  0.9762E+00
     -3.148  0.9228E+01  0.1743E+01
     -3.067  0.1133E+02  0.2691E+01
     -2.987  0.1458E+02  0.3903E+01
     -2.906  0.1953E+02  0.5530E+01
     -2.825  0.1705E+02  0.6979E+01
     -2.745  0.1468E+02  0.8212E+01
     -2.664  0.1303E+02  0.9305E+01
     -2.584  0.1019E+02  0.1016E+02
     -2.503  0.1145E+02  0.1112E+02
     -2.423  0.1301E+02  0.1221E+02
     -2.342  0.1539E+02  0.1349E+02
     -2.261  0.1365E+02  0.1465E+02
     -2.181  0.1337E+02  0.1577E+02
     -2.100  0.1426E+02  0.1696E+02
     -2.020  0.1811E+02  0.1847E+02
     -1.939  0.2522E+02  0.2057E+02
     -1.858  0.1812E+02  0.2211E+02
     -1.778  0.1456E+02  0.2333E+02
     -1.697  0.1214E+02  0.2436E+02
     -1.617  0.1445E+02  0.2557E+02
     -1.536  0.1549E+02  0.2687E+02
     -1.455  0.1677E+02  0.2828E+02
     -1.375  0.1770E+02  0.2975E+02
     -1.294  0.1622E+02  0.3112E+02
     -1.214  0.1457E+02  0.3234E+02
     -1.133  0.1383E+02  0.3350E+02
     -1.052  0.1382E+02  0.3466E+02
     -0.972  0.1485E+02  0.3590E+02
     -0.891  0.1843E+02  0.3744E+02
     -0.811  0.2509E+02  0.3953E+02
     -0.730  0.1339E+02  0.4069E+02
     -0.650  0.5945E+01  0.4121E+02
     -0.569  0.1036E+01  0.4129E+02
     -0.488  0.7784E+00  0.4136E+02
     -0.408  0.1016E+01  0.4144E+02
     -0.327  0.7506E+00  0.4151E+02
     -0.247  0.1014E+01  0.4160E+02
     -0.166  0.6961E+00  0.4165E+02
     -0.085  0.1066E+01  0.4175E+02
     -0.005  0.6380E+00  0.4180E+02
      0.076  0.1100E+01  0.4189E+02
      0.156  0.7443E+00  0.4196E+02
      0.237  0.1042E+01  0.4204E+02
      0.318  0.8593E+00  0.4211E+02
      0.398  0.9138E+00  0.4219E+02
      0.479  0.9196E+00  0.4226E+02
      0.559  0.8631E+00  0.4234E+02
      0.640  0.9833E+00  0.4242E+02
      0.720  0.9523E+00  0.4250E+02
      0.801  0.8932E+00  0.4257E+02
      0.882  0.1015E+01  0.4266E+02
      0.962  0.8226E+00  0.4273E+02
      1.043  0.9922E+00  0.4281E+02
      1.123  0.9985E+00  0.4289E+02
      1.204  0.9192E+00  0.4297E+02
      1.285  0.9968E+00  0.4305E+02
      1.365  0.1118E+01  0.4314E+02
      1.446  0.8765E+00  0.4322E+02
      1.526  0.1021E+01  0.4330E+02
      1.607  0.1024E+01  0.4339E+02
      1.688  0.9662E+00  0.4347E+02
      1.768  0.1135E+01  0.4356E+02
      1.849  0.1141E+01  0.4366E+02
      1.929  0.8952E+00  0.4373E+02
      2.010  0.1208E+01  0.4383E+02
      2.091  0.1089E+01  0.4392E+02
      2.171  0.1175E+01  0.4402E+02
      2.252  0.1145E+01  0.4412E+02
      2.332  0.1257E+01  0.4422E+02
      2.413  0.1140E+01  0.4432E+02
      2.493  0.1104E+01  0.4441E+02
      2.574  0.1172E+01  0.4451E+02
      2.655  0.1112E+01  0.4460E+02
      2.735  0.1157E+01  0.4469E+02
      2.816  0.1221E+01  0.4480E+02
      2.896  0.1140E+01  0.4489E+02
      2.977  0.1142E+01  0.4498E+02
      3.058  0.1188E+01  0.4508E+02
      3.138  0.1128E+01  0.4518E+02
      3.219  0.1012E+01  0.4527E+02
      3.299  0.1146E+01  0.4536E+02
      3.380  0.1021E+01  0.4545E+02
      3.461  0.1221E+01  0.4555E+02
      3.541  0.1067E+01  0.4564E+02
      3.622  0.1057E+01  0.4573E+02
      3.702  0.1032E+01  0.4581E+02
      3.783  0.1240E+01  0.4592E+02
      3.864  0.9341E+00  0.4600E+02
      3.944  0.1122E+01  0.4609E+02
      4.025  0.1157E+01  0.4619E+02
      4.105  0.1132E+01  0.4628E+02
      4.186  0.8562E+00  0.4636E+02
      4.266  0.1039E+01  0.4644E+02
      4.347  0.1072E+01  0.4653E+02
      4.428  0.9583E+00  0.4661E+02
      4.508  0.9491E+00  0.4669E+02
      4.589  0.1051E+01  0.4678E+02
      4.669  0.9024E+00  0.4686E+02
      4.750  0.8008E+00  0.4692E+02
      4.831  0.7864E+00  0.4699E+02
      4.911  0.1087E+01  0.4708E+02
      4.992  0.1429E+01  0.4720E+02
      5.072  0.1178E+01  0.4730E+02
      5.153  0.1431E+01  0.4742E+02
      5.234  0.1454E+01  0.4754E+02
      5.314  0.1496E+01  0.4766E+02
      5.395  0.1298E+01  0.4777E+02
      5.475  0.1417E+01  0.4789E+02
      5.556  0.1524E+01  0.4802E+02
      5.637  0.1286E+01  0.4813E+02
      5.717  0.1519E+01  0.4825E+02
      5.798  0.1224E+01  0.4836E+02
      5.878  0.1238E+01  0.4847E+02
      5.959  0.1424E+01  0.4859E+02
      6.039  0.1334E+01  0.4870E+02
      6.120  0.1170E+01  0.4880E+02
      6.201  0.1333E+01  0.4891E+02
      6.281  0.1368E+01  0.4903E+02
      6.362  0.1080E+01  0.4912E+02
      6.442  0.1299E+01  0.4923E+02
      6.523  0.1317E+01  0.4934E+02
      6.604  0.1135E+01  0.4944E+02
      6.684  0.1260E+01  0.4954E+02
      6.765  0.1189E+01  0.4964E+02
      6.845  0.1223E+01  0.4975E+02
      6.926  0.1199E+01  0.4985E+02
      7.007  0.1064E+01  0.4994E+02
      7.087  0.1261E+01  0.5005E+02
      7.168  0.1107E+01  0.5014E+02
      7.248  0.1148E+01  0.5024E+02
      7.329  0.1240E+01  0.5034E+02
      7.410  0.1084E+01  0.5043E+02
      7.490  0.1307E+01  0.5054E+02
      7.571  0.1196E+01  0.5064E+02
      7.651  0.1316E+01  0.5075E+02
      7.732  0.1751E+01  0.5090E+02
      7.812  0.1788E+01  0.5105E+02
      7.893  0.1454E+01  0.5117E+02
      7.974  0.1495E+01  0.5130E+02
      8.054  0.1659E+01  0.5144E+02
      8.135  0.1173E+01  0.5153E+02
      8.215  0.1349E+01  0.5164E+02
      8.296  0.1526E+01  0.5177E+02
      8.377  0.1966E+01  0.5194E+02
      8.457  0.1732E+01  0.5208E+02
      8.538  0.1493E+01  0.5221E+02
      8.618  0.1813E+01  0.5236E+02
      8.699  0.1833E+01  0.5251E+02
      8.780  0.1883E+01  0.5267E+02
      8.860  0.1611E+01  0.5281E+02
      8.941  0.1549E+01  0.5294E+02
      9.021  0.1608E+01  0.5307E+02
      9.102  0.1862E+01  0.5323E+02
      9.182  0.1793E+01  0.5338E+02
      9.263  0.1683E+01  0.5352E+02
      9.344  0.1530E+01  0.5365E+02
      9.424  0.1748E+01  0.5379E+02
      9.505  0.1594E+01  0.5392E+02
      9.585  0.1911E+01  0.5408E+02
      9.666  0.1814E+01  0.5423E+02
      9.747  0.1773E+01  0.5438E+02
      9.827  0.1912E+01  0.5453E+02
      9.908  0.1600E+01  0.5467E+02
      9.988  0.1713E+01  0.5481E+02
     10.069  0.1608E+01  0.5495E+02
     10.150  0.2091E+01  0.5512E+02
     10.230  0.1966E+01  0.5529E+02
     10.311  0.1755E+01  0.5544E+02
     10.391  0.1706E+01  0.5558E+02
     10.472  0.1797E+01  0.5573E+02
     10.553  0.1619E+01  0.5587E+02
     10.633  0.2287E+01  0.5606E+02
     10.714  0.1891E+01  0.5622E+02
     10.794  0.1904E+01  0.5638E+02
     10.875  0.1896E+01  0.5653E+02
     10.955  0.1742E+01  0.5668E+02
     11.036  0.1674E+01  0.5682E+02
     11.117  0.2337E+01  0.5701E+02
     11.197  0.2032E+01  0.5719E+02
     11.278  0.1927E+01  0.5735E+02
     11.358  0.1921E+01  0.5750E+02
     11.439  0.2032E+01  0.5767E+02
     11.520  0.1775E+01  0.5782E+02
     11.600  0.2327E+01  0.5802E+02
     11.681  0.2003E+01  0.5819E+02
     11.761  0.2401E+01  0.5839E+02
     11.842  0.1904E+01  0.5855E+02
     11.923  0.2176E+01  0.5873E+02
     12.003  0.2007E+01  0.5890E+02
     12.084  0.2486E+01  0.5910E+02
     12.164  0.2335E+01  0.5930E+02
     12.245  0.1965E+01  0.5947E+02
     12.326  0.2210E+01  0.5966E+02
     12.406  0.2088E+01  0.5983E+02
     12.487  0.1918E+01  0.6000E+02
     12.567  0.2109E+01  0.6017E+02
     12.648  0.2189E+01  0.6035E+02
     12.728  0.1568E+01  0.6049E+02
     12.809  0.2230E+01  0.6067E+02
     12.890  0.1849E+01  0.6083E+02
     12.970  0.1832E+01  0.6099E+02
     13.051  0.1901E+01  0.6115E+02
     13.131  0.1747E+01  0.6130E+02
     13.212  0.1980E+01  0.6146E+02
     13.293  0.1667E+01  0.6160E+02
     13.373  0.1322E+01  0.6171E+02
     13.454  0.1590E+01  0.6184E+02
     13.534  0.1534E+01  0.6197E+02
     13.615  0.1193E+01  0.6208E+02
     13.696  0.1239E+01  0.6218E+02
     13.776  0.1240E+01  0.6228E+02
     13.857  0.9759E+00  0.6236E+02
     13.937  0.1100E+01  0.6246E+02
     14.018  0.9338E+00  0.6253E+02
     14.099  0.1030E+01  0.6262E+02
     14.179  0.8804E+00  0.6269E+02
     14.260  0.8520E+00  0.6276E+02
     14.340  0.9880E+00  0.6284E+02
     14.421  0.6038E+00  0.6289E+02
     14.501  0.8527E+00  0.6297E+02
     14.582  0.7761E+00  0.6303E+02
     14.663  0.4805E+00  0.6307E+02
     14.743  0.6619E+00  0.6313E+02
     14.824  0.7404E+00  0.6319E+02
     14.904  0.4348E+00  0.6323E+02
     14.985  0.6598E+00  0.6328E+02
     15.066  0.4188E+00  0.6332E+02
     15.146  0.5305E+00  0.6336E+02
     15.227  0.4992E+00  0.6340E+02
     15.307  0.4483E+00  0.6344E+02
     15.388  0.3281E+00  0.6347E+02
     15.469  0.4657E+00  0.6351E+02
     15.549  0.3683E+00  0.6354E+02
     15.630  0.3764E+00  0.6357E+02
     15.710  0.3903E+00  0.6360E+02
     15.791  0.3830E+00  0.6363E+02
     15.872  0.2187E+00  0.6365E+02
     15.952  0.3734E+00  0.6368E+02
     16.033  0.2651E+00  0.6370E+02
     16.113  0.2735E+00  0.6373E+02
     16.194  0.3015E+00  0.6375E+02
     16.274  0.3057E+00  0.6378E+02
     16.355  0.1889E+00  0.6379E+02
     16.436  0.1963E+00  0.6381E+02
     16.516  0.2835E+00  0.6383E+02
     16.597  0.1708E+00  0.6385E+02
     16.677  0.2448E+00  0.6387E+02
     16.758  0.1514E+00  0.6388E+02
     16.839  0.2232E+00  0.6390E+02
     16.919  0.1367E+00  0.6391E+02
     17.000  0.2053E+00  0.6393E+02
     17.080  0.1223E+00  0.6394E+02
     17.161  0.2220E+00  0.6396E+02
     17.242  0.1576E+00  0.6397E+02
     17.322  0.1866E+00  0.6398E+02
     17.403  0.1636E+00  0.6400E+02
     17.483  0.2954E-01  0.6400E+02
     17.564  0.4255E-02  0.6400E+02
     17.644  0.0000E+00  0.6400E+02
     17.725  0.0000E+00  0.6400E+02
     17.806  0.0000E+00  0.6400E+02
     17.886  0.0000E+00  0.6400E+02
     17.967  0.0000E+00  0.6400E+02
     18.047  0.0000E+00  0.6400E+02
     18.128  0.0000E+00  0.6400E+02
     18.209  0.0000E+00  0.6400E+02
     18.289  0.0000E+00  0.6400E+02
     18.370  0.0000E+00  0.6400E+02
     18.450  0.0000E+00  0.6400E+02
     18.531  0.0000E+00  0.6400E+02
     18.612  0.0000E+00  0.6400E+02
