    4    4    1    1
  0.2030018E+02  0.4330320E-09  0.4330320E-09  0.4330320E-09  0.5000000E-15
  1.000000000000000E-004
  CAR 
 unknown system                          
   44 1330   32
 
  0.0000000E+00  0.0000000E+00  0.0000000E+00  0.2143347E-04
   1       -4.4666
   2       -3.3500
   3       -3.3500
   4       -3.3500
   5       -3.2686
   6       -3.2686
   7       -3.2686
   8       -2.1680
   9       -2.1680
  10       -2.1680
  11       -1.4115
  12       -1.4115
  13       -0.8519
  14       -0.8519
  15       -0.8519
  16       -0.6749
  17       -0.6749
  18       -0.6749
  19       -0.6749
  20       -0.6749
  21       -0.6749
  22        3.8783
  23        3.8783
  24        3.8783
  25        7.6164
  26        7.6164
  27        7.6164
  28       12.0207
  29       12.0207
  30       12.0207
  31       12.0207
  32       12.0207
 
  0.2777778E-01  0.0000000E+00  0.0000000E+00  0.1286008E-03
   1       -4.4596
   2       -3.3475
   3       -3.3467
   4       -3.3467
   5       -3.2667
   6       -3.2657
   7       -3.2657
   8       -2.1703
   9       -2.1657
  10       -2.1657
  11       -1.4138
  12       -1.4105
  13       -0.8549
  14       -0.8549
  15       -0.8530
  16       -0.6852
  17       -0.6852
  18       -0.6786
  19       -0.6786
  20       -0.6749
  21       -0.6749
  22        3.8155
  23        3.8947
  24        3.8947
  25        7.6180
  26        7.6180
  27        7.6911
  28       11.9903
  29       11.9903
  30       11.9904
  31       11.9904
  32       12.0323
 
  0.5555556E-01  0.0000000E+00  0.0000000E+00  0.1286008E-03
   1       -4.4384
   2       -3.3397
   3       -3.3367
   4       -3.3367
   5       -3.2610
   6       -3.2568
   7       -3.2568
   8       -2.1771
   9       -2.1591
  10       -2.1591
  11       -1.4206
  12       -1.4074
  13       -0.8639
  14       -0.8639
  15       -0.8564
  16       -0.7155
  17       -0.7155
  18       -0.6898
  19       -0.6898
  20       -0.6749
  21       -0.6749
  22        3.6404
  23        3.9436
  24        3.9436
  25        7.6228
  26        7.6228
  27        7.9019
  28       11.9017
  29       11.9017
  30       11.9028
  31       11.9028
  32       12.0673
 
  0.8333333E-01  0.0000000E+00  0.0000000E+00  0.1286008E-03
   1       -4.4032
   2       -3.3269
   3       -3.3201
   4       -3.3201
   5       -3.2514
   6       -3.2420
   7       -3.2420
   8       -2.1884
   9       -2.1480
  10       -2.1480
  11       -1.4318
  12       -1.4023
  13       -0.8788
  14       -0.8788
  15       -0.8619
  16       -0.7645
  17       -0.7645
  18       -0.7081
  19       -0.7081
  20       -0.6749
  21       -0.6749
  22        3.3829
  23        4.0235
  24        4.0235
  25        7.6308
  26        7.6308
  27        8.2188
  28       11.7609
  29       11.7609
  30       11.7670
  31       11.7670
  32       12.1254
 
  0.1111111E+00  0.0000000E+00  0.0000000E+00  0.1286008E-03
   1       -4.3543
   2       -3.3093
   3       -3.2973
   4       -3.2973
   5       -3.2381
   6       -3.2213
   7       -3.2213
   8       -2.2042
   9       -2.1325
  10       -2.1325
  11       -1.4471
  12       -1.3953
  13       -0.8993
  14       -0.8993
  15       -0.8695
  16       -0.8302
  17       -0.8302
  18       -0.7334
  19       -0.7334
  20       -0.6748
  21       -0.6748
  22        3.0728
  23        4.1324
  24        4.1324
  25        7.6422
  26        7.6422
  27        8.6121
  28       11.5761
  29       11.5761
  30       11.5948
  31       11.5948
  32       12.2062
 
  0.1388889E+00  0.0000000E+00  0.0000000E+00  0.1286008E-03
   1       -4.2918
   2       -3.2870
   3       -3.2685
   4       -3.2685
   5       -3.2211
   6       -3.1947
   7       -3.1947
   8       -2.2241
   9       -2.1126
  10       -2.1126
  11       -1.4661
  12       -1.3863
  13       -0.9253
  14       -0.9253
  15       -0.9101
  16       -0.9101
  17       -0.8792
  18       -0.7652
  19       -0.7652
  20       -0.6748
  21       -0.6748
  22        2.7321
  23        4.2678
  24        4.2678
  25        7.6569
  26        7.6569
  27        9.0599
  28       11.3558
  29       11.3558
  30       11.3977
  31       11.3977
  32       12.3093
 
  0.1666667E+00  0.0000000E+00  0.0000000E+00  0.1286008E-03
   1       -4.2163
   2       -3.2605
   3       -3.2342
   4       -3.2342
   5       -3.2006
   6       -3.1623
   7       -3.1623
   8       -2.2481
   9       -2.0885
  10       -2.0885
  11       -1.4883
  12       -1.3754
  13       -1.0018
  14       -1.0018
  15       -0.9564
  16       -0.9564
  17       -0.8909
  18       -0.8031
  19       -0.8031
  20       -0.6747
  21       -0.6747
  22        2.3757
  23        4.4270
  24        4.4270
  25        7.6750
  26        7.6750
  27        9.5473
  28       11.1078
  29       11.1078
  30       11.1858
  31       11.1858
  32       12.4341
 
  0.1944444E+00  0.0000000E+00  0.0000000E+00  0.1286008E-03
   1       -4.1281
   2       -3.2301
   3       -3.1950
   4       -3.1950
   5       -3.1766
   6       -3.1240
   7       -3.1240
   8       -2.2759
   9       -2.0602
  10       -2.0602
  11       -1.5129
  12       -1.3627
  13       -1.1026
  14       -1.1026
  15       -0.9921
  16       -0.9921
  17       -0.9045
  18       -0.8467
  19       -0.8467
  20       -0.6747
  21       -0.6747
  22        2.0131
  23        4.6075
  24        4.6075
  25        7.6967
  26        7.6967
  27       10.0648
  28       10.8389
  29       10.8389
  30       10.9675
  31       10.9675
  32       12.5800
 
  0.2222222E+00  0.0000000E+00  0.0000000E+00  0.1286008E-03
   1       -4.0282
   2       -3.1963
   3       -3.1516
   4       -3.1516
   5       -3.1494
   6       -3.0798
   7       -3.0798
   8       -2.3072
   9       -2.0278
  10       -2.0278
  11       -1.5391
  12       -1.3483
  13       -1.2104
  14       -1.2104
  15       -1.0318
  16       -1.0318
  17       -0.9198
  18       -0.8951
  19       -0.8951
  20       -0.6746
  21       -0.6746
  22        1.6509
  23        4.8068
  24        4.8068
  25        7.7218
  26        7.7218
  27       10.5544
  28       10.5544
  29       10.6062
  30       10.7492
  31       10.7492
  32       12.7463
 
  0.2500000E+00  0.0000000E+00  0.0000000E+00  0.1286008E-03
   1       -3.9175
   2       -3.1598
   3       -3.1190
   4       -3.1049
   5       -3.1049
   6       -3.0299
   7       -3.0299
   8       -2.3418
   9       -1.9914
  10       -1.9914
  11       -1.5654
  12       -1.3323
  13       -1.3229
  14       -1.3229
  15       -1.0749
  16       -1.0749
  17       -0.9480
  18       -0.9480
  19       -0.9368
  20       -0.6746
  21       -0.6746
  22        1.2933
  23        5.0227
  24        5.0227
  25        7.7505
  26        7.7505
  27       10.2584
  28       10.2584
  29       10.5358
  30       10.5358
  31       11.1672
  32       12.9320
 
  0.2777778E+00  0.0000000E+00  0.0000000E+00  0.1286008E-03
   1       -3.7976
   2       -3.1215
   3       -3.0856
   4       -3.0558
   5       -3.0558
   6       -2.9743
   7       -2.9743
   8       -2.3794
   9       -1.9512
  10       -1.9512
  11       -1.5903
  12       -1.4386
  13       -1.4386
  14       -1.3148
  15       -1.1202
  16       -1.1202
  17       -1.0046
  18       -1.0046
  19       -0.9553
  20       -0.6745
  21       -0.6745
  22        0.9437
  23        5.2534
  24        5.2534
  25        7.7823
  26        7.7823
  27        9.9543
  28        9.9543
  29       10.3315
  30       10.3315
  31       11.7445
  32       13.1364
 
  0.3055556E+00  0.0000000E+00  0.0000000E+00  0.1286008E-03
   1       -3.6704
   2       -3.0823
   3       -3.0495
   4       -3.0058
   5       -3.0058
   6       -2.9130
   7       -2.9130
   8       -2.4195
   9       -1.9074
  10       -1.9074
  11       -1.6113
  12       -1.5558
  13       -1.5558
  14       -1.2959
  15       -1.1668
  16       -1.1668
  17       -1.0642
  18       -1.0642
  19       -0.9751
  20       -0.6745
  21       -0.6745
  22        0.6047
  23        5.4970
  24        5.4970
  25        7.8170
  26        7.8170
  27        9.6447
  28        9.6447
  29       10.1395
  30       10.1395
  31       12.3359
  32       13.3586
 
  0.3333333E+00  0.0000000E+00  0.0000000E+00  0.1286008E-03
   1       -3.5389
   2       -3.0436
   3       -3.0110
   4       -2.9562
   5       -2.9562
   6       -2.8461
   7       -2.8461
   8       -2.4619
   9       -1.8600
  10       -1.8600
  11       -1.6732
  12       -1.6732
  13       -1.6252
  14       -1.2758
  15       -1.2132
  16       -1.2132
  17       -1.1263
  18       -1.1263
  19       -0.9962
  20       -0.6744
  21       -0.6744
  22        0.2786
  23        5.7521
  24        5.7521
  25        7.8539
  26        7.8539
  27        9.3318
  28        9.3318
  29        9.9628
  30        9.9628
  31       12.9392
  32       13.5977
 
  0.3611111E+00  0.0000000E+00  0.0000000E+00  0.1286008E-03
   1       -3.4072
   2       -3.0068
   3       -2.9701
   4       -2.9087
   5       -2.9087
   6       -2.7738
   7       -2.7738
   8       -2.5061
   9       -1.8093
  10       -1.8093
  11       -1.7898
  12       -1.7898
  13       -1.6279
  14       -1.2577
  15       -1.2577
  16       -1.2546
  17       -1.1902
  18       -1.1902
  19       -1.0182
  20       -0.6744
  21       -0.6744
  22       -0.0322
  23        6.0174
  24        6.0174
  25        7.8918
  26        7.8918
  27        9.0170
  28        9.0170
  29        9.8041
  30        9.8041
  31       13.5524
  32       13.8526
 
  0.3888889E+00  0.0000000E+00  0.0000000E+00  0.1286008E-03
   1       -3.2806
   2       -2.9743
   3       -2.9273
   4       -2.8655
   5       -2.8655
   6       -2.6960
   7       -2.6960
   8       -2.5519
   9       -1.9047
  10       -1.9047
  11       -1.7556
  12       -1.7556
  13       -1.6134
  14       -1.2985
  15       -1.2985
  16       -1.2552
  17       -1.2552
  18       -1.2324
  19       -1.0411
  20       -0.6743
  21       -0.6743
  22       -0.3252
  23        6.2918
  24        6.2918
  25        7.9289
  26        7.9289
  27        8.7020
  28        8.7020
  29        9.6665
  30        9.6665
  31       14.1225
  32       14.1227
 
  0.4166667E+00  0.0000000E+00  0.0000000E+00  0.1286008E-03
   1       -3.1658
   2       -2.9487
   3       -2.8828
   4       -2.8286
   5       -2.8286
   6       -2.6130
   7       -2.6130
   8       -2.5988
   9       -2.0172
  10       -2.0172
  11       -1.6991
  12       -1.6991
  13       -1.5747
  14       -1.3335
  15       -1.3335
  16       -1.3209
  17       -1.3209
  18       -1.2094
  19       -1.0647
  20       -0.6743
  21       -0.6743
  22       -0.5975
  23        6.5743
  24        6.5743
  25        7.9630
  26        7.9630
  27        8.3879
  28        8.3879
  29        9.5534
  30        9.5534
  31       14.4064
  32       14.4064
 
  0.4444444E+00  0.0000000E+00  0.0000000E+00  0.1286008E-03
   1       -3.0700
   2       -2.9337
   3       -2.8370
   4       -2.8001
   5       -2.8001
   6       -2.6464
   7       -2.5250
   8       -2.5250
   9       -2.1267
  10       -2.1267
  11       -1.6401
  12       -1.6401
  13       -1.5045
  14       -1.3866
  15       -1.3866
  16       -1.3605
  17       -1.3605
  18       -1.1858
  19       -1.0887
  20       -0.8453
  21       -0.6743
  22       -0.6743
  23        6.8638
  24        6.8638
  25        7.9909
  26        7.9909
  27        8.0756
  28        8.0756
  29        9.4686
  30        9.4686
  31       14.7033
  32       14.7033
 
  0.4722222E+00  0.0000000E+00  0.0000000E+00  0.1286008E-03
   1       -2.9988
   2       -2.9338
   3       -2.7900
   4       -2.7822
   5       -2.7822
   6       -2.6944
   7       -2.4321
   8       -2.4321
   9       -2.2326
  10       -2.2326
  11       -1.5790
  12       -1.5790
  13       -1.4518
  14       -1.4518
  15       -1.3969
  16       -1.3776
  17       -1.3776
  18       -1.1617
  19       -1.1130
  20       -1.0643
  21       -0.6742
  22       -0.6742
  23        7.1595
  24        7.1595
  25        7.7662
  26        7.7662
  27        8.0095
  28        8.0095
  29        9.4156
  30        9.4156
  31       15.0121
  32       15.0121
 
  0.5000000E+00  0.0000000E+00  0.0000000E+00  0.6430041E-04
   1       -2.9541
   2       -2.9541
   3       -2.7760
   4       -2.7760
   5       -2.7424
   6       -2.7424
   7       -2.3345
   8       -2.3345
   9       -2.3345
  10       -2.3345
  11       -1.5161
  12       -1.5161
  13       -1.5161
  14       -1.5161
  15       -1.3834
  16       -1.3834
  17       -1.2496
  18       -1.2496
  19       -1.1374
  20       -1.1374
  21       -0.6742
  22       -0.6742
  23        7.4606
  24        7.4606
  25        7.4606
  26        7.4606
  27        8.0160
  28        8.0160
  29        9.3976
  30        9.3976
  31       15.3318
  32       15.3318
 
  0.2777778E-01  0.2777778E-01  0.0000000E+00  0.2572016E-03
   1       -4.4525
   2       -3.3441
   3       -3.3441
   4       -3.3434
   5       -3.2638
   6       -3.2638
   7       -3.2626
   8       -2.1711
   9       -2.1650
  10       -2.1635
  11       -1.4144
  12       -1.4111
  13       -0.8579
  14       -0.8562
  15       -0.8562
  16       -0.6928
  17       -0.6888
  18       -0.6888
  19       -0.6786
  20       -0.6786
  21       -0.6775
  22        3.8317
  23        3.8317
  24        3.9111
  25        7.6196
  26        7.6929
  27        7.6929
  28       11.8801
  29       12.0019
  30       12.0019
  31       12.0020
  32       12.0020
 
  0.5555556E-01  0.2777778E-01  0.0000000E+00  0.5144033E-03
   1       -4.4314
   2       -3.3364
   3       -3.3341
   4       -3.3337
   5       -3.2580
   6       -3.2549
   7       -3.2535
   8       -2.1772
   9       -2.1590
  10       -2.1569
  11       -1.4206
  12       -1.4086
  13       -0.8669
  14       -0.8655
  15       -0.8598
  16       -0.7216
  17       -0.7188
  18       -0.6996
  19       -0.6898
  20       -0.6788
  21       -0.6786
  22        3.6563
  23        3.8801
  24        3.9598
  25        7.6244
  26        7.6981
  27        7.9040
  28       11.7208
  29       11.9132
  30       11.9141
  31       12.0361
  32       12.0367
 
  0.8333333E-01  0.2777778E-01  0.0000000E+00  0.5144033E-03
   1       -4.3963
   2       -3.3236
   3       -3.3176
   4       -3.3175
   5       -3.2485
   6       -3.2401
   7       -3.2384
   8       -2.1884
   9       -2.1480
  10       -2.1459
  11       -1.4316
  12       -1.4036
  13       -0.8817
  14       -0.8812
  15       -0.8659
  16       -0.7700
  17       -0.7669
  18       -0.7173
  19       -0.7081
  20       -0.6791
  21       -0.6786
  22        3.3984
  23        3.9592
  24        4.0394
  25        7.6324
  26        7.7070
  27        8.2213
  28       11.5226
  29       11.7722
  30       11.7781
  31       11.9684
  32       12.0944
 
  0.1111111E+00  0.2777778E-01  0.0000000E+00  0.5144033E-03
   1       -4.3474
   2       -3.3059
   3       -3.2954
   4       -3.2947
   5       -3.2352
   6       -3.2195
   7       -3.2171
   8       -2.2040
   9       -2.1326
  10       -2.1305
  11       -1.4468
  12       -1.3965
  13       -0.9042
  14       -0.9021
  15       -0.8746
  16       -0.8352
  17       -0.8301
  18       -0.7416
  19       -0.7334
  20       -0.6792
  21       -0.6786
  22        3.0879
  23        4.0668
  24        4.1479
  25        7.6437
  26        7.7195
  27        8.6149
  28       11.2955
  29       11.5871
  30       11.6055
  31       11.8499
  32       12.1746
 
  0.1388889E+00  0.2777778E-01  0.0000000E+00  0.5144033E-03
   1       -4.2850
   2       -3.2836
   3       -3.2674
   4       -3.2658
   5       -3.2183
   6       -3.1929
   7       -3.1899
   8       -2.2239
   9       -2.1128
  10       -2.1108
  11       -1.4657
  12       -1.3873
  13       -0.9411
  14       -0.9280
  15       -0.9146
  16       -0.8992
  17       -0.8859
  18       -0.7719
  19       -0.7652
  20       -0.6792
  21       -0.6786
  22        2.7471
  23        4.2005
  24        4.2829
  25        7.6583
  26        7.7357
  27        9.0627
  28       11.0481
  29       11.3665
  30       11.4081
  31       11.6898
  32       12.2773
 
  0.1666667E+00  0.2777778E-01  0.0000000E+00  0.5144033E-03
   1       -4.2096
   2       -3.2570
   3       -3.2340
   4       -3.2315
   5       -3.1978
   6       -3.1605
   7       -3.1567
   8       -2.2478
   9       -2.0887
  10       -2.0869
  11       -1.4878
  12       -1.3763
  13       -1.0150
  14       -1.0058
  15       -0.9590
  16       -0.9479
  17       -0.9005
  18       -0.8071
  19       -0.8032
  20       -0.6792
  21       -0.6785
  22        2.3906
  23        4.3576
  24        4.4417
  25        7.6763
  26        7.7557
  27        9.5501
  28       10.7872
  29       11.1184
  30       11.1961
  31       11.4990
  32       12.4016
 
  0.1944444E+00  0.2777778E-01  0.0000000E+00  0.5144033E-03
   1       -4.1216
   2       -3.2266
   3       -3.1958
   4       -3.1923
   5       -3.1739
   6       -3.1222
   7       -3.1176
   8       -2.2755
   9       -2.0604
  10       -2.0589
  11       -1.5122
  12       -1.3635
  13       -1.1121
  14       -1.1061
  15       -0.9945
  16       -0.9872
  17       -0.9195
  18       -0.8467
  19       -0.8452
  20       -0.6791
  21       -0.6785
  22        2.0282
  23        4.5354
  24        4.6217
  25        7.6976
  26        7.7796
  27       10.0675
  28       10.5177
  29       10.8493
  30       10.9777
  31       11.2875
  32       12.5456
 
  0.2222222E+00  0.2777778E-01  0.0000000E+00  0.5144033E-03
   1       -4.0218
   2       -3.1928
   3       -3.1533
   4       -3.1489
   5       -3.1467
   6       -3.0782
   7       -3.0727
   8       -2.3067
   9       -2.0280
  10       -2.0269
  11       -1.5380
  12       -1.3489
  13       -1.2184
  14       -1.2134
  15       -1.0341
  16       -1.0282
  17       -0.9461
  18       -0.8952
  19       -0.8827
  20       -0.6790
  21       -0.6784
  22        1.6661
  23        4.7314
  24        4.8205
  25        7.7223
  26        7.8074
  27       10.2429
  28       10.5646
  29       10.6086
  30       10.7595
  31       11.0642
  32       12.7106
 
  0.2500000E+00  0.2777778E-01  0.0000000E+00  0.5144033E-03
   1       -3.9114
   2       -3.1563
   3       -3.1163
   4       -3.1072
   5       -3.1021
   6       -3.0284
   7       -3.0224
   8       -2.3412
   9       -1.9916
  10       -1.9911
  11       -1.5639
  12       -1.3326
  13       -1.3302
  14       -1.3255
  15       -1.0769
  16       -1.0719
  17       -0.9844
  18       -0.9481
  19       -0.9145
  20       -0.6789
  21       -0.6784
  22        1.3089
  23        4.9433
  24        5.0360
  25        7.7501
  26        7.8391
  27        9.9651
  28       10.2685
  29       10.5465
  30       10.8367
  31       11.1690
  32       12.8959
 
  0.2777778E+00  0.2777778E-01  0.0000000E+00  0.5144033E-03
   1       -3.7916
   2       -3.1179
   3       -3.0831
   4       -3.0585
   5       -3.0530
   6       -2.9728
   7       -2.9667
   8       -2.3786
   9       -1.9519
  10       -1.9514
  11       -1.5879
  12       -1.4451
  13       -1.4407
  14       -1.3149
  15       -1.1221
  16       -1.1177
  17       -1.0335
  18       -1.0047
  19       -0.9408
  20       -0.6789
  21       -0.6784
  22        0.9597
  23        5.1692
  24        5.2662
  25        7.7806
  26        7.8745
  27        9.6855
  28        9.9644
  29       10.3429
  30       10.6115
  31       11.7457
  32       13.0977
 
  0.3055556E+00  0.2777778E-01  0.0000000E+00  0.5144033E-03
   1       -3.6647
   2       -3.0787
   3       -3.0471
   4       -3.0083
   5       -3.0029
   6       -2.9117
   7       -2.9058
   8       -2.4187
   9       -1.9095
  10       -1.9075
  11       -1.6074
  12       -1.5617
  13       -1.5575
  14       -1.2957
  15       -1.1685
  16       -1.1645
  17       -1.0897
  18       -1.0644
  19       -0.9647
  20       -0.6788
  21       -0.6783
  22        0.6213
  23        5.4071
  24        5.5094
  25        7.8127
  26        7.9132
  27        9.4053
  28        9.6548
  29       10.1522
  30       10.3944
  31       12.3359
  32       13.3193
 
  0.3333333E+00  0.2777778E-01  0.0000000E+00  0.5144033E-03
   1       -3.5335
   2       -3.0398
   3       -3.0086
   4       -2.9582
   5       -2.9533
   6       -2.8449
   7       -2.8398
   8       -2.4609
   9       -1.8649
  10       -1.8602
  11       -1.6786
  12       -1.6746
  13       -1.6188
  14       -1.2752
  15       -1.2147
  16       -1.2112
  17       -1.1501
  18       -1.1264
  19       -0.9882
  20       -0.6787
  21       -0.6783
  22        0.2961
  23        5.6554
  24        5.7642
  25        7.8447
  26        7.9545
  27        9.1258
  28        9.3418
  29        9.9774
  30       10.1901
  31       12.9371
  32       13.5575
 
  0.3611111E+00  0.2777778E-01  0.0000000E+00  0.5144033E-03
   1       -3.4020
   2       -3.0030
   3       -2.9679
   4       -2.9100
   5       -2.9058
   6       -2.7726
   7       -2.7685
   8       -2.5051
   9       -1.8190
  10       -1.8095
  11       -1.7946
  12       -1.7909
  13       -1.6169
  14       -1.2590
  15       -1.2561
  16       -1.2537
  17       -1.2133
  18       -1.1903
  19       -1.0118
  20       -0.6786
  21       -0.6783
  22       -0.0136
  23        5.9125
  24        6.0292
  25        7.8727
  26        7.9970
  27        8.8502
  28        9.0271
  29        9.8217
  30       10.0031
  31       13.5438
  32       13.8131
 
  0.3888889E+00  0.2777778E-01  0.0000000E+00  0.5144033E-03
   1       -3.2757
   2       -2.9703
   3       -2.9252
   4       -2.8658
   5       -2.8625
   6       -2.6950
   7       -2.6921
   8       -2.5507
   9       -1.9089
  10       -1.9055
  11       -1.7726
  12       -1.7558
  13       -1.5953
  14       -1.2996
  15       -1.2972
  16       -1.2785
  17       -1.2554
  18       -1.2311
  19       -1.0359
  20       -0.6785
  21       -0.6783
  22       -0.3052
  23        6.1770
  24        6.3033
  25        7.8873
  26        8.0389
  27        8.5866
  28        8.7121
  29        9.6888
  30        9.8374
  31       14.0482
  32       14.0777
 
  0.4166667E+00  0.2777778E-01  0.0000000E+00  0.5144033E-03
   1       -3.1611
   2       -2.9447
   3       -2.8808
   4       -2.8280
   5       -2.8256
   6       -2.6122
   7       -2.6105
   8       -2.5975
   9       -2.0207
  10       -2.0177
  11       -1.7246
  12       -1.6993
  13       -1.5486
  14       -1.3450
  15       -1.3344
  16       -1.3324
  17       -1.3210
  18       -1.2077
  19       -1.0605
  20       -0.6785
  21       -0.6783
  22       -0.5756
  23        6.4473
  24        6.5855
  25        7.8626
  26        8.0777
  27        8.3591
  28        8.3980
  29        9.5827
  30        9.6970
  31       14.3433
  32       14.3585
 
  0.4444444E+00  0.2777778E-01  0.0000000E+00  0.5144033E-03
   1       -3.0655
   2       -2.9295
   3       -2.8350
   4       -2.7988
   5       -2.7973
   6       -2.6450
   7       -2.5243
   8       -2.5237
   9       -2.1294
  10       -2.1269
  11       -1.6716
  12       -1.6403
  13       -1.4729
  14       -1.4123
  15       -1.3867
  16       -1.3611
  17       -1.3598
  18       -1.1835
  19       -1.0855
  20       -0.8208
  21       -0.6784
  22       -0.6783
  23        6.7214
  24        6.8747
  25        7.7449
  26        8.0859
  27        8.1105
  28        8.2192
  29        9.5079
  30        9.5859
  31       14.6377
  32       14.6516
 
  0.4722222E+00  0.2777778E-01  0.0000000E+00  0.5144033E-03
   1       -2.9944
   2       -2.9295
   3       -2.7882
   4       -2.7802
   5       -2.7795
   6       -2.6928
   7       -2.4319
   8       -2.4316
   9       -2.2345
  10       -2.2325
  11       -1.6117
  12       -1.5792
  13       -1.4798
  14       -1.4520
  15       -1.3779
  16       -1.3772
  17       -1.3648
  18       -1.1588
  19       -1.1120
  20       -1.0351
  21       -0.6784
  22       -0.6783
  23        6.9970
  24        7.1702
  25        7.5287
  26        7.7767
  27        8.1348
  28        8.1693
  29        9.4690
  30        9.5087
  31       14.9418
  32       14.9558
 
  0.5000000E+00  0.2777778E-01  0.0000000E+00  0.2572016E-03
   1       -2.9497
   2       -2.9497
   3       -2.7736
   4       -2.7736
   5       -2.7407
   6       -2.7407
   7       -2.3354
   8       -2.3354
   9       -2.3342
  10       -2.3342
  11       -1.5469
  12       -1.5469
  13       -1.5163
  14       -1.5163
  15       -1.3834
  16       -1.3834
  17       -1.2212
  18       -1.2212
  19       -1.1328
  20       -1.1328
  21       -0.6783
  22       -0.6783
  23        7.2695
  24        7.2695
  25        7.4712
  26        7.4712
  27        8.1514
  28        8.1514
  29        9.4690
  30        9.4690
  31       15.2574
  32       15.2654
 
  0.5555556E-01  0.5555556E-01  0.0000000E+00  0.2572016E-03
   1       -4.4103
   2       -3.3263
   3       -3.3263
   4       -3.3247
   5       -3.2492
   6       -3.2492
   7       -3.2438
   8       -2.1804
   9       -2.1559
  10       -2.1504
  11       -1.4231
  12       -1.4096
  13       -0.8757
  14       -0.8703
  15       -0.8703
  16       -0.7447
  17       -0.7284
  18       -0.7284
  19       -0.6898
  20       -0.6898
  21       -0.6852
  22        3.7035
  23        3.7035
  24        4.0079
  25        7.6291
  26        7.9104
  27        7.9104
  28       11.5015
  29       11.9476
  30       11.9476
  31       11.9482
  32       11.9482
 
  0.8333333E-01  0.5555556E-01  0.0000000E+00  0.5144033E-03
   1       -4.3754
   2       -3.3135
   3       -3.3099
   4       -3.3097
   5       -3.2397
   6       -3.2345
   7       -3.2275
   8       -2.1897
   9       -2.1468
  10       -2.1396
  11       -1.4322
  12       -1.4062
  13       -0.8903
  14       -0.8888
  15       -0.8786
  16       -0.7889
  17       -0.7738
  18       -0.7441
  19       -0.7081
  20       -0.6898
  21       -0.6888
  22        3.4443
  23        3.7805
  24        4.0867
  25        7.6370
  26        7.9210
  27        8.2288
  28       11.2548
  29       11.8059
  30       11.8112
  31       12.0046
  32       12.0047
 
  0.1111111E+00  0.5555556E-01  0.0000000E+00  0.5144033E-03
   1       -4.3267
   2       -3.2958
   3       -3.2894
   4       -3.2868
   5       -3.2265
   6       -3.2139
   7       -3.2048
   8       -2.2044
   9       -2.1321
  10       -2.1246
  11       -1.4466
  12       -1.3993
  13       -0.9181
  14       -0.9105
  15       -0.8906
  16       -0.8514
  17       -0.8307
  18       -0.7650
  19       -0.7334
  20       -0.6904
  21       -0.6898
  22        3.1329
  23        3.8852
  24        4.1941
  25        7.6481
  26        7.9361
  27        8.6232
  28       10.9893
  29       11.6201
  30       11.6376
  31       12.0777
  32       12.0834
 
  0.1388889E+00  0.5555556E-01  0.0000000E+00  0.5144033E-03
   1       -4.2647
   2       -3.2734
   3       -3.2635
   4       -3.2579
   5       -3.2097
   6       -3.1875
   7       -3.1759
   8       -2.2237
   9       -2.1127
  10       -2.1054
  11       -1.4650
  12       -1.3901
  13       -0.9672
  14       -0.9360
  15       -0.9289
  16       -0.9072
  17       -0.8874
  18       -0.7902
  19       -0.7653
  20       -0.6912
  21       -0.6898
  22        2.7915
  23        4.0150
  24        4.3278
  25        7.6624
  26        7.9556
  27        9.0714
  28       10.7121
  29       11.3988
  30       11.4394
  31       11.9773
  32       12.1836
 
  0.1666667E+00  0.5555556E-01  0.0000000E+00  0.5144033E-03
   1       -4.1896
   2       -3.2468
   3       -3.2324
   4       -3.2236
   5       -3.1894
   6       -3.1552
   7       -3.1408
   8       -2.2472
   9       -2.0888
  10       -2.0821
  11       -1.4865
  12       -1.3787
  13       -1.0428
  14       -1.0182
  15       -0.9666
  16       -0.9342
  17       -0.9294
  18       -0.8180
  19       -0.8033
  20       -0.6915
  21       -0.6898
  22        2.4348
  23        4.1671
  24        4.4852
  25        7.6799
  26        7.9797
  27        9.5587
  28       10.4287
  29       11.1501
  30       11.2268
  31       11.8334
  32       12.3056
 
  0.1944444E+00  0.5555556E-01  0.0000000E+00  0.5144033E-03
   1       -4.1020
   2       -3.2162
   3       -3.1964
   4       -3.1842
   5       -3.1656
   6       -3.1171
   7       -3.1000
   8       -2.2745
   9       -2.0606
  10       -2.0549
  11       -1.5103
  12       -1.3653
  13       -1.1367
  14       -1.1170
  15       -1.0017
  16       -0.9764
  17       -0.9585
  18       -0.8469
  19       -0.8464
  20       -0.6917
  21       -0.6898
  22        2.0726
  23        4.3388
  24        4.6639
  25        7.7003
  26        8.0084
  27       10.0754
  28       10.1432
  29       10.8804
  30       11.0082
  31       11.6571
  32       12.4468
 
  0.2222222E+00  0.5555556E-01  0.0000000E+00  0.5144033E-03
   1       -4.0028
   2       -3.1823
   3       -3.1560
   4       -3.1407
   5       -3.1386
   6       -3.0733
   7       -3.0538
   8       -2.3054
   9       -2.0283
  10       -2.0241
  11       -1.5352
  12       -1.3501
  13       -1.2406
  14       -1.2227
  15       -1.0408
  16       -1.0193
  17       -0.9954
  18       -0.8954
  19       -0.8741
  20       -0.6917
  21       -0.6898
  22        1.7110
  23        4.5274
  24        4.8614
  25        7.7234
  26        8.0416
  27        9.8588
  28       10.5953
  29       10.6154
  30       10.7905
  31       11.4586
  32       12.6084
 
  0.2500000E+00  0.5555556E-01  0.0000000E+00  0.5144033E-03
   1       -3.8929
   2       -3.1456
   3       -3.1115
   4       -3.1085
   5       -3.0938
   6       -3.0237
   7       -3.0025
   8       -2.3395
   9       -1.9920
  10       -1.9901
  11       -1.5596