   4   4   0   0
  0.2417781E+02  0.4590137E-09  0.4590137E-09  0.4590137E-09  0.5000000E-15
  1.000000000000000E-004
  CAR 
 unknown system                          
     11.84818805     -5.45879332  301      2.08786805      1.00000000
     -5.459  0.0000E+00  0.0000E+00
     -5.401  0.0000E+00  0.0000E+00
     -5.343  0.0000E+00  0.0000E+00
     -5.286  0.0000E+00  0.0000E+00
     -5.228  0.0000E+00  0.0000E+00
     -5.170  0.0000E+00  0.0000E+00
     -5.113  0.0000E+00  0.0000E+00
     -5.055  0.0000E+00  0.0000E+00
     -4.997  0.0000E+00  0.0000E+00
     -4.940  0.0000E+00  0.0000E+00
     -4.882  0.0000E+00  0.0000E+00
     -4.824  0.0000E+00  0.0000E+00
     -4.767  0.0000E+00  0.0000E+00
     -4.709  0.2089E-08  0.1205E-09
     -4.651  0.2003E-01  0.1156E-02
     -4.593  0.1200E+00  0.8076E-02
     -4.536  0.2395E+00  0.2189E-01
     -4.478  0.1606E+00  0.3116E-01
     -4.420  0.1194E+00  0.3805E-01
     -4.363  0.4743E+00  0.6541E-01
     -4.305  0.4843E+00  0.9335E-01
     -4.247  0.6866E-02  0.9375E-01
     -4.190  0.2385E+00  0.1075E+00
     -4.132  0.5992E+00  0.1421E+00
     -4.074  0.4807E+00  0.1698E+00
     -4.017  0.4863E+00  0.1979E+00
     -3.959  0.1614E+00  0.2072E+00
     -3.901  0.4823E+00  0.2350E+00
     -3.843  0.9622E+00  0.2905E+00
     -3.786  0.1468E-05  0.2905E+00
     -3.728  0.5172E+00  0.3203E+00
     -3.670  0.6357E+00  0.3570E+00
     -3.613  0.1109E+01  0.4210E+00
     -3.555  0.2868E+00  0.4375E+00
     -3.497  0.1580E+01  0.5287E+00
     -3.440  0.8453E-01  0.5336E+00
     -3.382  0.4599E+00  0.5601E+00
     -3.324  0.1041E+00  0.5661E+00
     -3.267  0.1649E+01  0.6612E+00
     -3.209  0.1061E+01  0.7225E+00
     -3.151  0.8582E+00  0.7720E+00
     -3.094  0.6782E+00  0.8111E+00
     -3.036  0.1248E+01  0.8831E+00
     -2.978  0.1271E+01  0.9564E+00
     -2.920  0.7932E+00  0.1002E+01
     -2.863  0.2413E+01  0.1141E+01
     -2.805  0.9056E+00  0.1194E+01
     -2.747  0.2055E+01  0.1312E+01
     -2.690  0.2883E+01  0.1479E+01
     -2.632  0.5055E+01  0.1770E+01
     -2.574  0.2347E+01  0.1906E+01
     -2.517  0.5365E+01  0.2215E+01
     -2.459  0.4416E+01  0.2470E+01
     -2.401  0.3783E+01  0.2688E+01
     -2.344  0.9359E+01  0.3228E+01
     -2.286  0.8653E+01  0.3727E+01
     -2.228  0.9964E+01  0.4302E+01
     -2.170  0.1488E+02  0.5161E+01
     -2.113  0.1026E+02  0.5752E+01
     -2.055  0.1418E+02  0.6571E+01
     -1.997  0.1095E+02  0.7202E+01
     -1.940  0.9902E+01  0.7773E+01
     -1.882  0.1203E+02  0.8467E+01
     -1.824  0.9836E+01  0.9035E+01
     -1.767  0.8076E+01  0.9500E+01
     -1.709  0.8949E+01  0.1002E+02
     -1.651  0.7981E+01  0.1048E+02
     -1.594  0.1081E+02  0.1110E+02
     -1.536  0.1067E+02  0.1172E+02
     -1.478  0.1630E+02  0.1266E+02
     -1.420  0.1503E+02  0.1352E+02
     -1.363  0.1765E+02  0.1454E+02
     -1.305  0.1515E+02  0.1542E+02
     -1.247  0.1178E+02  0.1610E+02
     -1.190  0.1413E+02  0.1691E+02
     -1.132  0.1728E+02  0.1791E+02
     -1.074  0.2176E+02  0.1916E+02
     -1.017  0.2807E+02  0.2078E+02
     -0.959  0.1687E+02  0.2176E+02
     -0.901  0.1651E+02  0.2271E+02
     -0.844  0.1500E+02  0.2358E+02
     -0.786  0.1196E+02  0.2427E+02
     -0.728  0.1316E+02  0.2502E+02
     -0.671  0.1311E+02  0.2578E+02
     -0.613  0.1246E+02  0.2650E+02
     -0.555  0.1430E+02  0.2733E+02
     -0.497  0.1648E+02  0.2828E+02
     -0.440  0.1697E+02  0.2926E+02
     -0.382  0.1863E+02  0.3033E+02
     -0.324  0.1341E+02  0.3110E+02
     -0.267  0.1457E+02  0.3194E+02
     -0.209  0.1335E+02  0.3271E+02
     -0.151  0.1205E+02  0.3341E+02
     -0.094  0.1327E+02  0.3417E+02
     -0.036  0.1308E+02  0.3493E+02
      0.022  0.1296E+02  0.3568E+02
      0.079  0.1451E+02  0.3651E+02
      0.137  0.2063E+02  0.3770E+02
      0.195  0.1807E+02  0.3875E+02
      0.253  0.2564E+02  0.4023E+02
      0.310  0.1076E+02  0.4085E+02
      0.368  0.1334E+02  0.4162E+02
      0.426  0.4619E+01  0.4188E+02
      0.483  0.7769E+00  0.4193E+02
      0.541  0.4380E+00  0.4195E+02
      0.599  0.5118E+00  0.4198E+02
      0.656  0.1285E+01  0.4206E+02
      0.714  0.3417E+01  0.4225E+02
      0.772  0.2240E+01  0.4238E+02
      0.829  0.7076E-01  0.4239E+02
      0.887  0.1463E+01  0.4247E+02
      0.945  0.1302E+01  0.4255E+02
      1.002  0.2749E+00  0.4256E+02
      1.060  0.5170E+00  0.4259E+02
      1.118  0.2483E+01  0.4273E+02
      1.176  0.2684E+01  0.4289E+02
      1.233  0.1132E+01  0.4296E+02
      1.291  0.6795E+00  0.4299E+02
      1.349  0.1693E+01  0.4309E+02
      1.406  0.1914E+01  0.4320E+02
      1.464  0.8422E-01  0.4321E+02
      1.522  0.4203E+00  0.4323E+02
      1.579  0.1694E+01  0.4333E+02
      1.637  0.1979E+01  0.4344E+02
      1.695  0.1755E+01  0.4354E+02
      1.752  0.2064E+01  0.4366E+02
      1.810  0.1038E+01  0.4372E+02
      1.868  0.1379E+01  0.4380E+02
      1.926  0.8566E-01  0.4381E+02
      1.983  0.1628E+01  0.4390E+02
      2.041  0.3084E+00  0.4392E+02
      2.099  0.1873E+01  0.4403E+02
      2.156  0.2027E+01  0.4414E+02
      2.214  0.2128E+01  0.4427E+02
      2.272  0.2165E+01  0.4439E+02
      2.329  0.9939E-01  0.4440E+02
      2.387  0.1385E+01  0.4448E+02
      2.445  0.1921E+01  0.4459E+02
      2.502  0.9270E-01  0.4459E+02
      2.560  0.1237E+01  0.4467E+02
      2.618  0.1886E+01  0.4477E+02
      2.675  0.1476E+01  0.4486E+02
      2.733  0.2820E+01  0.4502E+02
      2.791  0.1617E+01  0.4512E+02
      2.849  0.1306E+01  0.4519E+02
      2.906  0.3399E-02  0.4519E+02
      2.964  0.1483E+01  0.4528E+02
      3.022  0.9249E+00  0.4533E+02
      3.079  0.2603E+01  0.4548E+02
      3.137  0.1729E+01  0.4558E+02
      3.195  0.1198E+00  0.4559E+02
      3.252  0.2238E+01  0.4572E+02
      3.310  0.1974E+01  0.4583E+02
      3.368  0.8078E+00  0.4588E+02
      3.425  0.5605E+00  0.4591E+02
      3.483  0.1203E+01  0.4598E+02
      3.541  0.3478E+01  0.4618E+02
      3.599  0.8816E+00  0.4623E+02
      3.656  0.1802E+01  0.4633E+02
      3.714  0.3001E+01  0.4651E+02
      3.772  0.1503E+01  0.4659E+02
      3.829  0.7597E+00  0.4664E+02
      3.887  0.1635E+01  0.4673E+02
      3.945  0.2868E+01  0.4690E+02
      4.002  0.1200E+01  0.4697E+02
      4.060  0.2710E+01  0.4712E+02
      4.118  0.9603E+00  0.4718E+02
      4.175  0.1299E+01  0.4725E+02
      4.233  0.2961E+01  0.4742E+02
      4.291  0.8205E+00  0.4747E+02
      4.348  0.2262E+01  0.4760E+02
      4.406  0.1089E+01  0.4766E+02
      4.464  0.2210E+01  0.4779E+02
      4.522  0.1859E+01  0.4790E+02
      4.579  0.7227E+00  0.4794E+02
      4.637  0.7627E+00  0.4798E+02
      4.695  0.2616E+01  0.4814E+02
      4.752  0.9604E+00  0.4819E+02
      4.810  0.9784E+00  0.4825E+02
      4.868  0.1156E+01  0.4831E+02
      4.925  0.3728E+00  0.4834E+02
      4.983  0.1723E+01  0.4844E+02
      5.041  0.8391E+00  0.4848E+02
      5.098  0.9575E+00  0.4854E+02
      5.156  0.8134E+00  0.4859E+02
      5.214  0.1722E+01  0.4869E+02
      5.272  0.1797E+01  0.4879E+02
      5.329  0.1593E+01  0.4888E+02
      5.387  0.1199E+01  0.4895E+02
      5.445  0.6231E+00  0.4899E+02
      5.502  0.1824E+01  0.4909E+02
      5.560  0.8955E+00  0.4914E+02
      5.618  0.9477E+00  0.4920E+02
      5.675  0.1348E+01  0.4928E+02
      5.733  0.1030E+01  0.4933E+02
      5.791  0.7316E+00  0.4938E+02
      5.848  0.1446E+01  0.4946E+02
      5.906  0.1201E+01  0.4953E+02
      5.964  0.1251E+01  0.4960E+02
      6.022  0.2384E+01  0.4974E+02
      6.079  0.2950E-01  0.4974E+02
      6.137  0.1514E+01  0.4983E+02
      6.195  0.2541E+01  0.4997E+02
      6.252  0.6556E+00  0.5001E+02
      6.310  0.4104E+01  0.5025E+02
      6.368  0.1214E+01  0.5032E+02
      6.425  0.3536E+01  0.5052E+02
      6.483  0.2161E+01  0.5065E+02
      6.541  0.2426E+01  0.5079E+02
      6.598  0.8311E+00  0.5084E+02
      6.656  0.3173E+01  0.5102E+02
      6.714  0.1051E+01  0.5108E+02
      6.771  0.1590E+01  0.5117E+02
      6.829  0.2264E+01  0.5130E+02
      6.887  0.3544E-09  0.5130E+02
      6.945  0.1288E+01  0.5138E+02
      7.002  0.2474E+01  0.5152E+02
      7.060  0.5954E+00  0.5155E+02
      7.118  0.1900E+01  0.5166E+02
      7.175  0.9632E+00  0.5172E+02
      7.233  0.1241E-02  0.5172E+02
      7.291  0.8858E+00  0.5177E+02
      7.348  0.3536E+00  0.5179E+02
      7.406  0.2564E+01  0.5194E+02
      7.464  0.2696E+01  0.5209E+02
      7.521  0.2123E+01  0.5222E+02
      7.579  0.1730E+01  0.5232E+02
      7.637  0.3057E+01  0.5249E+02
      7.695  0.2719E+01  0.5265E+02
      7.752  0.4952E+00  0.5268E+02
      7.810  0.1992E+01  0.5279E+02
      7.868  0.7354E+00  0.5284E+02
      7.925  0.8724E+00  0.5289E+02
      7.983  0.1886E+01  0.5299E+02
      8.041  0.8512E+00  0.5304E+02
      8.098  0.5875E+00  0.5308E+02
      8.156  0.1372E+01  0.5316E+02
      8.214  0.2088E+01  0.5328E+02
      8.271  0.2636E+01  0.5343E+02
      8.329  0.4618E+00  0.5346E+02
      8.387  0.1317E+01  0.5353E+02
      8.444  0.2004E+01  0.5365E+02
      8.502  0.8059E+00  0.5369E+02
      8.560  0.2195E+01  0.5382E+02
      8.618  0.2333E+01  0.5395E+02
      8.675  0.1244E+01  0.5403E+02
      8.733  0.4837E+00  0.5405E+02
      8.791  0.3308E+01  0.5425E+02
      8.848  0.3111E+01  0.5443E+02
      8.906  0.2964E+01  0.5460E+02
      8.964  0.8684E+00  0.5465E+02
      9.021  0.3493E+00  0.5467E+02
      9.079  0.1250E+01  0.5474E+02
      9.137  0.6759E+00  0.5478E+02
      9.194  0.2108E+01  0.5490E+02
      9.252  0.1735E+01  0.5500E+02
      9.310  0.2569E+01  0.5515E+02
      9.368  0.5549E+00  0.5518E+02
      9.425  0.8229E+00  0.5523E+02
      9.483  0.1224E+01  0.5530E+02
      9.541  0.1443E+01  0.5538E+02
      9.598  0.1927E+01  0.5549E+02
      9.656  0.4744E+00  0.5552E+02
      9.714  0.1479E+01  0.5560E+02
      9.771  0.1150E+01  0.5567E+02
      9.829  0.8818E+00  0.5572E+02
      9.887  0.1066E+01  0.5578E+02
      9.944  0.4685E-01  0.5579E+02
     10.002  0.9620E+00  0.5584E+02
     10.060  0.4690E-08  0.5584E+02
     10.117  0.4788E+00  0.5587E+02
     10.175  0.1872E+00  0.5588E+02
     10.233  0.3056E+00  0.5590E+02
     10.291  0.9544E+00  0.5595E+02
     10.348  0.2393E+00  0.5597E+02
     10.406  0.1420E-02  0.5597E+02
     10.464  0.2773E+00  0.5598E+02
     10.521  0.3529E-02  0.5598E+02
     10.579  0.0000E+00  0.5598E+02
     10.637  0.0000E+00  0.5598E+02
     10.694  0.0000E+00  0.5598E+02
     10.752  0.0000E+00  0.5598E+02
     10.810  0.0000E+00  0.5598E+02
     10.867  0.8634E-06  0.5598E+02
     10.925  0.1204E+00  0.5599E+02
     10.983  0.0000E+00  0.5599E+02
     11.041  0.4396E-02  0.5599E+02
     11.098  0.1762E+00  0.5600E+02
     11.156  0.0000E+00  0.5600E+02
     11.214  0.0000E+00  0.5600E+02
     11.271  0.0000E+00  0.5600E+02
     11.329  0.0000E+00  0.5600E+02
     11.387  0.0000E+00  0.5600E+02
     11.444  0.0000E+00  0.5600E+02
     11.502  0.0000E+00  0.5600E+02
     11.560  0.0000E+00  0.5600E+02
     11.617  0.0000E+00  0.5600E+02
     11.675  0.0000E+00  0.5600E+02
     11.733  0.0000E+00  0.5600E+02
     11.790  0.0000E+00  0.5600E+02
     11.848  0.0000E+00  0.5600E+02
