    4    4    1    1
  0.2417781E+02  0.4590137E-09  0.4590137E-09  0.4590137E-09  0.5000000E-15
  1.000000000000000E-004
  CAR 
 unknown system                          
   44   84   28
 
  0.0000000E+00  0.0000000E+00  0.0000000E+00  0.5787037E-03
   1       -4.6721
   2       -2.4932
   3       -2.4932
   4       -2.4932
   5       -2.3405
   6       -2.3405
   7       -2.3405
   8       -1.2211
   9       -1.2211
  10       -1.2211
  11       -0.4158
  12       -0.4158
  13        0.1981
  14        0.1981
  15        0.1981
  16        0.3962
  17        0.3962
  18        0.3962
  19        0.3962
  20        0.3962
  21        0.3962
  22        3.9338
  23        3.9338
  24        3.9338
  25        5.5382
  26        5.5382
  27        5.5382
  28       11.0615
 
  0.8333333E-01  0.0000000E+00  0.0000000E+00  0.3472222E-02
   1       -4.6124
   2       -2.4773
   3       -2.4596
   4       -2.4596
   5       -2.3234
   6       -2.3139
   7       -2.3139
   8       -1.2424
   9       -1.2002
  10       -1.2002
  11       -0.4377
  12       -0.4058
  13        0.1679
  14        0.1679
  15        0.1870
  16        0.2888
  17        0.2888
  18        0.3585
  19        0.3585
  20        0.3962
  21        0.3962
  22        3.1785
  23        4.0912
  24        4.0912
  25        5.5125
  26        5.5125
  27        6.4009
  28       10.8981
 
  0.1666667E+00  0.0000000E+00  0.0000000E+00  0.3472222E-02
   1       -4.4348
   2       -2.4354
   3       -2.3626
   4       -2.3626
   5       -2.2727
   6       -2.2340
   7       -2.2340
   8       -1.3044
   9       -1.1380
  10       -1.1380
  11       -0.5005
  12       -0.3766
  13        0.0149
  14        0.0149
  15        0.0796
  16        0.0796
  17        0.1548
  18        0.2511
  19        0.2511
  20        0.3964
  21        0.3964
  22        2.0562
  23        4.5144
  24        4.5144
  25        5.4419
  26        5.4419
  27        7.8485
  28       10.4490
 
  0.2500000E+00  0.0000000E+00  0.0000000E+00  0.3472222E-02
   1       -4.1450
   2       -2.3875
   3       -2.2146
   4       -2.2146
   5       -2.1910
   6       -2.1012
   7       -2.1012
   8       -1.4014
   9       -1.0360
  10       -1.0360
  11       -0.5943
  12       -0.3398
  13       -0.3398
  14       -0.3299
  15       -0.0580
  16       -0.0580
  17        0.0891
  18        0.0891
  19        0.1039
  20        0.3966
  21        0.3966
  22        1.0125
  23        5.1144
  24        5.1144
  25        5.3448
  26        5.3448
  27        9.4479
  28        9.8071
 
  0.3333333E+00  0.0000000E+00  0.0000000E+00  0.3472222E-02
   1       -3.7559
   2       -2.3809
   3       -2.0827
   4       -2.0406
   5       -2.0406
   6       -1.9164
   7       -1.9164
   8       -1.5250
   9       -0.8974
  10       -0.8974
  11       -0.7134
  12       -0.7134
  13       -0.6992
  14       -0.2684
  15       -0.2235
  16       -0.2235
  17       -0.1080
  18       -0.1080
  19        0.0383
  20        0.1383
  21        0.3968
  22        0.3968
  23        5.2474
  24        5.2474
  25        5.8240
  26        5.8240
  27        9.0528
  28        9.0528
 
  0.4166667E+00  0.0000000E+00  0.0000000E+00  0.3472222E-02
   1       -3.2973
   2       -2.5065
   3       -1.9536
   4       -1.8863
   5       -1.8863
   6       -1.6809
   7       -1.6809
   8       -1.6652
   9       -1.0720
  10       -1.0720
  11       -0.7767
  12       -0.7267
  13       -0.7267
  14       -0.4711
  15       -0.3727
  16       -0.3727
  17       -0.3204
  18       -0.3204
  19       -0.1959
  20       -0.0372
  21        0.3969
  22        0.3969
  23        5.1762
  24        5.1762
  25        6.6010
  26        6.6010
  27        8.2429
  28        8.2429
 
  0.5000000E+00  0.0000000E+00  0.0000000E+00  0.1736111E-02
   1       -2.8381
   2       -2.8381
   3       -1.8208
   4       -1.8208
   5       -1.8114
   6       -1.8114
   7       -1.3977
   8       -1.3977
   9       -1.3977
  10       -1.3977
  11       -0.7469
  12       -0.7469
  13       -0.5311
  14       -0.5311
  15       -0.5311
  16       -0.5311
  17       -0.4366
  18       -0.4366
  19       -0.1171
  20       -0.1171
  21        0.3969
  22        0.3969
  23        5.1502
  24        5.1502
  25        7.4160
  26        7.4160
  27        7.4160
  28        7.4160
 
  0.8333333E-01  0.8333333E-01  0.0000000E+00  0.6944444E-02
   1       -4.5531
   2       -2.4434
   3       -2.4434
   4       -2.4320
   5       -2.2970
   6       -2.2970
   7       -2.2827
   8       -1.2498
   9       -1.1927
  10       -1.1810
  11       -0.4432
  12       -0.4103
  13        0.1392
  14        0.1407
  15        0.1407
  16        0.2149
  17        0.2632
  18        0.2632
  19        0.3584
  20        0.3584
  21        0.3702
  22        3.3128
  23        3.3128
  24        4.2415
  25        5.4831
  26        6.3950
  27        6.3950
  28       10.3304
 
  0.1666667E+00  0.8333333E-01  0.0000000E+00  0.1388889E-01
   1       -4.3772
   2       -2.4003
   3       -2.3516
   4       -2.3453
   5       -2.2474
   6       -2.2182
   7       -2.1906
   8       -1.3036
   9       -1.1371
  10       -1.1244
  11       -0.4972
  12       -0.3832
  13       -0.0760
  14       -0.0302
  15        0.0458
  16        0.0551
  17        0.1135
  18        0.2031
  19        0.2507
  20        0.3572
  21        0.3582
  22        2.2050
  23        3.6490
  24        4.6496
  25        5.4002
  26        6.3918
  27        7.8166
  28        9.6991
 
  0.2500000E+00  0.8333333E-01  0.0000000E+00  0.1388889E-01
   1       -4.0902
   2       -2.3505
   3       -2.2245
   4       -2.1954
   5       -2.1674
   6       -2.0872
   7       -2.0444
   8       -1.3967
   9       -1.0367
  10       -1.0349
  11       -0.5824
  12       -0.4204
  13       -0.3666
  14       -0.3308
  15       -0.1315
  16       -0.0765
  17       -0.0313
  18        0.0883
  19        0.1279
  20        0.3546
  21        0.3578
  22        1.2068
  23        4.0601
  24        5.2350
  25        5.2796
  26        6.4371
  27        9.0872
  28        9.3456
 
  0.3333333E+00  0.8333333E-01  0.0000000E+00  0.1388889E-01
   1       -3.7053
   2       -2.3414
   3       -2.0613
   4       -2.0607
   5       -2.0184
   6       -1.9051
   7       -1.8602
   8       -1.5167
   9       -0.9333
  10       -0.8986
  11       -0.7837
  12       -0.7272
  13       -0.6571
  14       -0.3942
  15       -0.2606
  16       -0.2350
  17       -0.1983
  18       -0.1091
  19        0.0275
  20        0.3544
  21        0.3573
  22        0.4391
  23        4.4311
  24        5.1427
  25        5.9333
  26        6.6019
  27        8.5084
  28        9.1457
 
  0.4166667E+00  0.8333333E-01  0.0000000E+00  0.1388889E-01
   1       -3.2514
   2       -2.4657
   3       -1.9351
   4       -1.8902
   5       -1.8614
   6       -1.6733
   7       -1.6571
   8       -1.6533
   9       -1.1254
  10       -1.0764
  11       -0.8940
  12       -0.7281
  13       -0.6989
  14       -0.6135
  15       -0.3757
  16       -0.3527
  17       -0.3217
  18       -0.1760
  19       -0.1748
  20        0.0551
  21        0.3550
  22        0.3566
  23        4.6952
  24        5.0063
  25        6.7023
  26        6.9357
  27        7.9483
  28        8.3362
 
  0.5000000E+00  0.8333333E-01  0.0000000E+00  0.6944444E-02
   1       -2.7962
   2       -2.7962
   3       -1.8007
   4       -1.8007
   5       -1.7961
   6       -1.7961
   7       -1.4210
   8       -1.4210
   9       -1.3952
  10       -1.3952
  11       -0.8712
  12       -0.8712
  13       -0.5325
  14       -0.5325
  15       -0.4306
  16       -0.4306
  17       -0.4278
  18       -0.4278
  19       -0.0782
  20       -0.0782
  21        0.3558
  22        0.3558
  23        4.8684
  24        4.8684
  25        7.4088
  26        7.4088
  27        7.5121
  28        7.5121
 
  0.1666667E+00  0.1666667E+00  0.0000000E+00  0.6944444E-02
   1       -4.2063
   2       -2.3054
   3       -2.2988
   4       -2.2988
   5       -2.1716
   6       -2.1716
   7       -2.0773
   8       -1.3249
   9       -1.1094
  10       -1.0850
  11       -0.5156
  12       -0.3712
  13       -0.2477
  14       -0.2477
  15       -0.1899
  16       -0.0174
  17        0.1163
  18        0.1163
  19        0.2496
  20        0.2496
  21        0.2937
  22        2.5587
  23        2.5587
  24        5.0244
  25        5.2773
  26        7.7261
  27        7.7261
  28        8.9766
 
  0.2500000E+00  0.1666667E+00  0.0000000E+00  0.1388889E-01
   1       -3.9281
   2       -2.2429
   3       -2.2131
   4       -2.1427
   5       -2.0968
   6       -2.0461
   7       -1.9183
   8       -1.3934
   9       -1.0278
  10       -1.0266
  11       -0.6016
  12       -0.5744
  13       -0.4756
  14       -0.4574
  15       -0.3079
  16       -0.1326
  17       -0.0098
  18        0.0684
  19        0.0862
  20        0.2479
  21        0.2594
  22        1.6033
  23        2.9898
  24        5.0815
  25        5.5756
  26        7.5987
  27        8.3848
  28        9.0529
 
  0.3333333E+00  0.1666667E+00  0.0000000E+00  0.1388889E-01
   1       -3.5558
   2       -2.2266
   3       -2.0744
   4       -1.9977
   5       -1.9563
   6       -1.8719
   7       -1.7411
   8       -1.4971
   9       -0.9844
  10       -0.9502
  11       -0.8961
  12       -0.7731
  13       -0.7405
  14       -0.6140
  15       -0.2720
  16       -0.2083
  17       -0.1664
  18       -0.1121
  19       -0.0327
  20        0.2458
  21        0.2462
  22        0.8577
  23        3.4279
  24        4.8287
  25        6.2460
  26        7.4794
  27        7.9400
  28        9.4163
 
  0.4166667E+00  0.1666667E+00  0.0000000E+00  0.1388889E-01
   1       -3.1175
   2       -2.3479
   3       -1.8996
   4       -1.8802
   5       -1.7889
   6       -1.6515
   7       -1.6205
   8       -1.5875
   9       -1.2584
  10       -1.0917
  11       -1.0043
  12       -0.9623
  13       -0.7292
  14       -0.5508
  15       -0.3906
  16       -0.3250
  17       -0.3220
  18       -0.1934
  19       -0.0787
  20        0.2421
  21        0.2436
  22        0.3696
  23        3.8377
  24        4.5349
  25        6.9946
  26        7.4224
  27        7.6378
  28        8.6076
 
  0.5000000E+00  0.1666667E+00  0.0000000E+00  0.6944444E-02
   1       -2.6753
   2       -2.6753
   3       -1.7516
   4       -1.7516
   5       -1.7503
   6       -1.7503
   7       -1.4716
   8       -1.4716
   9       -1.3890
  10       -1.3890
  11       -1.0363
  12       -1.0363
  13       -0.5353
  14       -0.5353
  15       -0.4161
  16       -0.4161
  17       -0.3893
  18       -0.3893
  19        0.0941
  20        0.0941
  21        0.2420
  22        0.2420
  23        4.2060
  24        4.2060
  25        7.4685
  26        7.4685
  27        7.7907
  28        7.7907
 
  0.2500000E+00  0.2500000E+00  0.0000000E+00  0.6944444E-02
   1       -3.6653
   2       -2.1579
   3       -2.0759
   4       -2.0759
   5       -1.9802
   6       -1.9802
   7       -1.7582
   8       -1.4177
   9       -1.0131
  10       -0.9771
  11       -0.8285
  12       -0.8285
  13       -0.6274
  14       -0.6074
  15       -0.2245
  16       -0.2198
  17       -0.0390
  18       -0.0390
  19        0.0831
  20        0.0831
  21        0.1706
  22        2.0529
  23        2.0529
  24        4.7576
  25        6.0885
  26        7.8994
  27        8.6402
  28        8.6402
 
  0.3333333E+00  0.2500000E+00  0.0000000E+00  0.1388889E-01
   1       -3.3160
   2       -2.0556
   3       -2.0476
   4       -1.8936
   5       -1.8716
   6       -1.8195
   7       -1.5944
   8       -1.4820
   9       -1.1540
  10       -1.0548
  11       -1.0142
  12       -0.8724
  13       -0.8622
  14       -0.6375
  15       -0.3389
  16       -0.1792
  17       -0.1307
  18       -0.1157
  19       -0.0741
  20        0.0799
  21        0.1164
  22        1.2941
  23        2.5139
  24        4.3442
  25        6.7256
  26        7.6333
  27        8.2171
  28        9.5404
 
  0.4166667E+00  0.2500000E+00  0.0000000E+00  0.1388889E-01
   1       -2.9072
   2       -2.1696
   3       -1.9067
   4       -1.7919
   5       -1.6768
   6       -1.6184
   7       -1.5754
   8       -1.4808
   9       -1.4293
  10       -1.1831
  11       -1.1245
  12       -1.0727
  13       -0.7201
  14       -0.5867
  15       -0.4319
  16       -0.3274
  17       -0.3271
  18       -0.2793
  19        0.0781
  20        0.0904
  21        0.1179
  22        0.7419
  23        2.9738
  24        3.8917
  25        7.4485
  26        7.5563
  27        7.8686
  28        9.0348
 
  0.5000000E+00  0.2500000E+00  0.0000000E+00  0.6944444E-02
   1       -2.4919
   2       -2.4919
   3       -1.7194
   4       -1.7194
   5       -1.6827
   6       -1.6827
   7       -1.4841
   8       -1.4841
   9       -1.3830
  10       -1.3830
  11       -1.1598
  12       -1.1598
  13       -0.5339
  14       -0.5339
  15       -0.4505
  16       -0.4505
  17       -0.4320
  18       -0.4320
  19        0.0802
  20        0.0802
  21        0.3725
  22        0.3725
  23        3.4322
  24        3.4322
  25        7.6408
  26        7.6408
  27        8.2270
  28        8.2270
 
  0.3333333E+00  0.3333333E+00  0.0000000E+00  0.6944444E-02
   1       -3.0023
   2       -1.9989
   3       -1.8275
   4       -1.8275
   5       -1.7520
   6       -1.7520
   7       -1.4914
   8       -1.4485
   9       -1.3264
  10       -1.3264
  11       -1.0345
  12       -1.0024
  13       -0.8052
  14       -0.6861
  15       -0.4304
  16       -0.2577
  17       -0.2577
  18       -0.1176
  19       -0.1176
  20        0.0077
  21        0.1257
  22        1.7419
  23        1.7419
  24        3.7808
  25        7.3318
  26        7.5578
  27        8.8820
  28        8.8820
 
  0.4166667E+00  0.3333333E+00  0.0000000E+00  0.1388889E-01
   1       -2.6426
   2       -1.9712
   3       -1.9018
   4       -1.6757
   5       -1.6409
   6       -1.5790
   7       -1.5331
   8       -1.5130
   9       -1.3580
  10       -1.3345
  11       -1.1843
  12       -1.0988
  13       -0.6848
  14       -0.6691
  15       -0.5081
  16       -0.3961
  17       -0.3946
  18       -0.3241
  19       -0.1140
  20       -0.0622
  21        0.3782
  22        1.1409
  23        2.2047
  24        3.2188
  25        7.6637
  26        8.0297
  27        8.3355
  28        9.5542
 
  0.5000000E+00  0.3333333E+00  0.0000000E+00  0.6944444E-02
   1       -2.2788
   2       -2.2788
   3       -1.7643
   4       -1.7643
   5       -1.5990
   6       -1.5990
   7       -1.3985
   8       -1.3985
   9       -1.3843
  10       -1.3843
  11       -1.2195
  12       -1.2195
  13       -0.5548
  14       -0.5548
  15       -0.5192
  16       -0.5192
  17       -0.4987
  18       -0.4987
  19       -0.0987
  20       -0.0987
  21        0.7017
  22        0.7017
  23        2.6930
  24        2.6930
  25        7.9260
  26        7.9260
  27        8.7906
  28        8.7906
 
  0.4166667E+00  0.4166667E+00  0.0000000E+00  0.6944444E-02
   1       -2.3566
   2       -1.8785
   3       -1.8449
   4       -1.8449
   5       -1.5409
   6       -1.5409
   7       -1.5101
   8       -1.3602
   9       -1.3602
  10       -1.2781
  11       -1.2647
  12       -1.1200
  13       -0.7220
  14       -0.6062
  15       -0.5948
  16       -0.5215
  17       -0.5215
  18       -0.3070
  19       -0.3070
  20       -0.1848
  21        0.6914
  22        1.5714
  23        1.5714
  24        2.5965
  25        7.9242
  26        8.7064
  27        8.8710
  28        8.8710
 
  0.5000000E+00  0.4166667E+00  0.0000000E+00  0.6944444E-02
   1       -2.0843
   2       -2.0843
   3       -1.8434
   4       -1.8434
   5       -1.5143
   6       -1.5143
   7       -1.4022
   8       -1.4022
   9       -1.2770
  10       -1.2770
  11       -1.2113
  12       -1.2113
  13       -0.6604
  14       -0.6604
  15       -0.6095
  16       -0.6095
  17       -0.4773
  18       -0.4773
  19       -0.2647
  20       -0.2647
  21        1.0768
  22        1.0768
  23        2.0499
  24        2.0499
  25        8.3272
  26        8.3272
  27        9.4517
  28        9.4545
 
  0.5000000E+00  0.5000000E+00  0.0000000E+00  0.1736111E-02
   1       -1.9428
   2       -1.9428
   3       -1.9428
   4       -1.9428
   5       -1.4452
   6       -1.4452
   7       -1.4452
   8       -1.4452
   9       -1.1997
  10       -1.1997
  11       -1.1997
  12       -1.1997
  13       -0.6942
  14       -0.6942
  15       -0.6942
  16       -0.6942
  17       -0.3943
  18       -0.3943
  19       -0.3943
  20       -0.3943
  21        1.5169
  22        1.5169
  23        1.5169
  24        1.5169
  25        8.8496
  26        8.8496
  27        8.8496
  28        8.8496
 
  0.8333333E-01  0.8333333E-01  0.8333333E-01  0.4629630E-02
   1       -4.4946
   2       -2.4158
   3       -2.4158
   4       -2.4158
   5       -2.2659
   6       -2.2659
   7       -2.2659
   8       -1.2552
   9       -1.1750
  10       -1.1750
  11       -0.4307
  12       -0.4307
  13        0.1133
  14        0.1133
  15        0.1133
  16        0.1674
  17        0.1674
  18        0.1674
  19        0.3505
  20        0.3505
  21        0.3505
  22        3.4368
  23        3.4368
  24        3.4368
  25        6.3836
  26        6.3836
  27        6.3836
  28       10.4464
 
  0.1666667E+00  0.8333333E-01  0.8333333E-01  0.1388889E-01
   1       -4.3205
   2       -2.3729
   3       -2.3357
   4       -2.3357
   5       -2.2161
   6       -2.1736
   7       -2.1736
   8       -1.3013
   9       -1.1270
  10       -1.1223
  11       -0.4876
  12       -0.3938
  13       -0.1045
  14       -0.1045
  15        0.0278
  16        0.0354
  17        0.0530
  18        0.0530
  19        0.2971
  20        0.3386
  21        0.3386
  22        2.3376
  23        3.7505
  24        3.7505
  25        6.3619
  26        6.3619
  27        7.7657
  28        9.8426
 
  0.2500000E+00  0.8333333E-01  0.8333333E-01  0.1388889E-01
   1       -4.0369
   2       -2.3229
   3       -2.2091
   4       -2.2091
   5       -2.1364
   6       -2.0274
   7       -2.0274
   8       -1.3892
   9       -1.0384
  10       -1.0358
  11       -0.5651
  12       -0.4404
  13       -0.4404
  14       -0.3349
  15       -0.1981
  16       -0.0900
  17       -0.0683
  18       -0.0683
  19        0.2214
  20        0.3297
  21        0.3297
  22        1.3578
  23        4.1337
  24        4.1337
  25        6.3696
  26        6.3696
  27        9.1930
  28        9.2845
 
  0.3333333E+00  0.8333333E-01  0.8333333E-01  0.1388889E-01
   1       -3.6568
   2       -2.3122
   3       -2.0450
   4       -2.0450
   5       -2.0320
   6       -1.8449
   7       -1.8449
   8       -1.5048
   9       -0.9497
  10       -0.9178
  11       -0.7915
  12       -0.7915
  13       -0.6123
  14       -0.4982
  15       -0.2577
  16       -0.2501
  17       -0.2210
  18       -0.2210
  19        0.1318
  20        0.3245
  21        0.3245
  22        0.5854
  23        4.4654
  24        4.4654
  25        6.4657
  26        6.4657
  27        8.7969
  28        8.7969
 
  0.4166667E+00  0.8333333E-01  0.8333333E-01  0.1388889E-01
   1       -3.2093
   2       -2.4338
   3       -1.9093
   4       -1.8702
   5       -1.8702
   6       -1.6530
   7       -1.6530
   8       -1.6368
   9       -1.1180
  10       -1.1180
  11       -0.9366
  12       -0.7917
  13       -0.7724
  14       -0.5221
  15       -0.4275
  16       -0.3641
  17       -0.3641
  18       -0.1668
  19        0.0337
  20        0.0561
  21        0.3220
  22        0.3220
  23        4.6633
  24        4.6633
  25        6.6574
  26        6.6574
  27        8.4015
  28        8.4015
 
  0.5000000E+00  0.8333333E-01  0.8333333E-01  0.6944444E-02
   1       -2.7604
   2       -2.7604
   3       -1.7804
   4       -1.7804
   5       -1.7749
   6       -1.7749
   7       -1.4988
   8       -1.4988
   9       -1.3347
  10       -1.3347
  11       -0.9325
  12       -0.9325
  13       -0.6059
  14       -0.6059
  15       -0.4270
  16       -0.4270
  17       -0.2921
  18       -0.2921
  19       -0.0677
  20       -0.0677
  21        0.3212
  22        0.3212
  23        4.7233
  24        4.7233
  25        6.7794
  26        6.7794
  27        8.2227
  28        8.2227
 
  0.1666667E+00  0.1666667E+00  0.8333333E-01  0.1388889E-01
   1       -4.1523
   2       -2.2937
   3       -2.2937
   4       -2.2924
   5       -2.1234
   6       -2.1234
   7       -2.0587
   8       -1.3167
   9       -1.1032
  10       -1.0880
  11       -0.4935
  12       -0.3877
  13       -0.2713
  14       -0.2713
  15       -0.2442
  16       -0.0624
  17       -0.0096
  18       -0.0096
  19        0.2924
  20        0.2924
  21        0.3011
  22        2.6644
  23        2.6644
  24        4.0083
  25        6.2790
  26        7.6116
  27        7.6116
  28        9.1977
 
  0.2500000E+00  0.1666667E+00  0.8333333E-01  0.2777778E-01
   1       -3.8790
   2       -2.2441
   3       -2.2030
   4       -2.1691
   5       -2.0436
   6       -1.9763
   7       -1.8992
   8       -1.3776
   9       -1.0348
  10       -1.0317
  11       -0.6136
  12       -0.5431
  13       -0.5139
  14       -0.5031
  15       -0.3197
  16       -0.1658
  17       -0.1405
  18       -0.0942
  19        0.2259
  20        0.2666
  21        0.2675
  22        1.7076
  23        3.0755
  24        4.3076
  25        6.1792
  26        7.3666
  27        8.7512
  28        8.7695
 
  0.3333333E+00  0.1666667E+00  0.8333333E-01  0.2777778E-01
   1       -3.5144
   2       -2.2306
   3       -2.0673
   4       -2.0058
   5       -1.9426
   6       -1.7968
   7       -1.7253
   8       -1.4739
   9       -0.9927
  10       -0.9452
  11       -0.9292
  12       -0.8196
  13       -0.7731
  14       -0.5549
  15       -0.3086
  16       -0.2881
  17       -0.2197
  18       -0.2174
  19        0.1322
  20        0.2430
  21        0.2459
  22        0.9361
  23        3.4996
  24        4.4947
  25        6.1539
  26        7.0738
  27        8.5418
  28        9.5362
 
  0.4166667E+00  0.1666667E+00  0.8333333E-01  0.2777778E-01
   1       -3.0872
   2       -2.3455
   3       -1.8933
   4       -1.8303
   5       -1.8199
   6       -1.6398
   7       -1.5939
   8       -1.5892
   9       -1.2145
  10       -1.1006
  11       -1.0186
  12       -0.9912
  13       -0.8024
  14       -0.4853
  15       -0.4400
  16       -0.4023
  17       -0.3556
  18       -0.0903
  19       -0.0056
  20        0.2311
  21        0.2332
  22        0.3884
  23        3.8945
  24        4.4556
  25        6.2816
  26        6.7816
  27        8.5725
  28        9.1675
 
  0.5000000E+00  0.1666667E+00  0.8333333E-01  0.1388889E-01
   1       -2.6592
   2       -2.6592
   3       -1.7308
   4       -1.7308
   5       -1.7110
   6       -1.7110
   7       -1.5922
   8       -1.5922
   9       -1.2769
  10       -1.2769
  11       -1.0569
  12       -1.0569
  13       -0.6532
  14       -0.6532
  15       -0.4364
  16       -0.4364
  17       -0.2199
  18       -0.2199
  19        0.0787
  20        0.0787
  21        0.2283
  22        0.2283
  23        4.2282
  24        4.2282
  25        6.5123
  26        6.5123
  27        8.8097
  28        8.8097
 
  0.2500000E+00  0.2500000E+00  0.8333333E-01  0.1388889E-01
   1       -3.6242
   2       -2.1537
   3       -2.1231
   4       -2.1231
   5       -1.8939
   6       -1.8939
   7       -1.7401
   8       -1.3893
   9       -1.0199
  10       -0.9990
  11       -0.8346
  12       -0.8346
  13       -0.6672
  14       -0.5604
  15       -0.2805
  16       -0.2344
  17       -0.1946
  18       -0.1946
  19        0.1866
  20        0.1866
  21        0.1999
  22        2.1337
  23        2.1337
  24        4.4337
  25        5.9767
  26        8.2037
  27        8.2037
  28        8.5254
 
  0.3333333E+00  0.2500000E+00  0.8333333E-01  0.2777778E-01
   1       -3.2876
   2       -2.1120
   3       -2.0586
   4       -1.9677
   5       -1.7926
   6       -1.7115
   7       -1.5855
   8       -1.4402
   9       -1.1320
  10       -1.0564
  11       -1.0199
  12       -0.9252
  13       -0.8800
  14       -0.5598
  15       -0.3878
  16       -0.3506
  17       -0.2819
  18       -0.0894
  19        0.0801
  20        0.1418
  21        0.1455
  22        1.3509
  23        2.5848
  24        4.3068
  25        5.9941
  26        7.6241
  27        8.5779
  28        8.9549
 
  0.4166667E+00  0.2500000E+00  0.8333333E-01  0.2777778E-01
   1       -2.8984
   2       -2.2221
   3       -1.9201
   4       -1.7902
   5       -1.6950
   6       -1.5978
   7       -1.5183
   8       -1.5090
   9       -1.3076
  10       -1.1859
  11       -1.0818
  12       -1.0781
  13       -0.8209
  14       -0.5240
  15       -0.4737
  16       -0.4559
  17       -0.3937
  18       -0.0715
  19        0.1016
  20        0.1116
  21        0.1121
  22        0.7604
  23        3.0428
  24        3.9445
  25        6.2568
  26        7.0966
  27        8.8512
  28        9.7020
 
  0.5000000E+00  0.2500000E+00  0.8333333E-01  0.1388889E-01
   1       -2.5113
   2       -2.5113
   3       -1.7527
   4       -1.7527
   5       -1.6062
   6       -1.6062
   7       -1.5907
   8       -1.5907
   9       -1.2249
  10       -1.2249
  11       -1.1651
  12       -1.1651
  13       -0.6859
  14       -0.6859
  15       -0.4801
  16       -0.4801
  17       -0.2673
  18       -0.2673
  19        0.1013
  20        0.1013
  21        0.3629
  22        0.3629
  23        3.5011
  24        3.5011
  25        6.6394
  26        6.6394
  27        9.2906
  28        9.2906
 
  0.3333333E+00  0.3333333E+00  0.8333333E-01  0.1388889E-01
   1       -2.9950
   2       -2.0153
   3       -1.9752
   4       -1.9752
   5       -1.5977
   6       -1.5977
   7       -1.4630
   8       -1.4270
   9       -1.2953
  10       -1.2953
  11       -1.0350
  12       -0.9734
  13       -0.8988
  14       -0.5721
  15       -0.4931
  16       -0.4107
  17       -0.4107
  18        0.0174
  19        0.0174
  20        0.0554
  21        0.1091
  22        1.7923
  23        1.7923
  24        3.8429
  25        6.1606
  26        8.2061
  27        8.2061
  28        8.8296
 
  0.4166667E+00  0.3333333E+00  0.8333333E-01  0.2777778E-01
   1       -2.6666
   2       -2.0962
   3       -1.9397
   4       -1.8562
   5       -1.5105
   6       -1.5023
   7       -1.4442
   8       -1.4299
   9       -1.3410
  10       -1.3292
  11       -1.0948
  12       -1.0637
  13       -0.8366
  14       -0.5713
  15       -0.5706
  16       -0.4961
  17       -0.4939
  18       -0.1421
  19       -0.0286
  20       -0.0109
  21        0.3633
  22        1.1609
  23        2.2575
  24        3.2903
  25        6.5193
  26        7.5477
  27        8.8537
  28        9.2472
 
  0.5000000E+00  0.3333333E+00  0.8333333E-01  0.1388889E-01
   1       -2.3469
   2       -2.3469
   3       -1.8538
   4       -1.8538
   5       -1.4987
   6       -1.4987
   7       -1.4771
   8       -1.4771
   9       -1.2156
  10       -1.2156
  11       -1.1702
  12       -1.1702
  13       -0.7223
  14       -0.7223
  15       -0.5698
  16       -0.5698
  17       -0.3301
  18       -0.3301
  19       -0.0400
  20       -0.0400
  21        0.6971
  22        0.6971
  23        2.7547
  24        2.7547
  25        6.9863
  26        6.9863
  27        9.5742
  28        9.5742
 
  0.4166667E+00  0.4166667E+00  0.8333333E-01  0.1388889E-01
   1       -2.4227
   2       -2.0023
   3       -2.0023
   4       -1.9488
   5       -1.4219
   6       -1.4219
   7       -1.4011
   8       -1.3984
   9       -1.2801
  10       -1.2801
  11       -1.0939
  12       -1.0487
  13       -0.8403
  14       -0.6649
  15       -0.6328
  16       -0.6328
  17       -0.4739
  18       -0.1894
  19       -0.1894
  20       -0.1187
  21        0.6816
  22        1.5981
  23        1.5981
  24        2.6541
  25        6.9386
  26        8.1085
  27        8.1085
  28        9.5218
 
  0.5000000E+00  0.4166667E+00  0.8333333E-01  0.1388889E-01
   1       -2.1957
   2       -2.1957
   3       -1.9595
   4       -1.9595
   5       -1.4199
   6       -1.4199
   7       -1.3935
   8       -1.3935
   9       -1.1630
  10       -1.1630
  11       -1.1087
  12       -1.1087
  13       -0.7674
  14       -0.7674
  15       -0.6879
  16       -0.6879
  17       -0.3559
  18       -0.3559
  19       -0.1846
  20       -0.1846
  21        1.0803
  22        1.0803
  23        2.0897
  24        2.0897
  25        7.4706
  26        7.4706
  27        8.7679
  28        8.7679
 
  0.5000000E+00  0.5000000E+00  0.8333333E-01  0.3472222E-02
   1       -2.0694
   2       -2.0694
   3       -2.0694
   4       -2.0694
   5       -1.3843
   6       -1.3843
   7       -1.3843
   8       -1.3843
   9       -1.0820
  10       -1.0820
  11       -1.0820
  12       -1.0820
  13       -0.7782
  14       -0.7782
  15       -0.7782
  16       -0.7782
  17       -0.3045
  18       -0.3045
  19       -0.3045
  20       -0.3045
  21        1.5352
  22        1.5352
  23        1.5352
  24        1.5352
  25        8.0664
  26        8.0664
  27        8.0664
  28        8.0664
 
  0.1666667E+00  0.1666667E+00  0.1666667E+00  0.4629630E-02
   1       -3.9926
   2       -2.2587
   3       -2.2587
   4       -2.2587
   5       -2.0033
   6       -2.0033
   7       -2.0033
   8       -1.3092
   9       -1.0822
  10       -1.0822
  11       -0.4307
  12       -0.4307
  13       -0.3990
  14       -0.3990
  15       -0.3990
  16       -0.1735
  17       -0.1735
  18       -0.1735
  19        0.3035
  20        0.3035
  21        0.3035
  22        2.9402
  23        2.9402
  24        2.9402
  25        7.2753
  26        7.2753
  27        7.2753
  28        9.8827
 
  0.2500000E+00  0.1666667E+00  0.1666667E+00  0.1388889E-01