 vasp.4.6.28 25Jul05 complex 
 executed on             LinuxIFC date 2017.01.10  11:00:56
 running on    4 nodes
 distr:  one band on    1 nodes,    4 groups


--------------------------------------------------------------------------------------------------------


 INCAR:
 POTCAR:   PAW_PBE Au 06Sep2000                   
 POTCAR:   PAW_PBE Au 06Sep2000                   
   VRHFIN =Au: s1d10                                                            
   LEXCH  = PE                                                                  
   EATOM  =   926.0567 eV,   68.0632 Ry                                         
                                                                                
   TITEL  = PAW_PBE Au 06Sep2000                                                
   LULTRA =        F    use ultrasoft PP ?                                      
   IUNSCR =        1    unscreen: 0-lin 1-nonlin 2-no                           
   RPACOR =    2.330    partial core radius                                     
   POMASS =  196.966; ZVAL   =   11.000    mass and valenz                      
   RCORE  =    2.500    outmost cutoff radius                                   
   RWIGS  =    2.840; RWIGS  =    1.503    wigner-seitz radius (au A)           
   ENMAX  =  229.948; ENMIN  =  172.461 eV                                      
   RCLOC  =    1.964    cutoff for local pot                                    
   LCOR   =        T    correct aug charges                                     
   LPAW   =        T    paw PP                                                  
   EAUG   =  356.670                                                            
   DEXC   =    -.025                                                            
   RMAX   =    3.041    core radius for proj-oper                               
   RAUG   =    1.300    factor for augmentation sphere                          
   RDEP   =    2.598    radius for radial grids                                 
   QCUT   =   -4.111; QGAM   =    8.222    optimization parameters              
                                                                                
   Description                                                                  
     l     E      TYP  RCUT    TYP  RCUT                                        
     2   .000     23  2.500                                                     
     2   .000     23  2.500                                                     
     0   .000     23  2.500                                                     
     0   .000     23  2.500                                                     
     1  -.200     23  2.500                                                     
     1   .000     23  2.500                                                     
     3   .000      7   .000                                                     
  local pseudopotential read in
  partial core-charges read in
  atomic valenz-charges read in
  non local Contribution for L=           2  read in
    real space projection operators read in
  non local Contribution for L=           2  read in
    real space projection operators read in
  non local Contribution for L=           0  read in
    real space projection operators read in
  non local Contribution for L=           0  read in
    real space projection operators read in
  non local Contribution for L=           1  read in
    real space projection operators read in
  non local Contribution for L=           1  read in
    real space projection operators read in
    PAW grid and wavefunctions read in
 
   number of l-projection  operators is LMAX  =           6
   number of lm-projection operators is LMMAX =          18
 

 ----------------------------------------------------------------------------- 
|                                                                             |
|  ADVICE TO THIS USER RUNNING 'VASP/VAMP'   (HEAR YOUR MASTER'S VOICE ...):  |
|                                                                             |
|      You have a (more or less) 'large supercell' and for larger cells       |
|      it might be more efficient to use real space projection operators      |
|      So try LREAL= Auto  in the INCAR   file.                               |
|      Mind: If you want to do an extremely accurate calculations keep the    |
|      reciprocal projection scheme          (i.e. LREAL=.FALSE.)             |
|                                                                             |
 ----------------------------------------------------------------------------- 

 PAW_PBE Au 06Sep2000                   :
 energy of atom  1       EATOM= -926.0567
 kinetic energy error for atom=    0.0013 (will be added to EATOM!!)
 
 EXHCAR: internal setup
 exchange correlation table for  LEXCH =        8
   RHO(1)=    0.500       N(1)  =     2000
   RHO(2)=  100.500       N(2)  =     4000
 
 POSCAR: No title                                
  positions in direct lattice
  No initial velocities read in
 


--------------------------------------------------------------------------------------------------------


 ion  position               nearest neighbor table
   1  0.750  0.750  0.500-   3 2.95  14 2.95  19 2.95  20 2.95   5 2.95  26 2.95   6 2.95  29 2.95
                            11 2.95  18 2.95  10 2.95   8 2.95
   2  0.750  0.750  0.000-  12 2.93  10 2.95   8 2.95  22 2.95  27 2.95  11 2.95  18 2.95  32 2.95
                             5 2.95  26 2.95   3 2.95  20 2.95
   3  0.750  0.000  0.250-  12 2.93   5 2.95   9 2.95   1 2.95  28 2.95  19 2.95  13 2.95  18 2.95
                            27 2.95   6 2.95   4 2.95   2 2.95
   4  0.750  0.250  0.500-   6 2.95   8 2.95  10 2.95  29 2.95  13 2.95  31 2.95  14 2.95  19 2.95
                            21 2.95  28 2.95   3 2.95  20 2.95
   5  0.000  0.750  0.250-   3 2.95  14 2.95  25 2.95  15 2.95   1 2.95  16 2.95  10 2.95   7 2.95
                             2 2.95  22 2.95   6 2.95  12 2.95
   6  0.000  0.000  0.500-   4 2.95   7 2.95  11 2.95  13 2.95   8 2.95  16 2.95   1 2.95  17 2.95
                             3 2.95  23 2.95  21 2.95   5 2.95
   7  0.250  0.750  0.500-   6 2.95  16 2.95  29 2.95  30 2.95  11 2.95  18 2.95  14 2.95  19 2.95
                             5 2.95  26 2.95  25 2.95  23 2.95
   8  0.750  0.000  0.750-  12 2.93   4 2.95  11 2.95   2 2.95  31 2.95  27 2.95   6 2.95  21 2.95
                            26 2.95  19 2.95   9 2.95   1 2.95
   9  0.750  0.250  0.000-  12 2.93   3 2.95  20 2.95  32 2.95  28 2.95  21 2.95  22 2.95  27 2.95
                            31 2.95  13 2.95  10 2.95   8 2.95
  10  0.750  0.500  0.250-   2 2.95   4 2.95  13 2.95  18 2.95  22 2.95  29 2.95  28 2.95   5 2.95
                            14 2.95  32 2.95   9 2.95   1 2.95
  11  0.000  0.750  0.750-   6 2.95   8 2.95  22 2.95  30 2.95   7 2.95   2 2.95  23 2.95  20 2.95
                             1 2.95  15 2.95  14 2.95  12 2.95
  12  0.998  0.000  0.000-   3 2.93   9 2.93   8 2.93   2 2.93   5 2.95  21 2.95  11 2.95  13 2.95
                            15 2.96  23 2.96  16 2.96  24 2.96
  13  0.000  0.250  0.250-   6 2.95  10 2.95  16 2.95  22 2.95   4 2.95  24 2.95   3 2.95  25 2.95
                            17 2.95   9 2.95  14 2.95  12 2.95
  14  0.000  0.500  0.500-   1 2.95   5 2.95  17 2.95  21 2.95  20 2.95  25 2.95   4 2.95   7 2.95
                            10 2.95  30 2.95  13 2.95  11 2.95
  15  0.250  0.750  0.000-  23 2.95  25 2.95  32 2.95  26 2.95   5 2.95  27 2.95  22 2.95  11 2.95
                            18 2.95  30 2.95  16 2.95  12 2.96
  16  0.250  0.000  0.250-   7 2.95  13 2.95  18 2.95  24 2.95   6 2.95  27 2.95   5 2.95  28 2.95
                            19 2.95  17 2.95  15 2.95  12 2.96
  17  0.250  0.250  0.500-  14 2.95  19 2.95  23 2.95  25 2.95  21 2.95  28 2.95   6 2.95  29 2.95
                            13 2.95  31 2.95  30 2.95  16 2.95
  18  0.500  0.750  0.250-  10 2.95  16 2.95  27 2.95  29 2.95   2 2.95   7 2.95   3 2.95  25 2.95
                             1 2.95  15 2.95  19 2.95  32 2.95
  19  0.500  0.000  0.500-   1 2.95  17 2.95  26 2.95  28 2.95   3 2.95  23 2.95   4 2.95   7 2.95
                             8 2.95  16 2.95  18 2.95  31 2.95
  20  0.750  0.500  0.750-   1 2.95   9 2.95  21 2.95  26 2.95  14 2.95  32 2.95  31 2.95  11 2.95
                            22 2.95  29 2.95   4 2.95   2 2.95
  21  0.000  0.250  0.750-  14 2.95  20 2.95  23 2.95   9 2.95  17 2.95   8 2.95  30 2.95  24 2.95
                             4 2.95  22 2.95   6 2.95  12 2.95
  22  0.000  0.500  0.000-   2 2.95  11 2.95  13 2.95  24 2.95  10 2.95  30 2.95   9 2.95  15 2.95
                            25 2.95  20 2.95  21 2.95   5 2.95
  23  0.250  0.000  0.750-  15 2.95  17 2.95  21 2.95  26 2.95  19 2.95  11 2.95  31 2.95  27 2.95
                             6 2.95  24 2.95   7 2.95  12 2.96
  24  0.250  0.250  0.000-  16 2.95  22 2.95  27 2.95  30 2.95  13 2.95  31 2.95  32 2.95  28 2.95
                            21 2.95  25 2.95  23 2.95  12 2.96
  25  0.250  0.500  0.250-   5 2.95  15 2.95  17 2.95  28 2.95  14 2.95  32 2.95  13 2.95  18 2.95
                            29 2.95  22 2.95  24 2.95   7 2.95
  26  0.500  0.750  0.750-  19 2.95  20 2.95  23 2.95  32 2.95   1 2.95  15 2.95  30 2.95   8 2.95
                             7 2.95   2 2.95  27 2.95  29 2.95
  27  0.500  0.000  0.000-   2 2.95  18 2.95  24 2.95  31 2.95  16 2.95   8 2.95   9 2.95  15 2.95
                             3 2.95  23 2.95  28 2.95  26 2.95
  28  0.500  0.250  0.250-   3 2.95  19 2.95  25 2.95  32 2.95  17 2.95   9 2.95  10 2.95  16 2.95
                             4 2.95  24 2.95  29 2.95  27 2.95
  29  0.500  0.500  0.500-   4 2.95   7 2.95  18 2.95  31 2.95  30 2.95  10 2.95  17 2.95   1 2.95
                            20 2.95  25 2.95  26 2.95  28 2.95
  30  0.250  0.500  0.750-   7 2.95  11 2.95  24 2.95  31 2.95  29 2.95  22 2.95  21 2.95  26 2.95
                            14 2.95  32 2.95  17 2.95  15 2.95
  31  0.500  0.250  0.750-   8 2.95  27 2.95  29 2.95  30 2.95  24 2.95   4 2.95  20 2.95  23 2.95
                             9 2.95  17 2.95  19 2.95  32 2.95
  32  0.500  0.500  0.000-   9 2.95  15 2.95  26 2.95  28 2.95  20 2.95  25 2.95  24 2.95   2 2.95
                            10 2.95  30 2.95  18 2.95  31 2.95
 
  LATTYP: Found a simple cubic cell.
 ALAT       =     8.3377527800
  
  Lattice vectors:
  
 A1 = (   8.3377527800,   0.0000000000,   0.0000000000)
 A2 = (   0.0000001500,   8.3377527800,   0.0000000000)
 A3 = (   0.0000001500,   0.0000001500,   8.3377527800)
 Subroutine PRICEL returns:
 Original cell was already a primitive cell.
 

Analysis of symmetry for initial positions (statically):

 Routine SETGRP: Setting up the symmetry group for a 
 simple cubic supercell.


 Subroutine GETGRP returns: Found  8 space group operations
 (whereof  8 operations were pure point group operations)
 out of a pool of 48 trial point group operations.


The static configuration has the point symmetry C_4v.

Analysis of symmetry for dynamics (positions and initial velocities):

 Subroutine DYNSYM returns: Found  8 space group operations
 (whereof  8 operations were pure point group operations)
 out of a pool of  8 trial space group operations
 (whereof  8 operations were pure point group operations)
 and found also     1 'primitive' translations


The dynamic configuration has the point symmetry C_4v.
 
 
 KPOINTS: Automatic mesh                          

Automatic generation of k-mesh.
 
 Subroutine IBZKPT returns following result:
 ===========================================
 
 Found      6 irreducible k-points:
 
 Following reciprocal coordinates:
            Coordinates               Weight
  0.000000  0.000000  0.000000      1.000000
  0.333333 -0.000000  0.000000      2.000000
  0.000000  0.333333 -0.000000      4.000000
  0.333333  0.333333  0.000000      8.000000
  0.000000  0.333333  0.333333      4.000000
  0.333333  0.333333  0.333333      8.000000
 
 Following cartesian coordinates:
            Coordinates               Weight
  0.000000  0.000000  0.000000      1.000000
  0.039979 -0.000000 -0.000000      2.000000
  0.000000  0.039979 -0.000000      4.000000
  0.039979  0.039979 -0.000000      8.000000
  0.000000  0.039979  0.039979      4.000000
  0.039979  0.039979  0.039979      8.000000
 


--------------------------------------------------------------------------------------------------------




 Dimension of arrays:
   k-Points           NKPTS =      6   number of bands    NBANDS=    212
   number of dos      NEDOS =    301   number of ions     NIONS =     32
   non local maximal  LDIM  =      6   non local SUM 2l+1 LMDIM =     18
   total plane-waves  NPLWV = 343000
   max r-space proj   IRMAX =      1   max aug-charges    IRDMAX= 289671
   dimension x,y,z NGX =    70 NGY =   70 NGZ =   70
   dimension x,y,z NGXF=   140 NGYF=  140 NGZF=  140
   support grid    NGXF=   280 NGYF=  280 NGZF=  280
   ions per type =              32
 NGX,Y,Z   is equivalent  to a cutoff of  13.96, 13.96, 13.96 a.u.
 NGXF,Y,Z  is equivalent  to a cutoff of  27.91, 27.91, 27.91 a.u.


 I would recommend the setting:
   dimension x,y,z NGX =    67 NGY =   67 NGZ =   67
 SYSTEM =  No title                                
 POSCAR =  No title                                

 Startparameter for this run:
   NWRITE =      2    write-flag & timer
   PREC   = accura    medium, high low
   ISTART =      1    job   : 0-new  1-cont  2-samecut
   ICHARG =      0    charge: 1-file 2-atom 10-const
   ISPIN  =      1    spin polarized calculation?
   LNONCOLLINEAR =      F non collinear calculations
   LSORBIT =      F    spin-orbit coupling
   INIWAV =      1    electr: 0-lowe 1-rand  2-diag
   LASPH  =      F    aspherical Exc in radial PAW
   METAGGA=      F    non-selfconsistent MetaGGA calc.

 Electronic Relaxation 1
   ENCUT  =  600.0 eV  44.10 Ry    6.64 a.u.  16.65 16.65 16.65*2*pi/ulx,y,z
   ENINI  =  600.0     initial cutoff
   ENAUG  =  356.7 eV  augmentation charge cutoff
   NELM   =     60;   NELMIN=  2; NELMDL=  0     # of ELM steps 
   EDIFF  = 0.1E-04   stopping-criterion for ELM
   LREAL  =      F    real-space projection
   LCOMPAT=      F    compatible to vasp.4.4
   LREAL_COMPAT= F    compatible to vasp.4.5.1-3
   GGA_COMPAT  = T    GGA compatible to vasp.4.4-vasp.4.6
   LMAXPAW     = -100 max onsite density
   LMAXMIX     =    2 max onsite mixed and CHGCAR
   VOSKOWN=      1    Vosko Wilk Nusair interpolation
   ROPT   =    0.00000
 Ionic relaxation
   EDIFFG = -.2E-01   stopping-criterion for IOM
   NSW    =      0    number of steps for IOM
   NBLOCK =      1;   KBLOCK =      1    inner block; outer block 
   IBRION =     -1    ionic relax: 0-MD 1-quasi-New 2-CG
   NFREE  =      0    steps in history (QN), initial steepest desc. (CG)
   ISIF   =      2    stress and relaxation
   IWAVPR =     10    prediction:  0-non 1-charg 2-wave 3-comb
   ISYM   =      2    0-nonsym 1-usesym 2-fastsym
   LCORR  =      T    Harris-Foulkes like correction to forces

   POTIM  =   0.50    time-step for ionic-motion
   TEIN   =    0.0    initial temperature
   TEBEG  =    0.0;   TEEND  =   0.0 temperature during run
   SMASS  =  -3.00    Nose mass-parameter (am)
   estimated Nose-frequenzy (Omega)   =  0.10E-29 period in steps =****** mass=  -0.159E-26a.u.
   NPACO  =    256;   APACO  = 16.0  distance and # of slots for P.C.
   PSTRESS=    0.0 pullay stress

  Mass of Ions in am
   POMASS = 196.97
  Ionic Valenz
   ZVAL   =  11.00
  Atomic Wigner-Seitz radii
   RWIGS  =   1.34
   NELECT =     352.0000    total number of electrons
   NUPDOWN=      -1.0000    fix difference up-down

 DOS related values:
   EMIN   =  10.00;   EMAX   =-10.00  energy-range for DOS
   ISMEAR =     1;   SIGMA  =   0.20  broadening in eV -4-tet -1-fermi 0-gaus

 Electronic relaxation 2 (details)
   IALGO  =     38    algorithm
   LDIAG  =      T    sub-space diagonalisation
   IMIX   =      4    mixing-type and parameters
     AMIX     =   0.40;   BMIX     =  1.00
     AMIX_MAG =   1.60;   BMIX_MAG =  1.00
     AMIN     =   0.10
     WC   =   100.;   INIMIX=   1;  MIXPRE=   1

 Intra band minimization:
   WEIMIN = 0.0000     energy-eigenvalue tresh-hold
   EBREAK =  0.12E-07  absolut break condition
   DEPER  =   0.30     relativ break condition  

   TIME   =   0.10     timestep for ELM

  volume/ion in A,a.u.               =      18.11       122.23
  Fermi-wavevector in a.u.,eV,Ry     =   1.386352 26.149998  1.921971

 Second variation
   LSECVAR=     F    do a second variation
 
 Write flags
   LWAVE  =      F    write WAVECAR
   LCHARG =      F    write CHGCAR
   LVTOT  =      F    write LOCPOT, local potential
   LELF   =      F    write electronic localiz. function (ELF)
   LORBIT =      0    0 simple, 1 ext, 2 COOP (PROOUT)


 Dipole corrections
   IDIPOL =      0    1-x, 2-y, 3-z
   LDIPOL =      F    correct potential



--------------------------------------------------------------------------------------------------------


 Static calculation
 charge density will be updated during run
 non-spin polarized calculation
 Variant of blocked Davidson
 Davidson routine will perform the subspace rotation
 performe sub-space diagonalisation
    after iterative eigenvector-optimisation
 modified Broyden-mixing scheme, WC =      100.0
 initial mixing is a Kerker type mixing with AMIX =  0.4000 and BMIX =      1.0000
 Hartree-type preconditioning will be used
 using additional bands           36
 reciprocal scheme for non local part
 use partial core corrections
 calculate Harris-corrections to forces 
   (improved forces if not selfconsistent)
 use gradient corrections 
 use of overlap-Matrix (Vanderbilt PP)
 Methfessel and Paxton  Order N= 1 SIGMA  =   0.20


--------------------------------------------------------------------------------------------------------


  energy-cutoff  :      600.00
  volume of cell :      579.62
      direct lattice vectors                 reciprocal lattice vectors
     8.337752780  0.000000000  0.000000000     0.119936394 -0.000000002 -0.000000002
     0.000000150  8.337752780  0.000000000     0.000000000  0.119936394 -0.000000002
     0.000000150  0.000000150  8.337752780     0.000000000  0.000000000  0.119936394

  length of vectors
     8.337752780  8.337752780  8.337752780     0.119936394  0.119936394  0.119936394


 
 old parameters found on file WAVECAR:
  energy-cutoff  :      600.00
  volume of cell :      579.62
      direct lattice vectors                 reciprocal lattice vectors
     8.337752780  0.000000000  0.000000000     0.119936394 -0.000000002 -0.000000002
     0.000000150  8.337752780  0.000000000     0.000000000  0.119936394 -0.000000002
     0.000000150  0.000000150  8.337752780     0.000000000  0.000000000  0.119936394

  length of vectors

 
 k-points in units of 2pi/SCALE and weight: Automatic mesh                          
   0.00000000  0.00000000  0.00000000       0.037
   0.03997880 -0.00000000 -0.00000000       0.074
   0.00000000  0.03997880 -0.00000000       0.148
   0.03997880  0.03997880 -0.00000000       0.296
   0.00000000  0.03997880  0.03997880       0.148
   0.03997880  0.03997880  0.03997880       0.296
 
 k-points in reciprocal lattice and weights: Automatic mesh                          
   0.00000000  0.00000000  0.00000000       0.037
   0.33333333 -0.00000000  0.00000000       0.074
   0.00000000  0.33333333 -0.00000000       0.148
   0.33333333  0.33333333  0.00000000       0.296
   0.00000000  0.33333333  0.33333333       0.148
   0.33333333  0.33333333  0.33333333       0.296
 
 position of ions in fractional coordinates (direct lattice) 
   0.75000000  0.75000000  0.50000000
   0.75000000  0.75000000  0.00000000
   0.75000000  0.00000000  0.25000000
   0.75000000  0.25000000  0.50000000
   0.00000000  0.75000000  0.25000000
   0.00000000  0.00000000  0.50000000
   0.25000000  0.75000000  0.50000000
   0.75000000  0.00000000  0.75000000
   0.75000000  0.25000000  0.00000000
   0.75000000  0.50000000  0.25000000
   0.00000000  0.75000000  0.75000000
   0.99760100  0.00000000  0.00000000
   0.00000000  0.25000000  0.25000000
   0.00000000  0.50000000  0.50000000
   0.25000000  0.75000000  0.00000000
   0.25000000  0.00000000  0.25000000
   0.25000000  0.25000000  0.50000000
   0.50000000  0.75000000  0.25000000
   0.50000000  0.00000000  0.50000000
   0.75000000  0.50000000  0.75000000
   0.00000000  0.25000000  0.75000000
   0.00000000  0.50000000  0.00000000
   0.25000000  0.00000000  0.75000000
   0.25000000  0.25000000  0.00000000
   0.25000000  0.50000000  0.25000000
   0.50000000  0.75000000  0.75000000
   0.50000000  0.00000000  0.00000000
   0.50000000  0.25000000  0.25000000
   0.50000000  0.50000000  0.50000000
   0.25000000  0.50000000  0.75000000
   0.50000000  0.25000000  0.75000000
   0.50000000  0.50000000  0.00000000
 
 position of ions in cartesian coordinates  (Angst):
   6.25331477  6.25331466  4.16887639
   6.25331470  6.25331459  0.00000000
   6.25331462  0.00000004  2.08443820
   6.25331470  2.08443827  4.16887639
   0.00000015  6.25331462  2.08443820
   0.00000007  0.00000007  4.16887639
   2.08443838  6.25331466  4.16887639
   6.25331470  0.00000011  6.25331459
   6.25331462  2.08443820  0.00000000
   6.25331470  4.16887643  2.08443820
   0.00000022  6.25331470  6.25331459
   8.31775051  0.00000000  0.00000000
   0.00000007  2.08443823  2.08443820
   0.00000015  4.16887647  4.16887639
   2.08443831  6.25331459  0.00000000
   2.08443823  0.00000004  2.08443820
   2.08443831  2.08443827  4.16887639
   4.16887654  6.25331462  2.08443820
   4.16887647  0.00000007  4.16887639
   6.25331477  4.16887650  6.25331459
   0.00000015  2.08443831  6.25331459
   0.00000007  4.16887639  0.00000000
   2.08443831  0.00000011  6.25331459
   2.08443823  2.08443820  0.00000000
   2.08443831  4.16887643  2.08443820
   4.16887662  6.25331470  6.25331459
   4.16887639  0.00000000  0.00000000
   4.16887647  2.08443823  2.08443820
   4.16887654  4.16887647  4.16887639
   2.08443838  4.16887650  6.25331459
   4.16887654  2.08443831  6.25331459
   4.16887647  4.16887639  0.00000000
 


--------------------------------------------------------------------------------------------------------


 k-point  1 :  0.00000.00000.0000  plane waves:  19381
 k-point  2 :  0.3333-.00000.0000  plane waves:  19357
 k-point  3 :  0.00000.3333-.0000  plane waves:  19357
 k-point  4 :  0.33330.33330.0000  plane waves:  19306
 k-point  5 :  0.00000.33330.3333  plane waves:  19306
 k-point  6 :  0.33330.33330.3333  plane waves:  19339

 maximum and minimum number of plane-waves per node :  19381 19306

 maximum number of plane-waves:  19381
 maximal index in each direction: 
   IXMAX= 16   IYMAX= 16   IZMAX= 16
   IXMIN=-16   IYMIN=-16   IZMIN=-16

 NGX is ok and might be reduce to  66
 NGY is ok and might be reduce to  66
 NGZ is ok and might be reduce to  66

 parallel 3dFFT wavefunction:
    minimum data exchange during FFTs selected (reduces bandwidth)
 parallel 3dFFT charge:
    minimum data exchange during FFTs selected (reduces bandwidth)

 For storing wavefunctions  393.63 MBYTES are necessary
 For predicting wavefunctions  142.24 MBYTES are necessary
Broyden mixing: mesh for mixing (old mesh)
   NGX = 33   NGY = 33   NGZ = 33
  (NGX  =140   NGY  =140   NGZ  =140)
 gives a total of  35937 points
 charge density for first step will be calculated from the start-wavefunctions


--------------------------------------------------------------------------------------------------------


 Maximum index for augmentation-charges        70396 (set IRDMAX)


--------------------------------------------------------------------------------------------------------


 initial charge from wavefunction
 First call to EWALD:  gamma=   0.213
 Maximum number of real-space cells 3x 3x 3
 Maximum number of reciprocal cells 3x 3x 3

    FEWALD:  VPU time    0.01: CPU time    0.05


----------------------------------------- Iteration    1(   1)  ---------------------------------------


    POTLOK:  VPU time    0.60: CPU time    0.61
    SETDIJ:  VPU time    0.79: CPU time    2.38
    EDDAV :  VPU time   48.42: CPU time   68.60
    DOS   :  VPU time   -0.06: CPU time   -0.68
    CHARGE:  VPU time    4.98: CPU time   29.03
    MIXING:  VPU time    0.05: CPU time    0.05
    ------------------------------------------
      LOOP:  VPU time   54.92: CPU time  101.36

 eigenvalue-minimisations  :  2756
 total energy-change (2. order) :-0.1042170E+03  (-0.5718580E+02)
 number of electron  352.0000005 magnetization 
 augmentation part   131.2634236 magnetization 

 Broyden mixing:
  rms(total) = 0.52655E+00    rms(broyden)= 0.49363E+00
  rms(prec ) = 0.75796E+00
  weight for this iteration     100.00

 Free energy of the ion-electron system (eV)
  ---------------------------------------------------
  alpha Z        PSCENC =      3308.63642344
  Ewald energy   TEWEN  =    -30659.68075899
  -1/2 Hartree   DENC   =     -3794.54933156
  -V(xc)+E(xc)   XCENC  =       449.87867224
  PAW double counting   =     23256.25173341   -22590.65655265
  entropy T*S    EENTRO =        -0.05178925
  eigenvalues    EBANDS =       292.18061351
  atomic energy  EATOM  =     29633.77399530
  ---------------------------------------------------
  free energy    TOTEN  =      -104.21699453 eV

  energy without entropy =     -104.16520528  energy(sigma->0) =     -104.19973145


--------------------------------------------------------------------------------------------------------




----------------------------------------- Iteration    1(   2)  ---------------------------------------


    POTLOK:  VPU time    0.56: CPU time    0.56
    SETDIJ:  VPU time    0.83: CPU time    0.83
    EDDAV :  VPU time   60.66: CPU time   73.75
    DOS   :  VPU time    0.00: CPU time   -0.00
    CHARGE:  VPU time    3.70: CPU time   34.16
    MIXING:  VPU time    0.02: CPU time    0.28
    ------------------------------------------
      LOOP:  VPU time   65.79: CPU time  109.60

 eigenvalue-minimisations  :  2664
 total energy-change (2. order) :-0.3107339E+00  (-0.1508245E+01)
 number of electron  352.0000005 magnetization 
 augmentation part   129.6984672 magnetization 

 Broyden mixing:
  rms(total) = 0.10397E+00    rms(broyden)= 0.10397E+00
  rms(prec ) = 0.13914E+00
  weight for this iteration     100.00

 eigenvalues of (default mixing * dielectric matrix)
  average eigenvalue GAMMA=   1.0689
  1.0689

 Free energy of the ion-electron system (eV)
  ---------------------------------------------------
  alpha Z        PSCENC =      3308.63642344
  Ewald energy   TEWEN  =    -30659.68075899
  -1/2 Hartree   DENC   =     -3861.48107377
  -V(xc)+E(xc)   XCENC  =       468.92205071
  PAW double counting   =     23590.50426638   -22922.05697202
  entropy T*S    EENTRO =        -0.04725000
  eigenvalues    EBANDS =       336.90159047
  atomic energy  EATOM  =     29633.77399530
  ---------------------------------------------------
  free energy    TOTEN  =      -104.52772848 eV

  energy without entropy =     -104.48047847  energy(sigma->0) =     -104.51197848


--------------------------------------------------------------------------------------------------------




----------------------------------------- Iteration    1(   3)  ---------------------------------------


    POTLOK:  VPU time    0.54: CPU time    0.54
    SETDIJ:  VPU time    1.87: CPU time    1.87
    EDDAV :  VPU time   57.70: CPU time   77.87
    DOS   :  VPU time    0.00: CPU time   -0.00
    CHARGE:  VPU time    3.54: CPU time   23.72
    MIXING:  VPU time    0.03: CPU time    0.19
    ------------------------------------------
      LOOP:  VPU time   63.70: CPU time  104.27

 eigenvalue-minimisations  :  2688
 total energy-change (2. order) :-0.1599055E-01  (-0.3920956E-01)
 number of electron  352.0000005 magnetization 
 augmentation part   129.4139412 magnetization 

 Broyden mixing:
  rms(total) = 0.57847E-01    rms(broyden)= 0.57847E-01
  rms(prec ) = 0.63121E-01
  weight for this iteration     100.00

 eigenvalues of (default mixing * dielectric matrix)
  average eigenvalue GAMMA=   1.1875
  1.1875  1.1875

 Free energy of the ion-electron system (eV)
  ---------------------------------------------------
  alpha Z        PSCENC =      3308.63642344
  Ewald energy   TEWEN  =    -30659.68075899
  -1/2 Hartree   DENC   =     -3872.43792754
  -V(xc)+E(xc)   XCENC  =       469.40124049
  PAW double counting   =     23760.75255767   -23091.10521639
  entropy T*S    EENTRO =        -0.04785099
  eigenvalues    EBANDS =       346.16381796
  atomic energy  EATOM  =     29633.77399530
  ---------------------------------------------------
  free energy    TOTEN  =      -104.54371903 eV

  energy without entropy =     -104.49586804  energy(sigma->0) =     -104.52776870


--------------------------------------------------------------------------------------------------------




----------------------------------------- Iteration    1(   4)  ---------------------------------------


    POTLOK:  VPU time    0.51: CPU time    0.51
    SETDIJ:  VPU time    1.56: CPU time    1.56
    EDDAV :  VPU time   44.96: CPU time   57.11
    DOS   :  VPU time    0.00: CPU time   -0.00
    CHARGE:  VPU time    2.20: CPU time    4.54
    MIXING:  VPU time    0.01: CPU time    0.06
    ------------------------------------------
      LOOP:  VPU time   49.25: CPU time   63.81

 eigenvalue-minimisations  :  3052
 total energy-change (2. order) :-0.9278559E-03  (-0.9494074E-03)
 number of electron  352.0000005 magnetization 
 augmentation part   129.4094774 magnetization 

 Broyden mixing:
  rms(total) = 0.33266E-01    rms(broyden)= 0.33266E-01
  rms(prec ) = 0.35543E-01
  weight for this iteration     100.00

 eigenvalues of (default mixing * dielectric matrix)
  average eigenvalue GAMMA=   1.5230
  2.5383  1.1506  0.8799

 Free energy of the ion-electron system (eV)
  ---------------------------------------------------
  alpha Z        PSCENC =      3308.63642344
  Ewald energy   TEWEN  =    -30659.68075899
  -1/2 Hartree   DENC   =     -3872.67863139
  -V(xc)+E(xc)   XCENC  =       469.42238655
  PAW double counting   =     23839.24076467   -23169.15035993
  entropy T*S    EENTRO =        -0.04780040
  eigenvalues    EBANDS =       345.93933387
  atomic energy  EATOM  =     29633.77399530
  ---------------------------------------------------
  free energy    TOTEN  =      -104.54464688 eV

  energy without entropy =     -104.49684648  energy(sigma->0) =     -104.52871341


--------------------------------------------------------------------------------------------------------




----------------------------------------- Iteration    1(   5)  ---------------------------------------


    POTLOK:  VPU time    0.46: CPU time    0.46
    SETDIJ:  VPU time    0.68: CPU time    0.68
    EDDAV :  VPU time   40.34: CPU time   43.09
    DOS   :  VPU time    0.00: CPU time   -0.00
    CHARGE:  VPU time    5.68: CPU time   15.32
    MIXING:  VPU time    0.01: CPU time    0.09
    ------------------------------------------
      LOOP:  VPU time   47.19: CPU time   59.73

 eigenvalue-minimisations  :  2680
 total energy-change (2. order) :-0.4082220E-03  (-0.1177269E-03)
 number of electron  352.0000005 magnetization 
 augmentation part   129.4183716 magnetization 

 Broyden mixing:
  rms(total) = 0.33968E-02    rms(broyden)= 0.33968E-02
  rms(prec ) = 0.51367E-02
  weight for this iteration     100.00

 eigenvalues of (default mixing * dielectric matrix)
  average eigenvalue GAMMA=   1.4138
  2.5458  1.1292  1.1292  0.8509

 Free energy of the ion-electron system (eV)
  ---------------------------------------------------
  alpha Z        PSCENC =      3308.63642344
  Ewald energy   TEWEN  =    -30659.68075899
  -1/2 Hartree   DENC   =     -3873.09637309
  -V(xc)+E(xc)   XCENC  =       469.45539568
  PAW double counting   =     23937.74836613   -23267.09370001
  entropy T*S    EENTRO =        -0.04773154
  eigenvalues    EBANDS =       345.75932797
  atomic energy  EATOM  =     29633.77399530
  ---------------------------------------------------
  free energy    TOTEN  =      -104.54505510 eV

  energy without entropy =     -104.49732356  energy(sigma->0) =     -104.52914459


--------------------------------------------------------------------------------------------------------




----------------------------------------- Iteration    1(   6)  ---------------------------------------


    POTLOK:  VPU time    0.57: CPU time    0.57
    SETDIJ:  VPU time    0.73: CPU time    0.73
    EDDAV :  VPU time   37.17: CPU time   40.47
    DOS   :  VPU time    0.00: CPU time   -0.00
    CHARGE:  VPU time    2.70: CPU time   27.64
    MIXING:  VPU time    0.01: CPU time    0.01
    ------------------------------------------
      LOOP:  VPU time   41.19: CPU time   70.02

 eigenvalue-minimisations  :  2744
 total energy-change (2. order) : 0.9651121E-05  (-0.1744853E-04)
 number of electron  352.0000005 magnetization 
 augmentation part   129.4094093 magnetization 

 Broyden mixing:
  rms(total) = 0.99227E-03    rms(broyden)= 0.99227E-03
  rms(prec ) = 0.14209E-02
  weight for this iteration     100.00

 eigenvalues of (default mixing * dielectric matrix)
  average eigenvalue GAMMA=   1.3888
  2.5356  0.8528  1.0573  1.0573  1.4412

 Free energy of the ion-electron system (eV)
  ---------------------------------------------------
  alpha Z        PSCENC =      3308.63642344
  Ewald energy   TEWEN  =    -30659.68075899
  -1/2 Hartree   DENC   =     -3873.65864533
  -V(xc)+E(xc)   XCENC  =       469.48115243
  PAW double counting   =     23945.61817705   -23274.90330072
  entropy T*S    EENTRO =        -0.04776879
  eigenvalues    EBANDS =       346.23568015
  atomic energy  EATOM  =     29633.77399530
  ---------------------------------------------------
  free energy    TOTEN  =      -104.54504545 eV

  energy without entropy =     -104.49727666  energy(sigma->0) =     -104.52912252


--------------------------------------------------------------------------------------------------------




----------------------------------------- Iteration    1(   7)  ---------------------------------------


    POTLOK:  VPU time    0.46: CPU time    0.46
    SETDIJ:  VPU time    0.78: CPU time    0.78
    EDDAV :  VPU time   24.15: CPU time   24.15
    DOS   :  VPU time    0.00: CPU time   -0.00
    ------------------------------------------
      LOOP:  VPU time   25.40: CPU time   25.41

 eigenvalue-minimisations  :  1452
 total energy-change (2. order) : 0.3750050E-05  (-0.1292207E-05)
 number of electron  352.0000005 magnetization 
 augmentation part   129.4094093 magnetization 

 Free energy of the ion-electron system (eV)
  ---------------------------------------------------
  alpha Z        PSCENC =      3308.63642344
  Ewald energy   TEWEN  =    -30659.68075899
  -1/2 Hartree   DENC   =     -3873.71162715
  -V(xc)+E(xc)   XCENC  =       469.48402486
  PAW double counting   =     23945.11206814   -23274.39546685
  entropy T*S    EENTRO =        -0.04777099
  eigenvalues    EBANDS =       346.28407054
  atomic energy  EATOM  =     29633.77399530
  ---------------------------------------------------
  free energy    TOTEN  =      -104.54504170 eV

  energy without entropy =     -104.49727071  energy(sigma->0) =     -104.52911804


--------------------------------------------------------------------------------------------------------




 average (electrostatic) potential at core
  the test charge radii are     1.2098
  (the norm of the test charge is              1.0000)
       1 -46.1192       2 -46.1216       3 -46.1216       4 -46.1192       5 -46.1189
       6 -46.1189       7 -46.1184       8 -46.1216       9 -46.1216      10 -46.1192
      11 -46.1189      12 -46.1188      13 -46.1189      14 -46.1189      15 -46.1162
      16 -46.1162      17 -46.1184      18 -46.1189      19 -46.1189      20 -46.1192
      21 -46.1189      22 -46.1189      23 -46.1162      24 -46.1162      25 -46.1184
      26 -46.1189      27 -46.1189      28 -46.1189      29 -46.1189      30 -46.1184
      31 -46.1189      32 -46.1189
 
 
 
 E-fermi :   4.9405     XC(G=0): -12.3573     alpha+bet : -9.5809
   add alpha+bet to get absolut eigen values

 k-point   1 :       0.0000    0.0000    0.0000
  band No.  band energies     occupation 
      1      -4.2356      2.00000
      2      -1.9367      2.00000
      3      -1.9300      2.00000
      4      -1.9299      2.00000
      5      -1.9299      2.00000
      6      -1.9299      2.00000
      7      -1.9235      2.00000
      8      -1.8203      2.00000
      9      -1.8203      2.00000
     10      -1.8203      2.00000
     11      -1.8202      2.00000
     12      -1.5740      2.00000
     13      -1.5740      2.00000
     14      -1.5739      2.00000
     15      -1.2985      2.00000
     16      -1.2984      2.00000
     17      -1.2984      2.00000
     18      -0.6889      2.00000
     19      -0.6859      2.00000
     20      -0.6859      2.00000
     21      -0.6823      2.00000
     22      -0.6820      2.00000
     23      -0.6819      2.00000
     24      -0.6818      2.00000
     25      -0.6818      2.00000
     26      -0.6815      2.00000
     27      -0.6779      2.00000
     28      -0.6779      2.00000
     29      -0.6750      2.00000
     30      -0.5648      2.00000
     31      -0.5605      2.00000
     32      -0.5604      2.00000
     33      -0.5604      2.00000
     34      -0.5604      2.00000
     35      -0.5562      2.00000
     36      -0.4483      2.00000
     37      -0.4438      2.00000
     38      -0.4438      2.00000
     39      -0.4438      2.00000
     40      -0.4437      2.00000
     41      -0.4394      2.00000
     42       0.0898      2.00000
     43       0.0954      2.00000
     44       0.0954      2.00000
     45       0.0981      2.00000
     46       0.0981      2.00000
     47       0.0981      2.00000
     48       0.0982      2.00000
     49       0.0982      2.00000
     50       0.0982      2.00000
     51       0.1003      2.00000
     52       0.1003      2.00000
     53       0.1054      2.00000
     54       0.1578      2.00000
     55       0.1578      2.00000
     56       0.1623      2.00000
     57       0.1623      2.00000
     58       0.1623      2.00000
     59       0.1624      2.00000
     60       0.1624      2.00000
     61       0.1625      2.00000
     62       0.1625      2.00000
     63       0.1634      2.00000
     64       0.1676      2.00000
     65       0.1676      2.00000
     66       0.4155      2.00000
     67       0.4230      2.00000
     68       0.4232      2.00000
     69       0.4232      2.00000
     70       0.4238      2.00000
     71       0.4238      2.00000
     72       0.4238      2.00000
     73       0.4238      2.00000
     74       0.4243      2.00000
     75       0.4243      2.00000
     76       0.4243      2.00000
     77       0.4318      2.00000
     78       0.5329      2.00000
     79       0.5330      2.00000
     80       0.5330      2.00000
     81       0.5331      2.00000
     82       0.5332      2.00000
     83       0.5332      2.00000
     84       0.5332      2.00000
     85       0.5335      2.00000
     86       0.5619      2.00000
     87       0.5619      2.00000
     88       0.5620      2.00000
     89       1.2178      2.00000
     90       1.2220      2.00000
     91       1.2223      2.00000
     92       1.2223      2.00000
     93       1.2224      2.00000
     94       1.2267      2.00000
     95       1.3965      2.00000
     96       1.3984      2.00000
     97       1.4007      2.00000
     98       1.4007      2.00000
     99       1.4019      2.00000
    100       1.4019      2.00000
    101       1.4019      2.00000
    102       1.4019      2.00000
    103       1.4031      2.00000
    104       1.4031      2.00000
    105       1.4060      2.00000
    106       1.4071      2.00000
    107       1.6757      2.00000
    108       1.6757      2.00000
    109       1.6813      2.00000
    110       1.6813      2.00000
    111       1.6816      2.00000
    112       1.6817      2.00000
    113       1.6817      2.00000
    114       1.6818      2.00000
    115       1.6821      2.00000
    116       1.6821      2.00000
    117       1.6872      2.00000
    118       1.6872      2.00000
    119       1.8134      2.00000
    120       1.8171      2.00000
    121       1.8171      2.00000
    122       1.8172      2.00000
    123       1.8173      2.00000
    124       1.8210      2.00000
    125       1.9205      2.00000
    126       1.9205      2.00000
    127       1.9226      2.00000
    128       1.9258      2.00000
    129       1.9260      2.00000
    130       1.9265      2.00000
    131       1.9267      2.00000
    132       1.9267      2.00000
    133       1.9267      2.00000
    134       1.9269      2.00000
    135       1.9276      2.00000
    136       1.9303      2.00000
    137       1.9333      2.00000
    138       1.9333      2.00000
    139       2.4219      2.00000
    140       2.4245      2.00000
    141       2.4245      2.00000
    142       2.4245      2.00000
    143       2.4246      2.00000
    144       2.4272      2.00000
    145       2.9634      2.00000
    146       2.9634      2.00000
    147       2.9635      2.00000
    148       3.0039      2.00000
    149       3.0040      2.00000
    150       3.0040      2.00000
    151       3.0040      2.00000
    152       3.0040      2.00000
    153       3.0040      2.00000
    154       3.0040      2.00000
    155       3.0041      2.00000
    156       3.2904      2.00000
    157       3.2914      2.00000
    158       3.2915      2.00000
    159       3.2915      2.00000
    160       3.2916      2.00000
    161       3.2916      2.00000
    162       3.2930      2.00000
    163       3.2932      2.00000
    164       3.2932      2.00000
    165       3.2932      2.00000
    166       3.2932      2.00000
    167       3.2942      2.00000
    168       4.2987      2.00006
    169       4.2988      2.00006
    170       4.2988      2.00006
    171       4.2989      2.00006
    172       4.6216      2.04665
    173       4.6227      2.04716
    174       4.6227      2.04716
    175       4.6242      2.04786
    176       4.6251      2.04828
    177       4.6251      2.04828
    178       4.6252      2.04831
    179       4.6252      2.04831
    180       4.6263      2.04881
    181       4.6277      2.04948
    182       4.6277      2.04948
    183       4.6288      2.05000
    184       6.1857     -0.00000
    185       6.1857     -0.00000
    186       6.1859     -0.00000
    187       7.7625     -0.00000
    188       7.7626     -0.00000
    189       7.7626     -0.00000
    190       7.7626     -0.00000
    191       9.4832     -0.00000
    192       9.4836     -0.00000
    193       9.4838     -0.00000
    194       9.4838     -0.00000
    195       9.4838     -0.00000
    196       9.4844     -0.00000
    197      10.3302     -0.00000
    198      10.3304     -0.00000
    199      10.3304     -0.00000
    200      11.1052      0.00000
    201      11.1052      0.00000
    202      11.1116      0.00000
    203      11.1116      0.00000
    204      11.1125      0.00000
    205      11.1125      0.00000
    206      11.1126      0.00000
    207      11.1128      0.00000
    208      11.1134      0.00000
    209      11.1134      0.00000
    210      11.1197      0.00000
    211      11.1197      0.00000
    212      13.2698      0.00000

 k-point   2 :       0.3333   -0.0000    0.0000
  band No.  band energies     occupation 
      1      -3.9304      2.00000
      2      -3.0670      2.00000
      3      -1.7146      2.00000
      4      -1.7144      2.00000
      5      -1.7144      2.00000
      6      -1.7144      2.00000
      7      -1.6516      2.00000
      8      -1.6515      2.00000
      9      -1.6515      2.00000
     10      -1.6515      2.00000
     11      -1.4804      2.00000
     12      -1.3797      2.00000
     13      -1.3784      2.00000
     14      -1.3754      2.00000
     15      -1.1910      2.00000
     16      -1.1803      2.00000
     17      -1.1803      2.00000
     18      -1.1798      2.00000
     19      -1.1797      2.00000
     20      -1.1726      2.00000
     21      -1.1725      2.00000
     22      -1.1723      2.00000
     23      -1.1723      2.00000
     24      -1.1335      2.00000
     25      -1.1335      2.00000
     26      -0.8928      2.00000
     27      -0.8927      2.00000
     28      -0.8866      2.00000
     29      -0.6427      2.00000
     30      -0.6427      2.00000
     31      -0.4277      2.00000
     32      -0.4273      2.00000
     33      -0.4273      2.00000
     34      -0.4273      2.00000
     35      -0.3842      2.00000
     36      -0.3842      2.00000
     37      -0.3842      2.00000
     38      -0.3839      2.00000
     39      -0.3539      2.00000
     40      -0.3538      2.00000
     41      -0.3538      2.00000
     42      -0.3537      2.00000
     43      -0.1267      2.00000
     44      -0.1266      2.00000
     45      -0.1266      2.00000
     46      -0.1266      2.00000
     47       0.0240      2.00000
     48       0.0241      2.00000
     49       0.0241      2.00000
     50       0.0241      2.00000
     51       0.0361      2.00000
     52       0.0766      2.00000
     53       0.0766      2.00000
     54       0.0766      2.00000
     55       0.0767      2.00000
     56       0.1741      2.00000
     57       0.1763      2.00000
     58       0.1763      2.00000
     59       0.1765      2.00000
     60       0.1857      2.00000
     61       0.1859      2.00000
     62       0.1859      2.00000
     63       0.1882      2.00000
     64       0.3280      2.00000
     65       0.3280      2.00000
     66       0.3280      2.00000
     67       0.3280      2.00000
     68       0.4160      2.00000
     69       0.4687      2.00000
     70       0.4689      2.00000
     71       0.4689      2.00000
     72       0.4689      2.00000
     73       0.4987      2.00000
     74       0.4988      2.00000
     75       0.4988      2.00000
     76       0.4991      2.00000
     77       0.6670      2.00000
     78       0.6671      2.00000
     79       0.6671      2.00000
     80       0.6673      2.00000
     81       0.6947      2.00000
     82       0.6947      2.00000
     83       0.8124      2.00000
     84       0.8124      2.00000
     85       0.8125      2.00000
     86       0.8125      2.00000
     87       1.0133      2.00000
     88       1.0133      2.00000
     89       1.0133      2.00000
     90       1.0134      2.00000
     91       1.0368      2.00000
     92       1.0369      2.00000
     93       1.0369      2.00000
     94       1.0369      2.00000
     95       1.0820      2.00000
     96       1.0820      2.00000
     97       1.2479      2.00000
     98       1.2479      2.00000
     99       1.4049      2.00000
    100       1.6093      2.00000
    101       1.6094      2.00000
    102       1.6094      2.00000
    103       1.6094      2.00000
    104       1.6767      2.00000
    105       1.6767      2.00000
    106       1.6767      2.00000
    107       1.6769      2.00000
    108       1.7090      2.00000
    109       1.7090      2.00000
    110       1.7091      2.00000
    111       1.7092      2.00000
    112       1.7106      2.00000
    113       1.7106      2.00000
    114       1.7107      2.00000
    115       1.7107      2.00000
    116       1.7720      2.00000
    117       1.8523      2.00000
    118       1.8525      2.00000
    119       1.8526      2.00000
    120       1.8526      2.00000
    121       1.8691      2.00000
    122       1.8691      2.00000
    123       1.8692      2.00000
    124       1.8693      2.00000
    125       1.9904      2.00000
    126       2.1702      2.00000
    127       2.1895      2.00000
    128       2.1907      2.00000
    129       2.2063      2.00000
    130       2.2078      2.00000
    131       2.2078      2.00000
    132       2.2078      2.00000
    133       2.2090      2.00000
    134       2.3428      2.00000
    135       2.3428      2.00000
    136       2.3428      2.00000
    137       2.3430      2.00000
    138       2.3954      2.00000
    139       2.3954      2.00000
    140       2.4240      2.00000
    141       2.4240      2.00000
    142       2.4240      2.00000
    143       2.4240      2.00000
    144       2.4983      2.00000
    145       2.4983      2.00000
    146       2.6883      2.00000
    147       2.7172      2.00000
    148       2.7174      2.00000
    149       2.7174      2.00000
    150       2.7174      2.00000
    151       2.7423      2.00000
    152       2.7426      2.00000
    153       2.8166      2.00000
    154       2.8167      2.00000
    155       2.8167      2.00000
    156       2.8169      2.00000
    157       2.8886      2.00000
    158       3.0138      2.00000
    159       3.0138      2.00000
    160       3.0139      2.00000
    161       3.0139      2.00000
    162       3.0270      2.00000
    163       3.0270      2.00000
    164       3.2906      2.00000
    165       3.2918      2.00000
    166       3.2926      2.00000
    167       3.2940      2.00000
    168       3.5739      2.00000
    169       3.5740      2.00000
    170       3.5740      2.00000
    171       3.5740      2.00000
    172       4.4295      2.00181
    173       4.5118      2.00979
    174       4.5119      2.00980
    175       4.5119      2.00980
    176       4.5119      2.00980
    177       4.6121      2.04229
    178       4.6121      2.04230
    179       4.6121      2.04230
    180       4.6124      2.04242
    181       6.0181     -0.00000
    182       6.0181     -0.00000
    183       6.0182     -0.00000
    184       6.0182     -0.00000
    185       7.1982     -0.00000
    186       7.1982     -0.00000
    187       7.9498     -0.00000
    188       7.9498     -0.00000
    189       7.9498     -0.00000
    190       7.9499     -0.00000
    191       8.7431     -0.00000
    192       8.7431     -0.00000
    193       8.7431     -0.00000
    194       8.7432     -0.00000
    195       9.0779     -0.00000
    196       9.0779     -0.00000
    197       9.6745     -0.00000
    198       9.6746     -0.00000
    199      10.0985     -0.00000
    200      10.0985     -0.00000
    201      11.0159      0.00000
    202      11.0159      0.00000
    203      11.0159      0.00000
    204      11.0159      0.00000
    205      11.5877      0.00000
    206      11.5877      0.00000
    207      11.5878      0.00000
    208      11.5879      0.00000
    209      11.6548      0.00000
    210      11.6548      0.00000
    211      11.6549      0.00000
    212      11.6549      0.00000

 k-point   3 :       0.0000    0.3333   -0.0000
  band No.  band energies     occupation 
      1      -3.9304      2.00000
      2      -3.0670      2.00000
      3      -1.7195      2.00000
      4      -1.7144      2.00000
      5      -1.7144      2.00000
      6      -1.7096      2.00000
      7      -1.6519      2.00000
      8      -1.6518      2.00000
      9      -1.6512      2.00000
     10      -1.6510      2.00000
     11      -1.4804      2.00000
     12      -1.3784      2.00000
     13      -1.3783      2.00000
     14      -1.3768      2.00000
     15      -1.1909      2.00000
     16      -1.1850      2.00000
     17      -1.1804      2.00000
     18      -1.1802      2.00000
     19      -1.1764      2.00000
     20      -1.1731      2.00000
     21      -1.1728      2.00000
     22      -1.1719      2.00000
     23      -1.1703      2.00000
     24      -1.1337      2.00000
     25      -1.1335      2.00000
     26      -0.8928      2.00000
     27      -0.8927      2.00000
     28      -0.8865      2.00000
     29      -0.6428      2.00000
     30      -0.6427      2.00000
     31      -0.4303      2.00000
     32      -0.4275      2.00000
     33      -0.4273      2.00000
     34      -0.4244      2.00000
     35      -0.3869      2.00000
     36      -0.3845      2.00000
     37      -0.3841      2.00000
     38      -0.3815      2.00000
     39      -0.3572      2.00000
     40      -0.3537      2.00000
     41      -0.3536      2.00000
     42      -0.3502      2.00000
     43      -0.1299      2.00000
     44      -0.1266      2.00000
     45      -0.1265      2.00000
     46      -0.1232      2.00000
     47       0.0209      2.00000
     48       0.0240      2.00000
     49       0.0241      2.00000
     50       0.0274      2.00000
     51       0.0361      2.00000
     52       0.0734      2.00000
     53       0.0765      2.00000
     54       0.0766      2.00000
     55       0.0797      2.00000
     56       0.1712      2.00000
     57       0.1765      2.00000
     58       0.1766      2.00000
     59       0.1802      2.00000
     60       0.1824      2.00000
     61       0.1857      2.00000
     62       0.1857      2.00000
     63       0.1906      2.00000
     64       0.3258      2.00000
     65       0.3278      2.00000
     66       0.3281      2.00000
     67       0.3298      2.00000
     68       0.4159      2.00000
     69       0.4675      2.00000
     70       0.4685      2.00000
     71       0.4691      2.00000
     72       0.4699      2.00000
     73       0.4959      2.00000
     74       0.4989      2.00000
     75       0.4990      2.00000
     76       0.5020      2.00000
     77       0.6666      2.00000
     78       0.6673      2.00000
     79       0.6673      2.00000
     80       0.6682      2.00000
     81       0.6947      2.00000
     82       0.6948      2.00000
     83       0.8088      2.00000
     84       0.8125      2.00000
     85       0.8125      2.00000
     86       0.8162      2.00000
     87       1.0115      2.00000
     88       1.0124      2.00000
     89       1.0138      2.00000
     90       1.0152      2.00000
     91       1.0360      2.00000
     92       1.0369      2.00000
     93       1.0370      2.00000
     94       1.0385      2.00000
     95       1.0820      2.00000
     96       1.0820      2.00000
     97       1.2477      2.00000
     98       1.2477      2.00000
     99       1.4048      2.00000
    100       1.6069      2.00000
    101       1.6092      2.00000
    102       1.6093      2.00000
    103       1.6114      2.00000
    104       1.6722      2.00000
    105       1.6768      2.00000
    106       1.6768      2.00000
    107       1.6801      2.00000
    108       1.7054      2.00000
    109       1.7058      2.00000
    110       1.7089      2.00000
    111       1.7097      2.00000
    112       1.7099      2.00000
    113       1.7107      2.00000
    114       1.7137      2.00000
    115       1.7159      2.00000
    116       1.7720      2.00000
    117       1.8502      2.00000
    118       1.8526      2.00000
    119       1.8529      2.00000
    120       1.8550      2.00000
    121       1.8667      2.00000
    122       1.8690      2.00000
    123       1.8692      2.00000
    124       1.8714      2.00000
    125       1.9907      2.00000
    126       2.1706      2.00000
    127       2.1901      2.00000
    128       2.1902      2.00000
    129       2.2053      2.00000
    130       2.2058      2.00000
    131       2.2076      2.00000
    132       2.2094      2.00000
    133       2.2098      2.00000
    134       2.3398      2.00000
    135       2.3428      2.00000
    136       2.3428      2.00000
    137       2.3458      2.00000
    138       2.3953      2.00000
    139       2.3955      2.00000
    140       2.4218      2.00000
    141       2.4240      2.00000
    142       2.4241      2.00000
    143       2.4261      2.00000
    144       2.4980      2.00000
    145       2.4981      2.00000
    146       2.6884      2.00000
    147       2.7154      2.00000
    148       2.7174      2.00000
    149       2.7174      2.00000
    150       2.7195      2.00000
    151       2.7423      2.00000
    152       2.7423      2.00000
    153       2.8150      2.00000
    154       2.8166      2.00000
    155       2.8166      2.00000
    156       2.8184      2.00000
    157       2.8886      2.00000
    158       3.0130      2.00000
    159       3.0137      2.00000
    160       3.0139      2.00000
    161       3.0145      2.00000
    162       3.0270      2.00000
    163       3.0271      2.00000
    164       3.2919      2.00000
    165       3.2920      2.00000
    166       3.2928      2.00000
    167       3.2928      2.00000
    168       3.5719      2.00000
    169       3.5739      2.00000
    170       3.5740      2.00000
    171       3.5760      2.00000
    172       4.4297      2.00182
    173       4.5096      2.00940
    174       4.5110      2.00964
    175       4.5128      2.00997
    176       4.5141      2.01021
    177       4.6098      2.04125
    178       4.6117      2.04212
    179       4.6126      2.04251
    180       4.6146      2.04342
    181       6.0156     -0.00000
    182       6.0181     -0.00000
    183       6.0181     -0.00000
    184       6.0207     -0.00000
    185       7.1982     -0.00000
    186       7.1983     -0.00000
    187       7.9478     -0.00000
    188       7.9498     -0.00000
    189       7.9498     -0.00000
    190       7.9519     -0.00000
    191       8.7407     -0.00000
    192       8.7430     -0.00000
    193       8.7433     -0.00000
    194       8.7457     -0.00000
    195       9.0779     -0.00000
    196       9.0779     -0.00000
    197       9.6745     -0.00000
    198       9.6746     -0.00000
    199      10.0984     -0.00000
    200      10.0985     -0.00000
    201      11.0140      0.00000
    202      11.0159      0.00000
    203      11.0172      0.00000
    204      11.0178      0.00000
    205      11.5846      0.00000
    206      11.5874      0.00000
    207      11.5889      0.00000
    208      11.5909      0.00000
    209      11.6519      0.00000
    210      11.6554      0.00000
    211      11.6562      0.00000
    212      11.7312      0.00000

 k-point   4 :       0.3333    0.3333    0.0000
  band No.  band energies     occupation 
      1      -3.6382      2.00000
      2      -2.8158      2.00000
      3      -2.8108      2.00000
      4      -2.1120      2.00000
      5      -1.6748      2.00000
      6      -1.6748      2.00000
      7      -1.6347      2.00000
      8      -1.6346      2.00000
      9      -1.4403      2.00000
     10      -1.4387      2.00000
     11      -1.4379      2.00000
     12      -1.4361      2.00000
     13      -1.3532      2.00000
     14      -1.3532      2.00000
     15      -1.2768      2.00000
     16      -1.2766      2.00000
     17      -1.2710      2.00000
     18      -1.1553      2.00000
     19      -1.1525      2.00000
     20      -1.0350      2.00000
     21      -1.0342      2.00000
     22      -0.9150      2.00000
     23      -0.9028      2.00000
     24      -0.8993      2.00000
     25      -0.8285      2.00000
     26      -0.8272      2.00000
     27      -0.8243      2.00000
     28      -0.8230      2.00000
     29      -0.7624      2.00000
     30      -0.7601      2.00000
     31      -0.7568      2.00000
     32      -0.7546      2.00000
     33      -0.7544      2.00000
     34      -0.5723      2.00000
     35      -0.5721      2.00000
     36      -0.5707      2.00000
     37      -0.5703      2.00000
     38      -0.4177      2.00000
     39      -0.4146      2.00000
     40      -0.3878      2.00000
     41      -0.3876      2.00000
     42      -0.3786      2.00000
     43      -0.3772      2.00000
     44      -0.2926      2.00000
     45      -0.2925      2.00000
     46      -0.1324      2.00000
     47      -0.1324      2.00000
     48       0.0030      2.00000
     49       0.0282      2.00000
     50       0.0301      2.00000
     51       0.0309      2.00000
     52       0.0327      2.00000
     53       0.0597      2.00000
     54       0.0708      2.00000
     55       0.0733      2.00000
     56       0.2532      2.00000
     57       0.2532      2.00000
     58       0.3062      2.00000
     59       0.3081      2.00000
     60       0.3701      2.00000
     61       0.4257      2.00000
     62       0.4285      2.00000
     63       0.4292      2.00000
     64       0.4318      2.00000
     65       0.5159      2.00000
     66       0.5159      2.00000
     67       0.5244      2.00000
     68       0.5251      2.00000
     69       0.5274      2.00000
     70       0.5281      2.00000
     71       0.5321      2.00000
     72       0.5322      2.00000
     73       0.6932      2.00000
     74       0.6932      2.00000
     75       0.7428      2.00000
     76       0.7588      2.00000
     77       0.7589      2.00000
     78       0.7747      2.00000
     79       0.7767      2.00000
     80       0.8182      2.00000
     81       0.8553      2.00000
     82       0.8566      2.00000
     83       0.8569      2.00000
     84       0.8585      2.00000
     85       0.8693      2.00000
     86       0.8742      2.00000
     87       0.9048      2.00000
     88       0.9052      2.00000
     89       0.9296      2.00000
     90       0.9299      2.00000
     91       1.0845      2.00000
     92       1.0884      2.00000
     93       1.1011      2.00000
     94       1.1024      2.00000
     95       1.1037      2.00000
     96       1.1049      2.00000
     97       1.1443      2.00000
     98       1.1453      2.00000
     99       1.2003      2.00000
    100       1.2056      2.00000
    101       1.2407      2.00000
    102       1.2972      2.00000
    103       1.2972      2.00000
    104       1.3606      2.00000
    105       1.3624      2.00000
    106       1.3646      2.00000
    107       1.3665      2.00000
    108       1.4320      2.00000
    109       1.5476      2.00000
    110       1.5493      2.00000
    111       1.5494      2.00000
    112       1.5500      2.00000
    113       1.6523      2.00000
    114       1.6523      2.00000
    115       1.7174      2.00000
    116       1.7175      2.00000
    117       1.7428      2.00000
    118       1.8419      2.00000
    119       1.9923      2.00000
    120       2.0451      2.00000
    121       2.0465      2.00000
    122       2.0919      2.00000
    123       2.0927      2.00000
    124       2.1100      2.00000
    125       2.1102      2.00000
    126       2.1116      2.00000
    127       2.2554      2.00000
    128       2.2587      2.00000
    129       2.2714      2.00000
    130       2.2742      2.00000
    131       2.3573      2.00000
    132       2.3582      2.00000
    133       2.3599      2.00000
    134       2.3612      2.00000
    135       2.3821      2.00000
    136       2.3856      2.00000
    137       2.3888      2.00000
    138       2.3914      2.00000
    139       2.4747      2.00000
    140       2.4778      2.00000
    141       2.5064      2.00000
    142       2.5065      2.00000
    143       2.5666      2.00000
    144       2.6135      2.00000
    145       2.6548      2.00000
    146       2.6548      2.00000
    147       2.7059      2.00000
    148       2.7066      2.00000
    149       2.7067      2.00000
    150       2.7073      2.00000
    151       2.7655      2.00000
    152       2.7718      2.00000
    153       2.7728      2.00000
    154       2.9092      2.00000
    155       2.9093      2.00000
    156       2.9294      2.00000
    157       2.9294      2.00000
    158       2.9380      2.00000
    159       2.9381      2.00000
    160       3.0178      2.00000
    161       3.0193      2.00000
    162       3.0227      2.00000
    163       3.0243      2.00000
    164       3.0246      2.00000
    165       3.0267      2.00000
    166       3.1114      2.00000
    167       3.4577      2.00000
    168       3.4577      2.00000
    169       3.4879      2.00000
    170       3.4883      2.00000
    171       3.4902      2.00000
    172       3.4906      2.00000
    173       3.5892      2.00000
    174       3.5900      2.00000
    175       4.8241      1.82343
    176       4.8255      1.81678
    177       5.4357     -0.00258
    178       5.4367     -0.00252
    179       6.2193     -0.00000
    180       6.2197     -0.00000
    181       6.2480     -0.00000
    182       6.2494     -0.00000
    183       6.2497     -0.00000
    184       6.2515     -0.00000
    185       6.8264     -0.00000
    186       6.8290     -0.00000
    187       7.3326     -0.00000
    188       7.7525     -0.00000
    189       7.7525     -0.00000
    190       7.9921     -0.00000
    191       8.1223     -0.00000
    192       8.1223     -0.00000
    193       8.8586     -0.00000
    194       8.8609     -0.00000
    195       8.9968     -0.00000
    196       8.9968     -0.00000
    197       9.5588     -0.00000
    198       9.5601     -0.00000
    199       9.5603     -0.00000
    200       9.5616     -0.00000
    201       9.6914     -0.00000
    202       9.6959     -0.00000
    203       9.7119     -0.00000
    204      10.5539      0.00000
    205      10.5539      0.00000
    206      11.1768      0.00000
    207      11.6720      0.00000
    208      11.6734      0.00000
    209      11.8228      0.00000
    210      12.0747      0.00000
    211      12.2286      0.00000
    212      12.2681      0.00000

 k-point   5 :       0.0000    0.3333    0.3333
  band No.  band energies     occupation 
      1      -3.6382      2.00000
      2      -2.8133      2.00000
      3      -2.8133      2.00000
      4      -2.1120      2.00000
      5      -1.6751      2.00000
      6      -1.6745      2.00000
      7      -1.6365      2.00000
      8      -1.6328      2.00000
      9      -1.4408      2.00000
     10      -1.4389      2.00000
     11      -1.4375      2.00000
     12      -1.4356      2.00000
     13      -1.3533      2.00000
     14      -1.3532      2.00000
     15      -1.2767      2.00000
     16      -1.2767      2.00000
     17      -1.2710      2.00000
     18      -1.1540      2.00000
     19      -1.1540      2.00000
     20      -1.0346      2.00000
     21      -1.0346      2.00000
     22      -0.9146      2.00000
     23      -0.9013      2.00000
     24      -0.9013      2.00000
     25      -0.8261      2.00000
     26      -0.8260      2.00000
     27      -0.8256      2.00000
     28      -0.8255      2.00000
     29      -0.7610      2.00000
     30      -0.7610      2.00000
     31      -0.7555      2.00000
     32      -0.7554      2.00000
     33      -0.7551      2.00000
     34      -0.5719      2.00000
     35      -0.5717      2.00000
     36      -0.5710      2.00000
     37      -0.5708      2.00000
     38      -0.4163      2.00000
     39      -0.4162      2.00000
     40      -0.3877      2.00000
     41      -0.3876      2.00000
     42      -0.3779      2.00000
     43      -0.3779      2.00000
     44      -0.2926      2.00000
     45      -0.2926      2.00000
     46      -0.1345      2.00000
     47      -0.1304      2.00000
     48       0.0028      2.00000
     49       0.0300      2.00000
     50       0.0303      2.00000
     51       0.0305      2.00000
     52       0.0311      2.00000
     53       0.0600      2.00000
     54       0.0718      2.00000
     55       0.0719      2.00000
     56       0.2531      2.00000
     57       0.2531      2.00000
     58       0.3071      2.00000
     59       0.3072      2.00000
     60       0.3701      2.00000
     61       0.4264      2.00000
     62       0.4286      2.00000
     63       0.4290      2.00000
     64       0.4313      2.00000
     65       0.5137      2.00000
     66       0.5172      2.00000
     67       0.5230      2.00000
     68       0.5259      2.00000
     69       0.5263      2.00000
     70       0.5307      2.00000
     71       0.5323      2.00000
     72       0.5324      2.00000
     73       0.6907      2.00000
     74       0.6961      2.00000
     75       0.7427      2.00000
     76       0.7585      2.00000
     77       0.7589      2.00000
     78       0.7745      2.00000
     79       0.7768      2.00000
     80       0.8184      2.00000
     81       0.8561      2.00000
     82       0.8568      2.00000
     83       0.8569      2.00000
     84       0.8572      2.00000
     85       0.8716      2.00000
     86       0.8723      2.00000
     87       0.9053      2.00000
     88       0.9053      2.00000
     89       0.9296      2.00000
     90       0.9297      2.00000
     91       1.0863      2.00000
     92       1.0863      2.00000
     93       1.1014      2.00000
     94       1.1024      2.00000
     95       1.1038      2.00000
     96       1.1047      2.00000
     97       1.1447      2.00000
     98       1.1449      2.00000
     99       1.2029      2.00000
    100       1.2031      2.00000
    101       1.2406      2.00000
    102       1.2961      2.00000
    103       1.2980      2.00000
    104       1.3629      2.00000
    105       1.3630      2.00000
    106       1.3642      2.00000
    107       1.3643      2.00000
    108       1.4319      2.00000
    109       1.5477      2.00000
    110       1.5486      2.00000
    111       1.5490      2.00000
    112       1.5506      2.00000
    113       1.6523      2.00000
    114       1.6524      2.00000
    115       1.7175      2.00000
    116       1.7176      2.00000
    117       1.7427      2.00000
    118       1.8419      2.00000
    119       1.9925      2.00000
    120       2.0457      2.00000
    121       2.0458      2.00000
    122       2.0923      2.00000
    123       2.0923      2.00000
    124       2.1087      2.00000
    125       2.1106      2.00000
    126       2.1123      2.00000
    127       2.2571      2.00000
    128       2.2573      2.00000
    129       2.2724      2.00000
    130       2.2726      2.00000
    131       2.3577      2.00000
    132       2.3589      2.00000
    133       2.3595      2.00000
    134       2.3606      2.00000
    135       2.3843      2.00000
    136       2.3844      2.00000
    137       2.3897      2.00000
    138       2.3898      2.00000
    139       2.4763      2.00000
    140       2.4763      2.00000
    141       2.5049      2.00000
    142       2.5082      2.00000
    143       2.5665      2.00000
    144       2.6136      2.00000
    145       2.6544      2.00000
    146       2.6550      2.00000
    147       2.7051      2.00000
    148       2.7063      2.00000
    149       2.7070      2.00000
    150       2.7082      2.00000
    151       2.7655      2.00000
    152       2.7722      2.00000
    153       2.7722      2.00000
    154       2.9090      2.00000
    155       2.9096      2.00000
    156       2.9293      2.00000
    157       2.9294      2.00000
    158       2.9379      2.00000
    159       2.9380      2.00000
    160       3.0190      2.00000
    161       3.0190      2.00000
    162       3.0241      2.00000
    163       3.0241      2.00000
    164       3.0248      2.00000
    165       3.0248      2.00000
    166       3.1114      2.00000
    167       3.4572      2.00000
    168       3.4582      2.00000
    169       3.4890      2.00000
    170       3.4891      2.00000
    171       3.4894      2.00000
    172       3.4895      2.00000
    173       3.5895      2.00000
    174       3.5895      2.00000
    175       4.8247      1.82052
    176       4.8248      1.82026
    177       5.4361     -0.00255
    178       5.4362     -0.00255
    179       6.2193     -0.00000
    180       6.2197     -0.00000
    181       6.2461     -0.00000
    182       6.2490     -0.00000
    183       6.2503     -0.00000
    184       6.2536     -0.00000
    185       6.8276     -0.00000
    186       6.8277     -0.00000
    187       7.3326     -0.00000
    188       7.7525     -0.00000
    189       7.7525     -0.00000
    190       7.9922     -0.00000
    191       8.1223     -0.00000
    192       8.1223     -0.00000
    193       8.8597     -0.00000
    194       8.8597     -0.00000
    195       8.9967     -0.00000
    196       8.9968     -0.00000
    197       9.5574     -0.00000
    198       9.5601     -0.00000
    199       9.5604     -0.00000
    200       9.5630     -0.00000
    201       9.6935     -0.00000
    202       9.6936     -0.00000
    203       9.7123     -0.00000
    204      10.5525      0.00000
    205      10.5553      0.00000
    206      11.1767      0.00000
    207      11.6727      0.00000
    208      11.6728      0.00000
    209      11.8356      0.00000
    210      12.0721      0.00000
    211      12.1046      0.00000
    212      12.2681      0.00000

 k-point   6 :       0.3333    0.3333    0.3333
  band No.  band energies     occupation 
      1      -3.3679      2.00000
      2      -2.6176      2.00000
      3      -2.6143      2.00000
      4      -2.6111      2.00000
      5      -2.0907      2.00000
      6      -2.0881      2.00000
      7      -2.0855      2.00000
      8      -1.9618      2.00000
      9      -1.2563      2.00000
     10      -1.2561      2.00000
     11      -1.2558      2.00000
     12      -1.1927      2.00000
     13      -1.1923      2.00000
     14      -1.1921      2.00000
     15      -1.1261      2.00000
     16      -1.1237      2.00000
     17      -1.1213      2.00000
     18      -0.9670      2.00000
     19      -0.9661      2.00000
     20      -0.9636      2.00000
     21      -0.9636      2.00000
     22      -0.9614      2.00000
     23      -0.9605      2.00000
     24      -0.8757      2.00000
     25      -0.8730      2.00000
     26      -0.8710      2.00000
     27      -0.8666      2.00000
     28      -0.8656      2.00000
     29      -0.8640      2.00000
     30      -0.8638      2.00000
     31      -0.8625      2.00000
     32      -0.8613      2.00000
     33      -0.8020      2.00000
     34      -0.8012      2.00000
     35      -0.8003      2.00000
     36      -0.4900      2.00000
     37      -0.4888      2.00000
     38      -0.4876      2.00000
     39      -0.3180      2.00000
     40      -0.3160      2.00000
     41      -0.3147      2.00000
     42      -0.3147      2.00000
     43      -0.3134      2.00000
     44      -0.3116      2.00000
     45       0.0007      2.00000
     46       0.0026      2.00000
     47       0.0042      2.00000
     48       0.0300      2.00000
     49       0.0317      2.00000
     50       0.0330      2.00000
     51       0.0330      2.00000
     52       0.0341      2.00000
     53       0.0362      2.00000
     54       0.1880      2.00000
     55       0.1900      2.00000
     56       0.1920      2.00000
     57       0.2177      2.00000
     58       0.2181      2.00000
     59       0.2186      2.00000
     60       0.3747      2.00000
     61       0.4011      2.00000
     62       0.4035      2.00000
     63       0.4059      2.00000
     64       0.5241      2.00000
     65       0.5246      2.00000
     66       0.5265      2.00000
     67       0.5266      2.00000
     68       0.5283      2.00000
     69       0.5289      2.00000
     70       0.7037      2.00000
     71       0.7039      2.00000
     72       0.7856      2.00000
     73       0.7858      2.00000
     74       0.8076      2.00000
     75       0.8093      2.00000
     76       0.8112      2.00000
     77       0.8743      2.00000
     78       0.8756      2.00000
     79       0.8768      2.00000
     80       0.8907      2.00000
     81       0.8910      2.00000
     82       0.8933      2.00000
     83       0.8935      2.00000
     84       0.8959      2.00000
     85       0.8963      2.00000
     86       0.9022      2.00000
     87       0.9028      2.00000
     88       0.9033      2.00000
     89       0.9134      2.00000
     90       0.9148      2.00000
     91       0.9167      2.00000
     92       0.9553      2.00000
     93       0.9562      2.00000
     94       0.9573      2.00000
     95       0.9626      2.00000
     96       0.9654      2.00000
     97       0.9684      2.00000
     98       1.0566      2.00000
     99       1.0567      2.00000
    100       1.0568      2.00000
    101       1.2049      2.00000
    102       1.2069      2.00000
    103       1.2088      2.00000
    104       1.3188      2.00000
    105       1.5136      2.00000
    106       1.5167      2.00000
    107       1.5193      2.00000
    108       1.5309      2.00000
    109       1.5314      2.00000
    110       1.5337      2.00000
    111       1.5337      2.00000
    112       1.5363      2.00000
    113       1.5365      2.00000
    114       1.7405      2.00000
    115       1.7413      2.00000
    116       1.7421      2.00000
    117       1.7776      2.00000
    118       1.7809      2.00000
    119       1.7836      2.00000
    120       1.8150      2.00000
    121       1.8172      2.00000
    122       1.8196      2.00000
    123       1.8844      2.00000
    124       1.8846      2.00000
    125       1.9073      2.00000
    126       1.9100      2.00000
    127       1.9126      2.00000
    128       1.9633      2.00000
    129       1.9646      2.00000
    130       1.9659      2.00000
    131       1.9660      2.00000
    132       1.9672      2.00000
    133       1.9687      2.00000
    134       2.2342      2.00000
    135       2.2363      2.00000
    136       2.2382      2.00000
    137       2.2923      2.00000
    138       2.2924      2.00000
    139       2.2925      2.00000
    140       2.4827      2.00000
    141       2.4827      2.00000
    142       2.6577      2.00000
    143       2.6592      2.00000
    144       2.6608      2.00000
    145       2.8512      2.00000
    146       2.8514      2.00000
    147       2.8523      2.00000
    148       2.8622      2.00000
    149       2.8638      2.00000
    150       2.8643      2.00000
    151       2.8644      2.00000
    152       2.8647      2.00000
    153       2.8665      2.00000
    154       2.9940      2.00000
    155       2.9942      2.00000
    156       2.9947      2.00000
    157       3.0054      2.00000
    158       3.0067      2.00000
    159       3.0072      2.00000
    160       3.0073      2.00000
    161       3.0079      2.00000
    162       3.0091      2.00000
    163       3.0418      2.00000
    164       3.0420      2.00000
    165       3.0424      2.00000
    166       3.1346      2.00000
    167       3.1347      2.00000
    168       3.1349      2.00000
    169       3.9546      2.00000
    170       3.9564      2.00000
    171       3.9581      2.00000
    172       5.0104      0.44679
    173       5.0116      0.43831
    174       5.0132      0.42771
    175       5.0132      0.42763
    176       5.0147      0.41725
    177       5.0159      0.40916
    178       5.6152     -0.00002
    179       5.6160     -0.00002
    180       5.6168     -0.00002
    181       6.0705     -0.00000
    182       6.0718     -0.00000
    183       6.0730     -0.00000
    184       7.2575     -0.00000
    185       7.2599     -0.00000
    186       7.2609     -0.00000
    187       7.2610     -0.00000
    188       7.2620     -0.00000
    189       7.2644     -0.00000
    190       7.7639     -0.00000
    191       7.7639     -0.00000
    192       7.7640     -0.00000
    193       8.3326     -0.00000
    194       8.3347     -0.00000
    195       8.3369     -0.00000
    196       8.9180     -0.00000
    197       8.9195     -0.00000
    198       8.9210     -0.00000
    199       9.9049     -0.00000
    200       9.9052     -0.00000
    201       9.9078     -0.00000
    202       9.9078     -0.00000
    203       9.9105     -0.00000
    204       9.9107     -0.00000
    205      11.1620      0.00000
    206      11.1625      0.00000
    207      11.1645      0.00000
    208      11.1646      0.00000
    209      11.1666      0.00000
    210      11.1672      0.00000
    211      11.3699      0.00000
    212      11.3702      0.00000


--------------------------------------------------------------------------------------------------------


 soft charge-density along one line, spin component           1
         0         1         2         3         4         5         6         7         8         9
 total charge-density along one line
 
 pseudopotential strength for first ion, spin component:           1
-10.042   0.000   0.000   0.000   0.000  -0.069  -0.000  -0.000
  0.000 -10.042   0.000   0.000  -0.000  -0.000  -0.069  -0.000
  0.000   0.000 -10.028   0.000  -0.000  -0.000  -0.000  -0.071
  0.000   0.000   0.000 -10.042   0.000  -0.000  -0.000  -0.000
  0.000  -0.000  -0.000   0.000 -10.028  -0.000   0.000   0.000
 -0.069  -0.000  -0.000  -0.000  -0.000   0.280   0.000   0.000
 -0.000  -0.069  -0.000  -0.000   0.000   0.000   0.280   0.000
 -0.000  -0.000  -0.071  -0.000   0.000   0.000   0.000   0.280
 -0.000  -0.000  -0.000  -0.069  -0.000   0.000   0.000   0.000
 -0.000   0.000   0.000  -0.000  -0.071   0.000  -0.000  -0.000
 -0.000  -0.000   0.000  -0.000  -0.000   0.000   0.000  -0.000
  0.000   0.000  -0.000   0.000   0.000  -0.000  -0.000   0.000
  0.000  -0.000   0.000   0.000   0.000  -0.000   0.000  -0.000
  0.000  -0.000  -0.000   0.000   0.000   0.000   0.000   0.000
 -0.000   0.000  -0.000  -0.000   0.000   0.000   0.000   0.000
 -0.000   0.000  -0.000  -0.000  -0.000   0.000  -0.000   0.000
 -0.000   0.000   0.000  -0.000  -0.000   0.000  -0.000  -0.000
  0.000  -0.000   0.000   0.000  -0.000  -0.000   0.000  -0.000
 total augmentation occupancy for first ion, spin component:           1
  1.901  -0.000  -0.006  -0.000   0.000  -0.044   0.000   0.003   0.001  -0.000   0.011   0.002   0.000  -0.000  -0.000   0.000
 -0.000   1.908   0.003  -0.001  -0.005   0.000  -0.051  -0.002   0.001   0.003   0.011   0.002   0.000  -0.000   0.000  -0.000
 -0.006   0.003   1.958   0.003  -0.002   0.003  -0.002  -0.095  -0.002   0.002   0.011   0.003   0.000  -0.000  -0.000   0.000
 -0.000  -0.001   0.003   1.916   0.005   0.001   0.001  -0.002  -0.058  -0.003   0.011   0.003  -0.000   0.000   0.000   0.000
  0.000  -0.005  -0.002   0.005   1.950  -0.000   0.003   0.002  -0.003  -0.089   0.007   0.002   0.000  -0.000  -0.000   0.000
 -0.044   0.000   0.003   0.001  -0.000   0.178  -0.001   0.001  -0.001   0.000  -0.005   0.001  -0.000   0.000   0.000  -0.000
  0.000  -0.051  -0.002   0.001   0.003  -0.001   0.184   0.000  -0.001  -0.000  -0.006  -0.000  -0.000  -0.000  -0.000   0.000
  0.003  -0.002  -0.095  -0.002   0.002   0.001   0.000   0.146   0.001  -0.001  -0.008  -0.001  -0.000   0.000   0.000  -0.000
  0.001   0.001  -0.002  -0.058  -0.003  -0.001  -0.001   0.001   0.190   0.001  -0.008  -0.001   0.000  -0.000  -0.000  -0.000
 -0.000   0.003   0.002  -0.003  -0.089   0.000  -0.000  -0.001   0.001   0.144  -0.005  -0.001  -0.000   0.000   0.000  -0.000
  0.011   0.011   0.011   0.011   0.007  -0.005  -0.006  -0.008  -0.008  -0.005   1.049  -0.351   0.000  -0.000  -0.000  -0.000
  0.002   0.002   0.003   0.003   0.002   0.001  -0.000  -0.001  -0.001  -0.001  -0.351   0.220   0.000  -0.000  -0.000   0.000
  0.000   0.000   0.000  -0.000   0.000  -0.000  -0.000  -0.000   0.000  -0.000   0.000   0.000   0.144   0.002   0.003  -0.010
 -0.000  -0.000  -0.000   0.000  -0.000   0.000  -0.000   0.000  -0.000   0.000  -0.000  -0.000   0.002   0.143   0.002  -0.000
 -0.000   0.000  -0.000   0.000  -0.000   0.000  -0.000   0.000  -0.000   0.000  -0.000  -0.000   0.003   0.002   0.144  -0.000
  0.000  -0.000   0.000   0.000   0.000  -0.000   0.000  -0.000  -0.000  -0.000  -0.000   0.000  -0.010  -0.000  -0.000   0.001
 -0.000  -0.000   0.000   0.000  -0.000   0.000  -0.000  -0.000  -0.000  -0.000   0.000   0.000  -0.000  -0.010  -0.000   0.000
 -0.000  -0.000  -0.000  -0.000   0.000   0.000   0.000  -0.000   0.000  -0.000   0.000  -0.000  -0.000  -0.000  -0.010   0.000


------------------------ aborting loop because EDIFF is reached ----------------------------------------




--------------------------------------------------------------------------------------------------------


    CHARGE:  VPU time    5.10: CPU time   18.38
    FORLOC:  VPU time    0.11: CPU time    0.11
    FORNL :  VPU time   34.10: CPU time   50.61
    STRESS:  VPU time   60.13: CPU time  109.68
    FORCOR:  VPU time    0.55: CPU time    0.55
    FORHAR:  VPU time    0.20: CPU time    0.20
    MIXING:  VPU time    0.01: CPU time    0.01


--------------------------------------------------------------------------------------------------------



  FREE ENERGIE OF THE ION-ELECTRON SYSTEM (eV)
  ---------------------------------------------------
  free  energy   TOTEN  =      -104.545042 eV

  energy  without entropy=     -104.497271  energy(sigma->0) =     -104.529118
 

  FORCE on cell =-STRESS in cart. coord.  units (eV/reduce length):
  Direction    X        Y        Z        XY       YZ       ZX
  --------------------------------------------------------------------------------------
  Alpha Z   3308.64   3308.64   3308.64
  Ewald   -10220.03 -10219.89 -10219.89     -0.00     -0.00     -0.00
  Hartree   1291.16   1291.26   1291.26     -0.00     -0.00     -0.00
  E(xc)    -1586.21  -1586.21  -1586.21     -0.00     -0.00     -0.00
  Local     2543.20   2542.92   2542.92      0.00      0.00      0.00
  n-local  -1603.65  -1609.01  -1598.27      6.72      6.46      6.21
  augment   1375.01   1374.99   1374.99     -0.00     -0.00     -0.00
  Kinetic   4893.57   4888.53   4898.59      3.29      3.68      4.08
  -------------------------------------------------------------------------------------
  Total        1.68      1.64      1.64      0.00      0.00      0.00
  in kB        4.64      4.53      4.53      0.00      0.00      0.00
  external pressure =        4.57 kB  Pullay stress =        0.00 kB


 VOLUME and BASIS-vectors are now :
 -----------------------------------------------------------------------------
  energy-cutoff  :      600.00
  volume of cell :      579.62
      direct lattice vectors                 reciprocal lattice vectors
     8.337752780  0.000000000  0.000000000     0.119936394 -0.000000002 -0.000000002
     0.000000150  8.337752780  0.000000000     0.000000000  0.119936394 -0.000000002
     0.000000150  0.000000150  8.337752780     0.000000000  0.000000000  0.119936394

  length of vectors
     8.337752780  8.337752780  8.337752780     0.119936394  0.119936394  0.119936394


 FORCES acting on ions
    electron-ion (+dipol)            ewald-force                    non-local-force                 convergence-correction
 -----------------------------------------------------------------------------------------------
   0.278E-01 0.157E+00 -.143E-07   -.287E-01 -.156E+00 0.156E-07   0.453E-03 -.351E-03 -.136E-19   0.296E-04 0.536E-03 0.284E-09
   0.976E+00 0.189E+01 -.101E-07   -.987E+00 -.191E+01 0.297E-09   -.631E-02 -.279E-02 0.000E+00   0.323E-03 -.364E-03 -.414E-09
   0.976E+00 -.313E-07 -.189E+01   -.987E+00 0.341E-07 0.191E+01   -.631E-02 0.503E-10 0.279E-02   0.323E-03 0.256E-09 0.364E-03
   0.278E-01 -.157E+00 0.827E-08   -.287E-01 0.156E+00 -.912E-08   0.453E-03 0.351E-03 0.000E+00   0.296E-04 -.536E-03 -.153E-09
   -.122E+01 -.952E-02 0.952E-02   0.123E+01 0.928E-02 -.928E-02   -.629E-02 -.560E-04 0.560E-04   -.623E-03 0.409E-03 -.409E-03
   -.643E+00 0.256E-08 0.419E-07   0.652E+00 -.172E-08 -.465E-07   -.532E-02 0.160E-19 0.000E+00   -.206E-02 0.486E-09 -.905E-09
   0.340E-01 -.157E+00 0.791E-08   -.347E-01 0.156E+00 -.874E-08   0.473E-03 0.538E-03 0.000E+00   -.244E-03 -.697E-03 -.126E-09
   0.976E+00 0.239E-07 0.189E+01   -.987E+00 -.341E-07 -.191E+01   -.631E-02 -.503E-10 -.279E-02   0.323E-03 -.421E-09 -.364E-03
   0.976E+00 -.189E+01 0.277E-08   -.987E+00 0.191E+01 -.297E-09   -.631E-02 0.279E-02 0.000E+00   0.323E-03 0.364E-03 0.249E-09
   0.278E-01 0.546E-08 -.157E+00   -.287E-01 -.631E-08 0.156E+00   0.453E-03 0.631E-11 0.351E-03   0.296E-04 -.163E-09 -.536E-03
   -.122E+01 -.952E-02 -.952E-02   0.123E+01 0.928E-02 0.928E-02   -.629E-02 -.560E-04 -.560E-04   -.623E-03 0.409E-03 0.409E-03
   -.775E+01 0.119E-06 0.556E-07   0.781E+01 -.134E-06 -.134E-06   0.695E-01 0.426E-19 0.000E+00   -.171E-01 0.145E-08 0.145E-08
   -.122E+01 0.952E-02 0.952E-02   0.123E+01 -.928E-02 -.928E-02   -.629E-02 0.560E-04 0.560E-04   -.623E-03 -.409E-03 -.409E-03
   -.266E+00 0.117E-07 0.117E-07   0.269E+00 -.124E-07 -.124E-07   0.301E-04 -.305E-19 -.271E-19   -.178E-02 -.411E-09 -.411E-09
   0.989E+00 -.186E+01 0.261E-08   -.999E+00 0.188E+01 -.267E-09   -.566E-02 0.222E-02 0.000E+00   -.341E-03 0.634E-03 0.247E-09
   0.989E+00 0.235E-07 0.186E+01   -.999E+00 -.335E-07 -.188E+01   -.566E-02 -.399E-10 -.222E-02   -.341E-03 -.375E-09 -.634E-03
   0.340E-01 0.157E+00 -.146E-07   -.347E-01 -.156E+00 0.159E-07   0.473E-03 -.538E-03 0.136E-19   -.244E-03 0.697E-03 0.252E-09
   0.687E+00 0.267E-02 -.267E-02   -.692E+00 -.278E-02 0.278E-02   0.233E-02 0.102E-03 -.102E-03   0.215E-02 -.291E-04 0.291E-04
   0.519E+00 -.237E-08 -.279E-07   -.512E+00 0.171E-08 0.294E-07   -.595E-02 -.294E-20 0.000E+00   0.361E-02 -.519E-09 0.778E-09
   0.278E-01 -.115E-07 0.157E+00   -.287E-01 0.128E-07 -.156E+00   0.453E-03 -.631E-11 -.351E-03   0.296E-04 0.294E-09 0.536E-03
   -.122E+01 0.952E-02 -.952E-02   0.123E+01 -.928E-02 0.928E-02   -.629E-02 0.560E-04 -.560E-04   -.623E-03 -.409E-03 0.409E-03
   -.643E+00 0.420E-07 0.257E-08   0.652E+00 -.465E-07 -.172E-08   -.532E-02 0.527E-19 0.000E+00   -.206E-02 -.905E-09 0.486E-09
   0.989E+00 -.309E-07 -.186E+01   -.999E+00 0.336E-07 0.188E+01   -.566E-02 0.399E-10 0.222E-02   -.341E-03 0.258E-09 0.634E-03
   0.989E+00 0.186E+01 -.100E-07   -.999E+00 -.188E+01 0.327E-09   -.566E-02 -.222E-02 0.610E-19   -.341E-03 -.634E-03 -.363E-09
   0.340E-01 -.117E-07 0.157E+00   -.347E-01 0.131E-07 -.156E+00   0.473E-03 -.967E-11 -.538E-03   -.244E-03 0.265E-09 0.697E-03
   0.687E+00 0.267E-02 0.267E-02   -.692E+00 -.278E-02 -.278E-02   0.233E-02 0.102E-03 0.102E-03   0.215E-02 -.291E-04 -.291E-04
   0.204E+01 -.558E-08 0.584E-07   -.206E+01 0.229E-08 0.229E-08   0.127E-01 -.177E-20 0.847E-21   -.118E-03 -.105E-08 -.105E-08
   0.687E+00 -.267E-02 -.267E-02   -.692E+00 0.278E-02 0.278E-02   0.233E-02 -.102E-03 -.102E-03   0.215E-02 0.291E-04 0.291E-04
   0.246E+00 -.104E-07 -.104E-07   -.252E+00 0.109E-07 0.109E-07   0.130E-02 -.117E-19 0.000E+00   0.179E-02 0.440E-09 0.440E-09
   0.340E-01 0.511E-08 -.157E+00   -.347E-01 -.593E-08 0.156E+00   0.473E-03 0.967E-11 0.538E-03   -.244E-03 -.138E-09 -.697E-03
   0.687E+00 -.267E-02 0.267E-02   -.692E+00 0.278E-02 -.278E-02   0.233E-02 -.102E-03 0.102E-03   0.215E-02 0.291E-04 -.291E-04
   0.519E+00 -.278E-07 -.236E-08   -.512E+00 0.294E-07 0.171E-08   -.595E-02 0.429E-19 -.136E-19   0.361E-02 0.778E-09 -.519E-09
 -----------------------------------------------------------------------------------------------
   0.870E-02 -.530E-10 0.215E-10   0.195E-12 0.108E-12 0.211E-12   0.103E-02 0.720E-18 -.136E-19   -.887E-02 0.947E-10 0.946E-10
 
 
 POSITION                                       TOTAL-FORCE (eV/Angst)
 -----------------------------------------------------------------------------------
      6.25331      6.25331      4.16888        -0.000449      0.000697      0.000000
      6.25331      6.25331      0.00000        -0.017040     -0.019934     -0.000000
      6.25331      0.00000      2.08444        -0.017040      0.000000      0.019934
      6.25331      2.08444      4.16888        -0.000449     -0.000697      0.000000
      0.00000      6.25331      2.08444         0.006353      0.000115     -0.000115
      0.00000      0.00000      4.16888         0.001778     -0.000000      0.000000
      2.08444      6.25331      4.16888        -0.000448     -0.000774      0.000000
      6.25331      0.00000      6.25331        -0.017040     -0.000000     -0.019934
      6.25331      2.08444      0.00000        -0.017040      0.019934     -0.000000
      6.25331      4.16888      2.08444        -0.000449     -0.000000     -0.000697
      0.00000      6.25331      6.25331         0.006353      0.000115      0.000115
      8.31775      0.00000      0.00000         0.109609      0.000000     -0.000000
      0.00000      2.08444      2.08444         0.006353     -0.000115     -0.000115
      0.00000      4.16888      4.16888         0.001808      0.000000      0.000000
      2.08444      6.25331      0.00000        -0.016209      0.018586      0.000000
      2.08444      0.00000      2.08444        -0.016209     -0.000000     -0.018586
      2.08444      2.08444      4.16888        -0.000448      0.000774      0.000000
      4.16888      6.25331      2.08444        -0.000438     -0.000040      0.000040
      4.16888      0.00000      4.16888         0.003861     -0.000000      0.000000
      6.25331      4.16888      6.25331        -0.000449      0.000000      0.000697
      0.00000      2.08444      6.25331         0.006353     -0.000115      0.000115
      0.00000      4.16888      0.00000         0.001778      0.000000     -0.000000
      2.08444      0.00000      6.25331        -0.016209      0.000000      0.018586
      2.08444      2.08444      0.00000        -0.016209     -0.018586      0.000000
      2.08444      4.16888      2.08444        -0.000448      0.000000      0.000774
      4.16888      6.25331      6.25331        -0.000438     -0.000040     -0.000040
      4.16888      0.00000      0.00000        -0.007015     -0.000000      0.000000
      4.16888      2.08444      2.08444        -0.000438      0.000040      0.000040
      4.16888      4.16888      4.16888        -0.002759      0.000000      0.000000
      2.08444      4.16888      6.25331        -0.000448     -0.000000     -0.000774
      4.16888      2.08444      6.25331        -0.000438      0.000040     -0.000040
      4.16888      4.16888      0.00000         0.003861     -0.000000      0.000000
 -----------------------------------------------------------------------------------
    total drift:                                0.000854      0.000000      0.000000


--------------------------------------------------------------------------------------------------------



 mean value of Nose-termostat <S>:     1.000 mean value of <T> :     0.000
 mean temperature <T/S>/<1/S>  :     0.000

     LOOP+:  VPU time  450.45: CPU time  719.75

 ----------------------------------------------------------------------------- 
|                                                                             |
|           W    W    AA    RRRRR   N    N  II  N    N   GGGG   !!!           |
|           W    W   A  A   R    R  NN   N  II  NN   N  G    G  !!!           |
|           W    W  A    A  R    R  N N  N  II  N N  N  G       !!!           |
|           W WW W  AAAAAA  RRRRR   N  N N  II  N  N N  G  GGG   !            |
|           WW  WW  A    A  R   R   N   NN  II  N   NN  G    G                |
|           W    W  A    A  R    R  N    N  II  N    N   GGGG   !!!           |
|                                                                             |
|      The partial DOS and the PROCAR file are not evaluated for NPAR/=1      |
|      please rerun with NPAR=1                                               |
|                                                                             |
 ----------------------------------------------------------------------------- 

  
  
 General timing and accounting informations for this job:
 ========================================================
  
                  Total CPU time used (sec):      474.343
                            User time (sec):      379.925
                          System time (sec):       94.418
                         Elapsed time (sec):      755.767
  
                   Maximum memory used (kb):      839580.
                   Average memory used (kb):           0.
  
                          Minor page faults:       636700
                          Major page faults:           34
                 Voluntary context switches:         1689
