       N       E                     dE             d eps       ncg     rms          rms(c)
DAV:   1     0.422166269177E+04    0.42217E+04   -0.18338E+05  1696   0.187E+03
DAV:   2     0.134261120999E+03   -0.40874E+04   -0.39182E+04  1696   0.526E+02
DAV:   3    -0.103968238350E+03   -0.23823E+03   -0.21894E+03  1876   0.133E+02
DAV:   4    -0.112253583435E+03   -0.82853E+01   -0.81614E+01  1840   0.241E+01
DAV:   5    -0.112419953178E+03   -0.16637E+00   -0.16590E+00  1840   0.290E+00    0.161E+01
DAV:   6    -0.105116665035E+03    0.73033E+01   -0.19532E+01  1776   0.156E+01    0.432E+00
DAV:   7    -0.104633500668E+03    0.48316E+00   -0.14266E+00  1896   0.354E+00    0.173E+00
DAV:   8    -0.104545970180E+03    0.87530E-01   -0.67393E-02  1752   0.939E-01    0.157E-01
DAV:   9    -0.104546101649E+03   -0.13147E-03   -0.66951E-03  1888   0.263E-01    0.904E-02
DAV:  10    -0.104546115658E+03   -0.14009E-04   -0.70053E-04  1756   0.781E-02    0.919E-03
DAV:  11    -0.104546128854E+03   -0.13197E-04   -0.12859E-05  1056   0.103E-02    0.219E-03
DAV:  12    -0.104546125408E+03    0.34464E-05   -0.18367E-06   928   0.494E-03
   1 F= -.10454613E+03 E0= -.10453020E+03  d E =-.104546E+03
