 vasp.4.6.28 25Jul05 complex 
 executed on             LinuxIFC date 2017.01.06  18:33:15
 running on    4 nodes
 distr:  one band on    1 nodes,    4 groups


--------------------------------------------------------------------------------------------------------


 INCAR:
 POTCAR:   PAW_PBE Au 06Sep2000                   
 POTCAR:   PAW_PBE Au 06Sep2000                   
   VRHFIN =Au: s1d10                                                            
   LEXCH  = PE                                                                  
   EATOM  =   926.0567 eV,   68.0632 Ry                                         
                                                                                
   TITEL  = PAW_PBE Au 06Sep2000                                                
   LULTRA =        F    use ultrasoft PP ?                                      
   IUNSCR =        1    unscreen: 0-lin 1-nonlin 2-no                           
   RPACOR =    2.330    partial core radius                                     
   POMASS =  196.966; ZVAL   =   11.000    mass and valenz                      
   RCORE  =    2.500    outmost cutoff radius                                   
   RWIGS  =    2.840; RWIGS  =    1.503    wigner-seitz radius (au A)           
   ENMAX  =  229.948; ENMIN  =  172.461 eV                                      
   RCLOC  =    1.964    cutoff for local pot                                    
   LCOR   =        T    correct aug charges                                     
   LPAW   =        T    paw PP                                                  
   EAUG   =  356.670                                                            
   DEXC   =    -.025                                                            
   RMAX   =    3.041    core radius for proj-oper                               
   RAUG   =    1.300    factor for augmentation sphere                          
   RDEP   =    2.598    radius for radial grids                                 
   QCUT   =   -4.111; QGAM   =    8.222    optimization parameters              
                                                                                
   Description                                                                  
     l     E      TYP  RCUT    TYP  RCUT                                        
     2   .000     23  2.500                                                     
     2   .000     23  2.500                                                     
     0   .000     23  2.500                                                     
     0   .000     23  2.500                                                     
     1  -.200     23  2.500                                                     
     1   .000     23  2.500                                                     
     3   .000      7   .000                                                     
  local pseudopotential read in
  partial core-charges read in
  atomic valenz-charges read in
  non local Contribution for L=           2  read in
    real space projection operators read in
  non local Contribution for L=           2  read in
    real space projection operators read in
  non local Contribution for L=           0  read in
    real space projection operators read in
  non local Contribution for L=           0  read in
    real space projection operators read in
  non local Contribution for L=           1  read in
    real space projection operators read in
  non local Contribution for L=           1  read in
    real space projection operators read in
    PAW grid and wavefunctions read in
 
   number of l-projection  operators is LMAX  =           6
   number of lm-projection operators is LMMAX =          18
 

 ----------------------------------------------------------------------------- 
|                                                                             |
|  ADVICE TO THIS USER RUNNING 'VASP/VAMP'   (HEAR YOUR MASTER'S VOICE ...):  |
|                                                                             |
|      You have a (more or less) 'large supercell' and for larger cells       |
|      it might be more efficient to use real space projection operators      |
|      So try LREAL= Auto  in the INCAR   file.                               |
|      Mind: If you want to do an extremely accurate calculations keep the    |
|      reciprocal projection scheme          (i.e. LREAL=.FALSE.)             |
|                                                                             |
 ----------------------------------------------------------------------------- 

 PAW_PBE Au 06Sep2000                   :
 energy of atom  1       EATOM= -926.0567
 kinetic energy error for atom=    0.0013 (will be added to EATOM!!)
 
 EXHCAR: internal setup
 exchange correlation table for  LEXCH =        8
   RHO(1)=    0.500       N(1)  =     2000
   RHO(2)=  100.500       N(2)  =     4000
 
 POSCAR: No title                                
  positions in direct lattice
  No initial velocities read in
 


--------------------------------------------------------------------------------------------------------


 ion  position               nearest neighbor table
   1  0.750  0.750  0.500-   3 2.95  14 2.95  19 2.95  20 2.95   5 2.95  26 2.95   6 2.95  29 2.95
                            11 2.95  18 2.95  10 2.95   8 2.95
   2  0.750  0.750  0.000-   8 2.95  10 2.95  22 2.95  27 2.95  11 2.95  18 2.95  12 2.95  32 2.95
                             5 2.95  26 2.95   3 2.95  20 2.95
   3  0.750  0.000  0.250-   1 2.95   5 2.95   9 2.95  28 2.95  19 2.95  12 2.95  13 2.95  18 2.95
                            27 2.95   6 2.95   4 2.95   2 2.95
   4  0.750  0.250  0.500-   6 2.95   8 2.95  10 2.95  29 2.95  13 2.95  31 2.95  14 2.95  19 2.95
                            21 2.95  28 2.95   3 2.95  20 2.95
   5  0.000  0.750  0.250-   3 2.95  12 2.95  14 2.95  25 2.95  15 2.95   1 2.95  16 2.95  10 2.95
                             2 2.95   7 2.95  22 2.95   6 2.95
   6  0.000  0.000  0.500-   4 2.95   7 2.95  11 2.95  13 2.95   8 2.95  16 2.95   1 2.95  17 2.95
                             3 2.95  23 2.95  21 2.95   5 2.95
   7  0.250  0.750  0.500-   6 2.95  16 2.95  29 2.95  30 2.95  11 2.95  18 2.95  14 2.95  19 2.95
                             5 2.95  26 2.95  25 2.95  23 2.95
   8  0.750  0.000  0.750-   2 2.95   4 2.95  11 2.95  31 2.95  27 2.95   6 2.95  21 2.95  26 2.95
                            12 2.95  19 2.95   9 2.95   1 2.95
   9  0.750  0.250  0.000-   3 2.95  12 2.95  20 2.95  32 2.95  28 2.95  21 2.95  22 2.95  27 2.95
                            31 2.95  13 2.95  10 2.95   8 2.95
  10  0.750  0.500  0.250-   2 2.95   4 2.95  13 2.95  18 2.95  22 2.95  29 2.95  28 2.95   5 2.95
                            14 2.95  32 2.95   9 2.95   1 2.95
  11  0.000  0.750  0.750-   6 2.95   8 2.95  22 2.95  30 2.95   7 2.95   2 2.95  23 2.95  20 2.95
                             1 2.95  15 2.95  14 2.95  12 2.95
  12  0.000  0.000  0.000-   5 2.95   9 2.95  15 2.95  21 2.95   3 2.95  23 2.95   2 2.95  24 2.95
                            16 2.95   8 2.95  13 2.95  11 2.95
  13  0.000  0.250  0.250-   6 2.95  10 2.95  16 2.95  22 2.95   4 2.95  24 2.95   3 2.95  25 2.95
                            17 2.95   9 2.95  14 2.95  12 2.95
  14  0.000  0.500  0.500-   1 2.95   5 2.95  17 2.95  21 2.95  20 2.95  25 2.95   4 2.95   7 2.95
                            10 2.95  30 2.95  13 2.95  11 2.95
  15  0.250  0.750  0.000-  12 2.95  23 2.95  25 2.95  32 2.95  26 2.95   5 2.95  27 2.95  22 2.95
                            11 2.95  18 2.95  30 2.95  16 2.95
  16  0.250  0.000  0.250-   7 2.95  13 2.95  18 2.95  24 2.95   6 2.95  27 2.95   5 2.95  28 2.95
                            19 2.95  12 2.95  17 2.95  15 2.95
  17  0.250  0.250  0.500-  14 2.95  19 2.95  23 2.95  25 2.95  21 2.95  28 2.95   6 2.95  29 2.95
                            13 2.95  31 2.95  30 2.95  16 2.95
  18  0.500  0.750  0.250-  10 2.95  16 2.95  27 2.95  29 2.95   2 2.95   7 2.95   3 2.95  25 2.95
                             1 2.95  15 2.95  19 2.95  32 2.95
  19  0.500  0.000  0.500-   1 2.95  17 2.95  26 2.95  28 2.95   3 2.95  23 2.95   4 2.95   7 2.95
                             8 2.95  16 2.95  18 2.95  31 2.95
  20  0.750  0.500  0.750-   1 2.95   9 2.95  21 2.95  26 2.95  14 2.95  32 2.95  31 2.95  11 2.95
                            22 2.95  29 2.95   4 2.95   2 2.95
  21  0.000  0.250  0.750-  12 2.95  14 2.95  20 2.95  23 2.95   9 2.95  17 2.95   8 2.95  30 2.95
                            24 2.95   4 2.95  22 2.95   6 2.95
  22  0.000  0.500  0.000-   2 2.95  11 2.95  13 2.95  24 2.95  10 2.95  30 2.95   9 2.95  15 2.95
                            25 2.95  20 2.95  21 2.95   5 2.95
  23  0.250  0.000  0.750-  15 2.95  17 2.95  21 2.95  26 2.95  12 2.95  19 2.95  11 2.95  31 2.95
                            27 2.95   6 2.95  24 2.95   7 2.95
  24  0.250  0.250  0.000-  16 2.95  22 2.95  27 2.95  30 2.95  13 2.95  31 2.95  12 2.95  32 2.95
                            28 2.95  21 2.95  25 2.95  23 2.95
  25  0.250  0.500  0.250-   5 2.95  15 2.95  17 2.95  28 2.95  14 2.95  32 2.95  13 2.95  18 2.95
                            29 2.95  22 2.95  24 2.95   7 2.95
  26  0.500  0.750  0.750-  19 2.95  20 2.95  23 2.95  32 2.95   1 2.95  15 2.95  30 2.95   8 2.95
                             7 2.95   2 2.95  27 2.95  29 2.95
  27  0.500  0.000  0.000-   2 2.95  18 2.95  24 2.95  31 2.95  16 2.95   8 2.95   9 2.95  15 2.95
                             3 2.95  23 2.95  28 2.95  26 2.95
  28  0.500  0.250  0.250-   3 2.95  19 2.95  25 2.95  32 2.95  17 2.95   9 2.95  10 2.95  16 2.95
                             4 2.95  24 2.95  29 2.95  27 2.95
  29  0.500  0.500  0.500-   4 2.95   7 2.95  18 2.95  31 2.95  30 2.95  10 2.95  17 2.95   1 2.95
                            20 2.95  25 2.95  26 2.95  28 2.95
  30  0.250  0.500  0.750-   7 2.95  11 2.95  24 2.95  31 2.95  29 2.95  22 2.95  21 2.95  26 2.95
                            14 2.95  32 2.95  17 2.95  15 2.95
  31  0.500  0.250  0.750-   8 2.95  27 2.95  29 2.95  30 2.95  24 2.95   4 2.95  20 2.95  23 2.95
                             9 2.95  17 2.95  19 2.95  32 2.95
  32  0.500  0.500  0.000-   9 2.95  15 2.95  26 2.95  28 2.95  20 2.95  25 2.95  24 2.95   2 2.95
                            10 2.95  30 2.95  18 2.95  31 2.95
 
  LATTYP: Found a simple cubic cell.
 ALAT       =     8.3377527800
  
  Lattice vectors:
  
 A1 = (   8.3377527800,   0.0000000000,   0.0000000000)
 A2 = (   0.0000001500,   8.3377527800,   0.0000000000)
 A3 = (   0.0000001500,   0.0000001500,   8.3377527800)
 Subroutine PRICEL returns following result:
 
  LATTYP: Found a face centered cubic cell.
 ALAT       =     4.1688764275
  
  Lattice vectors:
  
 A1 = (   2.0844382325,   2.0844381950,   0.0000000000)
 A2 = (   2.0844381575,  -0.0000000375,  -2.0844381950)
 A3 = (   0.0000000000,   2.0844381575,  -2.0844381950)
 
  32 primitive cells build up your supercell.
 

Analysis of symmetry for initial positions (statically):

 Routine SETGRP: Setting up the symmetry group for a 
 simple cubic supercell.


 Subroutine GETGRP returns: Found 48 space group operations
 (whereof 48 operations were pure point group operations)
 out of a pool of 48 trial point group operations.


The static configuration has the point symmetry O_h .

Analysis of symmetry for dynamics (positions and initial velocities):

 Subroutine DYNSYM returns: Found 48 space group operations
 (whereof 48 operations were pure point group operations)
 out of a pool of 48 trial space group operations
 (whereof 48 operations were pure point group operations)
 and found also    32 'primitive' translations


The dynamic configuration has the point symmetry O_h .
 
 
 KPOINTS: Automatic mesh                          

Automatic generation of k-mesh.
 
 Subroutine IBZKPT returns following result:
 ===========================================
 
 Found      4 irreducible k-points:
 
 Following reciprocal coordinates:
            Coordinates               Weight
  0.000000  0.000000  0.000000      1.000000
  0.333333 -0.000000  0.000000      6.000000
  0.333333  0.333333  0.000000     12.000000
  0.333333  0.333333  0.333333      8.000000
 
 Following cartesian coordinates:
            Coordinates               Weight
  0.000000  0.000000  0.000000      1.000000
  0.039979 -0.000000 -0.000000      6.000000
  0.039979  0.039979 -0.000000     12.000000
  0.039979  0.039979  0.039979      8.000000
 


--------------------------------------------------------------------------------------------------------




 Dimension of arrays:
   k-Points           NKPTS =      4   number of bands    NBANDS=    212
   number of dos      NEDOS =    301   number of ions     NIONS =     32
   non local maximal  LDIM  =      6   non local SUM 2l+1 LMDIM =     18
   total plane-waves  NPLWV = 343000
   max r-space proj   IRMAX =      1   max aug-charges    IRDMAX= 289671
   dimension x,y,z NGX =    70 NGY =   70 NGZ =   70
   dimension x,y,z NGXF=   140 NGYF=  140 NGZF=  140
   support grid    NGXF=   280 NGYF=  280 NGZF=  280
   ions per type =              32
 NGX,Y,Z   is equivalent  to a cutoff of  13.96, 13.96, 13.96 a.u.
 NGXF,Y,Z  is equivalent  to a cutoff of  27.91, 27.91, 27.91 a.u.


 I would recommend the setting:
   dimension x,y,z NGX =    67 NGY =   67 NGZ =   67
 SYSTEM =  No title                                
 POSCAR =  No title                                

 Startparameter for this run:
   NWRITE =      2    write-flag & timer
   PREC   = accura    medium, high low
   ISTART =      0    job   : 0-new  1-cont  2-samecut
   ICHARG =      2    charge: 1-file 2-atom 10-const
   ISPIN  =      1    spin polarized calculation?
   LNONCOLLINEAR =      F non collinear calculations
   LSORBIT =      F    spin-orbit coupling
   INIWAV =      1    electr: 0-lowe 1-rand  2-diag
   LASPH  =      F    aspherical Exc in radial PAW
   METAGGA=      F    non-selfconsistent MetaGGA calc.

 Electronic Relaxation 1
   ENCUT  =  600.0 eV  44.10 Ry    6.64 a.u.  16.65 16.65 16.65*2*pi/ulx,y,z
   ENINI  =  600.0     initial cutoff
   ENAUG  =  356.7 eV  augmentation charge cutoff
   NELM   =     60;   NELMIN=  2; NELMDL= -5     # of ELM steps 
   EDIFF  = 0.1E-04   stopping-criterion for ELM
   LREAL  =      F    real-space projection
   LCOMPAT=      F    compatible to vasp.4.4
   LREAL_COMPAT= F    compatible to vasp.4.5.1-3
   GGA_COMPAT  = T    GGA compatible to vasp.4.4-vasp.4.6
   LMAXPAW     = -100 max onsite density
   LMAXMIX     =    2 max onsite mixed and CHGCAR
   VOSKOWN=      1    Vosko Wilk Nusair interpolation
   ROPT   =    0.00000
 Ionic relaxation
   EDIFFG = -.2E-01   stopping-criterion for IOM
   NSW    =    100    number of steps for IOM
   NBLOCK =      1;   KBLOCK =    100    inner block; outer block 
   IBRION =      2    ionic relax: 0-MD 1-quasi-New 2-CG
   NFREE  =      1    steps in history (QN), initial steepest desc. (CG)
   ISIF   =      2    stress and relaxation
   IWAVPR =     11    prediction:  0-non 1-charg 2-wave 3-comb
   ISYM   =      2    0-nonsym 1-usesym 2-fastsym
   LCORR  =      T    Harris-Foulkes like correction to forces

   POTIM  =   0.50    time-step for ionic-motion
   TEIN   =    0.0    initial temperature
   TEBEG  =    0.0;   TEEND  =   0.0 temperature during run
   SMASS  =  -3.00    Nose mass-parameter (am)
   estimated Nose-frequenzy (Omega)   =  0.10E-29 period in steps =****** mass=  -0.159E-26a.u.
   NPACO  =    256;   APACO  = 16.0  distance and # of slots for P.C.
   PSTRESS=    0.0 pullay stress

  Mass of Ions in am
   POMASS = 196.97
  Ionic Valenz
   ZVAL   =  11.00
  Atomic Wigner-Seitz radii
   RWIGS  =   1.34
   NELECT =     352.0000    total number of electrons
   NUPDOWN=      -1.0000    fix difference up-down

 DOS related values:
   EMIN   =  10.00;   EMAX   =-10.00  energy-range for DOS
   ISMEAR =     1;   SIGMA  =   0.20  broadening in eV -4-tet -1-fermi 0-gaus

 Electronic relaxation 2 (details)
   IALGO  =     38    algorithm
   LDIAG  =      T    sub-space diagonalisation
   IMIX   =      4    mixing-type and parameters
     AMIX     =   0.40;   BMIX     =  1.00
     AMIX_MAG =   1.60;   BMIX_MAG =  1.00
     AMIN     =   0.10
     WC   =   100.;   INIMIX=   1;  MIXPRE=   1

 Intra band minimization:
   WEIMIN = 0.0010     energy-eigenvalue tresh-hold
   EBREAK =  0.12E-07  absolut break condition
   DEPER  =   0.30     relativ break condition  

   TIME   =   0.10     timestep for ELM

  volume/ion in A,a.u.               =      18.11       122.23
  Fermi-wavevector in a.u.,eV,Ry     =   1.386352 26.149998  1.921971

 Second variation
   LSECVAR=     F    do a second variation
 
 Write flags
   LWAVE  =      T    write WAVECAR
   LCHARG =      F    write CHGCAR
   LVTOT  =      F    write LOCPOT, local potential
   LELF   =      F    write electronic localiz. function (ELF)
   LORBIT =      0    0 simple, 1 ext, 2 COOP (PROOUT)


 Dipole corrections
   IDIPOL =      0    1-x, 2-y, 3-z
   LDIPOL =      F    correct potential



--------------------------------------------------------------------------------------------------------


 conjugate gradient relaxation of ions
 charge density will be updated during run
 non-spin polarized calculation
 Variant of blocked Davidson
 Davidson routine will perform the subspace rotation
 performe sub-space diagonalisation
    after iterative eigenvector-optimisation
 modified Broyden-mixing scheme, WC =      100.0
 initial mixing is a Kerker type mixing with AMIX =  0.4000 and BMIX =      1.0000
 Hartree-type preconditioning will be used
 using additional bands           36
 reciprocal scheme for non local part
 use partial core corrections
 calculate Harris-corrections to forces 
   (improved forces if not selfconsistent)
 use gradient corrections 
 use of overlap-Matrix (Vanderbilt PP)
 Methfessel and Paxton  Order N= 1 SIGMA  =   0.20


--------------------------------------------------------------------------------------------------------


  energy-cutoff  :      600.00
  volume of cell :      579.62
      direct lattice vectors                 reciprocal lattice vectors
     8.337752780  0.000000000  0.000000000     0.119936394 -0.000000002 -0.000000002
     0.000000150  8.337752780  0.000000000     0.000000000  0.119936394 -0.000000002
     0.000000150  0.000000150  8.337752780     0.000000000  0.000000000  0.119936394

  length of vectors
     8.337752780  8.337752780  8.337752780     0.119936394  0.119936394  0.119936394


 
 k-points in units of 2pi/SCALE and weight: Automatic mesh                          
   0.00000000  0.00000000  0.00000000       0.037
   0.03997880 -0.00000000 -0.00000000       0.222
   0.03997880  0.03997880 -0.00000000       0.444
   0.03997880  0.03997880  0.03997880       0.296
 
 k-points in reciprocal lattice and weights: Automatic mesh                          
   0.00000000  0.00000000  0.00000000       0.037
   0.33333333 -0.00000000  0.00000000       0.222
   0.33333333  0.33333333  0.00000000       0.444
   0.33333333  0.33333333  0.33333333       0.296
 
 position of ions in fractional coordinates (direct lattice) 
   0.75000000  0.75000000  0.50000000
   0.75000000  0.75000000  0.00000000
   0.75000000  0.00000000  0.25000000
   0.75000000  0.25000000  0.50000000
   0.00000000  0.75000000  0.25000000
   0.00000000  0.00000000  0.50000000
   0.25000000  0.75000000  0.50000000
   0.75000000  0.00000000  0.75000000
   0.75000000  0.25000000  0.00000000
   0.75000000  0.50000000  0.25000000
   0.00000000  0.75000000  0.75000000
   0.00000000  0.00000000  0.00000000
   0.00000000  0.25000000  0.25000000
   0.00000000  0.50000000  0.50000000
   0.25000000  0.75000000  0.00000000
   0.25000000  0.00000000  0.25000000
   0.25000000  0.25000000  0.50000000
   0.50000000  0.75000000  0.25000000
   0.50000000  0.00000000  0.50000000
   0.75000000  0.50000000  0.75000000
   0.00000000  0.25000000  0.75000000
   0.00000000  0.50000000  0.00000000
   0.25000000  0.00000000  0.75000000
   0.25000000  0.25000000  0.00000000
   0.25000000  0.50000000  0.25000000
   0.50000000  0.75000000  0.75000000
   0.50000000  0.00000000  0.00000000
   0.50000000  0.25000000  0.25000000
   0.50000000  0.50000000  0.50000000
   0.25000000  0.50000000  0.75000000
   0.50000000  0.25000000  0.75000000
   0.50000000  0.50000000  0.00000000
 
 position of ions in cartesian coordinates  (Angst):
   6.25331477  6.25331466  4.16887639
   6.25331470  6.25331459  0.00000000
   6.25331462  0.00000004  2.08443820
   6.25331470  2.08443827  4.16887639
   0.00000015  6.25331462  2.08443820
   0.00000007  0.00000007  4.16887639
   2.08443838  6.25331466  4.16887639
   6.25331470  0.00000011  6.25331459
   6.25331462  2.08443820  0.00000000
   6.25331470  4.16887643  2.08443820
   0.00000022  6.25331470  6.25331459
   0.00000000  0.00000000  0.00000000
   0.00000007  2.08443823  2.08443820
   0.00000015  4.16887647  4.16887639
   2.08443831  6.25331459  0.00000000
   2.08443823  0.00000004  2.08443820
   2.08443831  2.08443827  4.16887639
   4.16887654  6.25331462  2.08443820
   4.16887647  0.00000007  4.16887639
   6.25331477  4.16887650  6.25331459
   0.00000015  2.08443831  6.25331459
   0.00000007  4.16887639  0.00000000
   2.08443831  0.00000011  6.25331459
   2.08443823  2.08443820  0.00000000
   2.08443831  4.16887643  2.08443820
   4.16887662  6.25331470  6.25331459
   4.16887639  0.00000000  0.00000000
   4.16887647  2.08443823  2.08443820
   4.16887654  4.16887647  4.16887639
   2.08443838  4.16887650  6.25331459
   4.16887654  2.08443831  6.25331459
   4.16887647  4.16887639  0.00000000
 


--------------------------------------------------------------------------------------------------------


 k-point  1 :  0.00000.00000.0000  plane waves:  19381
 k-point  2 :  0.3333-.00000.0000  plane waves:  19357
 k-point  3 :  0.33330.33330.0000  plane waves:  19306
 k-point  4 :  0.33330.33330.3333  plane waves:  19339

 maximum and minimum number of plane-waves per node :  19381 19306

 maximum number of plane-waves:  19381
 maximal index in each direction: 
   IXMAX= 16   IYMAX= 16   IZMAX= 16
   IXMIN=-16   IYMIN=-16   IZMIN=-16

 NGX is ok and might be reduce to  66
 NGY is ok and might be reduce to  66
 NGZ is ok and might be reduce to  66

 parallel 3dFFT wavefunction:
    minimum data exchange during FFTs selected (reduces bandwidth)
 parallel 3dFFT charge:
    minimum data exchange during FFTs selected (reduces bandwidth)

 For storing wavefunctions  262.48 MBYTES are necessary
 For predicting wavefunctions  142.24 MBYTES are necessary
Broyden mixing: mesh for mixing (old mesh)
   NGX = 33   NGY = 33   NGZ = 33
  (NGX  =140   NGY  =140   NGZ  =140)
 gives a total of  35937 points
 initial charge density was supplied:
 charge density of overlapping atoms calculated
 number of electron  352.0000000 magnetization 
 keeping initial charge density in first step


--------------------------------------------------------------------------------------------------------


 Maximum index for augmentation-charges        70396 (set IRDMAX)


--------------------------------------------------------------------------------------------------------


 First call to EWALD:  gamma=   0.213
 Maximum number of real-space cells 3x 3x 3
 Maximum number of reciprocal cells 3x 3x 3

    FEWALD:  VPU time    0.01: CPU time    0.01


----------------------------------------- Iteration    1(   1)  ---------------------------------------


    POTLOK:  VPU time    1.49: CPU time    1.49
    SETDIJ:  VPU time    3.42: CPU time    3.42
    EDDAV :  VPU time   79.36: CPU time   79.59
    DOS   :  VPU time    0.00: CPU time   -0.00
    ------------------------------------------
      LOOP:  VPU time   84.29: CPU time   84.53

 eigenvalue-minimisations  :  1696
 total energy-change (2. order) : 0.4221663E+04  (-0.1833843E+05)
 number of electron  352.0000000 magnetization 
 augmentation part   352.0000000 magnetization 

 Free energy of the ion-electron system (eV)
  ---------------------------------------------------
  alpha Z        PSCENC =      3308.63642344
  Ewald energy   TEWEN  =    -30659.75884326
  -1/2 Hartree   DENC   =     -4218.47024183
  -V(xc)+E(xc)   XCENC  =       484.97269040
  PAW double counting   =     23920.39735419   -23172.13309131
  entropy T*S    EENTRO =         0.01106083
  eigenvalues    EBANDS =      4924.23334401
  atomic energy  EATOM  =     29633.77399530
  ---------------------------------------------------
  free energy    TOTEN  =      4221.66269177 eV

  energy without entropy =     4221.65163094  energy(sigma->0) =     4221.65900483


--------------------------------------------------------------------------------------------------------




----------------------------------------- Iteration    1(   2)  ---------------------------------------


    EDDAV :  VPU time   78.40: CPU time   78.42
    DOS   :  VPU time    0.00: CPU time   -0.00
    ------------------------------------------
      LOOP:  VPU time   78.42: CPU time   78.44

 eigenvalue-minimisations  :  1696
 total energy-change (2. order) :-0.4087402E+04  (-0.3918162E+04)
 number of electron  352.0000000 magnetization 
 augmentation part   352.0000000 magnetization 

 Free energy of the ion-electron system (eV)
  ---------------------------------------------------
  alpha Z        PSCENC =      3308.63642344
  Ewald energy   TEWEN  =    -30659.75884326
  -1/2 Hartree   DENC   =     -4218.47024183
  -V(xc)+E(xc)   XCENC  =       484.97269040
  PAW double counting   =     23920.39735419   -23172.13309131
  entropy T*S    EENTRO =        -0.01030980
  eigenvalues    EBANDS =       836.85314386
  atomic energy  EATOM  =     29633.77399530
  ---------------------------------------------------
  free energy    TOTEN  =       134.26112100 eV

  energy without entropy =      134.27143080  energy(sigma->0) =      134.26455760


--------------------------------------------------------------------------------------------------------




----------------------------------------- Iteration    1(   3)  ---------------------------------------


    EDDAV :  VPU time   84.20: CPU time   84.21
    DOS   :  VPU time    0.00: CPU time   -0.00
    ------------------------------------------
      LOOP:  VPU time   84.21: CPU time   84.23

 eigenvalue-minimisations  :  1876
 total energy-change (2. order) :-0.2382294E+03  (-0.2189434E+03)
 number of electron  352.0000000 magnetization 
 augmentation part   352.0000000 magnetization 

 Free energy of the ion-electron system (eV)
  ---------------------------------------------------
  alpha Z        PSCENC =      3308.63642344
  Ewald energy   TEWEN  =    -30659.75884326
  -1/2 Hartree   DENC   =     -4218.47024183
  -V(xc)+E(xc)   XCENC  =       484.97269040
  PAW double counting   =     23920.39735419   -23172.13309131
  entropy T*S    EENTRO =        -0.06542788
  eigenvalues    EBANDS =       598.67890260
  atomic energy  EATOM  =     29633.77399530
  ---------------------------------------------------
  free energy    TOTEN  =      -103.96823835 eV

  energy without entropy =     -103.90281047  energy(sigma->0) =     -103.94642906


--------------------------------------------------------------------------------------------------------




----------------------------------------- Iteration    1(   4)  ---------------------------------------


    EDDAV :  VPU time  283.85: CPU time  285.02
    DOS   :  VPU time    0.00: CPU time   -0.00
    ------------------------------------------
      LOOP:  VPU time  283.87: CPU time  285.04

 eigenvalue-minimisations  :  1840
 total energy-change (2. order) :-0.8285345E+01  (-0.8161354E+01)
 number of electron  352.0000000 magnetization 
 augmentation part   352.0000000 magnetization 

 Free energy of the ion-electron system (eV)
  ---------------------------------------------------
  alpha Z        PSCENC =      3308.63642344
  Ewald energy   TEWEN  =    -30659.75884326
  -1/2 Hartree   DENC   =     -4218.47024183
  -V(xc)+E(xc)   XCENC  =       484.97269040
  PAW double counting   =     23920.39735419   -23172.13309131
  entropy T*S    EENTRO =        -0.05605526
  eigenvalues    EBANDS =       590.38418489
  atomic energy  EATOM  =     29633.77399530
  ---------------------------------------------------
  free energy    TOTEN  =      -112.25358344 eV

  energy without entropy =     -112.19752817  energy(sigma->0) =     -112.23489835


--------------------------------------------------------------------------------------------------------




----------------------------------------- Iteration    1(   5)  ---------------------------------------


    EDDAV :  VPU time  350.85: CPU time  352.16
    DOS   :  VPU time   -0.00: CPU time   -0.00
    CHARGE:  VPU time   21.80: CPU time   21.89
    MIXING:  VPU time    0.06: CPU time    0.07
    ------------------------------------------
      LOOP:  VPU time  372.74: CPU time  374.14

 eigenvalue-minimisations  :  1840
 total energy-change (2. order) :-0.1663697E+00  (-0.1659014E+00)
 number of electron  352.0000005 magnetization 
 augmentation part   124.1965456 magnetization 

 Broyden mixing:
  rms(total) = 0.16072E+01    rms(broyden)= 0.16072E+01
  rms(prec ) = 0.24624E+01
  weight for this iteration     100.00

 Free energy of the ion-electron system (eV)
  ---------------------------------------------------
  alpha Z        PSCENC =      3308.63642344
  Ewald energy   TEWEN  =    -30659.75884326
  -1/2 Hartree   DENC   =     -4218.47024183
  -V(xc)+E(xc)   XCENC  =       484.97269040
  PAW double counting   =     23920.39735419   -23172.13309131
  entropy T*S    EENTRO =        -0.05580138
  eigenvalues    EBANDS =       590.21756126
  atomic energy  EATOM  =     29633.77399530
  ---------------------------------------------------
  free energy    TOTEN  =      -112.41995318 eV

  energy without entropy =     -112.36415180  energy(sigma->0) =     -112.40135272


--------------------------------------------------------------------------------------------------------




----------------------------------------- Iteration    1(   6)  ---------------------------------------


    POTLOK:  VPU time    3.00: CPU time    3.02
    SETDIJ:  VPU time    8.71: CPU time    8.75
    EDDAV :  VPU time  341.53: CPU time  342.83
    DOS   :  VPU time    0.00: CPU time   -0.00
    CHARGE:  VPU time   21.30: CPU time   21.38
    MIXING:  VPU time    0.08: CPU time    0.08
    ------------------------------------------
      LOOP:  VPU time  374.64: CPU time  376.08

 eigenvalue-minimisations  :  1776
 total energy-change (2. order) : 0.7303288E+01  (-0.1953159E+01)
 number of electron  352.0000005 magnetization 
 augmentation part   128.3145755 magnetization 

 Broyden mixing:
  rms(total) = 0.43216E+00    rms(broyden)= 0.43216E+00
  rms(prec ) = 0.64411E+00
  weight for this iteration     100.00

 eigenvalues of (default mixing * dielectric matrix)
  average eigenvalue GAMMA=   1.2361
  1.2361

 Free energy of the ion-electron system (eV)
  ---------------------------------------------------
  alpha Z        PSCENC =      3308.63642344
  Ewald energy   TEWEN  =    -30659.75884326
  -1/2 Hartree   DENC   =     -3975.32812254
  -V(xc)+E(xc)   XCENC  =       474.24926870
  PAW double counting   =     23690.52213717   -22978.75385226
  entropy T*S    EENTRO =        -0.05131302
  eigenvalues    EBANDS =       401.59364144
  atomic energy  EATOM  =     29633.77399530
  ---------------------------------------------------
  free energy    TOTEN  =      -105.11666504 eV

  energy without entropy =     -105.06535201  energy(sigma->0) =     -105.09956069


--------------------------------------------------------------------------------------------------------




----------------------------------------- Iteration    1(   7)  ---------------------------------------


    POTLOK:  VPU time    2.97: CPU time    2.99
    SETDIJ:  VPU time    8.74: CPU time    8.78
    EDDAV :  VPU time  360.22: CPU time  361.70
    DOS   :  VPU time    0.00: CPU time   -0.00
    CHARGE:  VPU time   21.70: CPU time   21.79
    MIXING:  VPU time    0.11: CPU time    0.11
    ------------------------------------------
      LOOP:  VPU time  393.77: CPU time  395.39

 eigenvalue-minimisations  :  1896
 total energy-change (2. order) : 0.4831644E+00  (-0.1426574E+00)
 number of electron  352.0000005 magnetization 
 augmentation part   129.3864324 magnetization 

 Broyden mixing:
  rms(total) = 0.17299E+00    rms(broyden)= 0.17299E+00
  rms(prec ) = 0.20357E+00
  weight for this iteration     100.00

 eigenvalues of (default mixing * dielectric matrix)
  average eigenvalue GAMMA=   1.8392
  1.2260  2.4524

 Free energy of the ion-electron system (eV)
  ---------------------------------------------------
  alpha Z        PSCENC =      3308.63642344
  Ewald energy   TEWEN  =    -30659.75884326
  -1/2 Hartree   DENC   =     -3899.27239604
  -V(xc)+E(xc)   XCENC  =       470.80043578
  PAW double counting   =     23745.93688634   -23057.16197976
  entropy T*S    EENTRO =        -0.04795631
  eigenvalues    EBANDS =       352.45993385
  atomic energy  EATOM  =     29633.77399530
  ---------------------------------------------------
  free energy    TOTEN  =      -104.63350067 eV

  energy without entropy =     -104.58554435  energy(sigma->0) =     -104.61751523


--------------------------------------------------------------------------------------------------------




----------------------------------------- Iteration    1(   8)  ---------------------------------------


    POTLOK:  VPU time    2.92: CPU time    2.93
    SETDIJ:  VPU time    8.69: CPU time    8.73
    EDDAV :  VPU time  336.12: CPU time  337.34
    DOS   :  VPU time    0.00: CPU time   -0.00
    CHARGE:  VPU time   21.59: CPU time   21.68
    MIXING:  VPU time    0.11: CPU time    0.12
    ------------------------------------------
      LOOP:  VPU time  369.46: CPU time  370.82

 eigenvalue-minimisations  :  1752
 total energy-change (2. order) : 0.8753049E-01  (-0.6739348E-02)
 number of electron  352.0000005 magnetization 
 augmentation part   129.3508827 magnetization 

 Broyden mixing:
  rms(total) = 0.15712E-01    rms(broyden)= 0.15711E-01
  rms(prec ) = 0.22154E-01
  weight for this iteration     100.00

 eigenvalues of (default mixing * dielectric matrix)
  average eigenvalue GAMMA=   1.7833
  2.6095  1.3095  1.4310

 Free energy of the ion-electron system (eV)
  ---------------------------------------------------
  alpha Z        PSCENC =      3308.63642344
  Ewald energy   TEWEN  =    -30659.75884326
  -1/2 Hartree   DENC   =     -3875.61067496
  -V(xc)+E(xc)   XCENC  =       469.58938196
  PAW double counting   =     23924.61011314   -23254.71487507
  entropy T*S    EENTRO =        -0.04794821
  eigenvalues    EBANDS =       348.97645748
  atomic energy  EATOM  =     29633.77399530
  ---------------------------------------------------
  free energy    TOTEN  =      -104.54597018 eV

  energy without entropy =     -104.49802197  energy(sigma->0) =     -104.52998744


--------------------------------------------------------------------------------------------------------




----------------------------------------- Iteration    1(   9)  ---------------------------------------


    POTLOK:  VPU time    2.94: CPU time    2.95
    SETDIJ:  VPU time    8.76: CPU time    8.80
    EDDAV :  VPU time  360.36: CPU time  361.69
    DOS   :  VPU time    0.00: CPU time   -0.00
    CHARGE:  VPU time   21.21: CPU time   21.29
    MIXING:  VPU time    0.09: CPU time    0.09
    ------------------------------------------
      LOOP:  VPU time  393.38: CPU time  394.85

 eigenvalue-minimisations  :  1888
 total energy-change (2. order) :-0.1314691E-03  (-0.6695130E-03)
 number of electron  352.0000005 magnetization 
 augmentation part   129.4257233 magnetization 

 Broyden mixing:
  rms(total) = 0.90441E-02    rms(broyden)= 0.90440E-02
  rms(prec ) = 0.12911E-01
  weight for this iteration     100.00

 eigenvalues of (default mixing * dielectric matrix)
  average eigenvalue GAMMA=   1.7889
  2.4979  2.4979  0.9907  1.1691

 Free energy of the ion-electron system (eV)
  ---------------------------------------------------
  alpha Z        PSCENC =      3308.63642344
  Ewald energy   TEWEN  =    -30659.75884326
  -1/2 Hartree   DENC   =     -3871.85018011
  -V(xc)+E(xc)   XCENC  =       469.41462620
  PAW double counting   =     23934.23836675   -23264.37207738
  entropy T*S    EENTRO =        -0.04767221
  eigenvalues    EBANDS =       345.41925962
  atomic energy  EATOM  =     29633.77399530
  ---------------------------------------------------
  free energy    TOTEN  =      -104.54610165 eV

  energy without entropy =     -104.49842944  energy(sigma->0) =     -104.53021091


--------------------------------------------------------------------------------------------------------




----------------------------------------- Iteration    1(  10)  ---------------------------------------


    POTLOK:  VPU time    2.64: CPU time    2.65
    SETDIJ:  VPU time    8.26: CPU time    8.29
    EDDAV :  VPU time  337.94: CPU time  339.20
    DOS   :  VPU time    0.00: CPU time   -0.00
    CHARGE:  VPU time   21.84: CPU time   21.93
    MIXING:  VPU time    0.15: CPU time    0.15
    ------------------------------------------
      LOOP:  VPU time  370.85: CPU time  372.25

 eigenvalue-minimisations  :  1756
 total energy-change (2. order) :-0.1400911E-04  (-0.7005309E-04)
 number of electron  352.0000005 magnetization 
 augmentation part   129.4102780 magnetization 

 Broyden mixing:
  rms(total) = 0.91920E-03    rms(broyden)= 0.91910E-03
  rms(prec ) = 0.11669E-02
  weight for this iteration     100.00

 eigenvalues of (default mixing * dielectric matrix)
  average eigenvalue GAMMA=   1.7431
  2.8418  2.4266  1.0941  1.0941  1.2590

 Free energy of the ion-electron system (eV)
  ---------------------------------------------------
  alpha Z        PSCENC =      3308.63642344
  Ewald energy   TEWEN  =    -30659.75884326
  -1/2 Hartree   DENC   =     -3873.58720524
  -V(xc)+E(xc)   XCENC  =       469.48335179
  PAW double counting   =     23943.89584987   -23273.19369420
  entropy T*S    EENTRO =        -0.04778251
  eigenvalues    EBANDS =       346.25178916
  atomic energy  EATOM  =     29633.77399530
  ---------------------------------------------------
  free energy    TOTEN  =      -104.54611566 eV

  energy without entropy =     -104.49833314  energy(sigma->0) =     -104.53018815


--------------------------------------------------------------------------------------------------------




----------------------------------------- Iteration    1(  11)  ---------------------------------------


    POTLOK:  VPU time    2.96: CPU time    2.97
    SETDIJ:  VPU time    8.74: CPU time    8.79
    EDDAV :  VPU time  233.77: CPU time  234.60
    DOS   :  VPU time    0.00: CPU time   -0.00
    CHARGE:  VPU time   21.89: CPU time   21.98
    MIXING:  VPU time    0.11: CPU time    0.11
    ------------------------------------------
      LOOP:  VPU time  267.49: CPU time  268.48

 eigenvalue-minimisations  :  1056
 total energy-change (2. order) :-0.1319660E-04  (-0.1285891E-05)
 number of electron  352.0000005 magnetization 
 augmentation part   129.4083514 magnetization 

 Broyden mixing:
  rms(total) = 0.21947E-03    rms(broyden)= 0.21945E-03
  rms(prec ) = 0.26173E-03
  weight for this iteration     100.00

 eigenvalues of (default mixing * dielectric matrix)
  average eigenvalue GAMMA=   1.8022
  2.9229  2.4799  2.3094  1.1501  1.0200  0.9308

 Free energy of the ion-electron system (eV)
  ---------------------------------------------------
  alpha Z        PSCENC =      3308.63642344
  Ewald energy   TEWEN  =    -30659.75884326
  -1/2 Hartree   DENC   =     -3873.63612836
  -V(xc)+E(xc)   XCENC  =       469.48376005
  PAW double counting   =     23945.34966596   -23274.63006640
  entropy T*S    EENTRO =        -0.04779130
  eigenvalues    EBANDS =       346.28285573
  atomic energy  EATOM  =     29633.77399530
  ---------------------------------------------------
  free energy    TOTEN  =      -104.54612885 eV

  energy without entropy =     -104.49833755  energy(sigma->0) =     -104.53019842


--------------------------------------------------------------------------------------------------------




----------------------------------------- Iteration    1(  12)  ---------------------------------------


    POTLOK:  VPU time    2.94: CPU time    2.95
    SETDIJ:  VPU time    8.66: CPU time    8.69
    EDDAV :  VPU time  216.12: CPU time  216.90
    DOS   :  VPU time    0.00: CPU time   -0.00
    ------------------------------------------
      LOOP:  VPU time  227.74: CPU time  228.57

 eigenvalue-minimisations  :   928
 total energy-change (2. order) : 0.3446439E-05  (-0.1836699E-06)
 number of electron  352.0000005 magnetization 
 augmentation part   129.4083514 magnetization 

 Free energy of the ion-electron system (eV)
  ---------------------------------------------------
  alpha Z        PSCENC =      3308.63642344
  Ewald energy   TEWEN  =    -30659.75884326
  -1/2 Hartree   DENC   =     -3873.63225093
  -V(xc)+E(xc)   XCENC  =       469.48380299
  PAW double counting   =     23944.53134712   -23273.81128797
  entropy T*S    EENTRO =        -0.04779039
  eigenvalues    EBANDS =       346.27847828
  atomic energy  EATOM  =     29633.77399530
  ---------------------------------------------------
  free energy    TOTEN  =      -104.54612541 eV

  energy without entropy =     -104.49833502  energy(sigma->0) =     -104.53019528


--------------------------------------------------------------------------------------------------------




 average (electrostatic) potential at core
  the test charge radii are     1.2098
  (the norm of the test charge is              1.0000)
       1 -46.1190       2 -46.1190       3 -46.1190       4 -46.1190       5 -46.1190
       6 -46.1190       7 -46.1190       8 -46.1190       9 -46.1190      10 -46.1190
      11 -46.1190      12 -46.1190      13 -46.1190      14 -46.1190      15 -46.1190
      16 -46.1190      17 -46.1190      18 -46.1190      19 -46.1190      20 -46.1190
      21 -46.1190      22 -46.1190      23 -46.1190      24 -46.1190      25 -46.1190
      26 -46.1190      27 -46.1190      28 -46.1190      29 -46.1190      30 -46.1190
      31 -46.1190      32 -46.1190
 
 
 
 E-fermi :   4.9405     XC(G=0): -12.3573     alpha+bet : -9.5809
   add alpha+bet to get absolut eigen values

 k-point   1 :       0.0000    0.0000    0.0000
  band No.  band energies     occupation 
      1      -4.2356      2.00000
      2      -1.9299      2.00000
      3      -1.9299      2.00000
      4      -1.9299      2.00000
      5      -1.9299      2.00000
      6      -1.9299      2.00000
      7      -1.9299      2.00000
      8      -1.8203      2.00000
      9      -1.8203      2.00000
     10      -1.8203      2.00000
     11      -1.8203      2.00000
     12      -1.5739      2.00000
     13      -1.5739      2.00000
     14      -1.5739      2.00000
     15      -1.2984      2.00000
     16      -1.2984      2.00000
     17      -1.2984      2.00000
     18      -0.6818      2.00000
     19      -0.6818      2.00000
     20      -0.6818      2.00000
     21      -0.6818      2.00000
     22      -0.6818      2.00000
     23      -0.6818      2.00000
     24      -0.6818      2.00000
     25      -0.6818      2.00000
     26      -0.6818      2.00000
     27      -0.6818      2.00000
     28      -0.6818      2.00000
     29      -0.6818      2.00000
     30      -0.5605      2.00000
     31      -0.5605      2.00000
     32      -0.5605      2.00000
     33      -0.5605      2.00000
     34      -0.5605      2.00000
     35      -0.5605      2.00000
     36      -0.4438      2.00000
     37      -0.4438      2.00000
     38      -0.4438      2.00000
     39      -0.4438      2.00000
     40      -0.4438      2.00000
     41      -0.4438      2.00000
     42       0.0981      2.00000
     43       0.0981      2.00000
     44       0.0981      2.00000
     45       0.0981      2.00000
     46       0.0981      2.00000
     47       0.0981      2.00000
     48       0.0981      2.00000
     49       0.0981      2.00000
     50       0.0981      2.00000
     51       0.0981      2.00000
     52       0.0981      2.00000
     53       0.0981      2.00000
     54       0.1624      2.00000
     55       0.1624      2.00000
     56       0.1624      2.00000
     57       0.1624      2.00000
     58       0.1624      2.00000
     59       0.1624      2.00000
     60       0.1624      2.00000
     61       0.1624      2.00000
     62       0.1624      2.00000
     63       0.1624      2.00000
     64       0.1624      2.00000
     65       0.1624      2.00000
     66       0.4237      2.00000
     67       0.4237      2.00000
     68       0.4237      2.00000
     69       0.4237      2.00000
     70       0.4237      2.00000
     71       0.4237      2.00000
     72       0.4237      2.00000
     73       0.4237      2.00000
     74       0.4237      2.00000
     75       0.4237      2.00000
     76       0.4237      2.00000
     77       0.4237      2.00000
     78       0.5331      2.00000
     79       0.5331      2.00000
     80       0.5331      2.00000
     81       0.5331      2.00000
     82       0.5331      2.00000
     83       0.5331      2.00000
     84       0.5331      2.00000
     85       0.5331      2.00000
     86       0.5619      2.00000
     87       0.5619      2.00000
     88       0.5619      2.00000
     89       1.2223      2.00000
     90       1.2223      2.00000
     91       1.2223      2.00000
     92       1.2223      2.00000
     93       1.2223      2.00000
     94       1.2223      2.00000
     95       1.4019      2.00000
     96       1.4019      2.00000
     97       1.4019      2.00000
     98       1.4019      2.00000
     99       1.4019      2.00000
    100       1.4019      2.00000
    101       1.4019      2.00000
    102       1.4019      2.00000
    103       1.4019      2.00000
    104       1.4019      2.00000
    105       1.4019      2.00000
    106       1.4019      2.00000
    107       1.6816      2.00000
    108       1.6816      2.00000
    109       1.6816      2.00000
    110       1.6816      2.00000
    111       1.6816      2.00000
    112       1.6816      2.00000
    113       1.6816      2.00000
    114       1.6816      2.00000
    115       1.6816      2.00000
    116       1.6816      2.00000
    117       1.6816      2.00000
    118       1.6816      2.00000
    119       1.8171      2.00000
    120       1.8171      2.00000
    121       1.8171      2.00000
    122       1.8171      2.00000
    123       1.8171      2.00000
    124       1.8171      2.00000
    125       1.9258      2.00000
    126       1.9258      2.00000
    127       1.9266      2.00000
    128       1.9266      2.00000
    129       1.9266      2.00000
    130       1.9266      2.00000
    131       1.9266      2.00000
    132       1.9266      2.00000
    133       1.9266      2.00000
    134       1.9266      2.00000
    135       1.9266      2.00000
    136       1.9266      2.00000
    137       1.9266      2.00000
    138       1.9266      2.00000
    139       2.4244      2.00000
    140       2.4244      2.00000
    141       2.4244      2.00000
    142       2.4244      2.00000
    143       2.4244      2.00000
    144       2.4244      2.00000
    145       2.9634      2.00000
    146       2.9634      2.00000
    147       2.9634      2.00000
    148       3.0040      2.00000
    149       3.0040      2.00000
    150       3.0040      2.00000
    151       3.0040      2.00000
    152       3.0040      2.00000
    153       3.0040      2.00000
    154       3.0040      2.00000
    155       3.0040      2.00000
    156       3.2915      2.00000
    157       3.2915      2.00000
    158       3.2915      2.00000
    159       3.2915      2.00000
    160       3.2915      2.00000
    161       3.2915      2.00000
    162       3.2931      2.00000
    163       3.2931      2.00000
    164       3.2931      2.00000
    165       3.2931      2.00000
    166       3.2931      2.00000
    167       3.2931      2.00000
    168       4.2988      2.00006
    169       4.2988      2.00006
    170       4.2988      2.00006
    171       4.2988      2.00006
    172       4.6251      2.04830
    173       4.6251      2.04830
    174       4.6251      2.04830
    175       4.6251      2.04830
    176       4.6251      2.04830
    177       4.6251      2.04830
    178       4.6251      2.04830
    179       4.6251      2.04830
    180       4.6251      2.04830
    181       4.6251      2.04830
    182       4.6251      2.04830
    183       4.6251      2.04830
    184       6.1857     -0.00000
    185       6.1857     -0.00000
    186       6.1857     -0.00000
    187       7.7625     -0.00000
    188       7.7625     -0.00000
    189       7.7625     -0.00000
    190       7.7625     -0.00000
    191       9.4837     -0.00000
    192       9.4837     -0.00000
    193       9.4837     -0.00000
    194       9.4837     -0.00000
    195       9.4837     -0.00000
    196       9.4837     -0.00000
    197      10.3303     -0.00000
    198      10.3303     -0.00000
    199      10.3303     -0.00000
    200      11.1125      0.00000
    201      11.1125      0.00000
    202      11.1125      0.00000
    203      11.1125      0.00000
    204      11.1125      0.00000
    205      11.1125      0.00000
    206      11.1125      0.00000
    207      11.1125      0.00000
    208      11.1125      0.00000
    209      11.1125      0.00000
    210      11.1125      0.00000
    211      11.1125      0.00000
    212      13.2705      0.00000

 k-point   2 :       0.3333   -0.0000    0.0000
  band No.  band energies     occupation 
      1      -3.9303      2.00000
      2      -3.0669      2.00000
      3      -1.7143      2.00000
      4      -1.7143      2.00000
      5      -1.7143      2.00000
      6      -1.7143      2.00000
      7      -1.6515      2.00000
      8      -1.6515      2.00000
      9      -1.6515      2.00000
     10      -1.6515      2.00000
     11      -1.4804      2.00000
     12      -1.3783      2.00000
     13      -1.3783      2.00000
     14      -1.3767      2.00000
     15      -1.1907      2.00000
     16      -1.1797      2.00000
     17      -1.1797      2.00000
     18      -1.1797      2.00000
     19      -1.1797      2.00000
     20      -1.1727      2.00000
     21      -1.1727      2.00000
     22      -1.1727      2.00000
     23      -1.1727      2.00000
     24      -1.1337      2.00000
     25      -1.1337      2.00000
     26      -0.8927      2.00000
     27      -0.8927      2.00000
     28      -0.8865      2.00000
     29      -0.6426      2.00000
     30      -0.6426      2.00000
     31      -0.4273      2.00000
     32      -0.4273      2.00000
     33      -0.4273      2.00000
     34      -0.4273      2.00000
     35      -0.3842      2.00000
     36      -0.3842      2.00000
     37      -0.3842      2.00000
     38      -0.3842      2.00000
     39      -0.3537      2.00000
     40      -0.3537      2.00000
     41      -0.3537      2.00000
     42      -0.3537      2.00000
     43      -0.1266      2.00000
     44      -0.1266      2.00000
     45      -0.1266      2.00000
     46      -0.1266      2.00000
     47       0.0241      2.00000
     48       0.0241      2.00000
     49       0.0241      2.00000
     50       0.0241      2.00000
     51       0.0362      2.00000
     52       0.0766      2.00000
     53       0.0766      2.00000
     54       0.0766      2.00000
     55       0.0766      2.00000
     56       0.1765      2.00000
     57       0.1765      2.00000
     58       0.1765      2.00000
     59       0.1765      2.00000
     60       0.1857      2.00000
     61       0.1857      2.00000
     62       0.1857      2.00000
     63       0.1857      2.00000
     64       0.3279      2.00000
     65       0.3279      2.00000
     66       0.3279      2.00000
     67       0.3279      2.00000
     68       0.4159      2.00000
     69       0.4688      2.00000
     70       0.4688      2.00000
     71       0.4688      2.00000
     72       0.4688      2.00000
     73       0.4989      2.00000
     74       0.4989      2.00000
     75       0.4989      2.00000
     76       0.4989      2.00000
     77       0.6673      2.00000
     78       0.6673      2.00000
     79       0.6673      2.00000
     80       0.6673      2.00000
     81       0.6948      2.00000
     82       0.6948      2.00000
     83       0.8124      2.00000
     84       0.8124      2.00000
     85       0.8124      2.00000
     86       0.8124      2.00000
     87       1.0134      2.00000
     88       1.0134      2.00000
     89       1.0134      2.00000
     90       1.0134      2.00000
     91       1.0369      2.00000
     92       1.0369      2.00000
     93       1.0369      2.00000
     94       1.0369      2.00000
     95       1.0820      2.00000
     96       1.0820      2.00000
     97       1.2478      2.00000
     98       1.2478      2.00000
     99       1.4048      2.00000
    100       1.6093      2.00000
    101       1.6093      2.00000
    102       1.6093      2.00000
    103       1.6093      2.00000
    104       1.6767      2.00000
    105       1.6767      2.00000
    106       1.6767      2.00000
    107       1.6767      2.00000
    108       1.7091      2.00000
    109       1.7091      2.00000
    110       1.7091      2.00000
    111       1.7091      2.00000
    112       1.7106      2.00000
    113       1.7106      2.00000
    114       1.7106      2.00000
    115       1.7106      2.00000
    116       1.7719      2.00000
    117       1.8527      2.00000
    118       1.8527      2.00000
    119       1.8527      2.00000
    120       1.8527      2.00000
    121       1.8688      2.00000
    122       1.8688      2.00000
    123       1.8688      2.00000
    124       1.8688      2.00000
    125       1.9905      2.00000
    126       2.1705      2.00000
    127       2.1902      2.00000
    128       2.1902      2.00000
    129       2.2066      2.00000
    130       2.2078      2.00000
    131       2.2078      2.00000
    132       2.2078      2.00000
    133       2.2078      2.00000
    134       2.3427      2.00000
    135       2.3427      2.00000
    136       2.3427      2.00000
    137       2.3427      2.00000
    138       2.3953      2.00000
    139       2.3953      2.00000
    140       2.4239      2.00000
    141       2.4239      2.00000
    142       2.4239      2.00000
    143       2.4239      2.00000
    144       2.4980      2.00000
    145       2.4980      2.00000
    146       2.6883      2.00000
    147       2.7174      2.00000
    148       2.7174      2.00000
    149       2.7174      2.00000
    150       2.7174      2.00000
    151       2.7422      2.00000
    152       2.7422      2.00000
    153       2.8166      2.00000
    154       2.8166      2.00000
    155       2.8166      2.00000
    156       2.8166      2.00000
    157       2.8885      2.00000
    158       3.0137      2.00000
    159       3.0137      2.00000
    160       3.0137      2.00000
    161       3.0137      2.00000
    162       3.0269      2.00000
    163       3.0269      2.00000
    164       3.2919      2.00000
    165       3.2919      2.00000
    166       3.2927      2.00000
    167       3.2927      2.00000
    168       3.5739      2.00000
    169       3.5739      2.00000
    170       3.5739      2.00000
    171       3.5739      2.00000
    172       4.4298      2.00182
    173       4.5119      2.00980
    174       4.5119      2.00980
    175       4.5119      2.00980
    176       4.5119      2.00980
    177       4.6121      2.04229
    178       4.6121      2.04229
    179       4.6121      2.04229
    180       4.6121      2.04229
    181       6.0181     -0.00000
    182       6.0181     -0.00000
    183       6.0181     -0.00000
    184       6.0181     -0.00000
    185       7.1982     -0.00000
    186       7.1982     -0.00000
    187       7.9498     -0.00000
    188       7.9498     -0.00000
    189       7.9498     -0.00000
    190       7.9498     -0.00000
    191       8.7431     -0.00000
    192       8.7431     -0.00000
    193       8.7431     -0.00000
    194       8.7431     -0.00000
    195       9.0779     -0.00000
    196       9.0779     -0.00000
    197       9.6745     -0.00000
    198       9.6745     -0.00000
    199      10.0984     -0.00000
    200      10.0984     -0.00000
    201      11.0159      0.00000
    202      11.0159      0.00000
    203      11.0159      0.00000
    204      11.0159      0.00000
    205      11.5877      0.00000
    206      11.5877      0.00000
    207      11.5877      0.00000
    208      11.5878      0.00000
    209      11.6549      0.00000
    210      11.6549      0.00000
    211      11.6549      0.00000
    212      11.6551      0.00000

 k-point   3 :       0.3333    0.3333    0.0000
  band No.  band energies     occupation 
      1      -3.6381      2.00000
      2      -2.8132      2.00000
      3      -2.8132      2.00000
      4      -2.1119      2.00000
      5      -1.6747      2.00000
      6      -1.6747      2.00000
      7      -1.6346      2.00000
      8      -1.6346      2.00000
      9      -1.4382      2.00000
     10      -1.4382      2.00000
     11      -1.4382      2.00000
     12      -1.4382      2.00000
     13      -1.3532      2.00000
     14      -1.3532      2.00000
     15      -1.2766      2.00000
     16      -1.2766      2.00000
     17      -1.2710      2.00000
     18      -1.1539      2.00000
     19      -1.1539      2.00000
     20      -1.0346      2.00000
     21      -1.0346      2.00000
     22      -0.9145      2.00000
     23      -0.9012      2.00000
     24      -0.9012      2.00000
     25      -0.8257      2.00000
     26      -0.8257      2.00000
     27      -0.8257      2.00000
     28      -0.8257      2.00000
     29      -0.7609      2.00000
     30      -0.7609      2.00000
     31      -0.7556      2.00000
     32      -0.7556      2.00000
     33      -0.7551      2.00000
     34      -0.5715      2.00000
     35      -0.5715      2.00000
     36      -0.5712      2.00000
     37      -0.5712      2.00000
     38      -0.4162      2.00000
     39      -0.4162      2.00000
     40      -0.3877      2.00000
     41      -0.3877      2.00000
     42      -0.3779      2.00000
     43      -0.3779      2.00000
     44      -0.2926      2.00000
     45      -0.2926      2.00000
     46      -0.1324      2.00000
     47      -0.1324      2.00000
     48       0.0030      2.00000
     49       0.0305      2.00000
     50       0.0305      2.00000
     51       0.0305      2.00000
     52       0.0305      2.00000
     53       0.0600      2.00000
     54       0.0719      2.00000
     55       0.0719      2.00000
     56       0.2532      2.00000
     57       0.2532      2.00000
     58       0.3072      2.00000
     59       0.3072      2.00000
     60       0.3702      2.00000
     61       0.4288      2.00000
     62       0.4288      2.00000
     63       0.4288      2.00000
     64       0.4288      2.00000
     65       0.5161      2.00000
     66       0.5161      2.00000
     67       0.5262      2.00000
     68       0.5262      2.00000
     69       0.5262      2.00000
     70       0.5262      2.00000
     71       0.5320      2.00000
     72       0.5320      2.00000
     73       0.6933      2.00000
     74       0.6933      2.00000
     75       0.7428      2.00000
     76       0.7588      2.00000
     77       0.7588      2.00000
     78       0.7747      2.00000
     79       0.7767      2.00000
     80       0.8182      2.00000
     81       0.8569      2.00000
     82       0.8569      2.00000
     83       0.8569      2.00000
     84       0.8569      2.00000
     85       0.8716      2.00000
     86       0.8716      2.00000
     87       0.9052      2.00000
     88       0.9052      2.00000
     89       0.9296      2.00000
     90       0.9296      2.00000
     91       1.0866      2.00000
     92       1.0866      2.00000
     93       1.1030      2.00000
     94       1.1030      2.00000
     95       1.1030      2.00000
     96       1.1030      2.00000
     97       1.1447      2.00000
     98       1.1447      2.00000
     99       1.2029      2.00000
    100       1.2029      2.00000
    101       1.2406      2.00000
    102       1.2971      2.00000
    103       1.2971      2.00000
    104       1.3635      2.00000
    105       1.3635      2.00000
    106       1.3635      2.00000
    107       1.3635      2.00000
    108       1.4319      2.00000
    109       1.5487      2.00000
    110       1.5487      2.00000
    111       1.5494      2.00000
    112       1.5494      2.00000
    113       1.6523      2.00000
    114       1.6523      2.00000
    115       1.7175      2.00000
    116       1.7175      2.00000
    117       1.7427      2.00000
    118       1.8418      2.00000
    119       1.9924      2.00000
    120       2.0458      2.00000
    121       2.0458      2.00000
    122       2.0923      2.00000
    123       2.0923      2.00000
    124       2.1102      2.00000
    125       2.1106      2.00000
    126       2.1106      2.00000
    127       2.2571      2.00000
    128       2.2571      2.00000
    129       2.2726      2.00000
    130       2.2726      2.00000
    131       2.3592      2.00000
    132       2.3592      2.00000
    133       2.3592      2.00000
    134       2.3592      2.00000
    135       2.3842      2.00000
    136       2.3842      2.00000
    137       2.3896      2.00000
    138       2.3896      2.00000
    139       2.4762      2.00000
    140       2.4762      2.00000
    141       2.5064      2.00000
    142       2.5064      2.00000
    143       2.5665      2.00000
    144       2.6134      2.00000
    145       2.6547      2.00000
    146       2.6547      2.00000
    147       2.7066      2.00000
    148       2.7066      2.00000
    149       2.7066      2.00000
    150       2.7066      2.00000
    151       2.7654      2.00000
    152       2.7721      2.00000
    153       2.7721      2.00000
    154       2.9092      2.00000
    155       2.9092      2.00000
    156       2.9293      2.00000
    157       2.9293      2.00000
    158       2.9379      2.00000
    159       2.9379      2.00000
    160       3.0188      2.00000
    161       3.0188      2.00000
    162       3.0240      2.00000
    163       3.0240      2.00000
    164       3.0247      2.00000
    165       3.0247      2.00000
    166       3.1113      2.00000
    167       3.4577      2.00000
    168       3.4577      2.00000
    169       3.4892      2.00000
    170       3.4892      2.00000
    171       3.4892      2.00000
    172       3.4892      2.00000
    173       3.5895      2.00000
    174       3.5895      2.00000
    175       4.8248      1.82029
    176       4.8248      1.82029
    177       5.4362     -0.00255
    178       5.4362     -0.00255
    179       6.2198     -0.00000
    180       6.2198     -0.00000
    181       6.2495     -0.00000
    182       6.2495     -0.00000
    183       6.2495     -0.00000
    184       6.2495     -0.00000
    185       6.8276     -0.00000
    186       6.8276     -0.00000
    187       7.3325     -0.00000
    188       7.7525     -0.00000
    189       7.7525     -0.00000
    190       7.9921     -0.00000
    191       8.1222     -0.00000
    192       8.1222     -0.00000
    193       8.8596     -0.00000
    194       8.8596     -0.00000
    195       8.9968     -0.00000
    196       8.9968     -0.00000
    197       9.5602     -0.00000
    198       9.5602     -0.00000
    199       9.5602     -0.00000
    200       9.5602     -0.00000
    201       9.6937     -0.00000
    202       9.6937     -0.00000
    203       9.7118     -0.00000
    204      10.5539      0.00000
    205      10.5539      0.00000
    206      11.1768      0.00000
    207      11.6727      0.00000
    208      11.6727      0.00000
    209      11.8228      0.00000
    210      12.0722      0.00000
    211      12.0735      0.00000
    212      12.2680      0.00000

 k-point   4 :       0.3333    0.3333    0.3333
  band No.  band energies     occupation 
      1      -3.3678      2.00000
      2      -2.6143      2.00000
      3      -2.6143      2.00000
      4      -2.6143      2.00000
      5      -2.0880      2.00000
      6      -2.0880      2.00000
      7      -2.0880      2.00000
      8      -1.9618      2.00000
      9      -1.2560      2.00000
     10      -1.2560      2.00000
     11      -1.2560      2.00000
     12      -1.1923      2.00000
     13      -1.1923      2.00000
     14      -1.1923      2.00000
     15      -1.1237      2.00000
     16      -1.1237      2.00000
     17      -1.1237      2.00000
     18      -0.9636      2.00000
     19      -0.9636      2.00000
     20      -0.9636      2.00000
     21      -0.9636      2.00000
     22      -0.9636      2.00000
     23      -0.9636      2.00000
     24      -0.8729      2.00000
     25      -0.8729      2.00000
     26      -0.8729      2.00000
     27      -0.8640      2.00000
     28      -0.8640      2.00000
     29      -0.8640      2.00000
     30      -0.8640      2.00000
     31      -0.8640      2.00000
     32      -0.8640      2.00000
     33      -0.8013      2.00000
     34      -0.8013      2.00000
     35      -0.8013      2.00000
     36      -0.4888      2.00000
     37      -0.4888      2.00000
     38      -0.4888      2.00000
     39      -0.3147      2.00000
     40      -0.3147      2.00000
     41      -0.3147      2.00000
     42      -0.3147      2.00000
     43      -0.3147      2.00000
     44      -0.3147      2.00000
     45       0.0026      2.00000
     46       0.0026      2.00000
     47       0.0026      2.00000
     48       0.0329      2.00000
     49       0.0329      2.00000
     50       0.0329      2.00000
     51       0.0329      2.00000
     52       0.0329      2.00000
     53       0.0329      2.00000
     54       0.1901      2.00000
     55       0.1901      2.00000
     56       0.1901      2.00000
     57       0.2181      2.00000
     58       0.2181      2.00000
     59       0.2181      2.00000
     60       0.3749      2.00000
     61       0.4035      2.00000
     62       0.4035      2.00000
     63       0.4035      2.00000
     64       0.5265      2.00000
     65       0.5265      2.00000
     66       0.5265      2.00000
     67       0.5265      2.00000
     68       0.5265      2.00000
     69       0.5265      2.00000
     70       0.7039      2.00000
     71       0.7039      2.00000
     72       0.7858      2.00000
     73       0.7858      2.00000
     74       0.8094      2.00000
     75       0.8094      2.00000
     76       0.8094      2.00000
     77       0.8758      2.00000
     78       0.8758      2.00000
     79       0.8758      2.00000
     80       0.8936      2.00000
     81       0.8936      2.00000
     82       0.8936      2.00000
     83       0.8936      2.00000
     84       0.8936      2.00000
     85       0.8936      2.00000
     86       0.9027      2.00000
     87       0.9027      2.00000
     88       0.9027      2.00000
     89       0.9147      2.00000
     90       0.9147      2.00000
     91       0.9147      2.00000
     92       0.9564      2.00000
     93       0.9564      2.00000
     94       0.9564      2.00000
     95       0.9651      2.00000
     96       0.9651      2.00000
     97       0.9651      2.00000
     98       1.0566      2.00000
     99       1.0566      2.00000
    100       1.0566      2.00000
    101       1.2068      2.00000
    102       1.2068      2.00000
    103       1.2068      2.00000
    104       1.3188      2.00000
    105       1.5167      2.00000
    106       1.5167      2.00000
    107       1.5167      2.00000
    108       1.5336      2.00000
    109       1.5336      2.00000
    110       1.5336      2.00000
    111       1.5336      2.00000
    112       1.5336      2.00000
    113       1.5336      2.00000
    114       1.7413      2.00000
    115       1.7413      2.00000
    116       1.7413      2.00000
    117       1.7807      2.00000
    118       1.7807      2.00000
    119       1.7807      2.00000
    120       1.8172      2.00000
    121       1.8172      2.00000
    122       1.8172      2.00000
    123       1.8845      2.00000
    124       1.8845      2.00000
    125       1.9098      2.00000
    126       1.9098      2.00000
    127       1.9098      2.00000
    128       1.9658      2.00000
    129       1.9658      2.00000
    130       1.9658      2.00000
    131       1.9658      2.00000
    132       1.9658      2.00000
    133       1.9658      2.00000
    134       2.2362      2.00000
    135       2.2362      2.00000
    136       2.2362      2.00000
    137       2.2923      2.00000
    138       2.2923      2.00000
    139       2.2923      2.00000
    140       2.4826      2.00000
    141       2.4826      2.00000
    142       2.6592      2.00000
    143       2.6592      2.00000
    144       2.6592      2.00000
    145       2.8517      2.00000
    146       2.8517      2.00000
    147       2.8517      2.00000
    148       2.8642      2.00000
    149       2.8642      2.00000
    150       2.8642      2.00000
    151       2.8642      2.00000
    152       2.8642      2.00000
    153       2.8642      2.00000
    154       2.9943      2.00000
    155       2.9943      2.00000
    156       2.9943      2.00000
    157       3.0072      2.00000
    158       3.0072      2.00000
    159       3.0072      2.00000
    160       3.0072      2.00000
    161       3.0072      2.00000
    162       3.0072      2.00000
    163       3.0420      2.00000
    164       3.0420      2.00000
    165       3.0420      2.00000
    166       3.1347      2.00000
    167       3.1347      2.00000
    168       3.1347      2.00000
    169       3.9563      2.00000
    170       3.9563      2.00000
    171       3.9563      2.00000
    172       5.0131      0.42778
    173       5.0131      0.42778
    174       5.0131      0.42778
    175       5.0131      0.42778
    176       5.0131      0.42778
    177       5.0131      0.42778
    178       5.6160     -0.00002
    179       5.6160     -0.00002
    180       5.6160     -0.00002
    181       6.0718     -0.00000
    182       6.0718     -0.00000
    183       6.0718     -0.00000
    184       7.2609     -0.00000
    185       7.2609     -0.00000
    186       7.2609     -0.00000
    187       7.2609     -0.00000
    188       7.2609     -0.00000
    189       7.2609     -0.00000
    190       7.7639     -0.00000
    191       7.7639     -0.00000
    192       7.7639     -0.00000
    193       8.3348     -0.00000
    194       8.3348     -0.00000
    195       8.3348     -0.00000
    196       8.9195     -0.00000
    197       8.9195     -0.00000
    198       8.9195     -0.00000
    199       9.9078     -0.00000
    200       9.9078     -0.00000
    201       9.9078     -0.00000
    202       9.9078     -0.00000
    203       9.9078     -0.00000
    204       9.9078     -0.00000
    205      11.1645      0.00000
    206      11.1645      0.00000
    207      11.1645      0.00000
    208      11.1645      0.00000
    209      11.1645      0.00000
    210      11.1707      0.00000
    211      11.3701      0.00000
    212      11.3701      0.00000


--------------------------------------------------------------------------------------------------------


 soft charge-density along one line, spin component           1
         0         1         2         3         4         5         6         7         8         9
 total charge-density along one line
 
 pseudopotential strength for first ion, spin component:           1
-10.042   0.000  -0.000   0.000  -0.000  -0.069  -0.000   0.000
  0.000 -10.042   0.000   0.000  -0.000  -0.000  -0.069  -0.000
 -0.000   0.000 -10.027   0.000  -0.000   0.000  -0.000  -0.071
  0.000   0.000   0.000 -10.042   0.000  -0.000  -0.000  -0.000
 -0.000  -0.000  -0.000   0.000 -10.027   0.000   0.000   0.000
 -0.069  -0.000   0.000  -0.000   0.000   0.280   0.000  -0.000
 -0.000  -0.069  -0.000  -0.000   0.000   0.000   0.280   0.000
  0.000  -0.000  -0.071  -0.000   0.000  -0.000   0.000   0.280
 -0.000  -0.000  -0.000  -0.069  -0.000   0.000   0.000   0.000
  0.000   0.000   0.000  -0.000  -0.071  -0.000  -0.000  -0.000
 -0.000  -0.000  -0.000  -0.000  -0.000   0.000   0.000  -0.000
  0.000   0.000   0.000   0.000   0.000  -0.000  -0.000  -0.000
  0.000  -0.000  -0.000   0.000  -0.000  -0.000   0.000   0.000
  0.000   0.000  -0.000   0.000   0.000  -0.000  -0.000   0.000
  0.000   0.000  -0.000  -0.000   0.000  -0.000  -0.000   0.000
 -0.000   0.000   0.000  -0.000   0.000   0.000  -0.000  -0.000
 -0.000  -0.000   0.000  -0.000  -0.000   0.000   0.000  -0.000
 -0.000  -0.000   0.000   0.000  -0.000   0.000   0.000  -0.000
 total augmentation occupancy for first ion, spin component:           1
  1.898  -0.000  -0.007  -0.000  -0.000  -0.043   0.000   0.002   0.000  -0.000   0.011   0.001   0.000  -0.000  -0.000   0.000
 -0.000   1.921   0.003  -0.001  -0.005   0.000  -0.065  -0.002   0.001   0.003   0.011   0.003   0.000   0.000   0.000  -0.000
 -0.007   0.003   1.961   0.003  -0.000   0.002  -0.002  -0.098  -0.002   0.001   0.016   0.004  -0.000   0.000   0.000  -0.000
 -0.000  -0.001   0.003   1.905   0.005   0.000   0.001  -0.002  -0.046  -0.003   0.011   0.003  -0.000  -0.000   0.000  -0.000
 -0.000  -0.005  -0.000   0.005   1.946  -0.000   0.003   0.001  -0.003  -0.086  -0.011  -0.004   0.000   0.000  -0.000   0.000
 -0.043   0.000   0.002   0.000  -0.000   0.179  -0.001   0.002  -0.001   0.000  -0.004   0.002  -0.000   0.000  -0.000  -0.000
  0.000  -0.065  -0.002   0.001   0.003  -0.001   0.196   0.001  -0.001  -0.001  -0.008  -0.001  -0.000  -0.000   0.000  -0.000
  0.002  -0.002  -0.098  -0.002   0.001   0.002   0.001   0.148   0.001  -0.002  -0.010  -0.000   0.000  -0.000   0.000   0.000
  0.000   0.001  -0.002  -0.046  -0.003  -0.001  -0.001   0.001   0.176   0.001  -0.008  -0.001   0.000  -0.000  -0.000   0.000
 -0.000   0.003   0.001  -0.003  -0.086   0.000  -0.001  -0.002   0.001   0.142   0.010   0.004   0.000  -0.000  -0.000  -0.000
  0.011   0.011   0.016   0.011  -0.011  -0.004  -0.008  -0.010  -0.008   0.010   1.050  -0.350  -0.000  -0.000   0.000   0.000
  0.001   0.003   0.004   0.003  -0.004   0.002  -0.001  -0.000  -0.001   0.004  -0.350   0.220  -0.000   0.000  -0.000   0.000
  0.000   0.000  -0.000  -0.000   0.000  -0.000  -0.000   0.000   0.000   0.000  -0.000  -0.000   0.142   0.002   0.003  -0.010
 -0.000   0.000   0.000  -0.000   0.000   0.000  -0.000  -0.000  -0.000  -0.000  -0.000   0.000   0.002   0.144   0.002  -0.000
 -0.000   0.000   0.000   0.000  -0.000  -0.000   0.000   0.000  -0.000  -0.000   0.000  -0.000   0.003   0.002   0.145  -0.000
  0.000  -0.000  -0.000  -0.000   0.000  -0.000  -0.000   0.000   0.000  -0.000   0.000   0.000  -0.010  -0.000  -0.000   0.001
 -0.000   0.000   0.000  -0.000   0.000   0.000  -0.000  -0.000   0.000  -0.000  -0.000   0.000  -0.000  -0.011  -0.000   0.000
 -0.000   0.000   0.000   0.000  -0.000   0.000   0.000  -0.000  -0.000   0.000   0.000   0.000  -0.000  -0.000  -0.010   0.000


------------------------ aborting loop because EDIFF is reached ----------------------------------------




--------------------------------------------------------------------------------------------------------


    CHARGE:  VPU time   21.79: CPU time   21.87
    FORLOC:  VPU time    0.51: CPU time    0.51
    FORNL :  VPU time   94.74: CPU time   95.13
    STRESS:  VPU time  499.72: CPU time  501.70
    FORCOR:  VPU time    3.12: CPU time    3.14
    FORHAR:  VPU time    1.11: CPU time    1.11
    MIXING:  VPU time    0.07: CPU time    0.07


--------------------------------------------------------------------------------------------------------



  FREE ENERGIE OF THE ION-ELECTRON SYSTEM (eV)
  ---------------------------------------------------
  free  energy   TOTEN  =      -104.546125 eV

  energy  without entropy=     -104.498335  energy(sigma->0) =     -104.530195
 

  FORCE on cell =-STRESS in cart. coord.  units (eV/reduce length):
  Direction    X        Y        Z        XY       YZ       ZX
  --------------------------------------------------------------------------------------
  Alpha Z   3308.64   3308.64   3308.64
  Ewald   -10219.96 -10219.96 -10219.96     -0.00     -0.00     -0.00
  Hartree   1291.22   1291.22   1291.22     -0.00     -0.00     -0.00
  E(xc)    -1586.21  -1586.21  -1586.21     -0.00     -0.00     -0.00
  Local     2543.08   2543.08   2543.08      0.00      0.00      0.00
  n-local  -1612.27  -1602.48  -1596.16      6.97      6.21      6.21
  augment   1375.02   1375.02   1375.02      0.00      0.00      0.00
  Kinetic   4885.78   4894.05   4900.86      2.90      4.08      4.08
  -------------------------------------------------------------------------------------
  Total        1.71      1.71      1.71      0.00      0.00      0.00
  in kB        4.72      4.72      4.72      0.00      0.00      0.00
  external pressure =        4.72 kB  Pullay stress =        0.00 kB


 VOLUME and BASIS-vectors are now :
 -----------------------------------------------------------------------------
  energy-cutoff  :      600.00
  volume of cell :      579.62
      direct lattice vectors                 reciprocal lattice vectors
     8.337752780  0.000000000  0.000000000     0.119936394 -0.000000002 -0.000000002
     0.000000150  8.337752780  0.000000000     0.000000000  0.119936394 -0.000000002
     0.000000150  0.000000150  8.337752780     0.000000000  0.000000000  0.119936394

  length of vectors
     8.337752780  8.337752780  8.337752780     0.119936394  0.119936394  0.119936394


 FORCES acting on ions
    electron-ion (+dipol)            ewald-force                    non-local-force                 convergence-correction
 -----------------------------------------------------------------------------------------------
   0.447E-12 -.124E-10 0.185E-11   -.178E-12 0.178E-14 -.431E-13   -.149E-22 -.122E-22 0.395E-22   -.101E-13 -.263E-13 -.669E-12
   0.459E-12 -.532E-12 -.877E-13   -.242E-12 0.524E-13 -.398E-13   -.533E-22 0.660E-22 -.430E-22   -.130E-12 -.360E-12 0.901E-12
   0.445E-12 -.408E-13 -.530E-11   -.177E-12 -.317E-13 -.355E-14   0.693E-22 -.564E-22 0.149E-22   -.198E-12 -.307E-12 -.111E-12
   0.426E-12 0.375E-11 0.151E-11   -.204E-12 -.165E-12 -.183E-12   0.457E-23 -.849E-22 -.910E-23   -.155E-13 -.219E-13 -.307E-12
   -.538E-13 0.442E-12 0.107E-12   0.111E-14 -.107E-13 -.888E-14   0.863E-22 -.308E-22 -.124E-22   0.673E-13 -.112E-12 -.223E-12
   -.349E-13 -.351E-13 0.319E-12   -.114E-12 0.239E-13 0.128E-13   0.146E-22 -.337E-22 -.827E-22   0.164E-12 -.147E-12 -.424E-12
   0.104E-12 -.109E-11 0.124E-11   -.515E-13 -.178E-14 0.455E-13   0.255E-22 0.837E-23 0.844E-22   -.632E-13 -.521E-13 -.418E-12
   0.439E-12 0.230E-13 0.232E-11   -.373E-13 -.669E-13 -.275E-13   -.554E-22 -.178E-22 -.306E-22   -.414E-13 0.447E-13 -.207E-12
   0.439E-12 -.814E-11 -.150E-12   -.126E-12 -.127E-12 0.228E-13   -.708E-22 -.123E-21 0.298E-22   -.246E-12 0.327E-12 0.558E-12
   0.445E-12 -.135E-11 0.663E-11   -.257E-12 -.149E-13 0.631E-13   0.137E-21 0.190E-22 -.370E-22   -.104E-12 0.351E-12 -.451E-12
   -.411E-13 0.441E-12 0.438E-12   0.236E-13 -.284E-13 0.622E-14   0.358E-22 -.750E-22 0.760E-22   0.320E-12 -.194E-12 -.763E-13
   -.342E-13 -.354E-13 -.636E-13   0.399E-13 0.529E-13 -.595E-13   0.131E-22 0.559E-22 -.248E-23   0.440E-12 -.726E-13 0.661E-12
   -.414E-13 0.115E-12 0.108E-12   0.854E-15 -.462E-13 0.719E-13   0.249E-22 -.316E-22 -.364E-22   0.310E-12 0.728E-13 -.296E-12
   -.486E-13 0.289E-12 0.319E-12   -.181E-13 0.995E-13 -.712E-13   -.269E-22 0.320E-22 -.414E-22   0.196E-12 0.179E-12 -.343E-12
   0.906E-13 0.199E-11 0.800E-12   0.124E-13 0.417E-13 -.117E-12   0.640E-22 -.476E-22 0.127E-22   0.577E-13 -.120E-12 0.641E-12
   0.103E-12 -.972E-14 -.128E-11   0.480E-13 -.668E-13 0.622E-14   0.557E-22 0.240E-22 -.149E-22   0.126E-12 -.609E-13 -.379E-12
   0.124E-12 0.162E-11 0.121E-11   -.888E-13 0.586E-13 -.566E-14   -.290E-22 -.732E-22 0.261E-22   -.509E-13 0.818E-14 -.334E-12
   0.300E-12 -.327E-11 -.281E-12   0.221E-12 -.240E-13 -.977E-14   0.455E-22 0.392E-22 0.153E-22   0.284E-13 -.302E-13 -.348E-12
   0.280E-12 -.877E-14 -.242E-11   0.183E-13 0.668E-13 0.388E-13   0.483E-23 -.101E-23 0.161E-22   -.711E-13 -.127E-12 -.571E-12
   0.439E-12 -.108E-11 -.946E-11   -.560E-13 0.162E-13 0.213E-13   -.712E-22 -.239E-22 0.165E-22   -.566E-13 -.149E-14 0.134E-12
   -.284E-13 0.115E-12 0.438E-12   0.144E-12 -.103E-12 -.480E-13   -.375E-22 -.485E-22 -.207E-22   0.291E-12 0.157E-12 0.635E-14
   -.483E-13 0.290E-12 -.650E-13   0.661E-13 0.139E-12 0.105E-12   0.277E-22 -.111E-21 0.178E-22   0.199E-12 0.952E-13 0.575E-12
   0.110E-12 -.286E-13 0.210E-11   0.145E-12 -.430E-13 0.107E-12   0.187E-22 -.776E-22 0.228E-22   -.317E-13 0.182E-13 0.802E-13
   0.111E-12 -.142E-11 0.823E-12   0.888E-15 0.471E-13 -.490E-13   0.212E-22 0.401E-22 -.182E-22   0.177E-12 0.754E-13 0.569E-12
   0.104E-12 0.264E-12 0.176E-11   0.702E-13 0.843E-13 0.924E-13   -.735E-24 -.140E-22 -.827E-24   0.349E-13 0.104E-12 -.441E-12
   0.287E-12 0.262E-11 0.453E-11   0.127E-12 0.533E-14 -.888E-14   0.153E-22 0.616E-22 0.587E-22   -.225E-12 -.220E-12 0.371E-13
   0.280E-12 0.345E-13 0.193E-11   0.150E-12 0.106E-12 0.515E-13   -.254E-22 -.997E-22 -.993E-23   -.346E-12 0.610E-13 0.828E-12
   0.287E-12 -.225E-11 -.337E-12   0.800E-13 0.657E-13 0.373E-13   -.274E-22 0.901E-22 -.428E-22   -.216E-12 -.194E-13 -.542E-12
   0.294E-12 -.272E-11 -.227E-11   0.863E-13 -.890E-14 0.355E-13   0.664E-22 0.789E-23 0.298E-22   -.934E-13 0.181E-12 -.394E-12
   0.111E-12 0.283E-12 -.939E-12   0.171E-12 0.151E-12 -.346E-13   0.123E-22 0.518E-22 0.248E-23   -.132E-13 0.242E-13 0.153E-12
   0.274E-12 -.207E-11 -.152E-11   0.242E-12 0.123E-12 0.109E-12   -.256E-23 -.120E-21 -.116E-22   -.198E-12 0.172E-12 0.221E-12
   0.294E-12 -.274E-11 0.170E-11   0.199E-12 -.666E-13 0.756E-13   -.860E-23 0.855E-22 -.480E-22   -.987E-13 -.869E-14 0.623E-12
 -----------------------------------------------------------------------------------------------
   0.636E-11 -.269E-10 0.595E-11   0.298E-12 0.330E-12 0.192E-12   0.319E-21 -.501E-21 0.916E-24   0.203E-12 -.114E-13 -.548E-12
 
 
 POSITION                                       TOTAL-FORCE (eV/Angst)
 -----------------------------------------------------------------------------------
      6.25331      6.25331      4.16888         0.000000      0.000000     -0.000000
      6.25331      6.25331      0.00000        -0.000000     -0.000000     -0.000000
      6.25331      0.00000      2.08444         0.000000     -0.000000     -0.000000
      6.25331      2.08444      4.16888        -0.000000     -0.000000     -0.000000
      0.00000      6.25331      2.08444        -0.000000     -0.000000     -0.000000
      0.00000      0.00000      4.16888        -0.000000      0.000000      0.000000
      2.08444      6.25331      4.16888         0.000000     -0.000000     -0.000000
      6.25331      0.00000      6.25331        -0.000000      0.000000     -0.000000
      6.25331      2.08444      0.00000         0.000000      0.000000      0.000000
      6.25331      4.16888      2.08444         0.000000     -0.000000      0.000000
      0.00000      6.25331      6.25331         0.000000     -0.000000      0.000000
      0.00000      0.00000      0.00000        -0.000000     -0.000000      0.000000
      0.00000      2.08444      2.08444        -0.000000      0.000000      0.000000
      0.00000      4.16888      4.16888        -0.000000     -0.000000     -0.000000
      2.08444      6.25331      0.00000        -0.000000      0.000000      0.000000
      2.08444      0.00000      2.08444         0.000000      0.000000     -0.000000
      2.08444      2.08444      4.16888        -0.000000     -0.000000     -0.000000
      4.16888      6.25331      2.08444        -0.000000     -0.000000     -0.000000
      4.16888      0.00000      4.16888         0.000000      0.000000      0.000000
      6.25331      4.16888      6.25331         0.000000     -0.000000     -0.000000
      0.00000      2.08444      6.25331        -0.000000      0.000000     -0.000000
      0.00000      4.16888      0.00000         0.000000     -0.000000      0.000000
      2.08444      0.00000      6.25331         0.000000     -0.000000      0.000000
      2.08444      2.08444      0.00000         0.000000     -0.000000      0.000000
      2.08444      4.16888      2.08444         0.000000      0.000000      0.000000
      4.16888      6.25331      6.25331        -0.000000      0.000000     -0.000000
      4.16888      0.00000      0.00000         0.000000      0.000000      0.000000
      4.16888      2.08444      2.08444         0.000000      0.000000      0.000000
      4.16888      4.16888      4.16888        -0.000000     -0.000000     -0.000000
      2.08444      4.16888      6.25331         0.000000     -0.000000     -0.000000
      4.16888      2.08444      6.25331        -0.000000      0.000000      0.000000
      4.16888      4.16888      0.00000        -0.000000     -0.000000     -0.000000
 -----------------------------------------------------------------------------------
    total drift:                                0.000000     -0.000000      0.000000


--------------------------------------------------------------------------------------------------------




--------------------------------------------------------------------------------------------------------


  
 reached required accuracy - stopping structural energy minimisation
 writing wavefunctions
     LOOP+:  VPU time 3927.47: CPU time 3942.97

 ----------------------------------------------------------------------------- 
|                                                                             |
|           W    W    AA    RRRRR   N    N  II  N    N   GGGG   !!!           |
|           W    W   A  A   R    R  NN   N  II  NN   N  G    G  !!!           |
|           W    W  A    A  R    R  N N  N  II  N N  N  G       !!!           |
|           W WW W  AAAAAA  RRRRR   N  N N  II  N  N N  G  GGG   !            |
|           WW  WW  A    A  R   R   N   NN  II  N   NN  G    G                |
|           W    W  A    A  R    R  N    N  II  N    N   GGGG   !!!           |
|                                                                             |
|      The partial DOS and the PROCAR file are not evaluated for NPAR/=1      |
|      please rerun with NPAR=1                                               |
|                                                                             |
 ----------------------------------------------------------------------------- 

  
  
 General timing and accounting informations for this job:
 ========================================================
  
                  Total CPU time used (sec):     3945.665
                            User time (sec):     3596.043
                          System time (sec):      349.622
                         Elapsed time (sec):     3961.175
  
                   Maximum memory used (kb):      712280.
                   Average memory used (kb):           0.
  
                          Minor page faults:       118294
                          Major page faults:            0
                 Voluntary context switches:         3525
