 vasp.4.6.28 25Jul05 complex 
 executed on             LinuxIFC date 2017.01.24  17:24:39
 running on    4 nodes
 distr:  one band on    1 nodes,    4 groups


--------------------------------------------------------------------------------------------------------


 INCAR:
 POTCAR:   PAW_PBE Ag 06Sep2000                   
 POTCAR:   PAW_PBE Ag 06Sep2000                   
   VRHFIN =Ag : s1 d10                                                          
   LEXCH  = PE                                                                  
   EATOM  =  1037.4134 eV,   76.2477 Ry                                         
                                                                                
   TITEL  = PAW_PBE Ag 06Sep2000                                                
   LULTRA =        F    use ultrasoft PP ?                                      
   IUNSCR =        1    unscreen: 0-lin 1-nonlin 2-no                           
   RPACOR =    2.000    partial core radius                                     
   POMASS =  107.868; ZVAL   =   11.000    mass and valenz                      
   RCORE  =    2.400    outmost cutoff radius                                   
   RWIGS  =    2.840; RWIGS  =    1.503    wigner-seitz radius (au A)           
   ENMAX  =  249.846; ENMIN  =  187.385 eV                                      
   RCLOC  =    1.962    cutoff for local pot                                    
   LCOR   =        T    correct aug charges                                     
   LPAW   =        T    paw PP                                                  
   EAUG   =  412.496                                                            
   DEXC   =    -.047                                                            
   RMAX   =    2.917    core radius for proj-oper                               
   RAUG   =    1.300    factor for augmentation sphere                          
   RDEP   =    2.416    radius for radial grids                                 
   QCUT   =   -4.285; QGAM   =    8.570    optimization parameters              
                                                                                
   Description                                                                  
     l     E      TYP  RCUT    TYP  RCUT                                        
     2   .000     23  2.400                                                     
     2   .000     23  2.400                                                     
     0   .000     23  2.400                                                     
     0   .000     23  2.400                                                     
     1  -.200     23  2.400                                                     
     1  1.500     23  2.400                                                     
     3   .000      7   .000                                                     
  local pseudopotential read in
  partial core-charges read in
  atomic valenz-charges read in
  non local Contribution for L=           2  read in
    real space projection operators read in
  non local Contribution for L=           2  read in
    real space projection operators read in
  non local Contribution for L=           0  read in
    real space projection operators read in
  non local Contribution for L=           0  read in
    real space projection operators read in
  non local Contribution for L=           1  read in
    real space projection operators read in
  non local Contribution for L=           1  read in
    real space projection operators read in
    PAW grid and wavefunctions read in
 
   number of l-projection  operators is LMAX  =           6
   number of lm-projection operators is LMMAX =          18
 

 ----------------------------------------------------------------------------- 
|                                                                             |
|  ADVICE TO THIS USER RUNNING 'VASP/VAMP'   (HEAR YOUR MASTER'S VOICE ...):  |
|                                                                             |
|      You have a (more or less) 'large supercell' and for larger cells       |
|      it might be more efficient to use real space projection operators      |
|      So try LREAL= Auto  in the INCAR   file.                               |
|      Mind: If you want to do an extremely accurate calculations keep the    |
|      reciprocal projection scheme          (i.e. LREAL=.FALSE.)             |
|                                                                             |
 ----------------------------------------------------------------------------- 

 PAW_PBE Ag 06Sep2000                   :
 energy of atom  1       EATOM=-1037.4134
 kinetic energy error for atom=    0.0019 (will be added to EATOM!!)
 
 EXHCAR: internal setup
 exchange correlation table for  LEXCH =        8
   RHO(1)=    0.500       N(1)  =     2000
   RHO(2)=  100.500       N(2)  =     4000
 
 POSCAR: No title                                
  positions in direct lattice
  No initial velocities read in
 


--------------------------------------------------------------------------------------------------------


 ion  position               nearest neighbor table
   1  0.750  0.750  0.500-   3 3.05  14 3.05  19 3.05  20 3.05   5 3.05  26 3.05   6 3.05  29 3.05
                            11 3.05  18 3.05  10 3.05   8 3.05
   2  0.750  0.750  0.000-   8 3.05  10 3.05  22 3.05  27 3.05  11 3.05  18 3.05  32 3.05   5 3.05
                            26 3.05   3 3.05  20 3.05  12 3.06
   3  0.750  0.000  0.250-   1 3.05   5 3.05   9 3.05  28 3.05  19 3.05  13 3.05  18 3.05  27 3.05
                             6 3.05   2 3.05   4 3.05  12 3.06
   4  0.750  0.250  0.500-   6 3.05   8 3.05  10 3.05  29 3.05  13 3.05  31 3.05  14 3.05  19 3.05
                            21 3.05  28 3.05   3 3.05  20 3.05
   5  0.000  0.750  0.250-   3 3.05  14 3.05  25 3.05  15 3.05   1 3.05  16 3.05  10 3.05   7 3.05
                             2 3.05  22 3.05   6 3.05  12 3.05
   6  0.000  0.000  0.500-   4 3.05   7 3.05  11 3.05  13 3.05   8 3.05  16 3.05   1 3.05  17 3.05
                             3 3.05  23 3.05  21 3.05   5 3.05
   7  0.250  0.750  0.500-   6 3.05  16 3.05  29 3.05  30 3.05  11 3.05  18 3.05  14 3.05  19 3.05
                             5 3.05  26 3.05  25 3.05  23 3.05
   8  0.750  0.000  0.750-   2 3.05   4 3.05  11 3.05  31 3.05  27 3.05   6 3.05  21 3.05  26 3.05
                            19 3.05   1 3.05   9 3.05  12 3.06
   9  0.750  0.250  0.000-   3 3.05  20 3.05  32 3.05  28 3.05  21 3.05  22 3.05  27 3.05  31 3.05
                            13 3.05   8 3.05  10 3.05  12 3.06
  10  0.750  0.500  0.250-   2 3.05   4 3.05  13 3.05  18 3.05  22 3.05  29 3.05  28 3.05   5 3.05
                            14 3.05  32 3.05   9 3.05   1 3.05
  11  0.000  0.750  0.750-   6 3.05   8 3.05  22 3.05  30 3.05   7 3.05   2 3.05  23 3.05  20 3.05
                             1 3.05  15 3.05  14 3.05  12 3.05
  12  0.002  0.000  0.000-  15 3.03  23 3.03  16 3.03  24 3.03   5 3.05  21 3.05  13 3.05  11 3.05
                             9 3.06   3 3.06   2 3.06   8 3.06
  13  0.000  0.250  0.250-   6 3.05  10 3.05  16 3.05  22 3.05   4 3.05  24 3.05   3 3.05  25 3.05
                            17 3.05   9 3.05  14 3.05  12 3.05
  14  0.000  0.500  0.500-   1 3.05   5 3.05  17 3.05  21 3.05  20 3.05  25 3.05   4 3.05   7 3.05
                            10 3.05  30 3.05  13 3.05  11 3.05
  15  0.250  0.750  0.000-  12 3.03  23 3.05  25 3.05  32 3.05  26 3.05   5 3.05  27 3.05  22 3.05
                            11 3.05  18 3.05  30 3.05  16 3.05
  16  0.250  0.000  0.250-  12 3.03   7 3.05  13 3.05  18 3.05  24 3.05   6 3.05  27 3.05   5 3.05
                            28 3.05  19 3.05  17 3.05  15 3.05
  17  0.250  0.250  0.500-  14 3.05  19 3.05  23 3.05  25 3.05  21 3.05  28 3.05   6 3.05  29 3.05
                            13 3.05  31 3.05  30 3.05  16 3.05
  18  0.500  0.750  0.250-  10 3.05  16 3.05  27 3.05  29 3.05   2 3.05   7 3.05   3 3.05  25 3.05
                             1 3.05  15 3.05  19 3.05  32 3.05
  19  0.500  0.000  0.500-   1 3.05  17 3.05  26 3.05  28 3.05   3 3.05  23 3.05   4 3.05   7 3.05
                             8 3.05  16 3.05  18 3.05  31 3.05
  20  0.750  0.500  0.750-   1 3.05   9 3.05  21 3.05  26 3.05  14 3.05  32 3.05  31 3.05  11 3.05
                            22 3.05  29 3.05   4 3.05   2 3.05
  21  0.000  0.250  0.750-  14 3.05  20 3.05  23 3.05   9 3.05  17 3.05   8 3.05  30 3.05  24 3.05
                             4 3.05  22 3.05   6 3.05  12 3.05
  22  0.000  0.500  0.000-   2 3.05  11 3.05  13 3.05  24 3.05  10 3.05  30 3.05   9 3.05  15 3.05
                            25 3.05  20 3.05  21 3.05   5 3.05
  23  0.250  0.000  0.750-  12 3.03  15 3.05  17 3.05  21 3.05  26 3.05  19 3.05  11 3.05  31 3.05
                            27 3.05   6 3.05  24 3.05   7 3.05
  24  0.250  0.250  0.000-  12 3.03  16 3.05  22 3.05  27 3.05  30 3.05  13 3.05  31 3.05  32 3.05
                            28 3.05  21 3.05  25 3.05  23 3.05
  25  0.250  0.500  0.250-   5 3.05  15 3.05  17 3.05  28 3.05  14 3.05  32 3.05  13 3.05  18 3.05
                            29 3.05  22 3.05  24 3.05   7 3.05
  26  0.500  0.750  0.750-  19 3.05  20 3.05  23 3.05  32 3.05   1 3.05  15 3.05  30 3.05   8 3.05
                             7 3.05   2 3.05  27 3.05  29 3.05
  27  0.500  0.000  0.000-   2 3.05  18 3.05  24 3.05  31 3.05  16 3.05   8 3.05   9 3.05  15 3.05
                             3 3.05  23 3.05  28 3.05  26 3.05
  28  0.500  0.250  0.250-   3 3.05  19 3.05  25 3.05  32 3.05  17 3.05   9 3.05  10 3.05  16 3.05
                             4 3.05  24 3.05  29 3.05  27 3.05
  29  0.500  0.500  0.500-   4 3.05   7 3.05  18 3.05  31 3.05  30 3.05  10 3.05  17 3.05   1 3.05
                            20 3.05  25 3.05  26 3.05  28 3.05
  30  0.250  0.500  0.750-   7 3.05  11 3.05  24 3.05  31 3.05  29 3.05  22 3.05  21 3.05  26 3.05
                            14 3.05  32 3.05  17 3.05  15 3.05
  31  0.500  0.250  0.750-   8 3.05  27 3.05  29 3.05  30 3.05  24 3.05   4 3.05  20 3.05  23 3.05
                             9 3.05  17 3.05  19 3.05  32 3.05
  32  0.500  0.500  0.000-   9 3.05  15 3.05  26 3.05  28 3.05  20 3.05  25 3.05  24 3.05   2 3.05
                            10 3.05  30 3.05  18 3.05  31 3.05
 
  LATTYP: Found a simple cubic cell.
 ALAT       =     8.6148449100
  
  Lattice vectors:
  
 A1 = (   8.6148449100,   0.0000000000,   0.0000000000)
 A2 = (   0.0000001600,   8.6148449100,   0.0000000000)
 A3 = (   0.0000001600,   0.0000001600,   8.6148449100)
 Subroutine PRICEL returns:
 Original cell was already a primitive cell.
 

Analysis of symmetry for initial positions (statically):

 Routine SETGRP: Setting up the symmetry group for a 
 simple cubic supercell.


 Subroutine GETGRP returns: Found  8 space group operations
 (whereof  8 operations were pure point group operations)
 out of a pool of 48 trial point group operations.


The static configuration has the point symmetry C_4v.

Analysis of symmetry for dynamics (positions and initial velocities):

 Subroutine DYNSYM returns: Found  8 space group operations
 (whereof  8 operations were pure point group operations)
 out of a pool of  8 trial space group operations
 (whereof  8 operations were pure point group operations)
 and found also     1 'primitive' translations


The dynamic configuration has the point symmetry C_4v.
 
 
 KPOINTS: Automatic mesh                          

Automatic generation of k-mesh.
 
 Subroutine IBZKPT returns following result:
 ===========================================
 
 Found     40 irreducible k-points:
 
 Following reciprocal coordinates:
            Coordinates               Weight
  0.062500  0.062500  0.062500      8.000000
  0.187500  0.062500  0.062500      8.000000
  0.312500  0.062500  0.062500      8.000000
  0.437500  0.062500  0.062500      8.000000
  0.062500  0.187500  0.062500     16.000000
  0.187500  0.187500  0.062500     16.000000
  0.312500  0.187500  0.062500     16.000000
  0.437500  0.187500  0.062500     16.000000
  0.062500  0.312500  0.062500     16.000000
  0.187500  0.312500  0.062500     16.000000
  0.312500  0.312500  0.062500     16.000000
  0.437500  0.312500  0.062500     16.000000
  0.062500  0.437500  0.062500     16.000000
  0.187500  0.437500  0.062500     16.000000
  0.312500  0.437500  0.062500     16.000000
  0.437500  0.437500  0.062500     16.000000
  0.062500  0.187500  0.187500      8.000000
  0.187500  0.187500  0.187500      8.000000
  0.312500  0.187500  0.187500      8.000000
  0.437500  0.187500  0.187500      8.000000
  0.062500  0.312500  0.187500     16.000000
  0.187500  0.312500  0.187500     16.000000
  0.312500  0.312500  0.187500     16.000000
  0.437500  0.312500  0.187500     16.000000
  0.062500  0.437500  0.187500     16.000000
  0.187500  0.437500  0.187500     16.000000
  0.312500  0.437500  0.187500     16.000000
  0.437500  0.437500  0.187500     16.000000
  0.062500  0.312500  0.312500      8.000000
  0.187500  0.312500  0.312500      8.000000
  0.312500  0.312500  0.312500      8.000000
  0.437500  0.312500  0.312500      8.000000
  0.062500  0.437500  0.312500     16.000000
  0.187500  0.437500  0.312500     16.000000
  0.312500  0.437500  0.312500     16.000000
  0.437500  0.437500  0.312500     16.000000
  0.062500  0.437500  0.437500      8.000000
  0.187500  0.437500  0.437500      8.000000
  0.312500  0.437500  0.437500      8.000000
  0.437500  0.437500  0.437500      8.000000
 
 Following cartesian coordinates:
            Coordinates               Weight
  0.007255  0.007255  0.007255      8.000000
  0.021765  0.007255  0.007255      8.000000
  0.036275  0.007255  0.007255      8.000000
  0.050784  0.007255  0.007255      8.000000
  0.007255  0.021765  0.007255     16.000000
  0.021765  0.021765  0.007255     16.000000
  0.036275  0.021765  0.007255     16.000000
  0.050784  0.021765  0.007255     16.000000
  0.007255  0.036275  0.007255     16.000000
  0.021765  0.036275  0.007255     16.000000
  0.036275  0.036275  0.007255     16.000000
  0.050784  0.036275  0.007255     16.000000
  0.007255  0.050784  0.007255     16.000000
  0.021765  0.050784  0.007255     16.000000
  0.036275  0.050784  0.007255     16.000000
  0.050784  0.050784  0.007255     16.000000
  0.007255  0.021765  0.021765      8.000000
  0.021765  0.021765  0.021765      8.000000
  0.036275  0.021765  0.021765      8.000000
  0.050784  0.021765  0.021765      8.000000
  0.007255  0.036275  0.021765     16.000000
  0.021765  0.036275  0.021765     16.000000
  0.036275  0.036275  0.021765     16.000000
  0.050784  0.036275  0.021765     16.000000
  0.007255  0.050784  0.021765     16.000000
  0.021765  0.050784  0.021765     16.000000
  0.036275  0.050784  0.021765     16.000000
  0.050784  0.050784  0.021765     16.000000
  0.007255  0.036275  0.036275      8.000000
  0.021765  0.036275  0.036275      8.000000
  0.036275  0.036275  0.036275      8.000000
  0.050784  0.036275  0.036275      8.000000
  0.007255  0.050784  0.036275     16.000000
  0.021765  0.050784  0.036275     16.000000
  0.036275  0.050784  0.036275     16.000000
  0.050784  0.050784  0.036275     16.000000
  0.007255  0.050784  0.050784      8.000000
  0.021765  0.050784  0.050784      8.000000
  0.036275  0.050784  0.050784      8.000000
  0.050784  0.050784  0.050784      8.000000
 


--------------------------------------------------------------------------------------------------------




 Dimension of arrays:
   k-Points           NKPTS =     40   number of bands    NBANDS=    212
   number of dos      NEDOS =    301   number of ions     NIONS =     32
   non local maximal  LDIM  =      6   non local SUM 2l+1 LMDIM =     18
   total plane-waves  NPLWV = 343000
   max r-space proj   IRMAX =      1   max aug-charges    IRDMAX= 211198
   dimension x,y,z NGX =    70 NGY =   70 NGZ =   70
   dimension x,y,z NGXF=   140 NGYF=  140 NGZF=  140
   support grid    NGXF=   280 NGYF=  280 NGZF=  280
   ions per type =              32
 NGX,Y,Z   is equivalent  to a cutoff of  13.51, 13.51, 13.51 a.u.
 NGXF,Y,Z  is equivalent  to a cutoff of  27.02, 27.02, 27.02 a.u.


 I would recommend the setting:
   dimension x,y,z NGX =    69 NGY =   69 NGZ =   69
 SYSTEM =  No title                                
 POSCAR =  No title                                

 Startparameter for this run:
   NWRITE =      2    write-flag & timer
   PREC   = accura    medium, high low
   ISTART =      1    job   : 0-new  1-cont  2-samecut
   ICHARG =      0    charge: 1-file 2-atom 10-const
   ISPIN  =      1    spin polarized calculation?
   LNONCOLLINEAR =      F non collinear calculations
   LSORBIT =      F    spin-orbit coupling
   INIWAV =      1    electr: 0-lowe 1-rand  2-diag
   LASPH  =      F    aspherical Exc in radial PAW
   METAGGA=      F    non-selfconsistent MetaGGA calc.

 Electronic Relaxation 1
   ENCUT  =  600.0 eV  44.10 Ry    6.64 a.u.  17.21 17.21 17.21*2*pi/ulx,y,z
   ENINI  =  600.0     initial cutoff
   ENAUG  =  412.5 eV  augmentation charge cutoff
   NELM   =     60;   NELMIN=  2; NELMDL=  0     # of ELM steps 
   EDIFF  = 0.1E-04   stopping-criterion for ELM
   LREAL  =      F    real-space projection
   LCOMPAT=      F    compatible to vasp.4.4
   LREAL_COMPAT= F    compatible to vasp.4.5.1-3
   GGA_COMPAT  = T    GGA compatible to vasp.4.4-vasp.4.6
   LMAXPAW     = -100 max onsite density
   LMAXMIX     =    2 max onsite mixed and CHGCAR
   VOSKOWN=      1    Vosko Wilk Nusair interpolation
   ROPT   =    0.00000
 Ionic relaxation
   EDIFFG = -.2E-01   stopping-criterion for IOM
   NSW    =      0    number of steps for IOM
   NBLOCK =      1;   KBLOCK =      1    inner block; outer block 
   IBRION =     -1    ionic relax: 0-MD 1-quasi-New 2-CG
   NFREE  =      0    steps in history (QN), initial steepest desc. (CG)
   ISIF   =      2    stress and relaxation
   IWAVPR =     10    prediction:  0-non 1-charg 2-wave 3-comb
   ISYM   =      2    0-nonsym 1-usesym 2-fastsym
   LCORR  =      T    Harris-Foulkes like correction to forces

   POTIM  =   0.50    time-step for ionic-motion
   TEIN   =    0.0    initial temperature
   TEBEG  =    0.0;   TEEND  =   0.0 temperature during run
   SMASS  =  -3.00    Nose mass-parameter (am)
   estimated Nose-frequenzy (Omega)   =  0.10E-29 period in steps =****** mass=  -0.170E-26a.u.
   NPACO  =    256;   APACO  = 16.0  distance and # of slots for P.C.
   PSTRESS=    0.0 pullay stress

  Mass of Ions in am
   POMASS = 107.87
  Ionic Valenz
   ZVAL   =  11.00
  Atomic Wigner-Seitz radii
   RWIGS  =   1.34
   NELECT =     352.0000    total number of electrons
   NUPDOWN=      -1.0000    fix difference up-down

 DOS related values:
   EMIN   =  10.00;   EMAX   =-10.00  energy-range for DOS
   ISMEAR =     1;   SIGMA  =   0.20  broadening in eV -4-tet -1-fermi 0-gaus

 Electronic relaxation 2 (details)
   IALGO  =     48    algorithm
   LDIAG  =      T    sub-space diagonalisation
   IMIX   =      4    mixing-type and parameters
     AMIX     =   0.40;   BMIX     =  1.00
     AMIX_MAG =   1.60;   BMIX_MAG =  1.00
     AMIN     =   0.10
     WC   =   100.;   INIMIX=   1;  MIXPRE=   1

 Intra band minimization:
   WEIMIN = 0.0000     energy-eigenvalue tresh-hold
   EBREAK =  0.12E-07  absolut break condition
   DEPER  =   0.30     relativ break condition  

   TIME   =   0.10     timestep for ELM

  volume/ion in A,a.u.               =      19.98       134.83
  Fermi-wavevector in a.u.,eV,Ry     =   1.341760 24.494848  1.800321

 Second variation
   LSECVAR=     F    do a second variation
 
 Write flags
   LWAVE  =      F    write WAVECAR
   LCHARG =      F    write CHGCAR
   LVTOT  =      F    write LOCPOT, local potential
   LELF   =      F    write electronic localiz. function (ELF)
   LORBIT =      0    0 simple, 1 ext, 2 COOP (PROOUT)


 Dipole corrections
   IDIPOL =      0    1-x, 2-y, 3-z
   LDIPOL =      F    correct potential



--------------------------------------------------------------------------------------------------------


 Static calculation
 charge density will be updated during run
 non-spin polarized calculation
 RMM-DIIS sequential band-by-band
 performe sub-space diagonalisation
    before iterative eigenvector-optimisation
 modified Broyden-mixing scheme, WC =      100.0
 initial mixing is a Kerker type mixing with AMIX =  0.4000 and BMIX =      1.0000
 Hartree-type preconditioning will be used
 using additional bands           36
 reciprocal scheme for non local part
 use partial core corrections
 calculate Harris-corrections to forces 
   (improved forces if not selfconsistent)
 use gradient corrections 
 use of overlap-Matrix (Vanderbilt PP)
 Methfessel and Paxton  Order N= 1 SIGMA  =   0.20


--------------------------------------------------------------------------------------------------------


  energy-cutoff  :      600.00
  volume of cell :      639.36
      direct lattice vectors                 reciprocal lattice vectors
     8.614844910  0.000000000  0.000000000     0.116078700 -0.000000002 -0.000000002
     0.000000160  8.614844910  0.000000000     0.000000000  0.116078700 -0.000000002
     0.000000160  0.000000160  8.614844910     0.000000000  0.000000000  0.116078700

  length of vectors
     8.614844910  8.614844910  8.614844910     0.116078700  0.116078700  0.116078700


 
 old parameters found on file WAVECAR:
  energy-cutoff  :      600.00
  volume of cell :      639.36
      direct lattice vectors                 reciprocal lattice vectors
     8.614844910  0.000000000  0.000000000     0.116078700 -0.000000002 -0.000000002
     0.000000160  8.614844910  0.000000000     0.000000000  0.116078700 -0.000000002
     0.000000160  0.000000160  8.614844910     0.000000000  0.000000000  0.116078700

  length of vectors

 
 k-points in units of 2pi/SCALE and weight: Automatic mesh                          
   0.00725492  0.00725492  0.00725492       0.016
   0.02176476  0.00725492  0.00725492       0.016
   0.03627459  0.00725492  0.00725492       0.016
   0.05078443  0.00725492  0.00725492       0.016
   0.00725492  0.02176476  0.00725492       0.031
   0.02176476  0.02176476  0.00725492       0.031
   0.03627459  0.02176476  0.00725492       0.031
   0.05078443  0.02176476  0.00725492       0.031
   0.00725492  0.03627459  0.00725492       0.031
   0.02176476  0.03627459  0.00725492       0.031
   0.03627459  0.03627459  0.00725492       0.031
   0.05078443  0.03627459  0.00725492       0.031
   0.00725492  0.05078443  0.00725492       0.031
   0.02176476  0.05078443  0.00725492       0.031
   0.03627459  0.05078443  0.00725492       0.031
   0.05078443  0.05078443  0.00725492       0.031
   0.00725492  0.02176476  0.02176476       0.016
   0.02176476  0.02176476  0.02176476       0.016
   0.03627459  0.02176476  0.02176476       0.016
   0.05078443  0.02176476  0.02176475       0.016
   0.00725492  0.03627459  0.02176476       0.031
   0.02176476  0.03627459  0.02176476       0.031
   0.03627459  0.03627459  0.02176475       0.031
   0.05078443  0.03627459  0.02176475       0.031
   0.00725492  0.05078443  0.02176476       0.031
   0.02176476  0.05078443  0.02176475       0.031
   0.03627459  0.05078443  0.02176475       0.031
   0.05078443  0.05078443  0.02176475       0.031
   0.00725492  0.03627459  0.03627459       0.016
   0.02176476  0.03627459  0.03627459       0.016
   0.03627459  0.03627459  0.03627459       0.016
   0.05078443  0.03627459  0.03627459       0.016
   0.00725492  0.05078443  0.03627459       0.031
   0.02176476  0.05078443  0.03627459       0.031
   0.03627459  0.05078443  0.03627459       0.031
   0.05078443  0.05078443  0.03627459       0.031
   0.00725492  0.05078443  0.05078443       0.016
   0.02176476  0.05078443  0.05078443       0.016
   0.03627459  0.05078443  0.05078443       0.016
   0.05078443  0.05078443  0.05078443       0.016
 
 k-points in reciprocal lattice and weights: Automatic mesh                          
   0.06250000  0.06250000  0.06250000       0.016
   0.18750000  0.06250000  0.06250000       0.016
   0.31250000  0.06250000  0.06250000       0.016
   0.43750000  0.06250000  0.06250000       0.016
   0.06250000  0.18750000  0.06250000       0.031
   0.18750000  0.18750000  0.06250000       0.031
   0.31250000  0.18750000  0.06250000       0.031
   0.43750000  0.18750000  0.06250000       0.031
   0.06250000  0.31250000  0.06250000       0.031
   0.18750000  0.31250000  0.06250000       0.031
   0.31250000  0.31250000  0.06250000       0.031
   0.43750000  0.31250000  0.06250000       0.031
   0.06250000  0.43750000  0.06250000       0.031
   0.18750000  0.43750000  0.06250000       0.031
   0.31250000  0.43750000  0.06250000       0.031
   0.43750000  0.43750000  0.06250000       0.031
   0.06250000  0.18750000  0.18750000       0.016
   0.18750000  0.18750000  0.18750000       0.016
   0.31250000  0.18750000  0.18750000       0.016
   0.43750000  0.18750000  0.18750000       0.016
   0.06250000  0.31250000  0.18750000       0.031
   0.18750000  0.31250000  0.18750000       0.031
   0.31250000  0.31250000  0.18750000       0.031
   0.43750000  0.31250000  0.18750000       0.031
   0.06250000  0.43750000  0.18750000       0.031
   0.18750000  0.43750000  0.18750000       0.031
   0.31250000  0.43750000  0.18750000       0.031
   0.43750000  0.43750000  0.18750000       0.031
   0.06250000  0.31250000  0.31250000       0.016
   0.18750000  0.31250000  0.31250000       0.016
   0.31250000  0.31250000  0.31250000       0.016
   0.43750000  0.31250000  0.31250000       0.016
   0.06250000  0.43750000  0.31250000       0.031
   0.18750000  0.43750000  0.31250000       0.031
   0.31250000  0.43750000  0.31250000       0.031
   0.43750000  0.43750000  0.31250000       0.031
   0.06250000  0.43750000  0.43750000       0.016
   0.18750000  0.43750000  0.43750000       0.016
   0.31250000  0.43750000  0.43750000       0.016
   0.43750000  0.43750000  0.43750000       0.016
 
 position of ions in fractional coordinates (direct lattice) 
   0.75000000  0.75000000  0.50000000
   0.75000000  0.75000000  0.00000000
   0.75000000  0.00000000  0.25000000
   0.75000000  0.25000000  0.50000000
   0.00000000  0.75000000  0.25000000
   0.00000000  0.00000000  0.50000000
   0.25000000  0.75000000  0.50000000
   0.75000000  0.00000000  0.75000000
   0.75000000  0.25000000  0.00000000
   0.75000000  0.50000000  0.25000000
   0.00000000  0.75000000  0.75000000
   0.00232200  0.00000000  0.00000000
   0.00000000  0.25000000  0.25000000
   0.00000000  0.50000000  0.50000000
   0.25000000  0.75000000  0.00000000
   0.25000000  0.00000000  0.25000000
   0.25000000  0.25000000  0.50000000
   0.50000000  0.75000000  0.25000000
   0.50000000  0.00000000  0.50000000
   0.75000000  0.50000000  0.75000000
   0.00000000  0.25000000  0.75000000
   0.00000000  0.50000000  0.00000000
   0.25000000  0.00000000  0.75000000
   0.25000000  0.25000000  0.00000000
   0.25000000  0.50000000  0.25000000
   0.50000000  0.75000000  0.75000000
   0.50000000  0.00000000  0.00000000
   0.50000000  0.25000000  0.25000000
   0.50000000  0.50000000  0.50000000
   0.25000000  0.50000000  0.75000000
   0.50000000  0.25000000  0.75000000
   0.50000000  0.50000000  0.00000000
 
 position of ions in cartesian coordinates  (Angst):
   6.46113388  6.46113376  4.30742246
   6.46113380  6.46113368  0.00000000
   6.46113372  0.00000004  2.15371123
   6.46113380  2.15371131  4.30742246
   0.00000016  6.46113372  2.15371123
   0.00000008  0.00000008  4.30742246
   2.15371143  6.46113376  4.30742246
   6.46113380  0.00000012  6.46113368
   6.46113372  2.15371123  0.00000000
   6.46113380  4.30742249  2.15371123
   0.00000024  6.46113380  6.46113368
   0.02000367  0.00000000  0.00000000
   0.00000008  2.15371127  2.15371123
   0.00000016  4.30742254  4.30742246
   2.15371135  6.46113368  0.00000000
   2.15371127  0.00000004  2.15371123
   2.15371135  2.15371131  4.30742246
   4.30742262  6.46113372  2.15371123
   4.30742254  0.00000008  4.30742246
   6.46113388  4.30742258  6.46113368
   0.00000016  2.15371135  6.46113368
   0.00000008  4.30742246  0.00000000
   2.15371135  0.00000012  6.46113368
   2.15371127  2.15371123  0.00000000
   2.15371135  4.30742249  2.15371123
   4.30742270  6.46113380  6.46113368
   4.30742246  0.00000000  0.00000000
   4.30742253  2.15371127  2.15371123
   4.30742262  4.30742254  4.30742246
   2.15371143  4.30742258  6.46113368
   4.30742262  2.15371135  6.46113368
   4.30742254  4.30742246  0.00000000
 


--------------------------------------------------------------------------------------------------------


 k-point  1 :  0.06250.06250.0625  plane waves:  21358
 k-point  2 :  0.18750.06250.0625  plane waves:  21341
 k-point  3 :  0.31250.06250.0625  plane waves:  21339
 k-point  4 :  0.43750.06250.0625  plane waves:  21362
 k-point  5 :  0.06250.18750.0625  plane waves:  21341
 k-point  6 :  0.18750.18750.0625  plane waves:  21329
 k-point  7 :  0.31250.18750.0625  plane waves:  21332
 k-point  8 :  0.43750.18750.0625  plane waves:  21326
 k-point  9 :  0.06250.31250.0625  plane waves:  21339
 k-point 10 :  0.18750.31250.0625  plane waves:  21332
 k-point 11 :  0.31250.31250.0625  plane waves:  21344
 k-point 12 :  0.43750.31250.0625  plane waves:  21326
 k-point 13 :  0.06250.43750.0625  plane waves:  21362
 k-point 14 :  0.18750.43750.0625  plane waves:  21326
 k-point 15 :  0.31250.43750.0625  plane waves:  21326
 k-point 16 :  0.43750.43750.0625  plane waves:  21334
 k-point 17 :  0.06250.18750.1875  plane waves:  21329
 k-point 18 :  0.18750.18750.1875  plane waves:  21308
 k-point 19 :  0.31250.18750.1875  plane waves:  21330
 k-point 20 :  0.43750.18750.1875  plane waves:  21318
 k-point 21 :  0.06250.31250.1875  plane waves:  21332
 k-point 22 :  0.18750.31250.1875  plane waves:  21330
 k-point 23 :  0.31250.31250.1875  plane waves:  21339
 k-point 24 :  0.43750.31250.1875  plane waves:  21347
 k-point 25 :  0.06250.43750.1875  plane waves:  21326
 k-point 26 :  0.18750.43750.1875  plane waves:  21318
 k-point 27 :  0.31250.43750.1875  plane waves:  21347
 k-point 28 :  0.43750.43750.1875  plane waves:  21357
 k-point 29 :  0.06250.31250.3125  plane waves:  21344
 k-point 30 :  0.18750.31250.3125  plane waves:  21339
 k-point 31 :  0.31250.31250.3125  plane waves:  21344
 k-point 32 :  0.43750.31250.3125  plane waves:  21346
 k-point 33 :  0.06250.43750.3125  plane waves:  21326
 k-point 34 :  0.18750.43750.3125  plane waves:  21347
 k-point 35 :  0.31250.43750.3125  plane waves:  21346
 k-point 36 :  0.43750.43750.3125  plane waves:  21345
 k-point 37 :  0.06250.43750.4375  plane waves:  21334
 k-point 38 :  0.18750.43750.4375  plane waves:  21357
 k-point 39 :  0.31250.43750.4375  plane waves:  21345
 k-point 40 :  0.43750.43750.4375  plane waves:  21353

 maximum and minimum number of plane-waves per node :  21362 21308

 maximum number of plane-waves:  21362
 maximal index in each direction: 
   IXMAX= 17   IYMAX= 17   IZMAX= 17
   IXMIN=-17   IYMIN=-17   IZMIN=-17

 NGX is ok and might be reduce to  70
 NGY is ok and might be reduce to  70
 NGZ is ok and might be reduce to  70

 parallel 3dFFT wavefunction:
    minimum data exchange during FFTs selected (reduces bandwidth)
 parallel 3dFFT charge:
    minimum data exchange during FFTs selected (reduces bandwidth)

 For storing wavefunctions 2895.15 MBYTES are necessary
 For predicting wavefunctions  155.81 MBYTES are necessary
Broyden mixing: mesh for mixing (old mesh)
   NGX = 35   NGY = 35   NGZ = 35
  (NGX  =140   NGY  =140   NGZ  =140)
 gives a total of  42875 points
 charge density for first step will be calculated from the start-wavefunctions


--------------------------------------------------------------------------------------------------------


 Maximum index for augmentation-charges        51250 (set IRDMAX)


--------------------------------------------------------------------------------------------------------


 initial charge from wavefunction
 First call to EWALD:  gamma=   0.206
 Maximum number of real-space cells 3x 3x 3
 Maximum number of reciprocal cells 3x 3x 3

    FEWALD:  VPU time    0.01: CPU time    0.01


----------------------------------------- Iteration    1(   1)  ---------------------------------------


    POTLOK:  VPU time    2.06: CPU time    2.07
    SETDIJ:  VPU time    4.36: CPU time    4.37
    EDDIAG:  VPU time  198.05: CPU time  198.58
  RMM-DIIS:  VPU time 1468.96: CPU time 1473.81
    ORTHCH:  VPU time   24.44: CPU time   24.52
    DOS   :  VPU time    0.00: CPU time   -0.00
    CHARGE:  VPU time  100.36: CPU time  100.75
    MIXING:  VPU time    0.06: CPU time    0.07
    ------------------------------------------
      LOOP:  VPU time 1798.43: CPU time 1804.29

 eigenvalue-minimisations  : 17507
 total energy-change (2. order) :-0.9046271E+02  (-0.5803981E+02)
 number of electron  352.0000004 magnetization 
 augmentation part   172.2273459 magnetization 

 Broyden mixing:
  rms(total) = 0.71074E+00    rms(broyden)= 0.64584E+00
  rms(prec ) = 0.93910E+00
  weight for this iteration     100.00

 Free energy of the ion-electron system (eV)
  ---------------------------------------------------
  alpha Z        PSCENC =      2844.10753323
  Ewald energy   TEWEN  =    -29673.53240531
  -1/2 Hartree   DENC   =     -6825.36294289
  -V(xc)+E(xc)   XCENC  =      -396.48450402
  PAW double counting   =     26790.47855730   -25351.02133807
  entropy T*S    EENTRO =        -0.01618603
  eigenvalues    EBANDS =      -675.79930960
  atomic energy  EATOM  =     33197.16788402
  ---------------------------------------------------
  free energy    TOTEN  =       -90.46271136 eV

  energy without entropy =      -90.44652533  energy(sigma->0) =      -90.45731602


--------------------------------------------------------------------------------------------------------




----------------------------------------- Iteration    1(   2)  ---------------------------------------


    POTLOK:  VPU time    2.25: CPU time    2.25
    SETDIJ:  VPU time    4.17: CPU time    4.21
    EDDIAG:  VPU time  197.48: CPU time  198.22
  RMM-DIIS:  VPU time 1593.50: CPU time 1596.48
    ORTHCH:  VPU time   21.65: CPU time   21.66
    DOS   :  VPU time    0.00: CPU time   -0.00
    CHARGE:  VPU time   83.61: CPU time   83.63
    MIXING:  VPU time    0.04: CPU time    0.05
    ------------------------------------------
      LOOP:  VPU time 1902.82: CPU time 1906.65

 eigenvalue-minimisations  : 17810
 total energy-change (2. order) : 0.1443158E+01  (-0.1230287E+01)
 number of electron  352.0000004 magnetization 
 augmentation part   169.2487129 magnetization 

 Broyden mixing:
  rms(total) = 0.12143E+00    rms(broyden)= 0.12141E+00
  rms(prec ) = 0.14973E+00
  weight for this iteration     100.00

 eigenvalues of (default mixing * dielectric matrix)
  average eigenvalue GAMMA=   0.8697
  0.8697

 Free energy of the ion-electron system (eV)
  ---------------------------------------------------
  alpha Z        PSCENC =      2844.10753323
  Ewald energy   TEWEN  =    -29673.53240531
  -1/2 Hartree   DENC   =     -6941.11804159
  -V(xc)+E(xc)   XCENC  =      -367.70848542
  PAW double counting   =     27257.15861804   -25823.93251076
  entropy T*S    EENTRO =        -0.01385491
  eigenvalues    EBANDS =      -581.14829040
  atomic energy  EATOM  =     33197.16788402
  ---------------------------------------------------
  free energy    TOTEN  =       -89.01955310 eV

  energy without entropy =      -89.00569818  energy(sigma->0) =      -89.01493479


--------------------------------------------------------------------------------------------------------




----------------------------------------- Iteration    1(   3)  ---------------------------------------


    POTLOK:  VPU time    1.87: CPU time    1.87
    SETDIJ:  VPU time    3.50: CPU time    3.50
    EDDIAG:  VPU time  167.02: CPU time  167.07
  RMM-DIIS:  VPU time 1578.35: CPU time 1578.86
    ORTHCH:  VPU time   21.48: CPU time   21.49
    DOS   :  VPU time    0.00: CPU time   -0.00
    CHARGE:  VPU time   83.43: CPU time   83.46
    MIXING:  VPU time    0.07: CPU time    0.07
    ------------------------------------------
      LOOP:  VPU time 1855.85: CPU time 1856.45

 eigenvalue-minimisations  : 18251
 total energy-change (2. order) : 0.4561644E-02  (-0.1611969E-01)
 number of electron  352.0000004 magnetization 
 augmentation part   169.3689458 magnetization 

 Broyden mixing:
  rms(total) = 0.64996E-01    rms(broyden)= 0.64995E-01
  rms(prec ) = 0.75151E-01
  weight for this iteration     100.00

 eigenvalues of (default mixing * dielectric matrix)
  average eigenvalue GAMMA=   1.6266
  0.9669  2.2864

 Free energy of the ion-electron system (eV)
  ---------------------------------------------------
  alpha Z        PSCENC =      2844.10753323
  Ewald energy   TEWEN  =    -29673.53240531
  -1/2 Hartree   DENC   =     -6930.42535393
  -V(xc)+E(xc)   XCENC  =      -368.07352378
  PAW double counting   =     27358.99741819   -25925.85579418
  entropy T*S    EENTRO =        -0.01411077
  eigenvalues    EBANDS =      -591.38663892
  atomic energy  EATOM  =     33197.16788402
  ---------------------------------------------------
  free energy    TOTEN  =       -89.01499145 eV

  energy without entropy =      -89.00088068  energy(sigma->0) =      -89.01028786


--------------------------------------------------------------------------------------------------------




----------------------------------------- Iteration    1(   4)  ---------------------------------------


    POTLOK:  VPU time    1.87: CPU time    1.87
    SETDIJ:  VPU time    3.52: CPU time    3.52
    EDDIAG:  VPU time  166.20: CPU time  166.26
  RMM-DIIS:  VPU time 1694.70: CPU time 1695.27
    ORTHCH:  VPU time   21.44: CPU time   21.45
    DOS   :  VPU time    0.00: CPU time   -0.00
    CHARGE:  VPU time   83.49: CPU time   83.52
    MIXING:  VPU time    0.07: CPU time    0.07
    ------------------------------------------
      LOOP:  VPU time 1971.42: CPU time 1972.07

 eigenvalue-minimisations  : 18145
 total energy-change (2. order) :-0.1310783E-03  (-0.3604929E-02)
 number of electron  352.0000004 magnetization 
 augmentation part   169.5452789 magnetization 

 Broyden mixing:
  rms(total) = 0.19505E-01    rms(broyden)= 0.19505E-01
  rms(prec ) = 0.27883E-01
  weight for this iteration     100.00

 eigenvalues of (default mixing * dielectric matrix)
  average eigenvalue GAMMA=   1.5434
  2.4831  1.0736  1.0736

 Free energy of the ion-electron system (eV)
  ---------------------------------------------------
  alpha Z        PSCENC =      2844.10753323
  Ewald energy   TEWEN  =    -29673.53240531
  -1/2 Hartree   DENC   =     -6922.21981735
  -V(xc)+E(xc)   XCENC  =      -368.34561452
  PAW double counting   =     27506.29032189   -26073.39011915
  entropy T*S    EENTRO =        -0.01429966
  eigenvalues    EBANDS =      -599.07860568
  atomic energy  EATOM  =     33197.16788402
  ---------------------------------------------------
  free energy    TOTEN  =       -89.01512253 eV

  energy without entropy =      -89.00082287  energy(sigma->0) =      -89.01035598


--------------------------------------------------------------------------------------------------------




----------------------------------------- Iteration    1(   5)  ---------------------------------------


    POTLOK:  VPU time    1.82: CPU time    1.83
    SETDIJ:  VPU time    3.50: CPU time    3.50
    EDDIAG:  VPU time  166.25: CPU time  166.30
  RMM-DIIS:  VPU time 1794.87: CPU time 1795.48
    ORTHCH:  VPU time   23.73: CPU time   23.73
    DOS   :  VPU time    0.00: CPU time   -0.00
    CHARGE:  VPU time  115.64: CPU time  115.69
    MIXING:  VPU time    0.06: CPU time    0.06
    ------------------------------------------
      LOOP:  VPU time 2105.99: CPU time 2106.71

 eigenvalue-minimisations  : 18150
 total energy-change (2. order) : 0.6471474E-03  (-0.8310277E-03)
 number of electron  352.0000004 magnetization 
 augmentation part   169.4573949 magnetization 

 Broyden mixing:
  rms(total) = 0.53453E-02    rms(broyden)= 0.53451E-02
  rms(prec ) = 0.75809E-02
  weight for this iteration     100.00

 eigenvalues of (default mixing * dielectric matrix)
  average eigenvalue GAMMA=   1.4075
  2.5269  1.2334  0.9349  0.9349

 Free energy of the ion-electron system (eV)
  ---------------------------------------------------
  alpha Z        PSCENC =      2844.10753323
  Ewald energy   TEWEN  =    -29673.53240531
  -1/2 Hartree   DENC   =     -6926.66324814
  -V(xc)+E(xc)   XCENC  =      -368.18199862
  PAW double counting   =     27574.79207412   -26142.22939674
  entropy T*S    EENTRO =        -0.01421032
  eigenvalues    EBANDS =      -594.46070761
  atomic energy  EATOM  =     33197.16788402
  ---------------------------------------------------
  free energy    TOTEN  =       -89.01447538 eV

  energy without entropy =      -89.00026506  energy(sigma->0) =      -89.00973861


--------------------------------------------------------------------------------------------------------




----------------------------------------- Iteration    1(   6)  ---------------------------------------


    POTLOK:  VPU time    2.23: CPU time    2.23
    SETDIJ:  VPU time    3.73: CPU time    3.74
    EDDIAG:  VPU time  191.49: CPU time  191.56
  RMM-DIIS:  VPU time 1960.77: CPU time 1986.59
    ORTHCH:  VPU time   21.41: CPU time   21.62
    DOS   :  VPU time    0.00: CPU time   -0.00
    CHARGE:  VPU time   98.56: CPU time   99.90
    MIXING:  VPU time    0.06: CPU time    0.06
    ------------------------------------------
      LOOP:  VPU time 2278.38: CPU time 2305.83

 eigenvalue-minimisations  : 18365
 total energy-change (2. order) : 0.3927967E-04  (-0.1011105E-04)
 number of electron  352.0000004 magnetization 
 augmentation part   169.4621746 magnetization 

 Broyden mixing:
  rms(total) = 0.33244E-02    rms(broyden)= 0.33244E-02
  rms(prec ) = 0.45761E-02
  weight for this iteration     100.00

 eigenvalues of (default mixing * dielectric matrix)
  average eigenvalue GAMMA=   1.4510
  2.5610  1.7913  1.0116  1.0116  0.8798

 Free energy of the ion-electron system (eV)
  ---------------------------------------------------
  alpha Z        PSCENC =      2844.10753323
  Ewald energy   TEWEN  =    -29673.53240531
  -1/2 Hartree   DENC   =     -6926.39427218
  -V(xc)+E(xc)   XCENC  =      -368.19059326
  PAW double counting   =     27576.54594713   -26143.95938661
  entropy T*S    EENTRO =        -0.01421773
  eigenvalues    EBANDS =      -594.74492540
  atomic energy  EATOM  =     33197.16788402
  ---------------------------------------------------
  free energy    TOTEN  =       -89.01443610 eV

  energy without entropy =      -89.00021837  energy(sigma->0) =      -89.00969686


--------------------------------------------------------------------------------------------------------




----------------------------------------- Iteration    1(   7)  ---------------------------------------


    POTLOK:  VPU time    2.15: CPU time    2.18
    SETDIJ:  VPU time    3.75: CPU time    3.80
    EDDIAG:  VPU time  207.62: CPU time  211.28
  RMM-DIIS:  VPU time 1873.31: CPU time 1898.61
    ORTHCH:  VPU time   23.46: CPU time   23.65
    DOS   :  VPU time    0.00: CPU time   -0.00
    CHARGE:  VPU time  117.42: CPU time  118.77
    MIXING:  VPU time    0.06: CPU time    0.06
    ------------------------------------------
      LOOP:  VPU time 2227.90: CPU time 2258.48

 eigenvalue-minimisations  : 18218
 total energy-change (2. order) : 0.3116144E-04  (-0.1569620E-04)
 number of electron  352.0000004 magnetization 
 augmentation part   169.4739923 magnetization 

 Broyden mixing:
  rms(total) = 0.33678E-03    rms(broyden)= 0.33673E-03
  rms(prec ) = 0.52673E-03
  weight for this iteration     100.00

 eigenvalues of (default mixing * dielectric matrix)
  average eigenvalue GAMMA=   1.4932
  2.6214  1.9684  1.5432  0.9714  0.9714  0.8835

 Free energy of the ion-electron system (eV)
  ---------------------------------------------------
  alpha Z        PSCENC =      2844.10753323
  Ewald energy   TEWEN  =    -29673.53240531
  -1/2 Hartree   DENC   =     -6925.86423594
  -V(xc)+E(xc)   XCENC  =      -368.20861078
  PAW double counting   =     27576.02746916   -26143.40469579
  entropy T*S    EENTRO =        -0.01423036
  eigenvalues    EBANDS =      -595.29311318
  atomic energy  EATOM  =     33197.16788402
  ---------------------------------------------------
  free energy    TOTEN  =       -89.01440494 eV

  energy without entropy =      -89.00017458  energy(sigma->0) =      -89.00966149


--------------------------------------------------------------------------------------------------------




----------------------------------------- Iteration    1(   8)  ---------------------------------------


    POTLOK:  VPU time    2.13: CPU time    2.13
    SETDIJ:  VPU time    4.03: CPU time    4.03
    EDDIAG:  VPU time  206.64: CPU time  206.72
  RMM-DIIS:  VPU time 1028.24: CPU time 1028.56
    ORTHCH:  VPU time   23.62: CPU time   23.63
    DOS   :  VPU time    0.00: CPU time   -0.00
    ------------------------------------------
      LOOP:  VPU time 1264.78: CPU time 1265.19

 eigenvalue-minimisations  : 10091
 total energy-change (2. order) : 0.3442721E-05  (-0.3792044E-06)
 number of electron  352.0000004 magnetization 
 augmentation part   169.4739923 magnetization 

 Free energy of the ion-electron system (eV)
  ---------------------------------------------------
  alpha Z        PSCENC =      2844.10753323
  Ewald energy   TEWEN  =    -29673.53240531
  -1/2 Hartree   DENC   =     -6925.84080028
  -V(xc)+E(xc)   XCENC  =      -368.20915893
  PAW double counting   =     27575.53846224   -26142.90483525
  entropy T*S    EENTRO =        -0.01423135
  eigenvalues    EBANDS =      -595.32684987
  atomic energy  EATOM  =     33197.16788402
  ---------------------------------------------------
  free energy    TOTEN  =       -89.01440150 eV

  energy without entropy =      -89.00017015  energy(sigma->0) =      -89.00965772


--------------------------------------------------------------------------------------------------------




 average (electrostatic) potential at core
  the test charge radii are     1.1249
  (the norm of the test charge is              1.0000)
       1 -42.2116       2 -42.2098       3 -42.2098       4 -42.2116       5 -42.2117
       6 -42.2117       7 -42.2118       8 -42.2098       9 -42.2098      10 -42.2116
      11 -42.2117      12 -42.2118      13 -42.2117      14 -42.2117      15 -42.2136
      16 -42.2136      17 -42.2118      18 -42.2117      19 -42.2117      20 -42.2116
      21 -42.2117      22 -42.2117      23 -42.2136      24 -42.2136      25 -42.2118
      26 -42.2117      27 -42.2117      28 -42.2117      29 -42.2117      30 -42.2118
      31 -42.2117      32 -42.2117
 
 
 
 E-fermi :   2.2694     XC(G=0): -11.2896     alpha+bet : -7.2878
   add alpha+bet to get absolut eigen values

 k-point   1 :       0.0625    0.0625    0.0625
  band No.  band energies     occupation 
      1      -4.4241      2.00000
      2      -3.3028      2.00000
      3      -3.3027      2.00000
      4      -3.3027      2.00000
      5      -3.2930      2.00000
      6      -3.2837      2.00000
      7      -3.2837      2.00000
      8      -3.2836      2.00000
      9      -3.2185      2.00000
     10      -3.2184      2.00000
     11      -3.2183      2.00000
     12      -2.9593      2.00000
     13      -2.9575      2.00000
     14      -2.9558      2.00000
     15      -2.8819      2.00000
     16      -2.8806      2.00000
     17      -2.8792      2.00000
     18      -2.7388      2.00000
     19      -2.7377      2.00000
     20      -2.7367      2.00000
     21      -2.7306      2.00000
     22      -2.7281      2.00000
     23      -2.7280      2.00000
     24      -2.7280      2.00000
     25      -2.7279      2.00000
     26      -2.7254      2.00000
     27      -2.6291      2.00000
     28      -2.6279      2.00000
     29      -2.6269      2.00000
     30      -2.5417      2.00000
     31      -2.5404      2.00000
     32      -2.5392      2.00000
     33      -2.5182      2.00000
     34      -2.5173      2.00000
     35      -2.5162      2.00000
     36      -2.5055      2.00000
     37      -2.5047      2.00000
     38      -2.5038      2.00000
     39      -2.5036      2.00000
     40      -2.5028      2.00000
     41      -2.5020      2.00000
     42      -2.3837      2.00000
     43      -2.3836      2.00000
     44      -2.3826      2.00000
     45      -2.3825      2.00000
     46      -2.3814      2.00000
     47      -2.3813      2.00000
     48      -2.3167      2.00000
     49      -2.3150      2.00000
     50      -2.3147      2.00000
     51      -2.3134      2.00000
     52      -2.3132      2.00000
     53      -2.3124      2.00000
     54      -2.3116      2.00000
     55      -2.3113      2.00000
     56      -2.3103      2.00000
     57      -2.2723      2.00000
     58      -2.2712      2.00000
     59      -2.2699      2.00000
     60      -2.1562      2.00000
     61      -2.1562      2.00000
     62      -2.1550      2.00000
     63      -2.1549      2.00000
     64      -2.1538      2.00000
     65      -2.1537      2.00000
     66      -2.1153      2.00000
     67      -2.1153      2.00000
     68      -2.1152      2.00000
     69      -2.1034      2.00000
     70      -2.1033      2.00000
     71      -2.1012      2.00000
     72      -2.0959      2.00000
     73      -2.0958      2.00000
     74      -2.0958      2.00000
     75      -2.0893      2.00000
     76      -2.0892      2.00000
     77      -1.9869      2.00000
     78      -1.9855      2.00000
     79      -1.9849      2.00000
     80      -1.9849      2.00000
     81      -1.9843      2.00000
     82      -1.9831      2.00000
     83      -1.9644      2.00000
     84      -1.9638      2.00000
     85      -1.9630      2.00000
     86      -1.9265      2.00000
     87      -1.9255      2.00000
     88      -1.9243      2.00000
     89      -1.6232      2.00000
     90      -1.6227      2.00000
     91      -1.6222      2.00000
     92      -1.5737      2.00000
     93      -1.5725      2.00000
     94      -1.5713      2.00000
     95      -1.5676      2.00000
     96      -1.5667      2.00000
     97      -1.5658      2.00000
     98      -1.5630      2.00000
     99      -1.5628      2.00000
    100      -1.5619      2.00000
    101      -1.5617      2.00000
    102      -1.5606      2.00000
    103      -1.5603      2.00000
    104      -1.5094      2.00000
    105      -1.5084      2.00000
    106      -1.5074      2.00000
    107      -1.4109      2.00000
    108      -1.4094      2.00000
    109      -1.4078      2.00000
    110      -1.3669      2.00000
    111      -1.3653      2.00000
    112      -1.3640      2.00000
    113      -1.3582      2.00000
    114      -1.3569      2.00000
    115      -1.3554      2.00000
    116      -1.3199      2.00000
    117      -1.3198      2.00000
    118      -1.2846      2.00000
    119      -1.2831      2.00000
    120      -1.2828      2.00000
    121      -1.2828      2.00000
    122      -1.2827      2.00000
    123      -1.2811      2.00000
    124      -1.2716      2.00000
    125      -1.2705      2.00000
    126      -1.2695      2.00000
    127      -1.2692      2.00000
    128      -1.2684      2.00000
    129      -1.2673      2.00000
    130      -1.2584      2.00000
    131      -1.2567      2.00000
    132      -1.2550      2.00000
    133      -1.2113      2.00000
    134      -1.2105      2.00000
    135      -1.2098      2.00000
    136      -1.0581      2.00000
    137      -1.0574      2.00000
    138      -1.0567      2.00000
    139      -0.9983      2.00000
    140      -0.9980      2.00000
    141      -0.9976      2.00000
    142      -0.8952      2.00000
    143      -0.8938      2.00000
    144      -0.8924      2.00000
    145      -0.7600      2.00000
    146      -0.7597      2.00000
    147      -0.7594      2.00000
    148      -0.7513      2.00000
    149      -0.7512      2.00000
    150      -0.7512      2.00000
    151      -0.7269      2.00000
    152      -0.7269      2.00000
    153      -0.7148      2.00000
    154      -0.7148      2.00000
    155      -0.7147      2.00000
    156      -0.5882      2.00000
    157      -0.5882      2.00000
    158      -0.5881      2.00000
    159      -0.5699      2.00000
    160      -0.5698      2.00000
    161      -0.5696      2.00000
    162      -0.5696      2.00000
    163      -0.5696      2.00000
    164      -0.5694      2.00000
    165      -0.5676      2.00000
    166      -0.5676      2.00000
    167      -0.5674      2.00000
    168       1.0622      2.00000
    169       1.0636      2.00000
    170       1.0650      2.00000
    171       1.6004      2.00002
    172       1.6009      2.00002
    173       1.6024      2.00003
    174       1.6024      2.00003
    175       1.6040      2.00003
    176       1.6045      2.00003
    177       1.9902      2.06382
    178       2.1552      1.81318
    179       2.1567      1.80638
    180       2.1580      1.79962
    181       2.2649      1.03825
    182       2.2650      1.03774
    183       2.2650      1.03734
    184       3.9451     -0.00000
    185       3.9454     -0.00000
    186       3.9458     -0.00000
    187       5.0835     -0.00000
    188       5.0837     -0.00000
    189       5.0840     -0.00000
    190       5.3306     -0.00000
    191       7.1026     -0.00000
    192       7.1031     -0.00000
    193       7.1047     -0.00000
    194       7.1048     -0.00000
    195       7.1064     -0.00000
    196       7.1069     -0.00000
    197       7.7251     -0.00000
    198       7.7253     -0.00000
    199       7.7274     -0.00000
    200       7.7274     -0.00000
    201       7.7295      0.00000
    202       7.7297      0.00000
    203       7.9351      0.00000
    204       7.9353      0.00000
    205       7.9355      0.00000
    206       8.5483      0.00000
    207       8.5491      0.00000
    208       8.5494      0.00000
    209       8.5501      0.00000
    210       8.5504      0.00000
    211       9.7068      0.00000
    212       9.9537      0.00000

 k-point   2 :       0.1875    0.0625    0.0625
  band No.  band energies     occupation 
      1      -4.3523      2.00000
      2      -3.2762      2.00000
      3      -3.2699      2.00000
      4      -3.2695      2.00000
      5      -3.2695      2.00000
      6      -3.2515      2.00000
      7      -3.2515      2.00000
      8      -3.2425      2.00000
      9      -3.1986      2.00000
     10      -3.1868      2.00000
     11      -3.1868      2.00000
     12      -3.1626      2.00000
     13      -2.9157      2.00000
     14      -2.9156      2.00000
     15      -2.9045      2.00000
     16      -2.8434      2.00000
     17      -2.8422      2.00000
     18      -2.8422      2.00000
     19      -2.7891      2.00000
     20      -2.7891      2.00000
     21      -2.7142      2.00000
     22      -2.7141      2.00000
     23      -2.7095      2.00000
     24      -2.7094      2.00000
     25      -2.7003      2.00000
     26      -2.7003      2.00000
     27      -2.6917      2.00000
     28      -2.6601      2.00000
     29      -2.6601      2.00000
     30      -2.6532      2.00000
     31      -2.6092      2.00000
     32      -2.6092      2.00000
     33      -2.5841      2.00000
     34      -2.5840      2.00000
     35      -2.5737      2.00000
     36      -2.5736      2.00000
     37      -2.5373      2.00000
     38      -2.5373      2.00000
     39      -2.5182      2.00000
     40      -2.4979      2.00000
     41      -2.4978      2.00000
     42      -2.4896      2.00000
     43      -2.4896      2.00000
     44      -2.3816      2.00000
     45      -2.3816      2.00000
     46      -2.3805      2.00000
     47      -2.3804      2.00000
     48      -2.3295      2.00000
     49      -2.3287      2.00000
     50      -2.3258      2.00000
     51      -2.3251      2.00000
     52      -2.3245      2.00000
     53      -2.3243      2.00000
     54      -2.2732      2.00000
     55      -2.2580      2.00000
     56      -2.2580      2.00000
     57      -2.2399      2.00000
     58      -2.2399      2.00000
     59      -2.2206      2.00000
     60      -2.1709      2.00000
     61      -2.1709      2.00000
     62      -2.1516      2.00000
     63      -2.1516      2.00000
     64      -2.1364      2.00000
     65      -2.1263      2.00000
     66      -2.1263      2.00000
     67      -2.1225      2.00000
     68      -2.1013      2.00000
     69      -2.0882      2.00000
     70      -2.0871      2.00000
     71      -2.0866      2.00000
     72      -2.0847      2.00000
     73      -2.0846      2.00000
     74      -2.0709      2.00000
     75      -2.0709      2.00000
     76      -2.0683      2.00000
     77      -2.0667      2.00000
     78      -2.0653      2.00000
     79      -2.0276      2.00000
     80      -2.0275      2.00000
     81      -1.9693      2.00000
     82      -1.9693      2.00000
     83      -1.9075      2.00000
     84      -1.9075      2.00000
     85      -1.8503      2.00000
     86      -1.8503      2.00000
     87      -1.8116      2.00000
     88      -1.7927      2.00000
     89      -1.7124      2.00000
     90      -1.7063      2.00000
     91      -1.7063      2.00000
     92      -1.6823      2.00000
     93      -1.6500      2.00000
     94      -1.6426      2.00000
     95      -1.6403      2.00000
     96      -1.6403      2.00000
     97      -1.5905      2.00000
     98      -1.5905      2.00000
     99      -1.5730      2.00000
    100      -1.5729      2.00000
    101      -1.5166      2.00000
    102      -1.5165      2.00000
    103      -1.5116      2.00000
    104      -1.5115      2.00000
    105      -1.4879      2.00000
    106      -1.4879      2.00000
    107      -1.4693      2.00000
    108      -1.4693      2.00000
    109      -1.4565      2.00000
    110      -1.4092      2.00000
    111      -1.4092      2.00000
    112      -1.3749      2.00000
    113      -1.3748      2.00000
    114      -1.3429      2.00000
    115      -1.3089      2.00000
    116      -1.2958      2.00000
    117      -1.2958      2.00000
    118      -1.2881      2.00000
    119      -1.2880      2.00000
    120      -1.2810      2.00000
    121      -1.2809      2.00000
    122      -1.2589      2.00000
    123      -1.2441      2.00000
    124      -1.2260      2.00000
    125      -1.2259      2.00000
    126      -1.2186      2.00000
    127      -1.1762      2.00000
    128      -1.1762      2.00000
    129      -1.1603      2.00000
    130      -1.1602      2.00000
    131      -1.1590      2.00000
    132      -1.1590      2.00000
    133      -1.1321      2.00000
    134      -1.1250      2.00000
    135      -1.1250      2.00000
    136      -1.1147      2.00000
    137      -1.0088      2.00000
    138      -1.0088      2.00000
    139      -0.9830      2.00000
    140      -0.9830      2.00000
    141      -0.9382      2.00000
    142      -0.8571      2.00000
    143      -0.8447      2.00000
    144      -0.8447      2.00000
    145      -0.7844      2.00000
    146      -0.7843      2.00000
    147      -0.7709      2.00000
    148      -0.7666      2.00000
    149      -0.7656      2.00000
    150      -0.7307      2.00000
    151      -0.7288      2.00000
    152      -0.7288      2.00000
    153      -0.6893      2.00000
    154      -0.6892      2.00000
    155      -0.6864      2.00000
    156      -0.6863      2.00000
    157      -0.6271      2.00000
    158      -0.6107      2.00000
    159      -0.6106      2.00000
    160      -0.6100      2.00000
    161      -0.6100      2.00000
    162      -0.6026      2.00000
    163      -0.5705      2.00000
    164      -0.5697      2.00000
    165      -0.5696      2.00000
    166      -0.5687      2.00000
    167      -0.3636      2.00000
    168       0.5938      2.00000
    169       0.5938      2.00000
    170       1.0803      2.00000
    171       1.1088      2.00000
    172       1.1088      2.00000
    173       1.6289      2.00006
    174       1.6290      2.00006
    175       1.7048      2.00049
    176       2.1669      1.75399
    177       2.1671      1.75320
    178       2.1888      1.62462
    179       2.2148      1.44402
    180       2.2148      1.44394
    181       2.4438     -0.01245
    182       2.7768     -0.00196
    183       2.7768     -0.00196
    184       3.4172     -0.00000
    185       4.1088     -0.00000
    186       4.1088     -0.00000
    187       5.1067     -0.00000
    188       5.3613     -0.00000
    189       5.3613     -0.00000
    190       5.7735     -0.00000
    191       6.2695     -0.00000
    192       6.2695     -0.00000
    193       6.4856     -0.00000
    194       6.4856     -0.00000
    195       6.8273     -0.00000
    196       6.8273     -0.00000
    197       7.2229     -0.00000
    198       7.2230     -0.00000
    199       7.8437      0.00000
    200       7.8437      0.00000
    201       7.9532      0.00000
    202       7.9532      0.00000
    203       8.1654      0.00000
    204       8.1655      0.00000
    205       8.5064      0.00000
    206       8.5854      0.00000
    207       8.6759      0.00000
    208       8.7142      0.00000
    209       8.8572      0.00000
    210       8.8770      0.00000
    211       8.9955      0.00000
    212       9.0416      0.00000

 k-point   3 :       0.3125    0.0625    0.0625
  band No.  band energies     occupation 
      1      -4.2107      2.00000
      2      -3.4480      2.00000
      3      -3.2250      2.00000
      4      -3.2142      2.00000
      5      -3.2055      2.00000
      6      -3.2054      2.00000
      7      -3.1878      2.00000
      8      -3.1877      2.00000
      9      -3.1708      2.00000
     10      -3.1596      2.00000
     11      -3.1237      2.00000
     12      -3.1237      2.00000
     13      -2.9781      2.00000
     14      -2.9416      2.00000
     15      -2.8908      2.00000
     16      -2.8907      2.00000
     17      -2.8614      2.00000
     18      -2.8381      2.00000
     19      -2.8381      2.00000
     20      -2.8241      2.00000
     21      -2.8241      2.00000
     22      -2.8017      2.00000
     23      -2.7739      2.00000
     24      -2.7739      2.00000
     25      -2.7592      2.00000
     26      -2.7591      2.00000
     27      -2.6784      2.00000
     28      -2.6784      2.00000
     29      -2.6623      2.00000
     30      -2.6623      2.00000
     31      -2.6478      2.00000
     32      -2.6477      2.00000
     33      -2.5986      2.00000
     34      -2.5985      2.00000
     35      -2.5780      2.00000
     36      -2.5778      2.00000
     37      -2.5711      2.00000
     38      -2.5709      2.00000
     39      -2.5473      2.00000
     40      -2.5472      2.00000
     41      -2.4803      2.00000
     42      -2.4803      2.00000
     43      -2.4132      2.00000
     44      -2.3791      2.00000
     45      -2.3790      2.00000
     46      -2.3721      2.00000
     47      -2.3721      2.00000
     48      -2.3639      2.00000
     49      -2.3636      2.00000
     50      -2.3574      2.00000
     51      -2.3569      2.00000
     52      -2.3335      2.00000
     53      -2.3335      2.00000
     54      -2.2570      2.00000
     55      -2.2424      2.00000
     56      -2.2424      2.00000
     57      -2.2245      2.00000
     58      -2.2245      2.00000
     59      -2.1947      2.00000
     60      -2.1946      2.00000
     61      -2.1734      2.00000
     62      -2.1681      2.00000
     63      -2.1667      2.00000
     64      -2.1667      2.00000
     65      -2.1648      2.00000
     66      -2.1560      2.00000
     67      -2.1559      2.00000
     68      -2.1462      2.00000
     69      -2.1462      2.00000
     70      -2.1446      2.00000
     71      -2.1445      2.00000
     72      -2.1085      2.00000
     73      -2.0996      2.00000
     74      -2.0995      2.00000
     75      -2.0492      2.00000
     76      -2.0363      2.00000
     77      -2.0362      2.00000
     78      -2.0245      2.00000
     79      -2.0244      2.00000
     80      -2.0228      2.00000
     81      -2.0219      2.00000
     82      -2.0129      2.00000
     83      -1.8488      2.00000
     84      -1.8488      2.00000
     85      -1.8154      2.00000
     86      -1.7880      2.00000
     87      -1.7880      2.00000
     88      -1.7740      2.00000
     89      -1.7640      2.00000
     90      -1.7611      2.00000
     91      -1.7611      2.00000
     92      -1.7516      2.00000
     93      -1.6448      2.00000
     94      -1.6448      2.00000
     95      -1.6083      2.00000
     96      -1.5979      2.00000
     97      -1.5978      2.00000
     98      -1.5725      2.00000
     99      -1.5380      2.00000
    100      -1.5380      2.00000
    101      -1.5229      2.00000
    102      -1.5209      2.00000
    103      -1.5208      2.00000
    104      -1.4361      2.00000
    105      -1.4361      2.00000
    106      -1.4215      2.00000
    107      -1.4215      2.00000
    108      -1.4008      2.00000
    109      -1.4008      2.00000
    110      -1.3881      2.00000
    111      -1.3881      2.00000
    112      -1.3863      2.00000
    113      -1.3800      2.00000
    114      -1.3800      2.00000
    115      -1.3018      2.00000
    116      -1.3018      2.00000
    117      -1.2874      2.00000
    118      -1.2827      2.00000
    119      -1.2827      2.00000
    120      -1.2739      2.00000
    121      -1.2739      2.00000
    122      -1.1828      2.00000
    123      -1.1828      2.00000
    124      -1.1682      2.00000
    125      -1.1402      2.00000
    126      -1.1319      2.00000
    127      -1.1318      2.00000
    128      -1.0851      2.00000
    129      -1.0758      2.00000
    130      -1.0613      2.00000
    131      -1.0612      2.00000
    132      -1.0543      2.00000
    133      -1.0543      2.00000
    134      -1.0361      2.00000
    135      -1.0361      2.00000
    136      -1.0291      2.00000
    137      -1.0196      2.00000
    138      -1.0196      2.00000
    139      -1.0048      2.00000
    140      -0.9858      2.00000
    141      -0.9857      2.00000
    142      -0.8954      2.00000
    143      -0.8862      2.00000
    144      -0.8861      2.00000
    145      -0.8788      2.00000
    146      -0.8317      2.00000
    147      -0.8283      2.00000
    148      -0.8283      2.00000
    149      -0.7965      2.00000
    150      -0.7767      2.00000
    151      -0.7767      2.00000
    152      -0.7738      2.00000
    153      -0.7618      2.00000
    154      -0.7617      2.00000
    155      -0.7020      2.00000
    156      -0.6871      2.00000
    157      -0.6871      2.00000
    158      -0.6862      2.00000
    159      -0.6861      2.00000
    160      -0.6672      2.00000
    161      -0.5707      2.00000
    162      -0.5699      2.00000
    163      -0.5697      2.00000
    164      -0.5689      2.00000
    165      -0.4056      2.00000
    166      -0.4056      2.00000
    167       0.1850      2.00000
    168       0.1850      2.00000
    169       0.2917      2.00000
    170       0.6683      2.00000
    171       0.6683      2.00000
    172       1.1178      2.00000
    173       1.4669      2.00000
    174       1.6834      2.00027
    175       1.6834      2.00027
    176       2.0240      2.07091
    177       2.0240      2.07091
    178       2.2505      1.15920
    179       2.4832     -0.06171
    180       2.6529     -0.02069
    181       2.9011     -0.00008
    182       2.9011     -0.00008
    183       3.4652     -0.00000
    184       3.4652     -0.00000
    185       4.4139     -0.00000
    186       4.4139     -0.00000
    187       5.3604     -0.00000
    188       5.3604     -0.00000
    189       5.4294     -0.00000
    190       5.8561     -0.00000
    191       5.8564     -0.00000
    192       5.8867     -0.00000
    193       5.8869     -0.00000
    194       5.9180     -0.00000
    195       5.9181     -0.00000
    196       6.3570     -0.00000
    197       7.4194     -0.00000
    198       7.4194     -0.00000
    199       7.5719     -0.00000
    200       7.9896      0.00000
    201       7.9896      0.00000
    202       8.0393      0.00000
    203       8.0393      0.00000
    204       8.1273      0.00000
    205       8.1273      0.00000
    206       8.1922      0.00000
    207       8.1923      0.00000
    208       8.5002      0.00000
    209       8.5004      0.00000
    210       8.6913      0.00000
    211       9.0451      0.00000
    212       9.0813      0.00000

 k-point   4 :       0.4375    0.0625    0.0625
  band No.  band energies     occupation 
      1      -4.0042      2.00000
      2      -3.7430      2.00000
      3      -3.1531      2.00000
      4      -3.1266      2.00000
      5      -3.1154      2.00000
      6      -3.1153      2.00000
      7      -3.1026      2.00000
      8      -3.0936      2.00000
      9      -3.0936      2.00000
     10      -3.0707      2.00000
     11      -3.0671      2.00000
     12      -3.0302      2.00000
     13      -3.0301      2.00000
     14      -3.0290      2.00000
     15      -3.0081      2.00000
     16      -3.0063      2.00000
     17      -3.0062      2.00000
     18      -2.9712      2.00000
     19      -2.9711      2.00000
     20      -2.9455      2.00000
     21      -2.9079      2.00000
     22      -2.9079      2.00000
     23      -2.7403      2.00000
     24      -2.7403      2.00000
     25      -2.6948      2.00000
     26      -2.6948      2.00000
     27      -2.6468      2.00000
     28      -2.6468      2.00000
     29      -2.6456      2.00000
     30      -2.6455      2.00000
     31      -2.6199      2.00000
     32      -2.6199      2.00000
     33      -2.6185      2.00000
     34      -2.6184      2.00000
     35      -2.5771      2.00000
     36      -2.5771      2.00000
     37      -2.5724      2.00000
     38      -2.5724      2.00000
     39      -2.5125      2.00000
     40      -2.5124      2.00000
     41      -2.5075      2.00000
     42      -2.5074      2.00000
     43      -2.4479      2.00000
     44      -2.4479      2.00000
     45      -2.4348      2.00000
     46      -2.4347      2.00000
     47      -2.3831      2.00000
     48      -2.3829      2.00000
     49      -2.3809      2.00000
     50      -2.3806      2.00000
     51      -2.3428      2.00000
     52      -2.3428      2.00000
     53      -2.3170      2.00000
     54      -2.2903      2.00000
     55      -2.2903      2.00000
     56      -2.2341      2.00000
     57      -2.2296      2.00000
     58      -2.2120      2.00000
     59      -2.2120      2.00000
     60      -2.2071      2.00000
     61      -2.2071      2.00000
     62      -2.1973      2.00000
     63      -2.1958      2.00000
     64      -2.1958      2.00000
     65      -2.1687      2.00000
     66      -2.1686      2.00000
     67      -2.1448      2.00000
     68      -2.1401      2.00000
     69      -2.1400      2.00000
     70      -2.1306      2.00000
     71      -2.1304      2.00000
     72      -2.1234      2.00000
     73      -2.0752      2.00000
     74      -2.0752      2.00000
     75      -2.0347      2.00000
     76      -2.0347      2.00000
     77      -1.9893      2.00000
     78      -1.9641      2.00000
     79      -1.9640      2.00000
     80      -1.9576      2.00000
     81      -1.9576      2.00000
     82      -1.9556      2.00000
     83      -1.9555      2.00000
     84      -1.9406      2.00000
     85      -1.9327      2.00000
     86      -1.9326      2.00000
     87      -1.9099      2.00000
     88      -1.8743      2.00000
     89      -1.8743      2.00000
     90      -1.8697      2.00000
     91      -1.8690      2.00000
     92      -1.8518      2.00000
     93      -1.5264      2.00000
     94      -1.5263      2.00000
     95      -1.5242      2.00000
     96      -1.5242      2.00000
     97      -1.4989      2.00000
     98      -1.4431      2.00000
     99      -1.3961      2.00000
    100      -1.3960      2.00000
    101      -1.3944      2.00000
    102      -1.3868      2.00000
    103      -1.3867      2.00000
    104      -1.3851      2.00000
    105      -1.3851      2.00000
    106      -1.3760      2.00000
    107      -1.3759      2.00000
    108      -1.3728      2.00000
    109      -1.3728      2.00000
    110      -1.3305      2.00000
    111      -1.3303      2.00000
    112      -1.3287      2.00000
    113      -1.3285      2.00000
    114      -1.3279      2.00000
    115      -1.3278      2.00000
    116      -1.3247      2.00000
    117      -1.2964      2.00000
    118      -1.2964      2.00000
    119      -1.2560      2.00000
    120      -1.2469      2.00000
    121      -1.2469      2.00000
    122      -1.2157      2.00000
    123      -1.2023      2.00000
    124      -1.2023      2.00000
    125      -1.1885      2.00000
    126      -1.1717      2.00000
    127      -1.1717      2.00000
    128      -1.1216      2.00000
    129      -1.1216      2.00000
    130      -1.1146      2.00000
    131      -1.1146      2.00000
    132      -1.0885      2.00000
    133      -1.0243      2.00000
    134      -1.0242      2.00000
    135      -1.0238      2.00000
    136      -0.9500      2.00000
    137      -0.9499      2.00000
    138      -0.9476      2.00000
    139      -0.9377      2.00000
    140      -0.9285      2.00000
    141      -0.9209      2.00000
    142      -0.9208      2.00000
    143      -0.9191      2.00000
    144      -0.9098      2.00000
    145      -0.9097      2.00000
    146      -0.9039      2.00000
    147      -0.9038      2.00000
    148      -0.8528      2.00000
    149      -0.8525      2.00000
    150      -0.8519      2.00000
    151      -0.8410      2.00000
    152      -0.8179      2.00000
    153      -0.8077      2.00000
    154      -0.7896      2.00000
    155      -0.7896      2.00000
    156      -0.7888      2.00000
    157      -0.7888      2.00000
    158      -0.7467      2.00000
    159      -0.5708      2.00000
    160      -0.5699      2.00000
    161      -0.5698      2.00000
    162      -0.5689      2.00000
    163      -0.4863      2.00000
    164      -0.4863      2.00000
    165      -0.1721      2.00000
    166      -0.1721      2.00000
    167      -0.0836      2.00000
    168      -0.0836      2.00000
    169       0.2731      2.00000
    170       0.2732      2.00000
    171       1.0341      2.00000
    172       1.1850      2.00000
    173       1.2960      2.00000
    174       1.7679      2.00224
    175       1.7680      2.00224
    176       1.8337      2.00861
    177       1.8835      2.01992
    178       1.8835      2.01994
    179       2.3353      0.47483
    180       2.4257      0.02979
    181       3.6588     -0.00000
    182       3.6588     -0.00000
    183       4.2214     -0.00000
    184       4.2214     -0.00000
    185       4.4821     -0.00000
    186       4.4821     -0.00000
    187       4.8300     -0.00000
    188       4.8300     -0.00000
    189       5.0418     -0.00000
    190       5.0418     -0.00000
    191       5.3286     -0.00000
    192       5.3286     -0.00000
    193       5.9951     -0.00000
    194       6.5067     -0.00000
    195       6.5067     -0.00000
    196       6.7263     -0.00000
    197       7.0493     -0.00000
    198       7.2718     -0.00000
    199       7.2719     -0.00000
    200       7.7088     -0.00000
    201       7.7089     -0.00000
    202       7.8313      0.00000
    203       8.0451      0.00000
    204       8.0452      0.00000
    205       8.0737      0.00000
    206       8.0738      0.00000
    207       8.1175      0.00000
    208       8.1176      0.00000
    209       8.3172      0.00000
    210       8.3185      0.00000
    211       8.6684      0.00000
    212       9.1721      0.00000

 k-point   5 :       0.0625    0.1875    0.0625
  band No.  band energies     occupation 
      1      -4.3523      2.00000
      2      -3.2762      2.00000
      3      -3.2699      2.00000
      4      -3.2695      2.00000
      5      -3.2694      2.00000
      6      -3.2516      2.00000
      7      -3.2514      2.00000
      8      -3.2425      2.00000
      9      -3.1986      2.00000
     10      -3.1869      2.00000
     11      -3.1867      2.00000
     12      -3.1626      2.00000
     13      -2.9168      2.00000
     14      -2.9145      2.00000
     15      -2.9045      2.00000
     16      -2.8435      2.00000
     17      -2.8431      2.00000
     18      -2.8412      2.00000
     19      -2.7892      2.00000
     20      -2.7890      2.00000
     21      -2.7149      2.00000
     22      -2.7135      2.00000
     23      -2.7103      2.00000
     24      -2.7086      2.00000
     25      -2.7012      2.00000
     26      -2.6993      2.00000
     27      -2.6917      2.00000
     28      -2.6602      2.00000
     29      -2.6599      2.00000
     30      -2.6532      2.00000
     31      -2.6100      2.00000
     32      -2.6084      2.00000
     33      -2.5843      2.00000
     34      -2.5840      2.00000
     35      -2.5745      2.00000
     36      -2.5728      2.00000
     37      -2.5381      2.00000
     38      -2.5366      2.00000
     39      -2.5183      2.00000
     40      -2.4989      2.00000
     41      -2.4967      2.00000
     42      -2.4902      2.00000
     43      -2.4888      2.00000
     44      -2.3819      2.00000
     45      -2.3816      2.00000
[...]
    108      -1.4840      2.00000
    109      -1.4826      2.00000
    110      -1.4825      2.00000
    111      -1.4822      2.00000
    112      -1.4816      2.00000
    113      -1.4814      2.00000
    114      -1.4809      2.00000
    115      -1.4791      2.00000
    116      -1.4330      2.00000
    117      -1.4241      2.00000
    118      -1.4224      2.00000
    119      -1.4208      2.00000
    120      -1.3802      2.00000
    121      -1.3800      2.00000
    122      -1.3790      2.00000
    123      -1.3790      2.00000
    124      -1.3779      2.00000
    125      -1.3777      2.00000
    126      -1.3136      2.00000
    127      -1.3135      2.00000
    128      -1.3135      2.00000
    129      -1.2770      2.00000
    130      -1.2769      2.00000
    131      -1.2630      2.00000
    132      -1.2619      2.00000
    133      -1.2607      2.00000
    134      -1.2515      2.00000
    135      -1.2500      2.00000
    136      -1.2488      2.00000
    137      -1.1834      2.00000
    138      -1.1821      2.00000
    139      -1.1809      2.00000
    140      -1.1374      2.00000
    141      -1.1374      2.00000
    142      -1.0873      2.00000
    143      -1.0863      2.00000
    144      -1.0853      2.00000
    145      -0.6994      2.00000
    146      -0.6991      2.00000
    147      -0.6988      2.00000
    148      -0.6850      2.00000
    149      -0.6843      2.00000
    150      -0.6842      2.00000
    151      -0.6842      2.00000
    152      -0.6840      2.00000
    153      -0.6840      2.00000
    154      -0.6839      2.00000
    155      -0.6838      2.00000
    156      -0.6838      2.00000
    157      -0.6837      2.00000
    158      -0.6835      2.00000
    159      -0.6829      2.00000
    160      -0.6820      2.00000
    161      -0.6819      2.00000
    162      -0.6816      2.00000
    163      -0.6716      2.00000
    164      -0.6713      2.00000
    165      -0.6711      2.00000
    166      -0.6633      2.00000
    167      -0.6632      2.00000
    168      -0.6631      2.00000
    169       2.3583      0.32401
    170       2.3599      0.31420
    171       2.3615      0.30475
    172       2.6845     -0.01245
    173       2.6860     -0.01213
    174       2.6874     -0.01184
    175       2.6874     -0.01184
    176       2.6888     -0.01156
    177       2.6903     -0.01125
    178       2.9750     -0.00001
    179       2.9756     -0.00001
    180       2.9761     -0.00001
    181       3.1951     -0.00000
    182       3.1957     -0.00000
    183       3.1964     -0.00000
    184       3.5371     -0.00000
    185       3.5389     -0.00000
    186       3.5402     -0.00000
    187       3.5402     -0.00000
    188       3.5415     -0.00000
    189       3.5433     -0.00000
    190       3.8455     -0.00000
    191       3.8471     -0.00000
    192       3.8488     -0.00000
    193       6.7413     -0.00000
    194       6.7419     -0.00000
    195       6.7425     -0.00000
    196       7.0788     -0.00000
    197       7.0796     -0.00000
    198       7.0805     -0.00000
    199       7.5039     -0.00000
    200       7.5042     -0.00000
    201       7.5063     -0.00000
    202       7.5064     -0.00000
    203       7.5085     -0.00000
    204       7.5090     -0.00000
    205       7.8495      0.00000
    206       7.8506      0.00000
    207       7.8514      0.00000
    208       7.8534      0.00000
    209       7.8539      0.00000
    210       8.1897      0.00000
    211       8.2605      0.00000
    212       8.4920      0.00000


--------------------------------------------------------------------------------------------------------


 soft charge-density along one line, spin component           1
         0         1         2         3         4         5         6         7         8         9
 total charge-density along one line
 
 pseudopotential strength for first ion, spin component:           1
-12.501   0.000  -0.000   0.000  -0.000   0.193  -0.000   0.000
  0.000 -12.501   0.000  -0.000  -0.000  -0.000   0.193  -0.000
 -0.000   0.000 -12.493   0.000  -0.000   0.000  -0.000   0.192
  0.000  -0.000   0.000 -12.501   0.000  -0.000   0.000  -0.000
 -0.000  -0.000  -0.000   0.000 -12.493   0.000   0.000   0.000
  0.193  -0.000   0.000  -0.000   0.000   0.445   0.000  -0.000
 -0.000   0.193  -0.000   0.000   0.000   0.000   0.445   0.000
  0.000  -0.000   0.192  -0.000   0.000  -0.000   0.000   0.446
 -0.000   0.000  -0.000   0.193  -0.000   0.000  -0.000   0.000
  0.000   0.000   0.000  -0.000   0.192  -0.000  -0.000  -0.000
  0.000  -0.000  -0.000  -0.000  -0.000   0.000   0.000   0.000
  0.000   0.000   0.000   0.000   0.000  -0.000  -0.000  -0.000
 -0.000   0.000  -0.000  -0.000  -0.000   0.000  -0.000   0.000
 -0.000   0.000   0.000  -0.000  -0.000   0.000  -0.000  -0.000
  0.000  -0.000   0.000   0.000  -0.000  -0.000   0.000  -0.000
  0.000  -0.000   0.000   0.000   0.000  -0.000   0.000  -0.000
  0.000  -0.000  -0.000   0.000   0.000  -0.000   0.000   0.000
 -0.000   0.000  -0.000  -0.000   0.000   0.000  -0.000   0.000
 total augmentation occupancy for first ion, spin component:           1
  1.942   0.000  -0.001  -0.000  -0.000  -0.033  -0.000  -0.000  -0.000   0.000   0.004  -0.001  -0.000   0.000  -0.000  -0.000
  0.000   1.944  -0.001  -0.000  -0.001  -0.000  -0.035   0.001   0.000   0.000   0.003  -0.001   0.000  -0.000  -0.000  -0.000
 -0.001  -0.001   1.967  -0.001  -0.002  -0.000   0.001  -0.058   0.001   0.001   0.011   0.001  -0.000   0.000  -0.000  -0.000
 -0.000  -0.000  -0.001   1.946  -0.000  -0.000   0.000   0.001  -0.037   0.001   0.002  -0.001   0.000  -0.000   0.000  -0.000
 -0.000  -0.001  -0.002  -0.000   1.960   0.000   0.000   0.001   0.001  -0.053   0.007   0.000   0.000   0.000  -0.000  -0.000
 -0.033  -0.000  -0.000  -0.000   0.000   0.054   0.000   0.001   0.000  -0.000  -0.002   0.001  -0.000  -0.000   0.000   0.000
 -0.000  -0.035   0.001   0.000   0.000   0.000   0.056  -0.002  -0.000   0.001  -0.000   0.001   0.000   0.000   0.000   0.000
 -0.000   0.001  -0.058   0.001   0.001   0.001  -0.002   0.048  -0.001  -0.001  -0.009   0.000   0.000  -0.000   0.000  -0.000
 -0.000   0.000   0.001  -0.037   0.001   0.000  -0.000  -0.001   0.058  -0.001   0.001   0.001  -0.000   0.000  -0.000   0.000
  0.000   0.000   0.001   0.001  -0.053  -0.000   0.001  -0.001  -0.001   0.045  -0.005   0.000   0.000  -0.000  -0.000   0.000
  0.004   0.003   0.011   0.002   0.007  -0.002  -0.000  -0.009   0.001  -0.005   0.969  -0.297  -0.000  -0.000   0.000   0.000
 -0.001  -0.001   0.001  -0.001   0.000   0.001   0.001   0.000   0.001   0.000  -0.297   0.140   0.000   0.000  -0.000  -0.000
 -0.000   0.000  -0.000   0.000   0.000  -0.000   0.000   0.000  -0.000   0.000  -0.000   0.000   0.084   0.001   0.002  -0.004
  0.000  -0.000   0.000  -0.000   0.000  -0.000   0.000  -0.000   0.000  -0.000  -0.000   0.000   0.001   0.088  -0.001  -0.000
 -0.000  -0.000  -0.000   0.000  -0.000   0.000   0.000   0.000  -0.000  -0.000   0.000  -0.000   0.002  -0.001   0.086  -0.000
 -0.000  -0.000  -0.000  -0.000  -0.000   0.000   0.000  -0.000   0.000   0.000   0.000  -0.000  -0.004  -0.000  -0.000   0.000
 -0.000   0.000  -0.000  -0.000  -0.000   0.000   0.000   0.000   0.000   0.000   0.000   0.000  -0.000  -0.005  -0.000   0.000
  0.000   0.000   0.000   0.000  -0.000  -0.000  -0.000  -0.000  -0.000   0.000  -0.000   0.000  -0.000  -0.000  -0.005   0.000


------------------------ aborting loop because EDIFF is reached ----------------------------------------




--------------------------------------------------------------------------------------------------------


    CHARGE:  VPU time   33.76: CPU time   34.15
    FORLOC:  VPU time    0.19: CPU time    0.19
    FORNL :  VPU time  208.67: CPU time  210.05
    STRESS:  VPU time  331.62: CPU time  334.18
    FORCOR:  VPU time    1.24: CPU time    1.26
    FORHAR:  VPU time    0.45: CPU time    0.45
    MIXING:  VPU time    0.03: CPU time    0.03


--------------------------------------------------------------------------------------------------------



  FREE ENERGIE OF THE ION-ELECTRON SYSTEM (eV)
  ---------------------------------------------------
  free  energy   TOTEN  =       -89.014401 eV

  energy  without entropy=      -89.000170  energy(sigma->0) =      -89.009658
 

  FORCE on cell =-STRESS in cart. coord.  units (eV/reduce length):
  Direction    X        Y        Z        XY       YZ       ZX
  --------------------------------------------------------------------------------------
  Alpha Z   2844.11   2844.11   2844.11
  Ewald    -9891.31  -9891.17  -9891.17     -0.00     -0.00     -0.00
  Hartree   2308.63   2308.72   2308.72     -0.00     -0.00     -0.00
  E(xc)    -1853.72  -1853.72  -1853.72     -0.00     -0.00     -0.00
  Local     3033.56   3033.33   3033.33      0.00      0.00      0.00
  n-local  -2152.44  -2155.86  -2149.02      2.10      1.13      0.16
  augment   1337.50   1337.50   1337.50     -0.00     -0.00      0.00
  Kinetic   4346.76   4341.05   4352.47      1.51     -0.26     -2.03
  -------------------------------------------------------------------------------------
  Total      -26.91    -26.92    -26.92     -0.00     -0.00     -0.00
  in kB      -67.44    -67.45    -67.45     -0.00     -0.00     -0.00
  external pressure =      -67.45 kB  Pullay stress =        0.00 kB


 VOLUME and BASIS-vectors are now :
 -----------------------------------------------------------------------------
  energy-cutoff  :      600.00
  volume of cell :      639.36
      direct lattice vectors                 reciprocal lattice vectors
     8.614844910  0.000000000  0.000000000     0.116078700 -0.000000002 -0.000000002
     0.000000160  8.614844910  0.000000000     0.000000000  0.116078700 -0.000000002
     0.000000160  0.000000160  8.614844910     0.000000000  0.000000000  0.116078700

  length of vectors
     8.614844910  8.614844910  8.614844910     0.116078700  0.116078700  0.116078700


 FORCES acting on ions
    electron-ion (+dipol)            ewald-force                    non-local-force                 convergence-correction
 -----------------------------------------------------------------------------------------------
   -.286E-01 -.142E+00 0.139E-07   0.314E-01 0.141E+00 -.149E-07   -.199E-02 0.540E-03 0.424E-20   -.289E-03 0.225E-03 -.127E-09
   -.912E+00 -.171E+01 0.787E-08   0.906E+00 0.170E+01 -.305E-09   0.992E-02 0.796E-02 0.136E-19   0.154E-02 0.182E-02 0.128E-09
   -.912E+00 0.298E-07 0.171E+01   0.906E+00 -.314E-07 -.170E+01   0.992E-02 -.148E-09 -.796E-02   0.154E-02 -.165E-09 -.182E-02
   -.286E-01 0.142E+00 -.767E-08   0.314E-01 -.141E+00 0.819E-08   -.199E-02 -.540E-03 0.000E+00   -.289E-03 -.225E-03 0.117E-09
   0.111E+01 -.821E-02 0.821E-02   -.112E+01 0.815E-02 -.815E-02   0.160E-02 0.636E-04 -.636E-04   0.749E-04 0.171E-04 -.171E-04
   0.589E+00 -.216E-08 -.399E-07   -.592E+00 0.161E-08 0.435E-07   0.145E-02 0.577E-19 0.000E+00   0.229E-03 -.311E-09 0.585E-09
   -.233E-01 0.143E+00 -.800E-08   0.261E-01 -.142E+00 0.853E-08   -.201E-02 -.520E-03 -.847E-21   -.268E-03 -.282E-03 0.115E-09
   -.912E+00 -.238E-07 -.171E+01   0.906E+00 0.314E-07 0.170E+01   0.992E-02 0.148E-09 0.796E-02   0.154E-02 0.162E-09 0.182E-02
   -.912E+00 0.171E+01 -.197E-08   0.906E+00 -.170E+01 0.250E-09   0.992E-02 -.796E-02 -.136E-19   0.154E-02 -.182E-02 -.131E-09
   -.286E-01 -.503E-08 0.142E+00   0.314E-01 0.556E-08 -.141E+00   -.199E-02 -.100E-10 -.540E-03   -.289E-03 0.112E-09 -.225E-03
   0.111E+01 -.821E-02 -.821E-02   -.112E+01 0.815E-02 0.815E-02   0.160E-02 0.636E-04 0.636E-04   0.749E-04 0.171E-04 0.171E-04
   0.710E+01 -.115E-06 0.123E-06   -.708E+01 0.125E-06 0.125E-06   -.605E-01 0.892E-19 0.000E+00   -.827E-02 -.621E-09 -.621E-09
   0.111E+01 0.821E-02 0.821E-02   -.112E+01 -.815E-02 -.815E-02   0.160E-02 -.636E-04 -.636E-04   0.749E-04 -.171E-04 -.171E-04
   0.246E+00 -.112E-07 -.113E-07   -.244E+00 0.116E-07 0.116E-07   -.250E-02 -.918E-21 0.000E+00   0.630E-03 0.273E-09 0.273E-09
   -.900E+00 0.173E+01 -.209E-08   0.895E+00 -.173E+01 0.278E-09   0.991E-02 -.807E-02 0.000E+00   0.153E-02 -.177E-02 -.129E-09
   -.900E+00 -.242E-07 -.173E+01   0.895E+00 0.319E-07 0.173E+01   0.991E-02 0.150E-09 0.807E-02   0.153E-02 0.195E-09 0.177E-02
   -.233E-01 -.143E+00 0.137E-07   0.261E-01 0.142E+00 -.146E-07   -.201E-02 0.520E-03 0.127E-20   -.268E-03 0.282E-03 -.154E-09
   -.624E+00 0.241E-02 -.241E-02   0.628E+00 -.244E-02 0.244E-02   -.173E-02 0.437E-04 -.437E-04   -.576E-03 -.180E-04 0.180E-04
   -.472E+00 0.211E-08 0.272E-07   0.465E+00 -.160E-08 -.275E-07   0.635E-02 0.242E-20 -.271E-19   0.340E-03 0.290E-09 -.488E-09
   -.286E-01 0.113E-07 -.142E+00   0.314E-01 -.122E-07 0.141E+00   -.199E-02 0.100E-10 0.540E-03   -.289E-03 -.123E-09 0.225E-03
   0.111E+01 0.821E-02 -.821E-02   -.112E+01 -.815E-02 0.815E-02   0.160E-02 -.636E-04 0.636E-04   0.749E-04 -.171E-04 0.171E-04
   0.589E+00 -.406E-07 -.216E-08   -.592E+00 0.435E-07 0.161E-08   0.145E-02 -.196E-20 0.000E+00   0.228E-03 0.584E-09 -.311E-09
   -.900E+00 0.301E-07 0.173E+01   0.895E+00 -.319E-07 -.173E+01   0.991E-02 -.150E-09 -.807E-02   0.153E-02 -.161E-09 -.177E-02
   -.900E+00 -.173E+01 0.796E-08   0.895E+00 0.173E+01 -.278E-09   0.991E-02 0.807E-02 0.000E+00   0.153E-02 0.177E-02 0.162E-09
   -.233E-01 0.110E-07 -.143E+00   0.261E-01 -.120E-07 0.142E+00   -.201E-02 0.967E-11 0.520E-03   -.268E-03 -.149E-09 0.282E-03
   -.624E+00 0.241E-02 0.241E-02   0.628E+00 -.244E-02 -.244E-02   -.173E-02 0.437E-04 0.437E-04   -.576E-03 -.180E-04 -.180E-04
   -.185E+01 0.435E-08 -.238E-06   0.187E+01 -.214E-08 -.214E-08   -.135E-01 0.198E-19 0.136E-19   -.640E-03 0.565E-09 0.565E-09
   -.624E+00 -.241E-02 -.241E-02   0.628E+00 0.244E-02 0.244E-02   -.173E-02 -.437E-04 -.437E-04   -.576E-03 0.180E-04 0.180E-04
   -.228E+00 0.992E-08 0.983E-08   0.228E+00 -.102E-07 -.102E-07   -.138E-03 -.326E-20 0.169E-20   -.377E-03 -.275E-09 -.275E-09
   -.233E-01 -.534E-08 0.143E+00   0.261E-01 0.590E-08 -.142E+00   -.201E-02 -.967E-11 -.520E-03   -.268E-03 0.110E-09 -.282E-03
   -.624E+00 -.241E-02 0.241E-02   0.628E+00 0.244E-02 -.244E-02   -.173E-02 -.437E-04 0.437E-04   -.576E-03 0.180E-04 -.180E-04
   -.472E+00 0.265E-07 0.212E-08   0.465E+00 -.275E-07 -.160E-08   0.635E-02 0.390E-19 0.000E+00   0.341E-03 -.488E-09 0.290E-09
 -----------------------------------------------------------------------------------------------
   -.173E-02 -.313E-10 -.193E-08   0.317E-12 -.246E-12 -.998E-13   0.173E-02 0.414E-17 0.440E-18   0.524E-03 -.333E-10 -.345E-10
 
 
 POSITION                                       TOTAL-FORCE (eV/Angst)
 -----------------------------------------------------------------------------------
      6.46113      6.46113      4.30742         0.000476      0.000087      0.000000
      6.46113      6.46113      0.00000         0.005526      0.006504      0.000000
      6.46113      0.00000      2.15371         0.005526     -0.000000     -0.006504
      6.46113      2.15371      4.30742         0.000476     -0.000087      0.000000
      0.00000      6.46113      2.15371        -0.001212      0.000019     -0.000019
      0.00000      0.00000      4.30742        -0.000621     -0.000000      0.000000
      2.15371      6.46113      4.30742         0.000478     -0.000087     -0.000000
      6.46113      0.00000      6.46113         0.005526      0.000000      0.006504
      6.46113      2.15371      0.00000         0.005526     -0.006504      0.000000
      6.46113      4.30742      2.15371         0.000476     -0.000000     -0.000087
      0.00000      6.46113      6.46113        -0.001212      0.000019      0.000019
      0.02000      0.00000      0.00000        -0.048359     -0.000000      0.000000
      0.00000      2.15371      2.15371        -0.001212     -0.000019     -0.000019
      0.00000      4.30742      4.30742        -0.000099     -0.000000     -0.000000
      2.15371      6.46113      0.00000         0.006008     -0.007131     -0.000000
      2.15371      0.00000      2.15371         0.006008      0.000000      0.007131
      2.15371      2.15371      4.30742         0.000478      0.000087     -0.000000
      4.30742      6.46113      2.15371         0.001183     -0.000008      0.000008
      4.30742      0.00000      4.30742        -0.001013     -0.000000     -0.000000
      6.46113      4.30742      6.46113         0.000476      0.000000      0.000087
      0.00000      2.15371      6.46113        -0.001212     -0.000019      0.000019
      0.00000      4.30742      0.00000        -0.000621      0.000000     -0.000000
      2.15371      0.00000      6.46113         0.006008     -0.000000     -0.007131
      2.15371      2.15371      0.00000         0.006008      0.007131      0.000000
      2.15371      4.30742      2.15371         0.000478      0.000000      0.000087
      4.30742      6.46113      6.46113         0.001183     -0.000008     -0.000008
      4.30742      0.00000      0.00000         0.002185      0.000000     -0.000000
      4.30742      2.15371      2.15371         0.001183      0.000008      0.000008
      4.30742      4.30742      4.30742        -0.000295      0.000000      0.000000
      2.15371      4.30742      6.46113         0.000478     -0.000000     -0.000087
      4.30742      2.15371      6.46113         0.001183      0.000008     -0.000008
      4.30742      4.30742      0.00000        -0.001013      0.000000     -0.000000
 -----------------------------------------------------------------------------------
    total drift:                                0.000523     -0.000000     -0.000000


--------------------------------------------------------------------------------------------------------



 mean value of Nose-termostat <S>:     1.000 mean value of <T> :     0.000
 mean temperature <T/S>/<1/S>  :     0.000

     LOOP+:  VPU time15981.60: CPU time16056.09

 ----------------------------------------------------------------------------- 
|                                                                             |
|           W    W    AA    RRRRR   N    N  II  N    N   GGGG   !!!           |
|           W    W   A  A   R    R  NN   N  II  NN   N  G    G  !!!           |
|           W    W  A    A  R    R  N N  N  II  N N  N  G       !!!           |
|           W WW W  AAAAAA  RRRRR   N  N N  II  N  N N  G  GGG   !            |
|           WW  WW  A    A  R   R   N   NN  II  N   NN  G    G                |
|           W    W  A    A  R    R  N    N  II  N    N   GGGG   !!!           |
|                                                                             |
|      The partial DOS and the PROCAR file are not evaluated for NPAR/=1      |
|      please rerun with NPAR=1                                               |
|                                                                             |
 ----------------------------------------------------------------------------- 

  
  
 General timing and accounting informations for this job:
 ========================================================
  
                  Total CPU time used (sec):    16582.316
                            User time (sec):    16408.033
                          System time (sec):      174.284
                         Elapsed time (sec):    16661.359
  
                   Maximum memory used (kb):     3740956.
                   Average memory used (kb):           0.
  
                          Minor page faults:       685770
                          Major page faults:            0
                 Voluntary context switches:          818
