 running on    4 nodes
 distr:  one band on    1 nodes,    4 groups
 vasp.4.6.28 25Jul05 complex 
 POSCAR found :  1 types and   32 ions

 ----------------------------------------------------------------------------- 
|                                                                             |
|  ADVICE TO THIS USER RUNNING 'VASP/VAMP'   (HEAR YOUR MASTER'S VOICE ...):  |
|                                                                             |
|      You have a (more or less) 'large supercell' and for larger cells       |
|      it might be more efficient to use real space projection operators      |
|      So try LREAL= Auto  in the INCAR   file.                               |
|      Mind: If you want to do an extremely accurate calculations keep the    |
|      reciprocal projection scheme          (i.e. LREAL=.FALSE.)             |
|                                                                             |
 ----------------------------------------------------------------------------- 

 LDA part: xc-table for Pade appr. of Perdew
 found WAVECAR, reading the header
  number of k-points has changed, file:  20 present:  40
  trying to continue reading WAVECAR, but it might fail
 POSCAR, INCAR and KPOINTS ok, starting setup
 FFT: planning ...           1
 reading WAVECAR
 the WAVECAR file was read sucessfully
 initial charge from wavefunction
 entering main loop
       N       E                     dE             d eps       ncg     rms          rms(c)
RMM:   1    -0.904628535643E+02   -0.90463E+02   -0.58041E+02 17502   0.446E+01BRMIX: very serious problems
 the old and the new charge density differ
 old charge density:   344.49743 new  352.00000
    0.711E+00
RMM:   2    -0.890196034767E+02    0.14433E+01   -0.12302E+01 17805   0.116E+01    0.121E+00
RMM:   3    -0.890149945819E+02    0.46089E-02   -0.16125E-01 18248   0.749E-01    0.650E-01
RMM:   4    -0.890151003538E+02   -0.10577E-03   -0.35846E-02 18136   0.597E-01    0.194E-01
RMM:   5    -0.890144777621E+02    0.62259E-03   -0.82468E-03 18141   0.318E-01    0.536E-02
RMM:   6    -0.890144332468E+02    0.44515E-04   -0.10718E-04 18422   0.282E-02    0.317E-02
RMM:   7    -0.890144050889E+02    0.28158E-04   -0.14238E-04 18240   0.393E-02    0.333E-03
RMM:   8    -0.890144013553E+02    0.37336E-05   -0.37987E-06 10081   0.484E-03
   1 F= -.89014401E+02 E0= -.89009658E+02  d E =-.142314E-01

 ----------------------------------------------------------------------------- 
|                                                                             |
|           W    W    AA    RRRRR   N    N  II  N    N   GGGG   !!!           |
|           W    W   A  A   R    R  NN   N  II  NN   N  G    G  !!!           |
|           W    W  A    A  R    R  N N  N  II  N N  N  G       !!!           |
|           W WW W  AAAAAA  RRRRR   N  N N  II  N  N N  G  GGG   !            |
|           WW  WW  A    A  R   R   N   NN  II  N   NN  G    G                |
|           W    W  A    A  R    R  N    N  II  N    N   GGGG   !!!           |
|                                                                             |
|      The partial DOS and the PROCAR file are not evaluated for NPAR/=1      |
|      please rerun with NPAR=1                                               |
|                                                                             |
 ----------------------------------------------------------------------------- 

