 vasp.4.6.28 25Jul05 complex 
 executed on             LinuxIFC date 2017.01.24  12:43:32
 running on    4 nodes
 distr:  one band on    1 nodes,    4 groups


--------------------------------------------------------------------------------------------------------


 INCAR:
 POTCAR:   PAW_PBE Ag 06Sep2000                   
 POTCAR:   PAW_PBE Ag 06Sep2000                   
   VRHFIN =Ag : s1 d10                                                          
   LEXCH  = PE                                                                  
   EATOM  =  1037.4134 eV,   76.2477 Ry                                         
                                                                                
   TITEL  = PAW_PBE Ag 06Sep2000                                                
   LULTRA =        F    use ultrasoft PP ?                                      
   IUNSCR =        1    unscreen: 0-lin 1-nonlin 2-no                           
   RPACOR =    2.000    partial core radius                                     
   POMASS =  107.868; ZVAL   =   11.000    mass and valenz                      
   RCORE  =    2.400    outmost cutoff radius                                   
   RWIGS  =    2.840; RWIGS  =    1.503    wigner-seitz radius (au A)           
   ENMAX  =  249.846; ENMIN  =  187.385 eV                                      
   RCLOC  =    1.962    cutoff for local pot                                    
   LCOR   =        T    correct aug charges                                     
   LPAW   =        T    paw PP                                                  
   EAUG   =  412.496                                                            
   DEXC   =    -.047                                                            
   RMAX   =    2.917    core radius for proj-oper                               
   RAUG   =    1.300    factor for augmentation sphere                          
   RDEP   =    2.416    radius for radial grids                                 
   QCUT   =   -4.285; QGAM   =    8.570    optimization parameters              
                                                                                
   Description                                                                  
     l     E      TYP  RCUT    TYP  RCUT                                        
     2   .000     23  2.400                                                     
     2   .000     23  2.400                                                     
     0   .000     23  2.400                                                     
     0   .000     23  2.400                                                     
     1  -.200     23  2.400                                                     
     1  1.500     23  2.400                                                     
     3   .000      7   .000                                                     
  local pseudopotential read in
  partial core-charges read in
  atomic valenz-charges read in
  non local Contribution for L=           2  read in
    real space projection operators read in
  non local Contribution for L=           2  read in
    real space projection operators read in
  non local Contribution for L=           0  read in
    real space projection operators read in
  non local Contribution for L=           0  read in
    real space projection operators read in
  non local Contribution for L=           1  read in
    real space projection operators read in
  non local Contribution for L=           1  read in
    real space projection operators read in
    PAW grid and wavefunctions read in
 
   number of l-projection  operators is LMAX  =           6
   number of lm-projection operators is LMMAX =          18
 

 ----------------------------------------------------------------------------- 
|                                                                             |
|  ADVICE TO THIS USER RUNNING 'VASP/VAMP'   (HEAR YOUR MASTER'S VOICE ...):  |
|                                                                             |
|      You have a (more or less) 'large supercell' and for larger cells       |
|      it might be more efficient to use real space projection operators      |
|      So try LREAL= Auto  in the INCAR   file.                               |
|      Mind: If you want to do an extremely accurate calculations keep the    |
|      reciprocal projection scheme          (i.e. LREAL=.FALSE.)             |
|                                                                             |
 ----------------------------------------------------------------------------- 

 PAW_PBE Ag 06Sep2000                   :
 energy of atom  1       EATOM=-1037.4134
 kinetic energy error for atom=    0.0019 (will be added to EATOM!!)
 
 EXHCAR: internal setup
 exchange correlation table for  LEXCH =        8
   RHO(1)=    0.500       N(1)  =     2000
   RHO(2)=  100.500       N(2)  =     4000
 
 POSCAR: No title                                
  positions in direct lattice
  No initial velocities read in
 


--------------------------------------------------------------------------------------------------------


 ion  position               nearest neighbor table
   1  0.750  0.750  0.500-   3 3.05  14 3.05  19 3.05  20 3.05   5 3.05  26 3.05   6 3.05  29 3.05
                            11 3.05  18 3.05  10 3.05   8 3.05
   2  0.750  0.750  0.000-   8 3.05  10 3.05  22 3.05  27 3.05  11 3.05  18 3.05  12 3.05  32 3.05
                             5 3.05  26 3.05   3 3.05  20 3.05
   3  0.750  0.000  0.250-   1 3.05   5 3.05   9 3.05  28 3.05  19 3.05  12 3.05  13 3.05  18 3.05
                            27 3.05   6 3.05   4 3.05   2 3.05
   4  0.750  0.250  0.500-   6 3.05   8 3.05  10 3.05  29 3.05  13 3.05  31 3.05  14 3.05  19 3.05
                            21 3.05  28 3.05   3 3.05  20 3.05
   5  0.000  0.750  0.250-   3 3.05  12 3.05  14 3.05  25 3.05  15 3.05   1 3.05  16 3.05  10 3.05
                             2 3.05   7 3.05  22 3.05   6 3.05
   6  0.000  0.000  0.500-   4 3.05   7 3.05  11 3.05  13 3.05   8 3.05  16 3.05   1 3.05  17 3.05
                             3 3.05  23 3.05  21 3.05   5 3.05
   7  0.250  0.750  0.500-   6 3.05  16 3.05  29 3.05  30 3.05  11 3.05  18 3.05  14 3.05  19 3.05
                             5 3.05  26 3.05  25 3.05  23 3.05
   8  0.750  0.000  0.750-   2 3.05   4 3.05  11 3.05  31 3.05  27 3.05   6 3.05  21 3.05  26 3.05
                            12 3.05  19 3.05   9 3.05   1 3.05
   9  0.750  0.250  0.000-   3 3.05  12 3.05  20 3.05  32 3.05  28 3.05  21 3.05  22 3.05  27 3.05
                            31 3.05  13 3.05  10 3.05   8 3.05
  10  0.750  0.500  0.250-   2 3.05   4 3.05  13 3.05  18 3.05  22 3.05  29 3.05  28 3.05   5 3.05
                            14 3.05  32 3.05   9 3.05   1 3.05
  11  0.000  0.750  0.750-   6 3.05   8 3.05  22 3.05  30 3.05   7 3.05   2 3.05  23 3.05  20 3.05
                             1 3.05  15 3.05  14 3.05  12 3.05
  12  0.000  0.000  0.000-   5 3.05   9 3.05  15 3.05  21 3.05   3 3.05  23 3.05   2 3.05  24 3.05
                            16 3.05   8 3.05  13 3.05  11 3.05
  13  0.000  0.250  0.250-   6 3.05  10 3.05  16 3.05  22 3.05   4 3.05  24 3.05   3 3.05  25 3.05
                            17 3.05   9 3.05  14 3.05  12 3.05
  14  0.000  0.500  0.500-   1 3.05   5 3.05  17 3.05  21 3.05  20 3.05  25 3.05   4 3.05   7 3.05
                            10 3.05  30 3.05  13 3.05  11 3.05
  15  0.250  0.750  0.000-  12 3.05  23 3.05  25 3.05  32 3.05  26 3.05   5 3.05  27 3.05  22 3.05
                            11 3.05  18 3.05  30 3.05  16 3.05
  16  0.250  0.000  0.250-   7 3.05  13 3.05  18 3.05  24 3.05   6 3.05  27 3.05   5 3.05  28 3.05
                            19 3.05  12 3.05  17 3.05  15 3.05
  17  0.250  0.250  0.500-  14 3.05  19 3.05  23 3.05  25 3.05  21 3.05  28 3.05   6 3.05  29 3.05
                            13 3.05  31 3.05  30 3.05  16 3.05
  18  0.500  0.750  0.250-  10 3.05  16 3.05  27 3.05  29 3.05   2 3.05   7 3.05   3 3.05  25 3.05
                             1 3.05  15 3.05  19 3.05  32 3.05
  19  0.500  0.000  0.500-   1 3.05  17 3.05  26 3.05  28 3.05   3 3.05  23 3.05   4 3.05   7 3.05
                             8 3.05  16 3.05  18 3.05  31 3.05
  20  0.750  0.500  0.750-   1 3.05   9 3.05  21 3.05  26 3.05  14 3.05  32 3.05  31 3.05  11 3.05
                            22 3.05  29 3.05   4 3.05   2 3.05
  21  0.000  0.250  0.750-  12 3.05  14 3.05  20 3.05  23 3.05   9 3.05  17 3.05   8 3.05  30 3.05
                            24 3.05   4 3.05  22 3.05   6 3.05
  22  0.000  0.500  0.000-   2 3.05  11 3.05  13 3.05  24 3.05  10 3.05  30 3.05   9 3.05  15 3.05
                            25 3.05  20 3.05  21 3.05   5 3.05
  23  0.250  0.000  0.750-  15 3.05  17 3.05  21 3.05  26 3.05  12 3.05  19 3.05  11 3.05  31 3.05
                            27 3.05   6 3.05  24 3.05   7 3.05
  24  0.250  0.250  0.000-  16 3.05  22 3.05  27 3.05  30 3.05  13 3.05  31 3.05  12 3.05  32 3.05
                            28 3.05  21 3.05  25 3.05  23 3.05
  25  0.250  0.500  0.250-   5 3.05  15 3.05  17 3.05  28 3.05  14 3.05  32 3.05  13 3.05  18 3.05
                            29 3.05  22 3.05  24 3.05   7 3.05
  26  0.500  0.750  0.750-  19 3.05  20 3.05  23 3.05  32 3.05   1 3.05  15 3.05  30 3.05   8 3.05
                             7 3.05   2 3.05  27 3.05  29 3.05
  27  0.500  0.000  0.000-   2 3.05  18 3.05  24 3.05  31 3.05  16 3.05   8 3.05   9 3.05  15 3.05
                             3 3.05  23 3.05  28 3.05  26 3.05
  28  0.500  0.250  0.250-   3 3.05  19 3.05  25 3.05  32 3.05  17 3.05   9 3.05  10 3.05  16 3.05
                             4 3.05  24 3.05  29 3.05  27 3.05
  29  0.500  0.500  0.500-   4 3.05   7 3.05  18 3.05  31 3.05  30 3.05  10 3.05  17 3.05   1 3.05
                            20 3.05  25 3.05  26 3.05  28 3.05
  30  0.250  0.500  0.750-   7 3.05  11 3.05  24 3.05  31 3.05  29 3.05  22 3.05  21 3.05  26 3.05
                            14 3.05  32 3.05  17 3.05  15 3.05
  31  0.500  0.250  0.750-   8 3.05  27 3.05  29 3.05  30 3.05  24 3.05   4 3.05  20 3.05  23 3.05
                             9 3.05  17 3.05  19 3.05  32 3.05
  32  0.500  0.500  0.000-   9 3.05  15 3.05  26 3.05  28 3.05  20 3.05  25 3.05  24 3.05   2 3.05
                            10 3.05  30 3.05  18 3.05  31 3.05
 
  LATTYP: Found a simple cubic cell.
 ALAT       =     8.6148449100
  
  Lattice vectors:
  
 A1 = (   8.6148449100,   0.0000000000,   0.0000000000)
 A2 = (   0.0000001600,   8.6148449100,   0.0000000000)
 A3 = (   0.0000001600,   0.0000001600,   8.6148449100)
 Subroutine PRICEL returns following result:
 
  LATTYP: Found a face centered cubic cell.
 ALAT       =     4.3074224950
  
  Lattice vectors:
  
 A1 = (   2.1537112675,   2.1537112275,   0.0000000000)
 A2 = (   2.1537111875,  -0.0000000400,  -2.1537112275)
 A3 = (   0.0000000000,   2.1537111875,  -2.1537112275)
 
  32 primitive cells build up your supercell.
 

Analysis of symmetry for initial positions (statically):

 Routine SETGRP: Setting up the symmetry group for a 
 simple cubic supercell.


 Subroutine GETGRP returns: Found 48 space group operations
 (whereof 48 operations were pure point group operations)
 out of a pool of 48 trial point group operations.


The static configuration has the point symmetry O_h .

Analysis of symmetry for dynamics (positions and initial velocities):

 Subroutine DYNSYM returns: Found 48 space group operations
 (whereof 48 operations were pure point group operations)
 out of a pool of 48 trial space group operations
 (whereof 48 operations were pure point group operations)
 and found also    32 'primitive' translations


The dynamic configuration has the point symmetry O_h .
 
 
 KPOINTS: Automatic mesh                          

Automatic generation of k-mesh.
 
 Subroutine IBZKPT returns following result:
 ===========================================
 
 Found     20 irreducible k-points:
 
 Following reciprocal coordinates:
            Coordinates               Weight
  0.062500  0.062500  0.062500      8.000000
  0.187500  0.062500  0.062500     24.000000
  0.312500  0.062500  0.062500     24.000000
  0.437500  0.062500  0.062500     24.000000
  0.187500  0.187500  0.062500     24.000000
  0.312500  0.187500  0.062500     48.000000
  0.437500  0.187500  0.062500     48.000000
  0.312500  0.312500  0.062500     24.000000
  0.437500  0.312500  0.062500     48.000000
  0.437500  0.437500  0.062500     24.000000
  0.187500  0.187500  0.187500      8.000000
  0.312500  0.187500  0.187500     24.000000
  0.437500  0.187500  0.187500     24.000000
  0.312500  0.312500  0.187500     24.000000
  0.437500  0.312500  0.187500     48.000000
  0.437500  0.437500  0.187500     24.000000
  0.312500  0.312500  0.312500      8.000000
  0.437500  0.312500  0.312500     24.000000
  0.437500  0.437500  0.312500     24.000000
  0.437500  0.437500  0.437500      8.000000
 
 Following cartesian coordinates:
            Coordinates               Weight
  0.007255  0.007255  0.007255      8.000000
  0.021765  0.007255  0.007255     24.000000
  0.036275  0.007255  0.007255     24.000000
  0.050784  0.007255  0.007255     24.000000
  0.021765  0.021765  0.007255     24.000000
  0.036275  0.021765  0.007255     48.000000
  0.050784  0.021765  0.007255     48.000000
  0.036275  0.036275  0.007255     24.000000
  0.050784  0.036275  0.007255     48.000000
  0.050784  0.050784  0.007255     24.000000
  0.021765  0.021765  0.021765      8.000000
  0.036275  0.021765  0.021765     24.000000
  0.050784  0.021765  0.021765     24.000000
  0.036275  0.036275  0.021765     24.000000
  0.050784  0.036275  0.021765     48.000000
  0.050784  0.050784  0.021765     24.000000
  0.036275  0.036275  0.036275      8.000000
  0.050784  0.036275  0.036275     24.000000
  0.050784  0.050784  0.036275     24.000000
  0.050784  0.050784  0.050784      8.000000
 


--------------------------------------------------------------------------------------------------------




 Dimension of arrays:
   k-Points           NKPTS =     20   number of bands    NBANDS=    212
   number of dos      NEDOS =    301   number of ions     NIONS =     32
   non local maximal  LDIM  =      6   non local SUM 2l+1 LMDIM =     18
   total plane-waves  NPLWV = 343000
   max r-space proj   IRMAX =      1   max aug-charges    IRDMAX= 211198
   dimension x,y,z NGX =    70 NGY =   70 NGZ =   70
   dimension x,y,z NGXF=   140 NGYF=  140 NGZF=  140
   support grid    NGXF=   280 NGYF=  280 NGZF=  280
   ions per type =              32
 NGX,Y,Z   is equivalent  to a cutoff of  13.51, 13.51, 13.51 a.u.
 NGXF,Y,Z  is equivalent  to a cutoff of  27.02, 27.02, 27.02 a.u.


 I would recommend the setting:
   dimension x,y,z NGX =    69 NGY =   69 NGZ =   69
 SYSTEM =  No title                                
 POSCAR =  No title                                

 Startparameter for this run:
   NWRITE =      2    write-flag & timer
   PREC   = accura    medium, high low
   ISTART =      0    job   : 0-new  1-cont  2-samecut
   ICHARG =      2    charge: 1-file 2-atom 10-const
   ISPIN  =      1    spin polarized calculation?
   LNONCOLLINEAR =      F non collinear calculations
   LSORBIT =      F    spin-orbit coupling
   INIWAV =      1    electr: 0-lowe 1-rand  2-diag
   LASPH  =      F    aspherical Exc in radial PAW
   METAGGA=      F    non-selfconsistent MetaGGA calc.

 Electronic Relaxation 1
   ENCUT  =  600.0 eV  44.10 Ry    6.64 a.u.  17.21 17.21 17.21*2*pi/ulx,y,z
   ENINI  =  600.0     initial cutoff
   ENAUG  =  412.5 eV  augmentation charge cutoff
   NELM   =     60;   NELMIN=  2; NELMDL=-12     # of ELM steps 
   EDIFF  = 0.1E-04   stopping-criterion for ELM
   LREAL  =      F    real-space projection
   LCOMPAT=      F    compatible to vasp.4.4
   LREAL_COMPAT= F    compatible to vasp.4.5.1-3
   GGA_COMPAT  = T    GGA compatible to vasp.4.4-vasp.4.6
   LMAXPAW     = -100 max onsite density
   LMAXMIX     =    2 max onsite mixed and CHGCAR
   VOSKOWN=      1    Vosko Wilk Nusair interpolation
   ROPT   =    0.00000
 Ionic relaxation
   EDIFFG = -.2E-01   stopping-criterion for IOM
   NSW    =    100    number of steps for IOM
   NBLOCK =      1;   KBLOCK =    100    inner block; outer block 
   IBRION =      2    ionic relax: 0-MD 1-quasi-New 2-CG
   NFREE  =      1    steps in history (QN), initial steepest desc. (CG)
   ISIF   =      2    stress and relaxation
   IWAVPR =     11    prediction:  0-non 1-charg 2-wave 3-comb
   ISYM   =      2    0-nonsym 1-usesym 2-fastsym
   LCORR  =      T    Harris-Foulkes like correction to forces

   POTIM  =   0.50    time-step for ionic-motion
   TEIN   =    0.0    initial temperature
   TEBEG  =    0.0;   TEEND  =   0.0 temperature during run
   SMASS  =  -3.00    Nose mass-parameter (am)
   estimated Nose-frequenzy (Omega)   =  0.10E-29 period in steps =****** mass=  -0.170E-26a.u.
   NPACO  =    256;   APACO  = 16.0  distance and # of slots for P.C.
   PSTRESS=    0.0 pullay stress

  Mass of Ions in am
   POMASS = 107.87
  Ionic Valenz
   ZVAL   =  11.00
  Atomic Wigner-Seitz radii
   RWIGS  =   1.34
   NELECT =     352.0000    total number of electrons
   NUPDOWN=      -1.0000    fix difference up-down

 DOS related values:
   EMIN   =  10.00;   EMAX   =-10.00  energy-range for DOS
   ISMEAR =     1;   SIGMA  =   0.20  broadening in eV -4-tet -1-fermi 0-gaus

 Electronic relaxation 2 (details)
   IALGO  =     48    algorithm
   LDIAG  =      T    sub-space diagonalisation
   IMIX   =      4    mixing-type and parameters
     AMIX     =   0.40;   BMIX     =  1.00
     AMIX_MAG =   1.60;   BMIX_MAG =  1.00
     AMIN     =   0.10
     WC   =   100.;   INIMIX=   1;  MIXPRE=   1

 Intra band minimization:
   WEIMIN = 0.0010     energy-eigenvalue tresh-hold
   EBREAK =  0.12E-07  absolut break condition
   DEPER  =   0.30     relativ break condition  

   TIME   =   0.10     timestep for ELM

  volume/ion in A,a.u.               =      19.98       134.83
  Fermi-wavevector in a.u.,eV,Ry     =   1.341760 24.494848  1.800321

 Second variation
   LSECVAR=     F    do a second variation
 
 Write flags
   LWAVE  =      T    write WAVECAR
   LCHARG =      F    write CHGCAR
   LVTOT  =      F    write LOCPOT, local potential
   LELF   =      F    write electronic localiz. function (ELF)
   LORBIT =      0    0 simple, 1 ext, 2 COOP (PROOUT)


 Dipole corrections
   IDIPOL =      0    1-x, 2-y, 3-z
   LDIPOL =      F    correct potential



--------------------------------------------------------------------------------------------------------


 conjugate gradient relaxation of ions
 charge density will be updated during run
 non-spin polarized calculation
 RMM-DIIS sequential band-by-band
 performe sub-space diagonalisation
    before iterative eigenvector-optimisation
 modified Broyden-mixing scheme, WC =      100.0
 initial mixing is a Kerker type mixing with AMIX =  0.4000 and BMIX =      1.0000
 Hartree-type preconditioning will be used
 using additional bands           36
 reciprocal scheme for non local part
 use partial core corrections
 calculate Harris-corrections to forces 
   (improved forces if not selfconsistent)
 use gradient corrections 
 use of overlap-Matrix (Vanderbilt PP)
 Methfessel and Paxton  Order N= 1 SIGMA  =   0.20


--------------------------------------------------------------------------------------------------------


  energy-cutoff  :      600.00
  volume of cell :      639.36
      direct lattice vectors                 reciprocal lattice vectors
     8.614844910  0.000000000  0.000000000     0.116078700 -0.000000002 -0.000000002
     0.000000160  8.614844910  0.000000000     0.000000000  0.116078700 -0.000000002
     0.000000160  0.000000160  8.614844910     0.000000000  0.000000000  0.116078700

  length of vectors
     8.614844910  8.614844910  8.614844910     0.116078700  0.116078700  0.116078700


 
 k-points in units of 2pi/SCALE and weight: Automatic mesh                          
   0.00725492  0.00725492  0.00725492       0.016
   0.02176476  0.00725492  0.00725492       0.047
   0.03627459  0.00725492  0.00725492       0.047
   0.05078443  0.00725492  0.00725492       0.047
   0.02176476  0.02176476  0.00725492       0.047
   0.03627459  0.02176476  0.00725492       0.094
   0.05078443  0.02176476  0.00725492       0.094
   0.03627459  0.03627459  0.00725492       0.047
   0.05078443  0.03627459  0.00725492       0.094
   0.05078443  0.05078443  0.00725492       0.047
   0.02176476  0.02176476  0.02176476       0.016
   0.03627459  0.02176476  0.02176476       0.047
   0.05078443  0.02176476  0.02176475       0.047
   0.03627459  0.03627459  0.02176475       0.047
   0.05078443  0.03627459  0.02176475       0.094
   0.05078443  0.05078443  0.02176475       0.047
   0.03627459  0.03627459  0.03627459       0.016
   0.05078443  0.03627459  0.03627459       0.047
   0.05078443  0.05078443  0.03627459       0.047
   0.05078443  0.05078443  0.05078443       0.016
 
 k-points in reciprocal lattice and weights: Automatic mesh                          
   0.06250000  0.06250000  0.06250000       0.016
   0.18750000  0.06250000  0.06250000       0.047
   0.31250000  0.06250000  0.06250000       0.047
   0.43750000  0.06250000  0.06250000       0.047
   0.18750000  0.18750000  0.06250000       0.047
   0.31250000  0.18750000  0.06250000       0.094
   0.43750000  0.18750000  0.06250000       0.094
   0.31250000  0.31250000  0.06250000       0.047
   0.43750000  0.31250000  0.06250000       0.094
   0.43750000  0.43750000  0.06250000       0.047
   0.18750000  0.18750000  0.18750000       0.016
   0.31250000  0.18750000  0.18750000       0.047
   0.43750000  0.18750000  0.18750000       0.047
   0.31250000  0.31250000  0.18750000       0.047
   0.43750000  0.31250000  0.18750000       0.094
   0.43750000  0.43750000  0.18750000       0.047
   0.31250000  0.31250000  0.31250000       0.016
   0.43750000  0.31250000  0.31250000       0.047
   0.43750000  0.43750000  0.31250000       0.047
   0.43750000  0.43750000  0.43750000       0.016
 
 position of ions in fractional coordinates (direct lattice) 
   0.75000000  0.75000000  0.50000000
   0.75000000  0.75000000  0.00000000
   0.75000000  0.00000000  0.25000000
   0.75000000  0.25000000  0.50000000
   0.00000000  0.75000000  0.25000000
   0.00000000  0.00000000  0.50000000
   0.25000000  0.75000000  0.50000000
   0.75000000  0.00000000  0.75000000
   0.75000000  0.25000000  0.00000000
   0.75000000  0.50000000  0.25000000
   0.00000000  0.75000000  0.75000000
   0.00000000  0.00000000  0.00000000
   0.00000000  0.25000000  0.25000000
   0.00000000  0.50000000  0.50000000
   0.25000000  0.75000000  0.00000000
   0.25000000  0.00000000  0.25000000
   0.25000000  0.25000000  0.50000000
   0.50000000  0.75000000  0.25000000
   0.50000000  0.00000000  0.50000000
   0.75000000  0.50000000  0.75000000
   0.00000000  0.25000000  0.75000000
   0.00000000  0.50000000  0.00000000
   0.25000000  0.00000000  0.75000000
   0.25000000  0.25000000  0.00000000
   0.25000000  0.50000000  0.25000000
   0.50000000  0.75000000  0.75000000
   0.50000000  0.00000000  0.00000000
   0.50000000  0.25000000  0.25000000
   0.50000000  0.50000000  0.50000000
   0.25000000  0.50000000  0.75000000
   0.50000000  0.25000000  0.75000000
   0.50000000  0.50000000  0.00000000
 
 position of ions in cartesian coordinates  (Angst):
   6.46113388  6.46113376  4.30742246
   6.46113380  6.46113368  0.00000000
   6.46113372  0.00000004  2.15371123
   6.46113380  2.15371131  4.30742246
   0.00000016  6.46113372  2.15371123
   0.00000008  0.00000008  4.30742246
   2.15371143  6.46113376  4.30742246
   6.46113380  0.00000012  6.46113368
   6.46113372  2.15371123  0.00000000
   6.46113380  4.30742249  2.15371123
   0.00000024  6.46113380  6.46113368
   0.00000000  0.00000000  0.00000000
   0.00000008  2.15371127  2.15371123
   0.00000016  4.30742254  4.30742246
   2.15371135  6.46113368  0.00000000
   2.15371127  0.00000004  2.15371123
   2.15371135  2.15371131  4.30742246
   4.30742262  6.46113372  2.15371123
   4.30742254  0.00000008  4.30742246
   6.46113388  4.30742258  6.46113368
   0.00000016  2.15371135  6.46113368
   0.00000008  4.30742246  0.00000000
   2.15371135  0.00000012  6.46113368
   2.15371127  2.15371123  0.00000000
   2.15371135  4.30742249  2.15371123
   4.30742270  6.46113380  6.46113368
   4.30742246  0.00000000  0.00000000
   4.30742253  2.15371127  2.15371123
   4.30742262  4.30742254  4.30742246
   2.15371143  4.30742258  6.46113368
   4.30742262  2.15371135  6.46113368
   4.30742254  4.30742246  0.00000000
 


--------------------------------------------------------------------------------------------------------


 k-point  1 :  0.06250.06250.0625  plane waves:  21358
 k-point  2 :  0.18750.06250.0625  plane waves:  21341
 k-point  3 :  0.31250.06250.0625  plane waves:  21339
 k-point  4 :  0.43750.06250.0625  plane waves:  21362
 k-point  5 :  0.18750.18750.0625  plane waves:  21329
 k-point  6 :  0.31250.18750.0625  plane waves:  21332
 k-point  7 :  0.43750.18750.0625  plane waves:  21326
 k-point  8 :  0.31250.31250.0625  plane waves:  21344
 k-point  9 :  0.43750.31250.0625  plane waves:  21326
 k-point 10 :  0.43750.43750.0625  plane waves:  21334
 k-point 11 :  0.18750.18750.1875  plane waves:  21308
 k-point 12 :  0.31250.18750.1875  plane waves:  21330
 k-point 13 :  0.43750.18750.1875  plane waves:  21318
 k-point 14 :  0.31250.31250.1875  plane waves:  21339
 k-point 15 :  0.43750.31250.1875  plane waves:  21347
 k-point 16 :  0.43750.43750.1875  plane waves:  21357
 k-point 17 :  0.31250.31250.3125  plane waves:  21344
 k-point 18 :  0.43750.31250.3125  plane waves:  21346
 k-point 19 :  0.43750.43750.3125  plane waves:  21345
 k-point 20 :  0.43750.43750.4375  plane waves:  21353

 maximum and minimum number of plane-waves per node :  21362 21308

 maximum number of plane-waves:  21362
 maximal index in each direction: 
   IXMAX= 17   IYMAX= 17   IZMAX= 17
   IXMIN=-17   IYMIN=-17   IZMIN=-17

 NGX is ok and might be reduce to  70
 NGY is ok and might be reduce to  70
 NGZ is ok and might be reduce to  70

 parallel 3dFFT wavefunction:
    minimum data exchange during FFTs selected (reduces bandwidth)
 parallel 3dFFT charge:
    minimum data exchange during FFTs selected (reduces bandwidth)

 For storing wavefunctions 1447.63 MBYTES are necessary
 For predicting wavefunctions  155.81 MBYTES are necessary
Broyden mixing: mesh for mixing (old mesh)
   NGX = 35   NGY = 35   NGZ = 35
  (NGX  =140   NGY  =140   NGZ  =140)
 gives a total of  42875 points
 initial charge density was supplied:
 charge density of overlapping atoms calculated
 number of electron  352.0000000 magnetization 
 keeping initial charge density in first step


--------------------------------------------------------------------------------------------------------


 Maximum index for augmentation-charges        51250 (set IRDMAX)


--------------------------------------------------------------------------------------------------------


 First call to EWALD:  gamma=   0.206
 Maximum number of real-space cells 3x 3x 3
 Maximum number of reciprocal cells 3x 3x 3

    FEWALD:  VPU time    0.01: CPU time    0.01


----------------------------------------- Iteration    1(   1)  ---------------------------------------


    POTLOK:  VPU time    0.85: CPU time    0.85
    SETDIJ:  VPU time    1.26: CPU time    1.26
    EDDIAG:  VPU time   38.49: CPU time   38.51
  RMM-DIIS:  VPU time  132.19: CPU time  132.36
    ORTHCH:  VPU time    6.05: CPU time    6.06
    DOS   :  VPU time    0.00: CPU time   -0.00
    ------------------------------------------
      LOOP:  VPU time  178.88: CPU time  179.09

 eigenvalue-minimisations  :  4240
 total energy-change (2. order) : 0.3930983E+04  (-0.1637652E+05)
 number of electron  352.0000000 magnetization 
 augmentation part   352.0000000 magnetization 

 Free energy of the ion-electron system (eV)
  ---------------------------------------------------
  alpha Z        PSCENC =      2844.10753323
  Ewald energy   TEWEN  =    -29673.60320472
  -1/2 Hartree   DENC   =     -7275.92433293
  -V(xc)+E(xc)   XCENC  =      -355.10942719
  PAW double counting   =     27861.41421209   -26376.63839568
  entropy T*S    EENTRO =        -0.00606440
  eigenvalues    EBANDS =      3709.57439827
  atomic energy  EATOM  =     33197.16788402
  ---------------------------------------------------
  free energy    TOTEN  =      3930.98260270 eV

  energy without entropy =     3930.98866710  energy(sigma->0) =     3930.98462416


--------------------------------------------------------------------------------------------------------




----------------------------------------- Iteration    1(   2)  ---------------------------------------


    EDDIAG:  VPU time   38.41: CPU time   38.47
  RMM-DIIS:  VPU time  131.26: CPU time  131.44
    ORTHCH:  VPU time    6.14: CPU time    6.15
    DOS   :  VPU time    0.00: CPU time   -0.00
    ------------------------------------------
      LOOP:  VPU time  175.87: CPU time  176.12

 eigenvalue-minimisations  :  4240
 total energy-change (2. order) :-0.3105835E+04  (-0.3466060E+04)
 number of electron  352.0000000 magnetization 
 augmentation part   352.0000000 magnetization 

 Free energy of the ion-electron system (eV)
  ---------------------------------------------------
  alpha Z        PSCENC =      2844.10753323
  Ewald energy   TEWEN  =    -29673.60320472
  -1/2 Hartree   DENC   =     -7275.92433293
  -V(xc)+E(xc)   XCENC  =      -355.10942719
  PAW double counting   =     27861.41421209   -26376.63839568
  entropy T*S    EENTRO =         0.00124815
  eigenvalues    EBANDS =       603.73233503
  atomic energy  EATOM  =     33197.16788402
  ---------------------------------------------------
  free energy    TOTEN  =       825.14785201 eV

  energy without entropy =      825.14660386  energy(sigma->0) =      825.14743596


--------------------------------------------------------------------------------------------------------




----------------------------------------- Iteration    1(   3)  ---------------------------------------


    EDDIAG:  VPU time   38.01: CPU time   38.03
  RMM-DIIS:  VPU time  132.12: CPU time  132.26
    ORTHCH:  VPU time    6.13: CPU time    6.14
    DOS   :  VPU time    0.00: CPU time   -0.00
    ------------------------------------------
      LOOP:  VPU time  176.31: CPU time  176.48

 eigenvalue-minimisations  :  4240
 total energy-change (2. order) :-0.6447017E+03  (-0.7000693E+03)
 number of electron  352.0000000 magnetization 
 augmentation part   352.0000000 magnetization 

 Free energy of the ion-electron system (eV)
  ---------------------------------------------------
  alpha Z        PSCENC =      2844.10753323
  Ewald energy   TEWEN  =    -29673.60320472
  -1/2 Hartree   DENC   =     -7275.92433293
  -V(xc)+E(xc)   XCENC  =      -355.10942719
  PAW double counting   =     27861.41421209   -26376.63839568
  entropy T*S    EENTRO =         0.00745300
  eigenvalues    EBANDS =       -40.97557608
  atomic energy  EATOM  =     33197.16788402
  ---------------------------------------------------
  free energy    TOTEN  =       180.44614574 eV

  energy without entropy =      180.43869274  energy(sigma->0) =      180.44366140


--------------------------------------------------------------------------------------------------------




----------------------------------------- Iteration    1(   4)  ---------------------------------------


    EDDIAG:  VPU time   37.87: CPU time   37.89
  RMM-DIIS:  VPU time  130.89: CPU time  130.95
    ORTHCH:  VPU time    6.06: CPU time    6.06
    DOS   :  VPU time    0.00: CPU time   -0.00
    ------------------------------------------
      LOOP:  VPU time  174.87: CPU time  174.95

 eigenvalue-minimisations  :  4240
 total energy-change (2. order) :-0.1945483E+03  (-0.1431418E+03)
 number of electron  352.0000000 magnetization 
 augmentation part   352.0000000 magnetization 

 Free energy of the ion-electron system (eV)
  ---------------------------------------------------
  alpha Z        PSCENC =      2844.10753323
  Ewald energy   TEWEN  =    -29673.60320472
  -1/2 Hartree   DENC   =     -7275.92433293
  -V(xc)+E(xc)   XCENC  =      -355.10942719
  PAW double counting   =     27861.41421209   -26376.63839568
  entropy T*S    EENTRO =         0.02964151
  eigenvalues    EBANDS =      -235.54606595
  atomic energy  EATOM  =     33197.16788402
  ---------------------------------------------------
  free energy    TOTEN  =       -14.10215561 eV

  energy without entropy =      -14.13179712  energy(sigma->0) =      -14.11203612


--------------------------------------------------------------------------------------------------------




----------------------------------------- Iteration    1(   5)  ---------------------------------------


    EDDIAG:  VPU time   38.15: CPU time   38.19
  RMM-DIIS:  VPU time  145.00: CPU time  145.17
    ORTHCH:  VPU time    5.85: CPU time    5.86
    DOS   :  VPU time    0.00: CPU time   -0.00
    ------------------------------------------
      LOOP:  VPU time  189.05: CPU time  189.26

 eigenvalue-minimisations  :  4240
 total energy-change (2. order) :-0.6368322E+02  (-0.3884408E+02)
 number of electron  352.0000000 magnetization 
 augmentation part   352.0000000 magnetization 

 Free energy of the ion-electron system (eV)
  ---------------------------------------------------
  alpha Z        PSCENC =      2844.10753323
  Ewald energy   TEWEN  =    -29673.60320472
  -1/2 Hartree   DENC   =     -7275.92433293
  -V(xc)+E(xc)   XCENC  =      -355.10942719
  PAW double counting   =     27861.41421209   -26376.63839568
  entropy T*S    EENTRO =         0.02130076
  eigenvalues    EBANDS =      -299.22094507
  atomic energy  EATOM  =     33197.16788402
  ---------------------------------------------------
  free energy    TOTEN  =       -77.78537549 eV

  energy without entropy =      -77.80667625  energy(sigma->0) =      -77.79247574


--------------------------------------------------------------------------------------------------------




----------------------------------------- Iteration    1(   6)  ---------------------------------------


    EDDIAG:  VPU time   36.52: CPU time   36.54
  RMM-DIIS:  VPU time  142.29: CPU time  142.36
    ORTHCH:  VPU time    6.01: CPU time    6.02
    DOS   :  VPU time   -0.00: CPU time   -0.00
    ------------------------------------------
      LOOP:  VPU time  184.87: CPU time  184.96

 eigenvalue-minimisations  :  4240
 total energy-change (2. order) :-0.1354354E+02  (-0.9570992E+01)
 number of electron  352.0000000 magnetization 
 augmentation part   352.0000000 magnetization 

 Free energy of the ion-electron system (eV)
  ---------------------------------------------------
  alpha Z        PSCENC =      2844.10753323
  Ewald energy   TEWEN  =    -29673.60320472
  -1/2 Hartree   DENC   =     -7275.92433293
  -V(xc)+E(xc)   XCENC  =      -355.10942719
  PAW double counting   =     27861.41421209   -26376.63839568
  entropy T*S    EENTRO =        -0.01248540
  eigenvalues    EBANDS =      -312.73070130
  atomic energy  EATOM  =     33197.16788402
  ---------------------------------------------------
  free energy    TOTEN  =       -91.32891787 eV

  energy without entropy =      -91.31643247  energy(sigma->0) =      -91.32475607


--------------------------------------------------------------------------------------------------------




----------------------------------------- Iteration    1(   7)  ---------------------------------------


    EDDIAG:  VPU time   37.63: CPU time   37.65
  RMM-DIIS:  VPU time  137.77: CPU time  137.83
    ORTHCH:  VPU time    6.19: CPU time    6.19
    DOS   :  VPU time    0.00: CPU time   -0.00
    ------------------------------------------
      LOOP:  VPU time  181.64: CPU time  181.73

 eigenvalue-minimisations  :  4240
 total energy-change (2. order) :-0.2890904E+01  (-0.2346845E+01)
 number of electron  352.0000000 magnetization 
 augmentation part   352.0000000 magnetization 

 Free energy of the ion-electron system (eV)
  ---------------------------------------------------
  alpha Z        PSCENC =      2844.10753323
  Ewald energy   TEWEN  =    -29673.60320472
  -1/2 Hartree   DENC   =     -7275.92433293
  -V(xc)+E(xc)   XCENC  =      -355.10942719
  PAW double counting   =     27861.41421209   -26376.63839568
  entropy T*S    EENTRO =        -0.01115507
  eigenvalues    EBANDS =      -315.62293565
  atomic energy  EATOM  =     33197.16788402
  ---------------------------------------------------
  free energy    TOTEN  =       -94.21982190 eV

  energy without entropy =      -94.20866683  energy(sigma->0) =      -94.21610354


--------------------------------------------------------------------------------------------------------




----------------------------------------- Iteration    1(   8)  ---------------------------------------


    EDDIAG:  VPU time   38.32: CPU time   38.34
  RMM-DIIS:  VPU time  145.25: CPU time  145.31
    ORTHCH:  VPU time    5.97: CPU time    5.97
    DOS   :  VPU time    0.00: CPU time   -0.00
    ------------------------------------------
      LOOP:  VPU time  189.59: CPU time  189.68

 eigenvalue-minimisations  :  4240
 total energy-change (2. order) :-0.6207472E+00  (-0.5733005E+00)
 number of electron  352.0000000 magnetization 
 augmentation part   352.0000000 magnetization 

 Free energy of the ion-electron system (eV)
  ---------------------------------------------------
  alpha Z        PSCENC =      2844.10753323
  Ewald energy   TEWEN  =    -29673.60320472
  -1/2 Hartree   DENC   =     -7275.92433293
  -V(xc)+E(xc)   XCENC  =      -355.10942719
  PAW double counting   =     27861.41421209   -26376.63839568
  entropy T*S    EENTRO =        -0.01116109
  eigenvalues    EBANDS =      -316.24367685
  atomic energy  EATOM  =     33197.16788402
  ---------------------------------------------------
  free energy    TOTEN  =       -94.84056911 eV

  energy without entropy =      -94.82940802  energy(sigma->0) =      -94.83684875


--------------------------------------------------------------------------------------------------------




----------------------------------------- Iteration    1(   9)  ---------------------------------------


    EDDIAG:  VPU time   38.28: CPU time   38.32
  RMM-DIIS:  VPU time  570.37: CPU time  570.80
    ORTHCH:  VPU time    8.75: CPU time    8.75
    DOS   :  VPU time    0.00: CPU time   -0.00
    ------------------------------------------
      LOOP:  VPU time  617.44: CPU time  617.93

 eigenvalue-minimisations  :  8478
 total energy-change (2. order) :-0.1929677E+00  (-0.1807221E+00)
 number of electron  352.0000000 magnetization 
 augmentation part   352.0000000 magnetization 

 Free energy of the ion-electron system (eV)
  ---------------------------------------------------
  alpha Z        PSCENC =      2844.10753323
  Ewald energy   TEWEN  =    -29673.60320472
  -1/2 Hartree   DENC   =     -7275.92433293
  -V(xc)+E(xc)   XCENC  =      -355.10942719
  PAW double counting   =     27861.41421209   -26376.63839568
  entropy T*S    EENTRO =        -0.01117276
  eigenvalues    EBANDS =      -316.43663291
  atomic energy  EATOM  =     33197.16788402
  ---------------------------------------------------
  free energy    TOTEN  =       -95.03353684 eV

  energy without entropy =      -95.02236408  energy(sigma->0) =      -95.02981259


--------------------------------------------------------------------------------------------------------




----------------------------------------- Iteration    1(  10)  ---------------------------------------


    EDDIAG:  VPU time   57.84: CPU time   57.89
  RMM-DIIS:  VPU time  663.53: CPU time  664.03
    ORTHCH:  VPU time    8.51: CPU time    8.52
    DOS   :  VPU time    0.00: CPU time   -0.00
    ------------------------------------------
      LOOP:  VPU time  729.93: CPU time  730.50

 eigenvalue-minimisations  :  8467
 total energy-change (2. order) :-0.1653762E-01  (-0.1545256E-01)
 number of electron  352.0000000 magnetization 
 augmentation part   352.0000000 magnetization 

 Free energy of the ion-electron system (eV)
  ---------------------------------------------------
  alpha Z        PSCENC =      2844.10753323
  Ewald energy   TEWEN  =    -29673.60320472
  -1/2 Hartree   DENC   =     -7275.92433293
  -V(xc)+E(xc)   XCENC  =      -355.10942719
  PAW double counting   =     27861.41421209   -26376.63839568
  entropy T*S    EENTRO =        -0.01117616
  eigenvalues    EBANDS =      -316.45316713
  atomic energy  EATOM  =     33197.16788402
  ---------------------------------------------------
  free energy    TOTEN  =       -95.05007446 eV

  energy without entropy =      -95.03889830  energy(sigma->0) =      -95.04634907


--------------------------------------------------------------------------------------------------------




----------------------------------------- Iteration    1(  11)  ---------------------------------------


    EDDIAG:  VPU time   56.72: CPU time   56.77
  RMM-DIIS:  VPU time  626.63: CPU time  627.09
    ORTHCH:  VPU time    8.49: CPU time    8.50
    DOS   :  VPU time    0.00: CPU time   -0.00
    ------------------------------------------
      LOOP:  VPU time  691.90: CPU time  692.42

 eigenvalue-minimisations  :  8135
 total energy-change (2. order) :-0.6453351E-03  (-0.5858967E-03)
 number of electron  352.0000000 magnetization 
 augmentation part   352.0000000 magnetization 

 Free energy of the ion-electron system (eV)
  ---------------------------------------------------
  alpha Z        PSCENC =      2844.10753323
  Ewald energy   TEWEN  =    -29673.60320472
  -1/2 Hartree   DENC   =     -7275.92433293
  -V(xc)+E(xc)   XCENC  =      -355.10942719
  PAW double counting   =     27861.41421209   -26376.63839568
  entropy T*S    EENTRO =        -0.01117645
  eigenvalues    EBANDS =      -316.45381217
  atomic energy  EATOM  =     33197.16788402
  ---------------------------------------------------
  free energy    TOTEN  =       -95.05071980 eV

  energy without entropy =      -95.03954334  energy(sigma->0) =      -95.04699431


--------------------------------------------------------------------------------------------------------




----------------------------------------- Iteration    1(  12)  ---------------------------------------


    EDDIAG:  VPU time   57.10: CPU time   57.15
  RMM-DIIS:  VPU time  554.23: CPU time  554.64
    ORTHCH:  VPU time    8.43: CPU time    8.43
    DOS   :  VPU time    0.00: CPU time   -0.00
    CHARGE:  VPU time   27.64: CPU time   27.66
    MIXING:  VPU time    0.02: CPU time    0.02
    ------------------------------------------
      LOOP:  VPU time  647.47: CPU time  647.96

 eigenvalue-minimisations  :  6967
 total energy-change (2. order) :-0.6088037E-04  (-0.5875567E-04)
 number of electron  352.0000004 magnetization 
 augmentation part   164.0771291 magnetization 

 Broyden mixing:
  rms(total) = 0.14272E+01    rms(broyden)= 0.14272E+01
  rms(prec ) = 0.21485E+01
  weight for this iteration     100.00

 Free energy of the ion-electron system (eV)
  ---------------------------------------------------
  alpha Z        PSCENC =      2844.10753323
  Ewald energy   TEWEN  =    -29673.60320472
  -1/2 Hartree   DENC   =     -7275.92433293
  -V(xc)+E(xc)   XCENC  =      -355.10942719
  PAW double counting   =     27861.41421209   -26376.63839568
  entropy T*S    EENTRO =        -0.01117647
  eigenvalues    EBANDS =      -316.45387303
  atomic energy  EATOM  =     33197.16788402
  ---------------------------------------------------
  free energy    TOTEN  =       -95.05078068 eV

  energy without entropy =      -95.03960420  energy(sigma->0) =      -95.04705518


--------------------------------------------------------------------------------------------------------




----------------------------------------- Iteration    1(  13)  ---------------------------------------


    POTLOK:  VPU time    1.17: CPU time    1.17
    SETDIJ:  VPU time    2.31: CPU time    2.31
    EDDIAG:  VPU time   57.02: CPU time   57.06
  RMM-DIIS:  VPU time  657.15: CPU time  657.62
    ORTHCH:  VPU time    8.03: CPU time    8.04
    DOS   :  VPU time    0.00: CPU time   -0.00
    CHARGE:  VPU time   26.86: CPU time   26.88
    MIXING:  VPU time    0.02: CPU time    0.02
    ------------------------------------------
      LOOP:  VPU time  752.61: CPU time  753.16

 eigenvalue-minimisations  :  8480
 total energy-change (2. order) : 0.5876577E+01  (-0.2452455E+01)
 number of electron  352.0000004 magnetization 
 augmentation part   169.1920799 magnetization 

 Broyden mixing:
  rms(total) = 0.26937E+00    rms(broyden)= 0.26936E+00
  rms(prec ) = 0.36251E+00
  weight for this iteration     100.00

 eigenvalues of (default mixing * dielectric matrix)
  average eigenvalue GAMMA=   1.0315
  1.0315

 Free energy of the ion-electron system (eV)
  ---------------------------------------------------
  alpha Z        PSCENC =      2844.10753323
  Ewald energy   TEWEN  =    -29673.60320472
  -1/2 Hartree   DENC   =     -6991.03462066
  -V(xc)+E(xc)   XCENC  =      -365.50065295
  PAW double counting   =     27409.83662727   -25943.15668866
  entropy T*S    EENTRO =        -0.01402200
  eigenvalues    EBANDS =      -566.97705954
  atomic energy  EATOM  =     33197.16788402
  ---------------------------------------------------
  free energy    TOTEN  =       -89.17420400 eV

  energy without entropy =      -89.16018199  energy(sigma->0) =      -89.16953000


--------------------------------------------------------------------------------------------------------




----------------------------------------- Iteration    1(  14)  ---------------------------------------


    POTLOK:  VPU time    1.17: CPU time    1.17
    SETDIJ:  VPU time    2.16: CPU time    2.16
    EDDIAG:  VPU time   55.07: CPU time   55.12
  RMM-DIIS:  VPU time  667.72: CPU time  668.22
    ORTHCH:  VPU time    8.42: CPU time    8.42
    DOS   :  VPU time    0.00: CPU time   -0.00
    CHARGE:  VPU time   27.42: CPU time   27.44
    MIXING:  VPU time    0.02: CPU time    0.03
    ------------------------------------------
      LOOP:  VPU time  762.03: CPU time  762.62

 eigenvalue-minimisations  :  8480
 total energy-change (2. order) : 0.1063629E+00  (-0.3710662E-01)
 number of electron  352.0000004 magnetization 
 augmentation part   169.4739959 magnetization 

 Broyden mixing:
  rms(total) = 0.15000E+00    rms(broyden)= 0.15000E+00
  rms(prec ) = 0.18824E+00
  weight for this iteration     100.00

 eigenvalues of (default mixing * dielectric matrix)
  average eigenvalue GAMMA=   1.7011
  1.0509  2.3513

 Free energy of the ion-electron system (eV)
  ---------------------------------------------------
  alpha Z        PSCENC =      2844.10753323
  Ewald energy   TEWEN  =    -29673.60320472
  -1/2 Hartree   DENC   =     -6956.71111286
  -V(xc)+E(xc)   XCENC  =      -366.88836085
  PAW double counting   =     27449.51639763   -25998.16151049
  entropy T*S    EENTRO =        -0.01423788
  eigenvalues    EBANDS =      -584.48122918
  atomic energy  EATOM  =     33197.16788402
  ---------------------------------------------------
  free energy    TOTEN  =       -89.06784109 eV

  energy without entropy =      -89.05360321  energy(sigma->0) =      -89.06309513


--------------------------------------------------------------------------------------------------------




----------------------------------------- Iteration    1(  15)  ---------------------------------------


    POTLOK:  VPU time    1.19: CPU time    1.19
    SETDIJ:  VPU time    2.29: CPU time    2.29
    EDDIAG:  VPU time   56.99: CPU time   57.04
  RMM-DIIS:  VPU time  661.08: CPU time  661.56
    ORTHCH:  VPU time    8.44: CPU time    8.45
    DOS   :  VPU time    0.00: CPU time   -0.00
    CHARGE:  VPU time   27.14: CPU time   27.16
    MIXING:  VPU time    0.03: CPU time    0.03
    ------------------------------------------
      LOOP:  VPU time  757.21: CPU time  757.77

 eigenvalue-minimisations  :  8480
 total energy-change (2. order) : 0.5256540E-01  (-0.4870403E-02)
 number of electron  352.0000004 magnetization 
 augmentation part   169.3844201 magnetization 

 Broyden mixing:
  rms(total) = 0.23443E-01    rms(broyden)= 0.23441E-01
  rms(prec ) = 0.35956E-01
  weight for this iteration     100.00

 eigenvalues of (default mixing * dielectric matrix)
  average eigenvalue GAMMA=   1.7473
  2.8292  1.1101  1.3024

 Free energy of the ion-electron system (eV)
  ---------------------------------------------------
  alpha Z        PSCENC =      2844.10753323
  Ewald energy   TEWEN  =    -29673.60320472
  -1/2 Hartree   DENC   =     -6931.44401174
  -V(xc)+E(xc)   XCENC  =      -367.98034583
  PAW double counting   =     27561.30396456   -26128.64727865
  entropy T*S    EENTRO =        -0.01414878
  eigenvalues    EBANDS =      -589.90566777
  atomic energy  EATOM  =     33197.16788402
  ---------------------------------------------------
  free energy    TOTEN  =       -89.01527569 eV

  energy without entropy =      -89.00112691  energy(sigma->0) =      -89.01055943


--------------------------------------------------------------------------------------------------------




----------------------------------------- Iteration    1(  16)  ---------------------------------------


    POTLOK:  VPU time    1.17: CPU time    1.18
    SETDIJ:  VPU time    2.20: CPU time    2.20
    EDDIAG:  VPU time   55.41: CPU time   55.46
  RMM-DIIS:  VPU time  665.56: CPU time  666.06
    ORTHCH:  VPU time    8.39: CPU time    8.40
    DOS   :  VPU time    0.00: CPU time   -0.00
    CHARGE:  VPU time   27.48: CPU time   27.51
    MIXING:  VPU time    0.03: CPU time    0.03
    ------------------------------------------
      LOOP:  VPU time  760.31: CPU time  760.88

 eigenvalue-minimisations  :  8480
 total energy-change (2. order) :-0.3090067E-03  (-0.1566092E-02)
 number of electron  352.0000004 magnetization 
 augmentation part   169.5105378 magnetization 

 Broyden mixing:
  rms(total) = 0.13565E-01    rms(broyden)= 0.13565E-01
  rms(prec ) = 0.20060E-01
  weight for this iteration     100.00

 eigenvalues of (default mixing * dielectric matrix)
  average eigenvalue GAMMA=   1.8139
  2.8350  2.4125  1.0040  1.0040

 Free energy of the ion-electron system (eV)
  ---------------------------------------------------
  alpha Z        PSCENC =      2844.10753323
  Ewald energy   TEWEN  =    -29673.60320472
  -1/2 Hartree   DENC   =     -6921.75839097
  -V(xc)+E(xc)   XCENC  =      -368.35374392
  PAW double counting   =     27569.45033136   -26138.34374701
  entropy T*S    EENTRO =        -0.01428031
  eigenvalues    EBANDS =      -597.66796638
  atomic energy  EATOM  =     33197.16788402
  ---------------------------------------------------
  free energy    TOTEN  =       -89.01558469 eV

  energy without entropy =      -89.00130439  energy(sigma->0) =      -89.01082459


--------------------------------------------------------------------------------------------------------




----------------------------------------- Iteration    1(  17)  ---------------------------------------


    POTLOK:  VPU time    1.24: CPU time    1.24
    SETDIJ:  VPU time    2.30: CPU time    2.30
    EDDIAG:  VPU time   56.97: CPU time   57.02
  RMM-DIIS:  VPU time  595.89: CPU time  596.30
    ORTHCH:  VPU time    8.40: CPU time    8.40
    DOS   :  VPU time    0.00: CPU time   -0.00
    CHARGE:  VPU time   28.57: CPU time   28.59
    MIXING:  VPU time    0.03: CPU time    0.03
    ------------------------------------------
      LOOP:  VPU time  693.45: CPU time  693.95

 eigenvalue-minimisations  :  8480
 total energy-change (2. order) : 0.6504058E-03  (-0.5612319E-04)
 number of electron  352.0000004 magnetization 
 augmentation part   169.4856542 magnetization 

 Broyden mixing:
  rms(total) = 0.33067E-02    rms(broyden)= 0.33066E-02
  rms(prec ) = 0.48795E-02
  weight for this iteration     100.00

 eigenvalues of (default mixing * dielectric matrix)
  average eigenvalue GAMMA=   1.7774
  2.8635  2.4199  1.0249  1.0249  1.5535

 Free energy of the ion-electron system (eV)
  ---------------------------------------------------
  alpha Z        PSCENC =      2844.10753323
  Ewald energy   TEWEN  =    -29673.60320472
  -1/2 Hartree   DENC   =     -6925.11152708
  -V(xc)+E(xc)   XCENC  =      -368.23302111
  PAW double counting   =     27574.88646286   -26142.35194229
  entropy T*S    EENTRO =        -0.01424211
  eigenvalues    EBANDS =      -595.86287708
  atomic energy  EATOM  =     33197.16788402
  ---------------------------------------------------
  free energy    TOTEN  =       -89.01493429 eV

  energy without entropy =      -89.00069218  energy(sigma->0) =      -89.01018692


--------------------------------------------------------------------------------------------------------




----------------------------------------- Iteration    1(  18)  ---------------------------------------


    POTLOK:  VPU time    1.21: CPU time    1.21
    SETDIJ:  VPU time    2.38: CPU time    2.38
    EDDIAG:  VPU time   54.18: CPU time   54.22
  RMM-DIIS:  VPU time  642.71: CPU time  643.18
    ORTHCH:  VPU time    8.30: CPU time    8.31
    DOS   :  VPU time    0.00: CPU time   -0.00
    CHARGE:  VPU time   26.88: CPU time   26.91
    MIXING:  VPU time    0.03: CPU time    0.03
    ------------------------------------------
      LOOP:  VPU time  735.74: CPU time  736.29

 eigenvalue-minimisations  :  8294
 total energy-change (2. order) : 0.4097127E-04  (-0.1361486E-04)
 number of electron  352.0000004 magnetization 
 augmentation part   169.4743646 magnetization 

 Broyden mixing:
  rms(total) = 0.31801E-03    rms(broyden)= 0.31787E-03
  rms(prec ) = 0.44410E-03
  weight for this iteration     100.00

 eigenvalues of (default mixing * dielectric matrix)
  average eigenvalue GAMMA=   1.8404
  2.8316  2.8316  2.3548  0.9695  1.0273  1.0273

 Free energy of the ion-electron system (eV)
  ---------------------------------------------------
  alpha Z        PSCENC =      2844.10753323
  Ewald energy   TEWEN  =    -29673.60320472
  -1/2 Hartree   DENC   =     -6925.80212810
  -V(xc)+E(xc)   XCENC  =      -368.20847817
  PAW double counting   =     27575.80502535   -26143.18579182
  entropy T*S    EENTRO =        -0.01422971
  eigenvalues    EBANDS =      -595.28150340
  atomic energy  EATOM  =     33197.16788402
  ---------------------------------------------------
  free energy    TOTEN  =       -89.01489332 eV

  energy without entropy =      -89.00066361  energy(sigma->0) =      -89.01015008


--------------------------------------------------------------------------------------------------------




----------------------------------------- Iteration    1(  19)  ---------------------------------------


    POTLOK:  VPU time    1.17: CPU time    1.17
    SETDIJ:  VPU time    2.25: CPU time    2.25
    EDDIAG:  VPU time   53.36: CPU time   53.40
  RMM-DIIS:  VPU time  263.77: CPU time  263.96
    ORTHCH:  VPU time    8.10: CPU time    8.10
    DOS   :  VPU time    0.00: CPU time   -0.00
    ------------------------------------------
      LOOP:  VPU time  328.70: CPU time  328.93

 eigenvalue-minimisations  :  3688
 total energy-change (2. order) : 0.5779715E-05  (-0.1957808E-06)
 number of electron  352.0000004 magnetization 
 augmentation part   169.4743646 magnetization 

 Free energy of the ion-electron system (eV)
  ---------------------------------------------------
  alpha Z        PSCENC =      2844.10753323
  Ewald energy   TEWEN  =    -29673.60320472
  -1/2 Hartree   DENC   =     -6925.87806964
  -V(xc)+E(xc)   XCENC  =      -368.20571574
  PAW double counting   =     27575.25843637   -26142.61476607
  entropy T*S    EENTRO =        -0.01422873
  eigenvalues    EBANDS =      -595.23275626
  atomic energy  EATOM  =     33197.16788402
  ---------------------------------------------------
  free energy    TOTEN  =       -89.01488754 eV

  energy without entropy =      -89.00065880  energy(sigma->0) =      -89.01014463


--------------------------------------------------------------------------------------------------------




 average (electrostatic) potential at core
  the test charge radii are     1.1249
  (the norm of the test charge is              1.0000)
       1 -42.2113       2 -42.2113       3 -42.2113       4 -42.2113       5 -42.2113
       6 -42.2113       7 -42.2113       8 -42.2113       9 -42.2113      10 -42.2113
      11 -42.2113      12 -42.2113      13 -42.2113      14 -42.2113      15 -42.2113
      16 -42.2113      17 -42.2113      18 -42.2113      19 -42.2113      20 -42.2113
      21 -42.2113      22 -42.2113      23 -42.2113      24 -42.2113      25 -42.2113
      26 -42.2113      27 -42.2113      28 -42.2113      29 -42.2113      30 -42.2113
      31 -42.2113      32 -42.2113
 
 
 
 E-fermi :   2.2695     XC(G=0): -11.2896     alpha+bet : -7.2878
   add alpha+bet to get absolut eigen values

 k-point   1 :       0.0625    0.0625    0.0625
  band No.  band energies     occupation 
      1      -4.4240      2.00000
      2      -3.3025      2.00000
      3      -3.3025      2.00000
      4      -3.3025      2.00000
      5      -3.2928      2.00000
      6      -3.2834      2.00000
      7      -3.2834      2.00000
      8      -3.2834      2.00000
      9      -3.2181      2.00000
     10      -3.2181      2.00000
     11      -3.2181      2.00000
     12      -2.9574      2.00000
     13      -2.9574      2.00000
     14      -2.9574      2.00000
     15      -2.8804      2.00000
     16      -2.8804      2.00000
     17      -2.8804      2.00000
     18      -2.7374      2.00000
     19      -2.7374      2.00000
     20      -2.7374      2.00000
     21      -2.7277      2.00000
     22      -2.7277      2.00000
     23      -2.7277      2.00000
     24      -2.7277      2.00000
     25      -2.7277      2.00000
     26      -2.7277      2.00000
     27      -2.6276      2.00000
     28      -2.6276      2.00000
     29      -2.6276      2.00000
     30      -2.5401      2.00000
     31      -2.5401      2.00000
     32      -2.5401      2.00000
     33      -2.5168      2.00000
     34      -2.5168      2.00000
     35      -2.5168      2.00000
     36      -2.5035      2.00000
     37      -2.5035      2.00000
     38      -2.5035      2.00000
     39      -2.5035      2.00000
     40      -2.5035      2.00000
     41      -2.5035      2.00000
     42      -2.3822      2.00000
     43      -2.3822      2.00000
     44      -2.3822      2.00000
     45      -2.3822      2.00000
     46      -2.3822      2.00000
     47      -2.3822      2.00000
     48      -2.3145      2.00000
     49      -2.3145      2.00000
     50      -2.3145      2.00000
     51      -2.3121      2.00000
     52      -2.3121      2.00000
     53      -2.3121      2.00000
     54      -2.3121      2.00000
     55      -2.3121      2.00000
     56      -2.3121      2.00000
     57      -2.2709      2.00000
     58      -2.2709      2.00000
     59      -2.2709      2.00000
     60      -2.1547      2.00000
     61      -2.1547      2.00000
     62      -2.1547      2.00000
     63      -2.1547      2.00000
     64      -2.1547      2.00000
     65      -2.1547      2.00000
     66      -2.1150      2.00000
     67      -2.1150      2.00000
     68      -2.1150      2.00000
     69      -2.1031      2.00000
     70      -2.1031      2.00000
     71      -2.1009      2.00000
     72      -2.0955      2.00000
     73      -2.0955      2.00000
     74      -2.0955      2.00000
     75      -2.0890      2.00000
     76      -2.0890      2.00000
     77      -1.9847      2.00000
     78      -1.9847      2.00000
     79      -1.9847      2.00000
     80      -1.9847      2.00000
     81      -1.9847      2.00000
     82      -1.9847      2.00000
     83      -1.9635      2.00000
     84      -1.9635      2.00000
     85      -1.9635      2.00000
     86      -1.9253      2.00000
     87      -1.9253      2.00000
     88      -1.9253      2.00000
     89      -1.6223      2.00000
     90      -1.6223      2.00000
     91      -1.6223      2.00000
     92      -1.5720      2.00000
     93      -1.5720      2.00000
     94      -1.5720      2.00000
     95      -1.5662      2.00000
     96      -1.5662      2.00000
     97      -1.5662      2.00000
     98      -1.5616      2.00000
     99      -1.5616      2.00000
    100      -1.5616      2.00000
    101      -1.5616      2.00000
    102      -1.5616      2.00000
    103      -1.5616      2.00000
    104      -1.5081      2.00000
    105      -1.5081      2.00000
    106      -1.5081      2.00000
    107      -1.4091      2.00000
    108      -1.4091      2.00000
    109      -1.4091      2.00000
    110      -1.3650      2.00000
    111      -1.3650      2.00000
    112      -1.3650      2.00000
    113      -1.3567      2.00000
    114      -1.3567      2.00000
    115      -1.3567      2.00000
    116      -1.3195      2.00000
    117      -1.3195      2.00000
    118      -1.2824      2.00000
    119      -1.2824      2.00000
    120      -1.2824      2.00000
    121      -1.2824      2.00000
    122      -1.2824      2.00000
    123      -1.2824      2.00000
    124      -1.2692      2.00000
    125      -1.2692      2.00000
    126      -1.2692      2.00000
    127      -1.2692      2.00000
    128      -1.2692      2.00000
    129      -1.2692      2.00000
    130      -1.2567      2.00000
    131      -1.2567      2.00000
    132      -1.2567      2.00000
    133      -1.2103      2.00000
    134      -1.2103      2.00000
    135      -1.2103      2.00000
    136      -1.0571      2.00000
    137      -1.0571      2.00000
    138      -1.0571      2.00000
    139      -0.9977      2.00000
    140      -0.9977      2.00000
    141      -0.9977      2.00000
    142      -0.8937      2.00000
    143      -0.8937      2.00000
    144      -0.8937      2.00000
    145      -0.7594      2.00000
    146      -0.7594      2.00000
    147      -0.7594      2.00000
    148      -0.7509      2.00000
    149      -0.7509      2.00000
    150      -0.7509      2.00000
    151      -0.7266      2.00000
    152      -0.7266      2.00000
    153      -0.7145      2.00000
    154      -0.7145      2.00000
    155      -0.7145      2.00000
    156      -0.5878      2.00000
    157      -0.5878      2.00000
    158      -0.5878      2.00000
    159      -0.5693      2.00000
    160      -0.5693      2.00000
    161      -0.5693      2.00000
    162      -0.5693      2.00000
    163      -0.5693      2.00000
    164      -0.5693      2.00000
    165      -0.5673      2.00000
    166      -0.5673      2.00000
    167      -0.5673      2.00000
    168       1.0638      2.00000
    169       1.0638      2.00000
    170       1.0638      2.00000
    171       1.6026      2.00003
    172       1.6026      2.00003
    173       1.6026      2.00003
    174       1.6026      2.00003
    175       1.6026      2.00003
    176       1.6026      2.00003
    177       1.9902      2.06379
    178       2.1568      1.80616
    179       2.1568      1.80616
    180       2.1568      1.80616
    181       2.2650      1.03879
    182       2.2650      1.03879
    183       2.2650      1.03879
    184       3.9455     -0.00000
    185       3.9455     -0.00000
    186       3.9455     -0.00000
    187       5.0839     -0.00000
    188       5.0839     -0.00000
    189       5.0839     -0.00000
    190       5.3307     -0.00000
    191       7.1048     -0.00000
    192       7.1048     -0.00000
    193       7.1048     -0.00000
    194       7.1048     -0.00000
    195       7.1048     -0.00000
    196       7.1050     -0.00000
    197       7.7275     -0.00000
    198       7.7275     -0.00000
    199       7.7275     -0.00000
    200       7.7275     -0.00000
    201       7.7299      0.00000
    202       7.7354      0.00000
    203       7.9358      0.00000
    204       7.9370      0.00000
    205       7.9431      0.00000
    206       8.5495      0.00000
    207       8.5511      0.00000
    208       8.5523      0.00000
    209       8.5594      0.00000
    210       9.1386      0.00000
    211       9.7071      0.00000
    212       9.9616      0.00000

 k-point   2 :       0.1875    0.0625    0.0625
  band No.  band energies     occupation 
      1      -4.3522      2.00000
      2      -3.2759      2.00000
      3      -3.2696      2.00000
      4      -3.2693      2.00000
      5      -3.2693      2.00000
      6      -3.2513      2.00000
      7      -3.2513      2.00000
      8      -3.2423      2.00000
      9      -3.1983      2.00000
     10      -3.1865      2.00000
     11      -3.1865      2.00000
     12      -3.1625      2.00000
     13      -2.9154      2.00000
     14      -2.9154      2.00000
     15      -2.9044      2.00000
     16      -2.8431      2.00000
     17      -2.8420      2.00000
     18      -2.8420      2.00000
     19      -2.7888      2.00000
     20      -2.7888      2.00000
     21      -2.7138      2.00000
     22      -2.7138      2.00000
     23      -2.7092      2.00000
     24      -2.7092      2.00000
     25      -2.7001      2.00000
     26      -2.7001      2.00000
     27      -2.6915      2.00000
     28      -2.6598      2.00000
     29      -2.6598      2.00000
     30      -2.6529      2.00000
     31      -2.6089      2.00000
     32      -2.6089      2.00000
     33      -2.5838      2.00000
     34      -2.5838      2.00000
     35      -2.5735      2.00000
     36      -2.5735      2.00000
     37      -2.5371      2.00000
     38      -2.5371      2.00000
     39      -2.5180      2.00000
     40      -2.4975      2.00000
     41      -2.4975      2.00000
     42      -2.4894      2.00000
     43      -2.4894      2.00000
     44      -2.3812      2.00000
     45      -2.3812      2.00000
     46      -2.3803      2.00000
     47      -2.3803      2.00000
     48      -2.3283      2.00000
     49      -2.3283      2.00000
     50      -2.3251      2.00000
     51      -2.3251      2.00000
     52      -2.3246      2.00000
     53      -2.3246      2.00000
     54      -2.2729      2.00000
     55      -2.2577      2.00000
     56      -2.2577      2.00000
     57      -2.2396      2.00000
     58      -2.2396      2.00000
     59      -2.2204      2.00000
     60      -2.1706      2.00000
     61      -2.1706      2.00000
     62      -2.1513      2.00000
     63      -2.1513      2.00000
     64      -2.1361      2.00000
     65      -2.1260      2.00000
     66      -2.1260      2.00000
     67      -2.1223      2.00000
     68      -2.1011      2.00000
     69      -2.0874      2.00000
     70      -2.0868      2.00000
     71      -2.0868      2.00000
     72      -2.0844      2.00000
     73      -2.0844      2.00000
     74      -2.0706      2.00000
     75      -2.0706      2.00000
     76      -2.0680      2.00000
     77      -2.0664      2.00000
     78      -2.0650      2.00000
     79      -2.0273      2.00000
     80      -2.0273      2.00000
     81      -1.9690      2.00000
     82      -1.9690      2.00000
     83      -1.9073      2.00000
     84      -1.9073      2.00000
     85      -1.8501      2.00000
     86      -1.8501      2.00000
     87      -1.8114      2.00000
     88      -1.7925      2.00000
     89      -1.7121      2.00000
     90      -1.7060      2.00000
     91      -1.7060      2.00000
     92      -1.6820      2.00000
     93      -1.6497      2.00000
     94      -1.6423      2.00000
     95      -1.6400      2.00000
     96      -1.6400      2.00000
     97      -1.5902      2.00000
     98      -1.5902      2.00000
     99      -1.5726      2.00000
    100      -1.5726      2.00000
    101      -1.5163      2.00000
    102      -1.5163      2.00000
    103      -1.5113      2.00000
    104      -1.5113      2.00000
    105      -1.4876      2.00000
    106      -1.4876      2.00000
    107      -1.4691      2.00000
    108      -1.4691      2.00000
    109      -1.4563      2.00000
    110      -1.4089      2.00000
    111      -1.4089      2.00000
    112      -1.3746      2.00000
    113      -1.3746      2.00000
    114      -1.3427      2.00000
    115      -1.3085      2.00000
    116      -1.2954      2.00000
    117      -1.2954      2.00000
    118      -1.2878      2.00000
    119      -1.2878      2.00000
    120      -1.2806      2.00000
    121      -1.2806      2.00000
    122      -1.2587      2.00000
    123      -1.2438      2.00000
    124      -1.2257      2.00000
    125      -1.2257      2.00000
    126      -1.2184      2.00000
    127      -1.1759      2.00000
    128      -1.1759      2.00000
    129      -1.1600      2.00000
    130      -1.1600      2.00000
    131      -1.1588      2.00000
    132      -1.1588      2.00000
    133      -1.1317      2.00000
    134      -1.1247      2.00000
    135      -1.1247      2.00000
    136      -1.1144      2.00000
    137      -1.0085      2.00000
    138      -1.0085      2.00000
    139      -0.9827      2.00000
    140      -0.9827      2.00000
    141      -0.9379      2.00000
    142      -0.8568      2.00000
    143      -0.8444      2.00000
    144      -0.8444      2.00000
    145      -0.7840      2.00000
    146      -0.7840      2.00000
    147      -0.7706      2.00000
    148      -0.7663      2.00000
    149      -0.7653      2.00000
    150      -0.7304      2.00000
    151      -0.7285      2.00000
    152      -0.7285      2.00000
    153      -0.6890      2.00000
    154      -0.6890      2.00000
    155      -0.6861      2.00000
    156      -0.6861      2.00000
    157      -0.6267      2.00000
    158      -0.6103      2.00000
    159      -0.6103      2.00000
    160      -0.6097      2.00000
    161      -0.6097      2.00000
    162      -0.6022      2.00000
    163      -0.5693      2.00000
    164      -0.5693      2.00000
    165      -0.5693      2.00000
    166      -0.5693      2.00000
    167      -0.3636      2.00000
    168       0.5939      2.00000
    169       0.5939      2.00000
    170       1.0805      2.00000
    171       1.1090      2.00000
    172       1.1090      2.00000
    173       1.6291      2.00006
    174       1.6291      2.00006
    175       1.7048      2.00048
    176       2.1671      1.75336
    177       2.1671      1.75336
    178       2.1889      1.62516
    179       2.2149      1.44413
    180       2.2149      1.44413
    181       2.4439     -0.01231
    182       2.7769     -0.00196
    183       2.7769     -0.00196
    184       3.4171     -0.00000
    185       4.1089     -0.00000
    186       4.1089     -0.00000
    187       5.1069     -0.00000
    188       5.3615     -0.00000
    189       5.3615     -0.00000
    190       5.7736     -0.00000
    191       6.2696     -0.00000
    192       6.2696     -0.00000
    193       6.4857     -0.00000
    194       6.4857     -0.00000
    195       6.8274     -0.00000
    196       6.8274     -0.00000
    197       7.2230     -0.00000
    198       7.2231     -0.00000
    199       7.8443      0.00000
    200       7.8447      0.00000
    201       7.9542      0.00000
    202       7.9625      0.00000
    203       8.1667      0.00000
    204       8.1816      0.00000
    205       8.5873      0.00000
    206       8.5997      0.00000
    207       8.6886      0.00000
    208       8.8610      0.00000
    209       8.8930      0.00000
    210       8.9994      0.00000
    211       9.0330      0.00000
    212       9.0688      0.00000

 k-point   3 :       0.3125    0.0625    0.0625
  band No.  band energies     occupation 
      1      -4.2107      2.00000
      2      -3.4479      2.00000
      3      -3.2247      2.00000
      4      -3.2140      2.00000
      5      -3.2052      2.00000
      6      -3.2052      2.00000
      7      -3.1875      2.00000
      8      -3.1875      2.00000
      9      -3.1706      2.00000
     10      -3.1593      2.00000
     11      -3.1234      2.00000
     12      -3.1234      2.00000
     13      -2.9779      2.00000
     14      -2.9413      2.00000
     15      -2.8904      2.00000
     16      -2.8904      2.00000
     17      -2.8611      2.00000
     18      -2.8380      2.00000
     19      -2.8380      2.00000
     20      -2.8239      2.00000
     21      -2.8239      2.00000
     22      -2.8014      2.00000
     23      -2.7737      2.00000
     24      -2.7737      2.00000
     25      -2.7589      2.00000
     26      -2.7589      2.00000
     27      -2.6782      2.00000
     28      -2.6782      2.00000
     29      -2.6620      2.00000
     30      -2.6620      2.00000
     31      -2.6474      2.00000
     32      -2.6474      2.00000
     33      -2.5983      2.00000
     34      -2.5983      2.00000
     35      -2.5775      2.00000
     36      -2.5775      2.00000
     37      -2.5708      2.00000
     38      -2.5708      2.00000
     39      -2.5470      2.00000
     40      -2.5470      2.00000
     41      -2.4800      2.00000
     42      -2.4800      2.00000
     43      -2.4129      2.00000
     44      -2.3786      2.00000
     45      -2.3786      2.00000
     46      -2.3718      2.00000
     47      -2.3718      2.00000
     48      -2.3633      2.00000
     49      -2.3633      2.00000
     50      -2.3572      2.00000
     51      -2.3572      2.00000
     52      -2.3333      2.00000
     53      -2.3333      2.00000
     54      -2.2567      2.00000
     55      -2.2421      2.00000
     56      -2.2421      2.00000
     57      -2.2242      2.00000
     58      -2.2242      2.00000
     59      -2.1943      2.00000
     60      -2.1943      2.00000
     61      -2.1732      2.00000
     62      -2.1679      2.00000
     63      -2.1664      2.00000
     64      -2.1664      2.00000
     65      -2.1645      2.00000
     66      -2.1556      2.00000
     67      -2.1556      2.00000
     68      -2.1459      2.00000
     69      -2.1459      2.00000
     70      -2.1444      2.00000
     71      -2.1444      2.00000
     72      -2.1083      2.00000
     73      -2.0993      2.00000
     74      -2.0993      2.00000
     75      -2.0488      2.00000
     76      -2.0359      2.00000
     77      -2.0359      2.00000
     78      -2.0241      2.00000
     79      -2.0241      2.00000
     80      -2.0224      2.00000
     81      -2.0216      2.00000
     82      -2.0125      2.00000
     83      -1.8485      2.00000
     84      -1.8485      2.00000
     85      -1.8151      2.00000
     86      -1.7877      2.00000
     87      -1.7877      2.00000
     88      -1.7737      2.00000
     89      -1.7636      2.00000
     90      -1.7608      2.00000
     91      -1.7608      2.00000
     92      -1.7513      2.00000
     93      -1.6445      2.00000
     94      -1.6445      2.00000
     95      -1.6080      2.00000
     96      -1.5976      2.00000
     97      -1.5976      2.00000
     98      -1.5723      2.00000
     99      -1.5377      2.00000
    100      -1.5377      2.00000
    101      -1.5226      2.00000
    102      -1.5206      2.00000
    103      -1.5206      2.00000
    104      -1.4358      2.00000
    105      -1.4358      2.00000
    106      -1.4212      2.00000
    107      -1.4212      2.00000
    108      -1.4005      2.00000
    109      -1.4005      2.00000
    110      -1.3878      2.00000
    111      -1.3878      2.00000
    112      -1.3861      2.00000
    113      -1.3798      2.00000
    114      -1.3798      2.00000
    115      -1.3015      2.00000
    116      -1.3015      2.00000
    117      -1.2870      2.00000
    118      -1.2824      2.00000
    119      -1.2824      2.00000
    120      -1.2736      2.00000
    121      -1.2736      2.00000
    122      -1.1825      2.00000
    123      -1.1825      2.00000
    124      -1.1678      2.00000
    125      -1.1399      2.00000
    126      -1.1316      2.00000
    127      -1.1316      2.00000
    128      -1.0848      2.00000
    129      -1.0755      2.00000
    130      -1.0609      2.00000
    131      -1.0609      2.00000
    132      -1.0540      2.00000
    133      -1.0540      2.00000
    134      -1.0358      2.00000
    135      -1.0358      2.00000
    136      -1.0288      2.00000
    137      -1.0193      2.00000
    138      -1.0193      2.00000
    139      -1.0045      2.00000
    140      -0.9855      2.00000
    141      -0.9855      2.00000
    142      -0.8950      2.00000
    143      -0.8858      2.00000
    144      -0.8858      2.00000
    145      -0.8786      2.00000
    146      -0.8315      2.00000
    147      -0.8280      2.00000
    148      -0.8280      2.00000
    149      -0.7962      2.00000
    150      -0.7764      2.00000
    151      -0.7764      2.00000
    152      -0.7734      2.00000
    153      -0.7616      2.00000
    154      -0.7616      2.00000
    155      -0.7017      2.00000
    156      -0.6868      2.00000
    157      -0.6868      2.00000
    158      -0.6859      2.00000
    159      -0.6859      2.00000
    160      -0.6668      2.00000
    161      -0.5695      2.00000
    162      -0.5695      2.00000
    163      -0.5694      2.00000
    164      -0.5694      2.00000
    165      -0.4054      2.00000
    166      -0.4054      2.00000
    167       0.1852      2.00000
    168       0.1852      2.00000
    169       0.2918      2.00000
    170       0.6685      2.00000
    171       0.6685      2.00000
    172       1.1180      2.00000
    173       1.4670      2.00000
    174       1.6836      2.00027
    175       1.6836      2.00027
    176       2.0241      2.07091
    177       2.0241      2.07091
    178       2.2507      1.15897
[...]
    111      -1.4822      2.00000
    112      -1.4822      2.00000
    113      -1.4810      2.00000
    114      -1.4810      2.00000
    115      -1.4810      2.00000
    116      -1.4329      2.00000
    117      -1.4222      2.00000
    118      -1.4222      2.00000
    119      -1.4222      2.00000
    120      -1.3787      2.00000
    121      -1.3787      2.00000
    122      -1.3787      2.00000
    123      -1.3787      2.00000
    124      -1.3787      2.00000
    125      -1.3787      2.00000
    126      -1.3132      2.00000
    127      -1.3132      2.00000
    128      -1.3132      2.00000
    129      -1.2767      2.00000
    130      -1.2767      2.00000
    131      -1.2616      2.00000
    132      -1.2616      2.00000
    133      -1.2616      2.00000
    134      -1.2499      2.00000
    135      -1.2499      2.00000
    136      -1.2499      2.00000
    137      -1.1819      2.00000
    138      -1.1819      2.00000
    139      -1.1819      2.00000
    140      -1.1371      2.00000
    141      -1.1371      2.00000
    142      -1.0860      2.00000
    143      -1.0860      2.00000
    144      -1.0860      2.00000
    145      -0.6988      2.00000
    146      -0.6988      2.00000
    147      -0.6988      2.00000
    148      -0.6836      2.00000
    149      -0.6836      2.00000
    150      -0.6836      2.00000
    151      -0.6836      2.00000
    152      -0.6836      2.00000
    153      -0.6836      2.00000
    154      -0.6835      2.00000
    155      -0.6835      2.00000
    156      -0.6835      2.00000
    157      -0.6835      2.00000
    158      -0.6835      2.00000
    159      -0.6835      2.00000
    160      -0.6816      2.00000
    161      -0.6816      2.00000
    162      -0.6816      2.00000
    163      -0.6710      2.00000
    164      -0.6710      2.00000
    165      -0.6710      2.00000
    166      -0.6629      2.00000
    167      -0.6629      2.00000
    168      -0.6629      2.00000
    169       2.3601      0.31410
    170       2.3601      0.31410
    171       2.3601      0.31410
    172       2.6875     -0.01184
    173       2.6875     -0.01184
    174       2.6875     -0.01184
    175       2.6875     -0.01184
    176       2.6875     -0.01184
    177       2.6875     -0.01184
    178       2.9756     -0.00001
    179       2.9756     -0.00001
    180       2.9756     -0.00001
    181       3.1958     -0.00000
    182       3.1958     -0.00000
    183       3.1958     -0.00000
    184       3.5403     -0.00000
    185       3.5403     -0.00000
    186       3.5403     -0.00000
    187       3.5403     -0.00000
    188       3.5403     -0.00000
    189       3.5403     -0.00000
    190       3.8472     -0.00000
    191       3.8472     -0.00000
    192       3.8472     -0.00000
    193       6.7420     -0.00000
    194       6.7421     -0.00000
    195       6.7421     -0.00000
    196       7.0798     -0.00000
    197       7.0800     -0.00000
    198       7.0814     -0.00000
    199       7.5064     -0.00000
    200       7.5064     -0.00000
    201       7.5066     -0.00000
    202       7.5082     -0.00000
    203       7.5160     -0.00000
    204       7.5200     -0.00000
    205       7.8514      0.00000
    206       7.8514      0.00000
    207       7.8536      0.00000
    208       7.8763      0.00000
    209       7.9650      0.00000
    210       8.1944      0.00000
    211       8.3078      0.00000
    212       8.4533      0.00000


--------------------------------------------------------------------------------------------------------


 soft charge-density along one line, spin component           1
         0         1         2         3         4         5         6         7         8         9
 total charge-density along one line
 
 pseudopotential strength for first ion, spin component:           1
-12.501   0.000  -0.000   0.000  -0.000   0.193  -0.000   0.000
  0.000 -12.501   0.000   0.000  -0.000  -0.000   0.193  -0.000
 -0.000   0.000 -12.493   0.000  -0.000   0.000  -0.000   0.192
  0.000   0.000   0.000 -12.501   0.000  -0.000  -0.000  -0.000
 -0.000  -0.000  -0.000   0.000 -12.493   0.000   0.000   0.000
  0.193  -0.000   0.000  -0.000   0.000   0.445   0.000  -0.000
 -0.000   0.193  -0.000  -0.000   0.000   0.000   0.445   0.000
  0.000  -0.000   0.192  -0.000   0.000  -0.000   0.000   0.446
 -0.000  -0.000  -0.000   0.193  -0.000   0.000   0.000   0.000
  0.000   0.000   0.000  -0.000   0.192  -0.000  -0.000  -0.000
 -0.000  -0.000  -0.000  -0.000  -0.000   0.000   0.000   0.000
  0.000   0.000   0.000   0.000   0.000  -0.000  -0.000  -0.000
  0.000  -0.000  -0.000   0.000  -0.000  -0.000   0.000   0.000
  0.000   0.000  -0.000   0.000   0.000  -0.000  -0.000   0.000
  0.000   0.000  -0.000  -0.000   0.000  -0.000  -0.000   0.000
 -0.000   0.000   0.000  -0.000   0.000   0.000  -0.000  -0.000
 -0.000  -0.000   0.000  -0.000  -0.000   0.000   0.000  -0.000
 -0.000  -0.000   0.000   0.000  -0.000   0.000   0.000  -0.000
 total augmentation occupancy for first ion, spin component:           1
  1.941  -0.000  -0.001   0.001   0.001  -0.032   0.000  -0.000  -0.001  -0.001   0.005  -0.001  -0.000  -0.000  -0.000  -0.000
 -0.000   1.948  -0.002  -0.000  -0.000   0.000  -0.039   0.002   0.000  -0.001   0.001  -0.001   0.000   0.000  -0.000   0.000
 -0.001  -0.002   1.969  -0.001   0.002  -0.000   0.002  -0.060   0.001  -0.001   0.018   0.001  -0.000   0.000   0.000  -0.000
  0.001  -0.000  -0.001   1.944   0.001  -0.001   0.000   0.001  -0.034  -0.000   0.004  -0.000   0.000  -0.000  -0.000   0.000
  0.001  -0.000   0.002   0.001   1.958  -0.001  -0.001  -0.001  -0.000  -0.052  -0.009  -0.001   0.000   0.000  -0.000   0.000
 -0.032   0.000  -0.000  -0.001  -0.001   0.054  -0.000   0.001   0.000   0.001  -0.002   0.001   0.000   0.000   0.000   0.000
  0.000  -0.039   0.002   0.000  -0.001  -0.000   0.060  -0.002  -0.000   0.001   0.002   0.002   0.000   0.000   0.000  -0.000
 -0.000   0.002  -0.060   0.001  -0.001   0.001  -0.002   0.049  -0.001   0.000  -0.013   0.001   0.000  -0.000  -0.000   0.000
 -0.001   0.000   0.001  -0.034  -0.000   0.000  -0.000  -0.001   0.054  -0.000  -0.001   0.001  -0.000   0.000   0.000  -0.000
 -0.001  -0.001  -0.001  -0.000  -0.052   0.001   0.001   0.000  -0.000   0.044   0.008   0.000  -0.000   0.000   0.000  -0.000
  0.005   0.001   0.018   0.004  -0.009  -0.002   0.002  -0.013  -0.001   0.008   0.969  -0.297  -0.000  -0.000  -0.000  -0.000
 -0.001  -0.001   0.001  -0.000  -0.001   0.001   0.002   0.001   0.001   0.000  -0.297   0.140  -0.000  -0.000   0.000   0.000
 -0.000   0.000  -0.000   0.000   0.000   0.000   0.000   0.000  -0.000  -0.000  -0.000  -0.000   0.086  -0.002   0.003  -0.005
 -0.000   0.000   0.000  -0.000   0.000   0.000   0.000  -0.000   0.000   0.000  -0.000  -0.000  -0.002   0.090   0.001  -0.000
 -0.000  -0.000   0.000  -0.000  -0.000   0.000   0.000  -0.000   0.000   0.000  -0.000   0.000   0.003   0.001   0.084  -0.000
 -0.000   0.000  -0.000   0.000   0.000   0.000  -0.000   0.000  -0.000  -0.000  -0.000   0.000  -0.005  -0.000  -0.000   0.000
  0.000  -0.000   0.000  -0.000  -0.000   0.000   0.000   0.000   0.000   0.000  -0.000   0.000  -0.000  -0.005  -0.000   0.000
 -0.000  -0.000   0.000  -0.000  -0.000   0.000   0.000  -0.000  -0.000   0.000  -0.000   0.000  -0.000  -0.000  -0.004   0.000


------------------------ aborting loop because EDIFF is reached ----------------------------------------




--------------------------------------------------------------------------------------------------------


    CHARGE:  VPU time   24.56: CPU time   24.58
    FORLOC:  VPU time    0.16: CPU time    0.16
    FORNL :  VPU time  146.50: CPU time  146.59
    STRESS:  VPU time 1125.31: CPU time 1126.12
    FORCOR:  VPU time    1.25: CPU time    1.25
    FORHAR:  VPU time    0.43: CPU time    0.43
    MIXING:  VPU time    0.03: CPU time    0.03


--------------------------------------------------------------------------------------------------------



  FREE ENERGIE OF THE ION-ELECTRON SYSTEM (eV)
  ---------------------------------------------------
  free  energy   TOTEN  =       -89.014888 eV

  energy  without entropy=      -89.000659  energy(sigma->0) =      -89.010145
 

  FORCE on cell =-STRESS in cart. coord.  units (eV/reduce length):
  Direction    X        Y        Z        XY       YZ       ZX
  --------------------------------------------------------------------------------------
  Alpha Z   2844.11   2844.11   2844.11
  Ewald    -9891.24  -9891.24  -9891.24     -0.00     -0.00     -0.00
  Hartree   2308.62   2308.62   2308.62     -0.00     -0.00     -0.00
  E(xc)    -1853.73  -1853.73  -1853.73     -0.00     -0.00     -0.00
  Local     3033.41   3033.41   3033.41      0.00      0.00      0.00
  n-local  -2157.40  -2152.87  -2147.13      2.49     -0.41      1.30
  augment   1337.46   1337.46   1337.46      0.00      0.00      0.00
  Kinetic   4338.53   4346.11   4355.65      2.10     -3.21      0.32
  -------------------------------------------------------------------------------------
  Total      -27.08    -27.08    -27.08     -0.00     -0.00     -0.00
  in kB      -67.85    -67.85    -67.85     -0.00     -0.00     -0.00
  external pressure =      -67.85 kB  Pullay stress =        0.00 kB


 VOLUME and BASIS-vectors are now :
 -----------------------------------------------------------------------------
  energy-cutoff  :      600.00
  volume of cell :      639.36
      direct lattice vectors                 reciprocal lattice vectors
     8.614844910  0.000000000  0.000000000     0.116078700 -0.000000002 -0.000000002
     0.000000160  8.614844910  0.000000000     0.000000000  0.116078700 -0.000000002
     0.000000160  0.000000160  8.614844910     0.000000000  0.000000000  0.116078700

  length of vectors
     8.614844910  8.614844910  8.614844910     0.116078700  0.116078700  0.116078700


 FORCES acting on ions
    electron-ion (+dipol)            ewald-force                    non-local-force                 convergence-correction
 -----------------------------------------------------------------------------------------------
   0.662E-12 -.174E-10 0.379E-11   0.267E-12 -.117E-12 -.247E-13   -.154E-22 -.448E-23 -.721E-23   0.159E-12 -.406E-14 -.756E-12
   0.668E-12 -.169E-11 -.508E-12   0.179E-12 -.471E-13 0.304E-13   -.438E-23 -.443E-23 -.615E-23   0.276E-13 -.384E-12 0.983E-12
   0.675E-12 -.742E-13 -.698E-11   0.104E-12 -.119E-13 -.195E-13   0.117E-22 -.336E-23 -.515E-23   -.913E-13 -.266E-12 -.212E-12
   0.686E-12 0.437E-11 0.236E-11   0.662E-13 -.955E-13 -.369E-13   0.814E-23 -.559E-23 -.535E-23   0.887E-13 -.226E-13 -.333E-12
   -.471E-13 0.685E-12 0.235E-12   0.698E-14 -.131E-12 -.173E-13   0.155E-22 -.819E-24 -.775E-24   -.105E-12 -.667E-13 -.332E-12
   -.432E-13 -.457E-13 0.473E-12   -.424E-13 -.356E-13 -.531E-13   -.361E-23 -.907E-23 0.101E-23   0.547E-13 -.110E-12 -.446E-12
   0.234E-12 -.147E-11 0.170E-11   -.733E-13 -.114E-12 -.211E-14   0.702E-23 -.315E-23 -.496E-23   -.124E-12 0.109E-13 -.399E-12
   0.689E-12 0.132E-12 0.244E-11   0.258E-12 -.681E-13 -.133E-13   -.892E-23 -.172E-23 -.310E-23   0.762E-13 0.131E-12 -.258E-12
   0.692E-12 -.111E-10 -.711E-12   0.203E-12 -.533E-14 -.237E-13   0.264E-23 0.188E-23 0.196E-23   -.178E-12 0.379E-12 0.610E-12
   0.670E-12 -.142E-11 0.854E-11   0.373E-13 0.489E-13 -.417E-13   0.381E-24 -.463E-23 -.134E-23   0.253E-13 0.350E-12 -.614E-12
   -.529E-13 0.702E-12 0.668E-12   -.635E-13 -.977E-14 -.133E-14   0.173E-23 0.150E-22 0.414E-24   0.222E-12 -.174E-12 -.915E-13
   -.546E-13 -.450E-13 -.361E-13   -.872E-13 0.232E-13 -.933E-14   -.319E-23 -.512E-23 -.765E-23   0.381E-12 -.291E-13 0.744E-12
   -.369E-13 0.224E-12 0.237E-12   -.809E-13 -.799E-14 -.200E-13   0.544E-23 -.668E-23 -.331E-23   0.208E-12 0.602E-13 -.400E-12
   -.353E-13 0.458E-12 0.452E-12   -.153E-12 0.470E-13 -.111E-12   0.182E-22 0.304E-23 -.124E-23   0.542E-13 0.186E-12 -.338E-12
   0.227E-12 0.288E-11 0.112E-11   -.103E-12 -.515E-13 0.127E-12   -.432E-23 -.115E-23 -.325E-23   0.933E-14 -.481E-13 0.677E-12
   0.222E-12 -.293E-13 -.192E-11   -.200E-13 0.379E-14 0.488E-13   -.344E-23 -.897E-23 0.460E-23   0.116E-12 0.406E-13 -.505E-12
   0.211E-12 0.226E-11 0.164E-11   0.702E-13 0.711E-14 -.259E-13   -.332E-23 0.235E-23 0.176E-23   -.538E-13 -.188E-13 -.311E-12
   0.451E-12 -.398E-11 -.412E-12   0.966E-13 -.968E-13 0.409E-13   0.866E-23 -.431E-23 -.140E-23   0.127E-12 0.285E-13 -.490E-12
   0.446E-12 -.496E-13 -.373E-11   -.614E-13 0.386E-13 0.194E-14   0.500E-23 -.616E-23 -.372E-23   -.350E-13 -.216E-13 -.615E-12
   0.683E-12 -.492E-12 -.131E-10   -.249E-13 -.137E-13 0.480E-13   0.356E-23 0.531E-23 -.370E-23   0.577E-13 -.463E-13 0.120E-12
   -.425E-13 0.204E-12 0.670E-12   -.731E-13 -.355E-13 0.564E-13   0.853E-24 -.569E-24 0.207E-23   0.207E-12 0.165E-12 0.111E-13
   -.473E-13 0.459E-12 -.212E-13   -.561E-13 0.110E-12 -.458E-13   -.151E-23 0.543E-23 -.186E-23   0.513E-13 0.960E-13 0.637E-12
   0.210E-12 -.618E-13 0.268E-11   -.129E-12 0.336E-13 -.178E-14   0.139E-22 0.792E-24 -.538E-23   -.536E-13 0.106E-12 0.106E-12
   0.205E-12 -.185E-11 0.117E-11   -.373E-13 -.524E-13 0.618E-13   0.175E-23 -.281E-23 0.827E-24   0.213E-12 0.408E-13 0.636E-12
   0.229E-12 0.458E-12 0.217E-11   -.320E-13 0.623E-13 -.195E-13   0.178E-22 -.425E-23 -.414E-24   -.150E-14 0.538E-13 -.570E-12
   0.457E-12 0.367E-11 0.647E-11   0.108E-12 -.169E-13 -.977E-14   -.111E-22 -.320E-23 -.124E-23   -.201E-12 -.214E-12 0.115E-13
   0.458E-12 0.615E-13 0.304E-11   -.967E-14 0.610E-15 0.240E-13   0.992E-24 -.367E-23 -.217E-23   -.363E-12 0.195E-12 0.910E-12
   0.440E-12 -.352E-11 -.715E-12   -.119E-12 0.102E-12 0.382E-13   0.274E-23 -.124E-23 -.620E-23   -.187E-12 -.545E-13 -.709E-12
   0.441E-12 -.339E-11 -.341E-11   -.822E-13 0.398E-13 0.229E-13   0.507E-23 -.612E-23 0.445E-23   -.394E-13 0.131E-12 -.394E-12
   0.217E-12 0.485E-12 -.143E-11   -.657E-13 0.878E-13 0.417E-13   -.108E-22 0.586E-23 -.207E-24   -.345E-13 -.137E-13 0.159E-12
   0.447E-12 -.279E-11 -.167E-11   0.349E-14 0.258E-13 0.160E-13   0.216E-23 0.114E-22 0.341E-23   -.185E-12 0.185E-12 0.233E-12
   0.452E-12 -.353E-11 0.231E-11   -.105E-12 0.735E-13 0.266E-13   0.702E-23 0.527E-23 -.165E-23   -.353E-13 -.860E-13 0.650E-12
 -----------------------------------------------------------------------------------------------
   0.104E-10 -.359E-10 0.755E-11   -.179E-13 -.207E-12 0.108E-12   0.703E-22 -.352E-22 -.570E-22   0.391E-12 0.598E-12 -.129E-11
 
 
 POSITION                                       TOTAL-FORCE (eV/Angst)
 -----------------------------------------------------------------------------------
      6.46113      6.46113      4.30742        -0.000000      0.000000      0.000000
      6.46113      6.46113      0.00000         0.000000      0.000000      0.000000
      6.46113      0.00000      2.15371        -0.000000     -0.000000     -0.000000
      6.46113      2.15371      4.30742        -0.000000     -0.000000     -0.000000
      0.00000      6.46113      2.15371        -0.000000     -0.000000      0.000000
      0.00000      0.00000      4.30742        -0.000000      0.000000      0.000000
      2.15371      6.46113      4.30742        -0.000000      0.000000      0.000000
      6.46113      0.00000      6.46113         0.000000     -0.000000      0.000000
      6.46113      2.15371      0.00000        -0.000000      0.000000      0.000000
      6.46113      4.30742      2.15371        -0.000000      0.000000      0.000000
      0.00000      6.46113      6.46113        -0.000000     -0.000000      0.000000
      0.00000      0.00000      0.00000         0.000000     -0.000000      0.000000
      0.00000      2.15371      2.15371        -0.000000     -0.000000      0.000000
      0.00000      4.30742      4.30742        -0.000000      0.000000     -0.000000
      2.15371      6.46113      0.00000        -0.000000     -0.000000     -0.000000
      2.15371      0.00000      2.15371        -0.000000      0.000000      0.000000
      2.15371      2.15371      4.30742        -0.000000      0.000000      0.000000
      4.30742      6.46113      2.15371        -0.000000     -0.000000      0.000000
      4.30742      0.00000      4.30742        -0.000000     -0.000000      0.000000
      6.46113      4.30742      6.46113         0.000000     -0.000000     -0.000000
      0.00000      2.15371      6.46113         0.000000      0.000000      0.000000
      0.00000      4.30742      0.00000        -0.000000      0.000000      0.000000
      2.15371      0.00000      6.46113         0.000000     -0.000000      0.000000
      2.15371      2.15371      0.00000         0.000000      0.000000      0.000000
      2.15371      4.30742      2.15371        -0.000000      0.000000     -0.000000
      4.30742      6.46113      6.46113         0.000000      0.000000      0.000000
      4.30742      0.00000      0.00000        -0.000000     -0.000000      0.000000
      4.30742      2.15371      2.15371        -0.000000      0.000000     -0.000000
      4.30742      4.30742      4.30742         0.000000      0.000000     -0.000000
      2.15371      4.30742      6.46113         0.000000      0.000000     -0.000000
      4.30742      2.15371      6.46113         0.000000     -0.000000     -0.000000
      4.30742      4.30742      0.00000         0.000000      0.000000     -0.000000
 -----------------------------------------------------------------------------------
    total drift:                                0.000000     -0.000000      0.000000


--------------------------------------------------------------------------------------------------------




--------------------------------------------------------------------------------------------------------


  
 reached required accuracy - stopping structural energy minimisation
 writing wavefunctions
     LOOP+:  VPU time10237.56: CPU time10251.38

 ----------------------------------------------------------------------------- 
|                                                                             |
|           W    W    AA    RRRRR   N    N  II  N    N   GGGG   !!!           |
|           W    W   A  A   R    R  NN   N  II  NN   N  G    G  !!!           |
|           W    W  A    A  R    R  N N  N  II  N N  N  G       !!!           |
|           W WW W  AAAAAA  RRRRR   N  N N  II  N  N N  G  GGG   !            |
|           WW  WW  A    A  R   R   N   NN  II  N   NN  G    G                |
|           W    W  A    A  R    R  N    N  II  N    N   GGGG   !!!           |
|                                                                             |
|      The partial DOS and the PROCAR file are not evaluated for NPAR/=1      |
|      please rerun with NPAR=1                                               |
|                                                                             |
 ----------------------------------------------------------------------------- 

  
  
 General timing and accounting informations for this job:
 ========================================================
  
                  Total CPU time used (sec):    10303.651
                            User time (sec):    10202.120
                          System time (sec):      101.531
                         Elapsed time (sec):    10317.586
  
                   Maximum memory used (kb):     2050252.
                   Average memory used (kb):           0.
  
                          Minor page faults:       418501
                          Major page faults:            0
                 Voluntary context switches:        29345
