 running on    4 nodes
 distr:  one band on    1 nodes,    4 groups
 vasp.4.6.28 25Jul05 complex 
 POSCAR found :  1 types and   32 ions

 ----------------------------------------------------------------------------- 
|                                                                             |
|  ADVICE TO THIS USER RUNNING 'VASP/VAMP'   (HEAR YOUR MASTER'S VOICE ...):  |
|                                                                             |
|      You have a (more or less) 'large supercell' and for larger cells       |
|      it might be more efficient to use real space projection operators      |
|      So try LREAL= Auto  in the INCAR   file.                               |
|      Mind: If you want to do an extremely accurate calculations keep the    |
|      reciprocal projection scheme          (i.e. LREAL=.FALSE.)             |
|                                                                             |
 ----------------------------------------------------------------------------- 

 LDA part: xc-table for Pade appr. of Perdew
 found WAVECAR, reading the header
  number of k-points has changed, file:  20 present:  40
  trying to continue reading WAVECAR, but it might fail
 POSCAR, INCAR and KPOINTS ok, starting setup
 FFT: planning ...           1
 reading WAVECAR
 the WAVECAR file was read sucessfully
 initial charge from wavefunction
 entering main loop
       N       E                     dE             d eps       ncg     rms          rms(c)
RMM:   1    -0.105841163793E+03   -0.10584E+03   -0.64985E+02 17598   0.436E+01BRMIX: very serious problems
 the old and the new charge density differ
 old charge density:   344.40768 new  352.00000
    0.847E+00
RMM:   2    -0.103093366411E+03    0.27478E+01   -0.12844E+01 17977   0.101E+01    0.137E+00
RMM:   3    -0.103116768295E+03   -0.23402E-01   -0.91164E-01 18653   0.206E+00    0.786E-01
RMM:   4    -0.103119732775E+03   -0.29645E-02   -0.36425E-02 18738   0.313E-01    0.278E-01
RMM:   5    -0.103120257503E+03   -0.52473E-03   -0.21637E-03 18582   0.115E-01    0.705E-02
RMM:   6    -0.103120139932E+03    0.11757E-03   -0.10784E-03 18299   0.952E-02    0.163E-02
RMM:   7    -0.103120133722E+03    0.62100E-05   -0.62736E-05 14094   0.150E-02
   1 F= -.10312013E+03 E0= -.10312260E+03  d E =0.738985E-02

 ----------------------------------------------------------------------------- 
|                                                                             |
|           W    W    AA    RRRRR   N    N  II  N    N   GGGG   !!!           |
|           W    W   A  A   R    R  NN   N  II  NN   N  G    G  !!!           |
|           W    W  A    A  R    R  N N  N  II  N N  N  G       !!!           |
|           W WW W  AAAAAA  RRRRR   N  N N  II  N  N N  G  GGG   !            |
|           WW  WW  A    A  R   R   N   NN  II  N   NN  G    G                |
|           W    W  A    A  R    R  N    N  II  N    N   GGGG   !!!           |
|                                                                             |
|      The partial DOS and the PROCAR file are not evaluated for NPAR/=1      |
|      please rerun with NPAR=1                                               |
|                                                                             |
 ----------------------------------------------------------------------------- 

