       N       E                     dE             d eps       ncg     rms          rms(c)
RMM:   1    -0.105841074783E+03   -0.10584E+03   -0.64987E+02 17597   0.436E+01    0.847E+00
RMM:   2    -0.103093477252E+03    0.27476E+01   -0.12844E+01 17969   0.101E+01    0.137E+00
RMM:   3    -0.103116750789E+03   -0.23274E-01   -0.91174E-01 18662   0.206E+00    0.786E-01
RMM:   4    -0.103119724648E+03   -0.29739E-02   -0.36615E-02 18729   0.311E-01    0.284E-01
RMM:   5    -0.103120264944E+03   -0.54030E-03   -0.22362E-03 18591   0.118E-01    0.720E-02
RMM:   6    -0.103120139863E+03    0.12508E-03   -0.11150E-03 18301   0.974E-02    0.163E-02
RMM:   7    -0.103120133764E+03    0.60983E-05   -0.64129E-05 14172   0.151E-02
   1 F= -.10312013E+03 E0= -.10312260E+03  d E =0.738984E-02
