       N       E                     dE             d eps       ncg     rms          rms(c)
RMM:   1    -0.105841163793E+03   -0.10584E+03   -0.64985E+02 17598   0.436E+01    0.847E+00
RMM:   2    -0.103093366411E+03    0.27478E+01   -0.12844E+01 17977   0.101E+01    0.137E+00
RMM:   3    -0.103116768295E+03   -0.23402E-01   -0.91164E-01 18653   0.206E+00    0.786E-01
RMM:   4    -0.103119732775E+03   -0.29645E-02   -0.36425E-02 18738   0.313E-01    0.278E-01
RMM:   5    -0.103120257503E+03   -0.52473E-03   -0.21637E-03 18582   0.115E-01    0.705E-02
RMM:   6    -0.103120139932E+03    0.11757E-03   -0.10784E-03 18299   0.952E-02    0.163E-02
RMM:   7    -0.103120133722E+03    0.62100E-05   -0.62736E-05 14094   0.150E-02
   1 F= -.10312013E+03 E0= -.10312260E+03  d E =0.738985E-02
