 vasp.4.6.28 25Jul05 complex 
 executed on             LinuxIFC date 2017.01.24  12:36:11
 running on    4 nodes
 distr:  one band on    1 nodes,    4 groups


--------------------------------------------------------------------------------------------------------


 INCAR:
 POTCAR:   PAW_PBE Au 06Sep2000                   
 POTCAR:   PAW_PBE Au 06Sep2000                   
   VRHFIN =Au: s1d10                                                            
   LEXCH  = PE                                                                  
   EATOM  =   926.0567 eV,   68.0632 Ry                                         
                                                                                
   TITEL  = PAW_PBE Au 06Sep2000                                                
   LULTRA =        F    use ultrasoft PP ?                                      
   IUNSCR =        1    unscreen: 0-lin 1-nonlin 2-no                           
   RPACOR =    2.330    partial core radius                                     
   POMASS =  196.966; ZVAL   =   11.000    mass and valenz                      
   RCORE  =    2.500    outmost cutoff radius                                   
   RWIGS  =    2.840; RWIGS  =    1.503    wigner-seitz radius (au A)           
   ENMAX  =  229.948; ENMIN  =  172.461 eV                                      
   RCLOC  =    1.964    cutoff for local pot                                    
   LCOR   =        T    correct aug charges                                     
   LPAW   =        T    paw PP                                                  
   EAUG   =  356.670                                                            
   DEXC   =    -.025                                                            
   RMAX   =    3.041    core radius for proj-oper                               
   RAUG   =    1.300    factor for augmentation sphere                          
   RDEP   =    2.598    radius for radial grids                                 
   QCUT   =   -4.111; QGAM   =    8.222    optimization parameters              
                                                                                
   Description                                                                  
     l     E      TYP  RCUT    TYP  RCUT                                        
     2   .000     23  2.500                                                     
     2   .000     23  2.500                                                     
     0   .000     23  2.500                                                     
     0   .000     23  2.500                                                     
     1  -.200     23  2.500                                                     
     1   .000     23  2.500                                                     
     3   .000      7   .000                                                     
  local pseudopotential read in
  partial core-charges read in
  atomic valenz-charges read in
  non local Contribution for L=           2  read in
    real space projection operators read in
  non local Contribution for L=           2  read in
    real space projection operators read in
  non local Contribution for L=           0  read in
    real space projection operators read in
  non local Contribution for L=           0  read in
    real space projection operators read in
  non local Contribution for L=           1  read in
    real space projection operators read in
  non local Contribution for L=           1  read in
    real space projection operators read in
    PAW grid and wavefunctions read in
 
   number of l-projection  operators is LMAX  =           6
   number of lm-projection operators is LMMAX =          18
 

 ----------------------------------------------------------------------------- 
|                                                                             |
|  ADVICE TO THIS USER RUNNING 'VASP/VAMP'   (HEAR YOUR MASTER'S VOICE ...):  |
|                                                                             |
|      You have a (more or less) 'large supercell' and for larger cells       |
|      it might be more efficient to use real space projection operators      |
|      So try LREAL= Auto  in the INCAR   file.                               |
|      Mind: If you want to do an extremely accurate calculations keep the    |
|      reciprocal projection scheme          (i.e. LREAL=.FALSE.)             |
|                                                                             |
 ----------------------------------------------------------------------------- 

 PAW_PBE Au 06Sep2000                   :
 energy of atom  1       EATOM= -926.0567
 kinetic energy error for atom=    0.0013 (will be added to EATOM!!)
 
 EXHCAR: internal setup
 exchange correlation table for  LEXCH =        8
   RHO(1)=    0.500       N(1)  =     2000
   RHO(2)=  100.500       N(2)  =     4000
 
 POSCAR: No title                                
  positions in direct lattice
  No initial velocities read in
 


--------------------------------------------------------------------------------------------------------


 ion  position               nearest neighbor table
   1  0.750  0.750  0.500-   3 3.04  14 3.04  19 3.04  20 3.04   5 3.04  26 3.04  11 3.04   6 3.04
                            18 3.04  29 3.04  10 3.04   8 3.04
   2  0.750  0.750  0.000-   8 3.04  10 3.04  22 3.04  27 3.04  11 3.04  18 3.04  12 3.04  26 3.04
                             5 3.04  32 3.04   3 3.04  20 3.04
   3  0.750  0.000  0.250-   1 3.04   5 3.04   9 3.04  28 3.04  19 3.04  12 3.04  18 3.04   6 3.04
                            27 3.04  13 3.04   4 3.04   2 3.04
   4  0.750  0.250  0.500-   6 3.04   8 3.04  10 3.04  29 3.04  13 3.04  31 3.04  21 3.04  28 3.04
                            14 3.04  19 3.04   3 3.04  20 3.04
   5  0.000  0.750  0.250-   3 3.04  12 3.04  14 3.04  25 3.04  15 3.04   1 3.04   7 3.04  10 3.04
                            16 3.04   2 3.04  22 3.04   6 3.04
   6  0.000  0.000  0.500-   4 3.04   7 3.04  11 3.04  13 3.04   8 3.04  16 3.04   1 3.04   3 3.04
                            17 3.04  23 3.04  21 3.04   5 3.04
   7  0.250  0.750  0.500-   6 3.04  16 3.04  29 3.04  30 3.04  11 3.04  18 3.04  19 3.04  26 3.04
                             5 3.04  14 3.04  25 3.04  23 3.04
   8  0.750  0.000  0.750-   2 3.04   4 3.04  11 3.04  31 3.04  27 3.04   6 3.04  21 3.04  26 3.04
                            12 3.04  19 3.04   9 3.04   1 3.04
   9  0.750  0.250  0.000-   3 3.04  12 3.04  20 3.04  32 3.04  28 3.04  21 3.04  27 3.04  13 3.04
                            31 3.04  22 3.04  10 3.04   8 3.04
  10  0.750  0.500  0.250-   2 3.04   4 3.04  13 3.04  18 3.04  22 3.04  29 3.04  14 3.04  28 3.04
                             5 3.04  32 3.04   9 3.04   1 3.04
  11  0.000  0.750  0.750-   6 3.04   8 3.04  22 3.04  30 3.04   7 3.04   2 3.04  20 3.04   1 3.04
                            23 3.04  15 3.04  14 3.04  12 3.04
  12  0.000  0.000  0.000-   5 3.04   9 3.04  15 3.04  21 3.04   3 3.04  23 3.04  16 3.04   2 3.04
                             8 3.04  24 3.04  13 3.04  11 3.04
  13  0.000  0.250  0.250-   6 3.04  10 3.04  16 3.04  22 3.04   4 3.04  24 3.04  17 3.04   3 3.04
                             9 3.04  25 3.04  14 3.04  12 3.04
  14  0.000  0.500  0.500-   1 3.04   5 3.04  17 3.04  21 3.04  20 3.04  25 3.04   7 3.04  10 3.04
                             4 3.04  30 3.04  13 3.04  11 3.04
  15  0.250  0.750  0.000-  12 3.04  23 3.04  25 3.04  32 3.04  26 3.04   5 3.04  18 3.04  22 3.04
                            27 3.04  11 3.04  30 3.04  16 3.04
  16  0.250  0.000  0.250-   7 3.04  13 3.04  18 3.04  24 3.04   6 3.04  27 3.04  19 3.04   5 3.04
                            12 3.04  28 3.04  17 3.04  15 3.04
  17  0.250  0.250  0.500-  14 3.04  19 3.04  23 3.04  25 3.04  21 3.04  28 3.04   6 3.04  13 3.04
                            29 3.04  31 3.04  30 3.04  16 3.04
  18  0.500  0.750  0.250-  10 3.04  16 3.04  27 3.04  29 3.04   2 3.04   7 3.04   1 3.04  25 3.04
                             3 3.04  15 3.04  19 3.04  32 3.04
  19  0.500  0.000  0.500-   1 3.04  17 3.04  26 3.04  28 3.04   3 3.04  23 3.04   4 3.04   7 3.04
                             8 3.04  16 3.04  18 3.04  31 3.04
  20  0.750  0.500  0.750-   1 3.04   9 3.04  21 3.04  26 3.04  14 3.04  32 3.04  11 3.04  29 3.04
                            31 3.04  22 3.04   4 3.04   2 3.04
  21  0.000  0.250  0.750-  12 3.04  14 3.04  20 3.04  23 3.04   9 3.04  17 3.04   4 3.04   8 3.04
                            24 3.04  30 3.04  22 3.04   6 3.04
  22  0.000  0.500  0.000-   2 3.04  11 3.04  13 3.04  24 3.04  10 3.04  30 3.04  20 3.04   9 3.04
                            25 3.04  15 3.04  21 3.04   5 3.04
  23  0.250  0.000  0.750-  15 3.04  17 3.04  21 3.04  26 3.04  12 3.04  19 3.04   6 3.04  11 3.04
                            27 3.04  31 3.04  24 3.04   7 3.04
  24  0.250  0.250  0.000-  16 3.04  22 3.04  27 3.04  30 3.04  13 3.04  31 3.04  28 3.04  12 3.04
                            21 3.04  32 3.04  25 3.04  23 3.04
  25  0.250  0.500  0.250-   5 3.04  15 3.04  17 3.04  28 3.04  14 3.04  32 3.04  22 3.04  13 3.04
                            29 3.04  18 3.04  24 3.04   7 3.04
  26  0.500  0.750  0.750-  19 3.04  20 3.04  23 3.04  32 3.04   1 3.04  15 3.04   8 3.04   2 3.04
                            30 3.04   7 3.04  27 3.04  29 3.04
  27  0.500  0.000  0.000-   2 3.04  18 3.04  24 3.04  31 3.04  16 3.04   8 3.04   9 3.04  23 3.04
                            15 3.04   3 3.04  28 3.04  26 3.04
  28  0.500  0.250  0.250-   3 3.04  19 3.04  25 3.04  32 3.04  17 3.04   9 3.04  10 3.04  24 3.04
                            16 3.04   4 3.04  29 3.04  27 3.04
  29  0.500  0.500  0.500-   4 3.04   7 3.04  18 3.04  31 3.04  30 3.04  10 3.04  20 3.04  25 3.04
                            17 3.04   1 3.04  26 3.04  28 3.04
  30  0.250  0.500  0.750-   7 3.04  11 3.04  24 3.04  31 3.04  29 3.04  22 3.04  26 3.04  14 3.04
                            21 3.04  32 3.04  17 3.04  15 3.04
  31  0.500  0.250  0.750-   8 3.04  27 3.04  29 3.04  30 3.04  24 3.04   4 3.04   9 3.04  17 3.04
                            20 3.04  23 3.04  19 3.04  32 3.04
  32  0.500  0.500  0.000-   9 3.04  15 3.04  26 3.04  28 3.04  20 3.04  25 3.04   2 3.04  10 3.04
                            24 3.04  30 3.04  18 3.04  31 3.04
 
  LATTYP: Found a simple cubic cell.
 ALAT       =     8.5854088100
  
  Lattice vectors:
  
 A1 = (   8.5854088100,   0.0000000000,   0.0000000000)
 A2 = (   0.0000001600,   8.5854088100,   0.0000000000)
 A3 = (   0.0000001600,   0.0000001600,   8.5854088100)
 Subroutine PRICEL returns following result:
 
  LATTYP: Found a face centered cubic cell.
 ALAT       =     4.2927044450
  
  Lattice vectors:
  
 A1 = (   2.1463522425,   2.1463522025,   0.0000000000)
 A2 = (   2.1463521625,  -0.0000000400,  -2.1463522025)
 A3 = (  -0.0000000000,   2.1463521625,  -2.1463522025)
 
  32 primitive cells build up your supercell.
 

Analysis of symmetry for initial positions (statically):

 Routine SETGRP: Setting up the symmetry group for a 
 simple cubic supercell.


 Subroutine GETGRP returns: Found 48 space group operations
 (whereof 48 operations were pure point group operations)
 out of a pool of 48 trial point group operations.


The static configuration has the point symmetry O_h .

Analysis of symmetry for dynamics (positions and initial velocities):

 Subroutine DYNSYM returns: Found 48 space group operations
 (whereof 48 operations were pure point group operations)
 out of a pool of 48 trial space group operations
 (whereof 48 operations were pure point group operations)
 and found also    32 'primitive' translations


The dynamic configuration has the point symmetry O_h .
 
 
 KPOINTS: Automatic mesh                          

Automatic generation of k-mesh.
 
 Subroutine IBZKPT returns following result:
 ===========================================
 
 Found     20 irreducible k-points:
 
 Following reciprocal coordinates:
            Coordinates               Weight
  0.062500  0.062500  0.062500      8.000000
  0.187500  0.062500  0.062500     24.000000
  0.312500  0.062500  0.062500     24.000000
  0.437500  0.062500  0.062500     24.000000
  0.187500  0.187500  0.062500     24.000000
  0.312500  0.187500  0.062500     48.000000
  0.437500  0.187500  0.062500     48.000000
  0.312500  0.312500  0.062500     24.000000
  0.437500  0.312500  0.062500     48.000000
  0.437500  0.437500  0.062500     24.000000
  0.187500  0.187500  0.187500      8.000000
  0.312500  0.187500  0.187500     24.000000
  0.437500  0.187500  0.187500     24.000000
  0.312500  0.312500  0.187500     24.000000
  0.437500  0.312500  0.187500     48.000000
  0.437500  0.437500  0.187500     24.000000
  0.312500  0.312500  0.312500      8.000000
  0.437500  0.312500  0.312500     24.000000
  0.437500  0.437500  0.312500     24.000000
  0.437500  0.437500  0.437500      8.000000
 
 Following cartesian coordinates:
            Coordinates               Weight
  0.007280  0.007280  0.007280      8.000000
  0.021839  0.007280  0.007280     24.000000
  0.036399  0.007280  0.007280     24.000000
  0.050959  0.007280  0.007280     24.000000
  0.021839  0.021839  0.007280     24.000000
  0.036399  0.021839  0.007280     48.000000
  0.050959  0.021839  0.007280     48.000000
  0.036399  0.036399  0.007280     24.000000
  0.050959  0.036399  0.007280     48.000000
  0.050959  0.050959  0.007280     24.000000
  0.021839  0.021839  0.021839      8.000000
  0.036399  0.021839  0.021839     24.000000
  0.050959  0.021839  0.021839     24.000000
  0.036399  0.036399  0.021839     24.000000
  0.050959  0.036399  0.021839     48.000000
  0.050959  0.050959  0.021839     24.000000
  0.036399  0.036399  0.036399      8.000000
  0.050959  0.036399  0.036399     24.000000
  0.050959  0.050959  0.036399     24.000000
  0.050959  0.050959  0.050959      8.000000
 


--------------------------------------------------------------------------------------------------------




 Dimension of arrays:
   k-Points           NKPTS =     20   number of bands    NBANDS=    212
   number of dos      NEDOS =    301   number of ions     NIONS =     32
   non local maximal  LDIM  =      6   non local SUM 2l+1 LMDIM =     18
   total plane-waves  NPLWV = 343000
   max r-space proj   IRMAX =      1   max aug-charges    IRDMAX= 265336
   dimension x,y,z NGX =    70 NGY =   70 NGZ =   70
   dimension x,y,z NGXF=   140 NGYF=  140 NGZF=  140
   support grid    NGXF=   280 NGYF=  280 NGZF=  280
   ions per type =              32
 NGX,Y,Z   is equivalent  to a cutoff of  13.55, 13.55, 13.55 a.u.
 NGXF,Y,Z  is equivalent  to a cutoff of  27.11, 27.11, 27.11 a.u.


 I would recommend the setting:
   dimension x,y,z NGX =    69 NGY =   69 NGZ =   69
 SYSTEM =  No title                                
 POSCAR =  No title                                

 Startparameter for this run:
   NWRITE =      2    write-flag & timer
   PREC   = accura    medium, high low
   ISTART =      0    job   : 0-new  1-cont  2-samecut
   ICHARG =      2    charge: 1-file 2-atom 10-const
   ISPIN  =      1    spin polarized calculation?
   LNONCOLLINEAR =      F non collinear calculations
   LSORBIT =      F    spin-orbit coupling
   INIWAV =      1    electr: 0-lowe 1-rand  2-diag
   LASPH  =      F    aspherical Exc in radial PAW
   METAGGA=      F    non-selfconsistent MetaGGA calc.

 Electronic Relaxation 1
   ENCUT  =  600.0 eV  44.10 Ry    6.64 a.u.  17.15 17.15 17.15*2*pi/ulx,y,z
   ENINI  =  600.0     initial cutoff
   ENAUG  =  356.7 eV  augmentation charge cutoff
   NELM   =     60;   NELMIN=  2; NELMDL=-12     # of ELM steps 
   EDIFF  = 0.1E-04   stopping-criterion for ELM
   LREAL  =      F    real-space projection
   LCOMPAT=      F    compatible to vasp.4.4
   LREAL_COMPAT= F    compatible to vasp.4.5.1-3
   GGA_COMPAT  = T    GGA compatible to vasp.4.4-vasp.4.6
   LMAXPAW     = -100 max onsite density
   LMAXMIX     =    2 max onsite mixed and CHGCAR
   VOSKOWN=      1    Vosko Wilk Nusair interpolation
   ROPT   =    0.00000
 Ionic relaxation
   EDIFFG = -.2E-01   stopping-criterion for IOM
   NSW    =    100    number of steps for IOM
   NBLOCK =      1;   KBLOCK =    100    inner block; outer block 
   IBRION =      2    ionic relax: 0-MD 1-quasi-New 2-CG
   NFREE  =      1    steps in history (QN), initial steepest desc. (CG)
   ISIF   =      2    stress and relaxation
   IWAVPR =     11    prediction:  0-non 1-charg 2-wave 3-comb
   ISYM   =      2    0-nonsym 1-usesym 2-fastsym
   LCORR  =      T    Harris-Foulkes like correction to forces

   POTIM  =   0.50    time-step for ionic-motion
   TEIN   =    0.0    initial temperature
   TEBEG  =    0.0;   TEEND  =   0.0 temperature during run
   SMASS  =  -3.00    Nose mass-parameter (am)
   estimated Nose-frequenzy (Omega)   =  0.10E-29 period in steps =****** mass=  -0.168E-26a.u.
   NPACO  =    256;   APACO  = 16.0  distance and # of slots for P.C.
   PSTRESS=    0.0 pullay stress

  Mass of Ions in am
   POMASS = 196.97
  Ionic Valenz
   ZVAL   =  11.00
  Atomic Wigner-Seitz radii
   RWIGS  =   1.34
   NELECT =     352.0000    total number of electrons
   NUPDOWN=      -1.0000    fix difference up-down

 DOS related values:
   EMIN   =  10.00;   EMAX   =-10.00  energy-range for DOS
   ISMEAR =     1;   SIGMA  =   0.20  broadening in eV -4-tet -1-fermi 0-gaus

 Electronic relaxation 2 (details)
   IALGO  =     48    algorithm
   LDIAG  =      T    sub-space diagonalisation
   IMIX   =      4    mixing-type and parameters
     AMIX     =   0.40;   BMIX     =  1.00
     AMIX_MAG =   1.60;   BMIX_MAG =  1.00
     AMIN     =   0.10
     WC   =   100.;   INIMIX=   1;  MIXPRE=   1

 Intra band minimization:
   WEIMIN = 0.0010     energy-eigenvalue tresh-hold
   EBREAK =  0.12E-07  absolut break condition
   DEPER  =   0.30     relativ break condition  

   TIME   =   0.10     timestep for ELM

  volume/ion in A,a.u.               =      19.78       133.45
  Fermi-wavevector in a.u.,eV,Ry     =   1.346361 24.663103  1.812687

 Second variation
   LSECVAR=     F    do a second variation
 
 Write flags
   LWAVE  =      T    write WAVECAR
   LCHARG =      F    write CHGCAR
   LVTOT  =      F    write LOCPOT, local potential
   LELF   =      F    write electronic localiz. function (ELF)
   LORBIT =      0    0 simple, 1 ext, 2 COOP (PROOUT)


 Dipole corrections
   IDIPOL =      0    1-x, 2-y, 3-z
   LDIPOL =      F    correct potential



--------------------------------------------------------------------------------------------------------


 conjugate gradient relaxation of ions
 charge density will be updated during run
 non-spin polarized calculation
 RMM-DIIS sequential band-by-band
 performe sub-space diagonalisation
    before iterative eigenvector-optimisation
 modified Broyden-mixing scheme, WC =      100.0
 initial mixing is a Kerker type mixing with AMIX =  0.4000 and BMIX =      1.0000
 Hartree-type preconditioning will be used
 using additional bands           36
 reciprocal scheme for non local part
 use partial core corrections
 calculate Harris-corrections to forces 
   (improved forces if not selfconsistent)
 use gradient corrections 
 use of overlap-Matrix (Vanderbilt PP)
 Methfessel and Paxton  Order N= 1 SIGMA  =   0.20


--------------------------------------------------------------------------------------------------------


  energy-cutoff  :      600.00
  volume of cell :      632.82
      direct lattice vectors                 reciprocal lattice vectors
     8.585408810  0.000000000  0.000000000     0.116476690 -0.000000002 -0.000000002
     0.000000160  8.585408810  0.000000000     0.000000000  0.116476690 -0.000000002
     0.000000160  0.000000160  8.585408810     0.000000000  0.000000000  0.116476690

  length of vectors
     8.585408810  8.585408810  8.585408810     0.116476690  0.116476690  0.116476690


 
 k-points in units of 2pi/SCALE and weight: Automatic mesh                          
   0.00727979  0.00727979  0.00727979       0.016
   0.02183938  0.00727979  0.00727979       0.047
   0.03639897  0.00727979  0.00727979       0.047
   0.05095855  0.00727979  0.00727979       0.047
   0.02183938  0.02183938  0.00727979       0.047
   0.03639897  0.02183938  0.00727979       0.094
   0.05095855  0.02183938  0.00727979       0.094
   0.03639897  0.03639896  0.00727979       0.047
   0.05095855  0.03639896  0.00727979       0.094
   0.05095855  0.05095855  0.00727979       0.047
   0.02183938  0.02183938  0.02183938       0.016
   0.03639897  0.02183938  0.02183938       0.047
   0.05095855  0.02183938  0.02183938       0.047
   0.03639897  0.03639896  0.02183938       0.047
   0.05095855  0.03639896  0.02183938       0.094
   0.05095855  0.05095855  0.02183938       0.047
   0.03639897  0.03639896  0.03639896       0.016
   0.05095855  0.03639896  0.03639896       0.047
   0.05095855  0.05095855  0.03639896       0.047
   0.05095855  0.05095855  0.05095855       0.016
 
 k-points in reciprocal lattice and weights: Automatic mesh                          
   0.06250000  0.06250000  0.06250000       0.016
   0.18750000  0.06250000  0.06250000       0.047
   0.31250000  0.06250000  0.06250000       0.047
   0.43750000  0.06250000  0.06250000       0.047
   0.18750000  0.18750000  0.06250000       0.047
   0.31250000  0.18750000  0.06250000       0.094
   0.43750000  0.18750000  0.06250000       0.094
   0.31250000  0.31250000  0.06250000       0.047
   0.43750000  0.31250000  0.06250000       0.094
   0.43750000  0.43750000  0.06250000       0.047
   0.18750000  0.18750000  0.18750000       0.016
   0.31250000  0.18750000  0.18750000       0.047
   0.43750000  0.18750000  0.18750000       0.047
   0.31250000  0.31250000  0.18750000       0.047
   0.43750000  0.31250000  0.18750000       0.094
   0.43750000  0.43750000  0.18750000       0.047
   0.31250000  0.31250000  0.31250000       0.016
   0.43750000  0.31250000  0.31250000       0.047
   0.43750000  0.43750000  0.31250000       0.047
   0.43750000  0.43750000  0.43750000       0.016
 
 position of ions in fractional coordinates (direct lattice) 
   0.75000000  0.75000000  0.50000000
   0.75000000  0.75000000  0.00000000
   0.75000000  0.00000000  0.25000000
   0.75000000  0.25000000  0.50000000
   0.00000000  0.75000000  0.25000000
   0.00000000  0.00000000  0.50000000
   0.25000000  0.75000000  0.50000000
   0.75000000  0.00000000  0.75000000
   0.75000000  0.25000000  0.00000000
   0.75000000  0.50000000  0.25000000
   0.00000000  0.75000000  0.75000000
   0.00000000  0.00000000  0.00000000
   0.00000000  0.25000000  0.25000000
   0.00000000  0.50000000  0.50000000
   0.25000000  0.75000000  0.00000000
   0.25000000  0.00000000  0.25000000
   0.25000000  0.25000000  0.50000000
   0.50000000  0.75000000  0.25000000
   0.50000000  0.00000000  0.50000000
   0.75000000  0.50000000  0.75000000
   0.00000000  0.25000000  0.75000000
   0.00000000  0.50000000  0.00000000
   0.25000000  0.00000000  0.75000000
   0.25000000  0.25000000  0.00000000
   0.25000000  0.50000000  0.25000000
   0.50000000  0.75000000  0.75000000
   0.50000000  0.00000000  0.00000000
   0.50000000  0.25000000  0.25000000
   0.50000000  0.50000000  0.50000000
   0.25000000  0.50000000  0.75000000
   0.50000000  0.25000000  0.75000000
   0.50000000  0.50000000  0.00000000
 
 position of ions in cartesian coordinates  (Angst):
   6.43905681  6.43905669  4.29270441
   6.43905673  6.43905661  0.00000000
   6.43905665  0.00000004  2.14635220
   6.43905673  2.14635228  4.29270441
   0.00000016  6.43905665  2.14635220
   0.00000008  0.00000008  4.29270441
   2.14635240  6.43905669  4.29270441
   6.43905673  0.00000012  6.43905661
   6.43905665  2.14635220  0.00000000
   6.43905673  4.29270445  2.14635220
   0.00000024  6.43905673  6.43905661
   0.00000000  0.00000000  0.00000000
   0.00000008  2.14635224  2.14635220
   0.00000016  4.29270449  4.29270441
   2.14635232  6.43905661  0.00000000
   2.14635224  0.00000004  2.14635220
   2.14635232  2.14635228  4.29270441
   4.29270457  6.43905665  2.14635220
   4.29270449  0.00000008  4.29270441
   6.43905681  4.29270453  6.43905661
   0.00000016  2.14635232  6.43905661
   0.00000008  4.29270441  0.00000000
   2.14635232  0.00000012  6.43905661
   2.14635224  2.14635220  0.00000000
   2.14635232  4.29270445  2.14635220
   4.29270465  6.43905673  6.43905661
   4.29270441  0.00000000  0.00000000
   4.29270448  2.14635224  2.14635220
   4.29270457  4.29270449  4.29270441
   2.14635240  4.29270453  6.43905661
   4.29270457  2.14635232  6.43905661
   4.29270449  4.29270441  0.00000000
 


--------------------------------------------------------------------------------------------------------


 k-point  1 :  0.06250.06250.0625  plane waves:  21112
 k-point  2 :  0.18750.06250.0625  plane waves:  21101
 k-point  3 :  0.31250.06250.0625  plane waves:  21104
 k-point  4 :  0.43750.06250.0625  plane waves:  21126
 k-point  5 :  0.18750.18750.0625  plane waves:  21114
 k-point  6 :  0.31250.18750.0625  plane waves:  21115
 k-point  7 :  0.43750.18750.0625  plane waves:  21110
 k-point  8 :  0.31250.31250.0625  plane waves:  21114
 k-point  9 :  0.43750.31250.0625  plane waves:  21108
 k-point 10 :  0.43750.43750.0625  plane waves:  21133
 k-point 11 :  0.18750.18750.1875  plane waves:  21101
 k-point 12 :  0.31250.18750.1875  plane waves:  21097
 k-point 13 :  0.43750.18750.1875  plane waves:  21120
 k-point 14 :  0.31250.31250.1875  plane waves:  21121
 k-point 15 :  0.43750.31250.1875  plane waves:  21123
 k-point 16 :  0.43750.43750.1875  plane waves:  21130
 k-point 17 :  0.31250.31250.3125  plane waves:  21131
 k-point 18 :  0.43750.31250.3125  plane waves:  21146
 k-point 19 :  0.43750.43750.3125  plane waves:  21128
 k-point 20 :  0.43750.43750.4375  plane waves:  21116

 maximum and minimum number of plane-waves per node :  21146 21097

 maximum number of plane-waves:  21146
 maximal index in each direction: 
   IXMAX= 17   IYMAX= 17   IZMAX= 17
   IXMIN=-17   IYMIN=-17   IZMIN=-17

 NGX is ok and might be reduce to  70
 NGY is ok and might be reduce to  70
 NGZ is ok and might be reduce to  70

 parallel 3dFFT wavefunction:
    minimum data exchange during FFTs selected (reduces bandwidth)
 parallel 3dFFT charge:
    minimum data exchange during FFTs selected (reduces bandwidth)

 For storing wavefunctions 1432.61 MBYTES are necessary
 For predicting wavefunctions  154.33 MBYTES are necessary
Broyden mixing: mesh for mixing (old mesh)
   NGX = 35   NGY = 35   NGZ = 35
  (NGX  =140   NGY  =140   NGZ  =140)
 gives a total of  42875 points
 initial charge density was supplied:
 charge density of overlapping atoms calculated
 number of electron  352.0000000 magnetization 
 keeping initial charge density in first step


--------------------------------------------------------------------------------------------------------


 Maximum index for augmentation-charges        64324 (set IRDMAX)


--------------------------------------------------------------------------------------------------------


 First call to EWALD:  gamma=   0.206
 Maximum number of real-space cells 3x 3x 3
 Maximum number of reciprocal cells 3x 3x 3

    FEWALD:  VPU time    0.01: CPU time    0.01


----------------------------------------- Iteration    1(   1)  ---------------------------------------


    POTLOK:  VPU time    0.59: CPU time    0.60
    SETDIJ:  VPU time    0.90: CPU time    0.90
    EDDIAG:  VPU time   25.89: CPU time   25.92
  RMM-DIIS:  VPU time   67.59: CPU time   67.67
    ORTHCH:  VPU time    4.82: CPU time    4.82
    DOS   :  VPU time    0.00: CPU time   -0.00
    ------------------------------------------
      LOOP:  VPU time   99.85: CPU time   99.96

 eigenvalue-minimisations  :  4240
 total energy-change (2. order) : 0.4445727E+04  (-0.1581808E+05)
 number of electron  352.0000000 magnetization 
 augmentation part   352.0000000 magnetization 

 Free energy of the ion-electron system (eV)
  ---------------------------------------------------
  alpha Z        PSCENC =      3030.49204843
  Ewald energy   TEWEN  =    -29775.34269908
  -1/2 Hartree   DENC   =     -4593.95226692
  -V(xc)+E(xc)   XCENC  =       476.14658996
  PAW double counting   =     23920.39735419   -23172.13309131
  entropy T*S    EENTRO =         0.01348080
  eigenvalues    EBANDS =      4926.33180620
  atomic energy  EATOM  =     29633.77399530
  ---------------------------------------------------
  free energy    TOTEN  =      4445.72721757 eV

  energy without entropy =     4445.71373678  energy(sigma->0) =     4445.72272397


--------------------------------------------------------------------------------------------------------




----------------------------------------- Iteration    1(   2)  ---------------------------------------


    EDDIAG:  VPU time   25.88: CPU time   25.91
  RMM-DIIS:  VPU time   67.39: CPU time   67.46
    ORTHCH:  VPU time    4.84: CPU time    4.84
    DOS   :  VPU time    0.00: CPU time   -0.00
    ------------------------------------------
      LOOP:  VPU time   98.15: CPU time   98.26

 eigenvalue-minimisations  :  4240
 total energy-change (2. order) :-0.3477836E+04  (-0.3724837E+04)
 number of electron  352.0000000 magnetization 
 augmentation part   352.0000000 magnetization 

 Free energy of the ion-electron system (eV)
  ---------------------------------------------------
  alpha Z        PSCENC =      3030.49204843
  Ewald energy   TEWEN  =    -29775.34269908
  -1/2 Hartree   DENC   =     -4593.95226692
  -V(xc)+E(xc)   XCENC  =       476.14658996
  PAW double counting   =     23920.39735419   -23172.13309131
  entropy T*S    EENTRO =         0.01342469
  eigenvalues    EBANDS =      1448.49569310
  atomic energy  EATOM  =     29633.77399530
  ---------------------------------------------------
  free energy    TOTEN  =       967.89104836 eV

  energy without entropy =      967.87762368  energy(sigma->0) =      967.88657347


--------------------------------------------------------------------------------------------------------




----------------------------------------- Iteration    1(   3)  ---------------------------------------


    EDDIAG:  VPU time   25.89: CPU time   25.92
  RMM-DIIS:  VPU time   67.52: CPU time   67.59
    ORTHCH:  VPU time    4.83: CPU time    4.84
    DOS   :  VPU time    0.00: CPU time   -0.00
    ------------------------------------------
      LOOP:  VPU time   98.29: CPU time   98.39

 eigenvalue-minimisations  :  4240
 total energy-change (2. order) :-0.7325081E+03  (-0.7874055E+03)
 number of electron  352.0000000 magnetization 
 augmentation part   352.0000000 magnetization 

 Free energy of the ion-electron system (eV)
  ---------------------------------------------------
  alpha Z        PSCENC =      3030.49204843
  Ewald energy   TEWEN  =    -29775.34269908
  -1/2 Hartree   DENC   =     -4593.95226692
  -V(xc)+E(xc)   XCENC  =       476.14658996
  PAW double counting   =     23920.39735419   -23172.13309131
  entropy T*S    EENTRO =         0.01258377
  eigenvalues    EBANDS =       715.98848292
  atomic energy  EATOM  =     29633.77399530
  ---------------------------------------------------
  free energy    TOTEN  =       235.38299726 eV

  energy without entropy =      235.37041349  energy(sigma->0) =      235.37880267


--------------------------------------------------------------------------------------------------------




----------------------------------------- Iteration    1(   4)  ---------------------------------------


    EDDIAG:  VPU time   25.96: CPU time   25.97
  RMM-DIIS:  VPU time   67.64: CPU time   67.66
    ORTHCH:  VPU time    4.83: CPU time    4.84
    DOS   :  VPU time    0.00: CPU time   -0.00
    ------------------------------------------
      LOOP:  VPU time   98.48: CPU time   98.52

 eigenvalue-minimisations  :  4240
 total energy-change (2. order) :-0.2196180E+03  (-0.1698366E+03)
 number of electron  352.0000000 magnetization 
 augmentation part   352.0000000 magnetization 

 Free energy of the ion-electron system (eV)
  ---------------------------------------------------
  alpha Z        PSCENC =      3030.49204843
  Ewald energy   TEWEN  =    -29775.34269908
  -1/2 Hartree   DENC   =     -4593.95226692
  -V(xc)+E(xc)   XCENC  =       476.14658996
  PAW double counting   =     23920.39735419   -23172.13309131
  entropy T*S    EENTRO =         0.01177776
  eigenvalues    EBANDS =       496.37128065
  atomic energy  EATOM  =     29633.77399530
  ---------------------------------------------------
  free energy    TOTEN  =        15.76498899 eV

  energy without entropy =       15.75321122  energy(sigma->0) =       15.76106307


--------------------------------------------------------------------------------------------------------




----------------------------------------- Iteration    1(   5)  ---------------------------------------


    EDDIAG:  VPU time   27.68: CPU time   27.70
  RMM-DIIS:  VPU time  130.08: CPU time  130.14
    ORTHCH:  VPU time    6.07: CPU time    6.07
    DOS   :  VPU time    0.00: CPU time   -0.00
    ------------------------------------------
      LOOP:  VPU time  163.89: CPU time  163.97

 eigenvalue-minimisations  :  4240
 total energy-change (2. order) :-0.8052721E+02  (-0.5556035E+02)
 number of electron  352.0000000 magnetization 
 augmentation part   352.0000000 magnetization 

 Free energy of the ion-electron system (eV)
  ---------------------------------------------------
  alpha Z        PSCENC =      3030.49204843
  Ewald energy   TEWEN  =    -29775.34269908
  -1/2 Hartree   DENC   =     -4593.95226692
  -V(xc)+E(xc)   XCENC  =       476.14658996
  PAW double counting   =     23920.39735419   -23172.13309131
  entropy T*S    EENTRO =        -0.01647381
  eigenvalues    EBANDS =       415.87232380
  atomic energy  EATOM  =     29633.77399530
  ---------------------------------------------------
  free energy    TOTEN  =       -64.76221943 eV

  energy without entropy =      -64.74574562  energy(sigma->0) =      -64.75672816


--------------------------------------------------------------------------------------------------------




----------------------------------------- Iteration    1(   6)  ---------------------------------------


    EDDIAG:  VPU time   38.53: CPU time   38.55
  RMM-DIIS:  VPU time  131.02: CPU time  131.08
    ORTHCH:  VPU time    6.09: CPU time    6.09
    DOS   :  VPU time    0.00: CPU time   -0.00
    ------------------------------------------
      LOOP:  VPU time  175.68: CPU time  175.77

 eigenvalue-minimisations  :  4240
 total energy-change (2. order) :-0.2766025E+02  (-0.2133894E+02)
 number of electron  352.0000000 magnetization 
 augmentation part   352.0000000 magnetization 

 Free energy of the ion-electron system (eV)
  ---------------------------------------------------
  alpha Z        PSCENC =      3030.49204843
  Ewald energy   TEWEN  =    -29775.34269908
  -1/2 Hartree   DENC   =     -4593.95226692
  -V(xc)+E(xc)   XCENC  =       476.14658996
  PAW double counting   =     23920.39735419   -23172.13309131
  entropy T*S    EENTRO =         0.00008750
  eigenvalues    EBANDS =       388.19551399
  atomic energy  EATOM  =     29633.77399530
  ---------------------------------------------------
  free energy    TOTEN  =       -92.42246794 eV

  energy without entropy =      -92.42255544  energy(sigma->0) =      -92.42249711


--------------------------------------------------------------------------------------------------------




----------------------------------------- Iteration    1(   7)  ---------------------------------------


    EDDIAG:  VPU time   38.29: CPU time   38.31
  RMM-DIIS:  VPU time  129.88: CPU time  130.01
    ORTHCH:  VPU time    6.11: CPU time    6.12
    DOS   :  VPU time    0.00: CPU time   -0.00
    ------------------------------------------
      LOOP:  VPU time  174.33: CPU time  174.50

 eigenvalue-minimisations  :  4240
 total energy-change (2. order) :-0.1165560E+02  (-0.9129059E+01)
 number of electron  352.0000000 magnetization 
 augmentation part   352.0000000 magnetization 

 Free energy of the ion-electron system (eV)
  ---------------------------------------------------
  alpha Z        PSCENC =      3030.49204843
  Ewald energy   TEWEN  =    -29775.34269908
  -1/2 Hartree   DENC   =     -4593.95226692
  -V(xc)+E(xc)   XCENC  =       476.14658996
  PAW double counting   =     23920.39735419   -23172.13309131
  entropy T*S    EENTRO =         0.00741712
  eigenvalues    EBANDS =       376.53258502
  atomic energy  EATOM  =     29633.77399530
  ---------------------------------------------------
  free energy    TOTEN  =      -104.07806728 eV

  energy without entropy =     -104.08548440  energy(sigma->0) =     -104.08053966


--------------------------------------------------------------------------------------------------------




----------------------------------------- Iteration    1(   8)  ---------------------------------------


    EDDIAG:  VPU time   38.19: CPU time   38.21
  RMM-DIIS:  VPU time  130.49: CPU time  130.55
    ORTHCH:  VPU time    6.04: CPU time    6.05
    DOS   :  VPU time    0.00: CPU time   -0.00
    ------------------------------------------
      LOOP:  VPU time  174.78: CPU time  174.87

 eigenvalue-minimisations  :  4240
 total energy-change (2. order) :-0.3964728E+01  (-0.3547873E+01)
 number of electron  352.0000000 magnetization 
 augmentation part   352.0000000 magnetization 

 Free energy of the ion-electron system (eV)
  ---------------------------------------------------
  alpha Z        PSCENC =      3030.49204843
  Ewald energy   TEWEN  =    -29775.34269908
  -1/2 Hartree   DENC   =     -4593.95226692
  -V(xc)+E(xc)   XCENC  =       476.14658996
  PAW double counting   =     23920.39735419   -23172.13309131
  entropy T*S    EENTRO =         0.01276975
  eigenvalues    EBANDS =       372.56250456
  atomic energy  EATOM  =     29633.77399530
  ---------------------------------------------------
  free energy    TOTEN  =      -108.04279512 eV

  energy without entropy =     -108.05556487  energy(sigma->0) =     -108.04705170


--------------------------------------------------------------------------------------------------------




----------------------------------------- Iteration    1(   9)  ---------------------------------------


    EDDIAG:  VPU time   38.41: CPU time   38.43
  RMM-DIIS:  VPU time  258.16: CPU time  258.46
    ORTHCH:  VPU time    6.04: CPU time    6.05
    DOS   :  VPU time    0.00: CPU time   -0.00
    ------------------------------------------
      LOOP:  VPU time  302.67: CPU time  303.00

 eigenvalue-minimisations  :  8903
 total energy-change (2. order) :-0.2279205E+01  (-0.2122057E+01)
 number of electron  352.0000000 magnetization 
 augmentation part   352.0000000 magnetization 

 Free energy of the ion-electron system (eV)
  ---------------------------------------------------
  alpha Z        PSCENC =      3030.49204843
  Ewald energy   TEWEN  =    -29775.34269908
  -1/2 Hartree   DENC   =     -4593.95226692
  -V(xc)+E(xc)   XCENC  =       476.14658996
  PAW double counting   =     23920.39735419   -23172.13309131
  entropy T*S    EENTRO =         0.01293448
  eigenvalues    EBANDS =       370.28313457
  atomic energy  EATOM  =     29633.77399530
  ---------------------------------------------------
  free energy    TOTEN  =      -110.32200037 eV

  energy without entropy =     -110.33493486  energy(sigma->0) =     -110.32631187


--------------------------------------------------------------------------------------------------------




----------------------------------------- Iteration    1(  10)  ---------------------------------------


    EDDIAG:  VPU time   38.41: CPU time   38.43
  RMM-DIIS:  VPU time  287.42: CPU time  287.58
    ORTHCH:  VPU time    6.10: CPU time    6.10
    DOS   :  VPU time    0.00: CPU time   -0.00
    ------------------------------------------
      LOOP:  VPU time  331.98: CPU time  332.16

 eigenvalue-minimisations  :  9713
 total energy-change (2. order) :-0.2612275E+00  (-0.2620046E+00)
 number of electron  352.0000000 magnetization 
 augmentation part   352.0000000 magnetization 

 Free energy of the ion-electron system (eV)
  ---------------------------------------------------
  alpha Z        PSCENC =      3030.49204843
  Ewald energy   TEWEN  =    -29775.34269908
  -1/2 Hartree   DENC   =     -4593.95226692
  -V(xc)+E(xc)   XCENC  =       476.14658996
  PAW double counting   =     23920.39735419   -23172.13309131
  entropy T*S    EENTRO =         0.01300481
  eigenvalues    EBANDS =       370.02183670
  atomic energy  EATOM  =     29633.77399530
  ---------------------------------------------------
  free energy    TOTEN  =      -110.58322792 eV

  energy without entropy =     -110.59623273  energy(sigma->0) =     -110.58756286


--------------------------------------------------------------------------------------------------------




----------------------------------------- Iteration    1(  11)  ---------------------------------------


    EDDIAG:  VPU time   36.67: CPU time   36.69
  RMM-DIIS:  VPU time  273.67: CPU time  273.80
    ORTHCH:  VPU time    7.22: CPU time    7.23
    DOS   :  VPU time    0.00: CPU time   -0.00
    ------------------------------------------
      LOOP:  VPU time  317.62: CPU time  317.78

 eigenvalue-minimisations  :  9028
 total energy-change (2. order) :-0.9352993E-02  (-0.7616848E-02)
 number of electron  352.0000000 magnetization 
 augmentation part   352.0000000 magnetization 

 Free energy of the ion-electron system (eV)
  ---------------------------------------------------
  alpha Z        PSCENC =      3030.49204843
  Ewald energy   TEWEN  =    -29775.34269908
  -1/2 Hartree   DENC   =     -4593.95226692
  -V(xc)+E(xc)   XCENC  =       476.14658996
  PAW double counting   =     23920.39735419   -23172.13309131
  entropy T*S    EENTRO =         0.01300935
  eigenvalues    EBANDS =       370.01247917
  atomic energy  EATOM  =     29633.77399530
  ---------------------------------------------------
  free energy    TOTEN  =      -110.59258091 eV

  energy without entropy =     -110.60559026  energy(sigma->0) =     -110.59691736


--------------------------------------------------------------------------------------------------------




----------------------------------------- Iteration    1(  12)  ---------------------------------------


    EDDIAG:  VPU time   56.72: CPU time   56.78
  RMM-DIIS:  VPU time  684.70: CPU time  685.30
    ORTHCH:  VPU time    8.78: CPU time    8.79
    DOS   :  VPU time    0.00: CPU time   -0.00
    CHARGE:  VPU time   28.47: CPU time   28.50
    MIXING:  VPU time    0.03: CPU time    0.03
    ------------------------------------------
      LOOP:  VPU time  778.76: CPU time  779.45

 eigenvalue-minimisations  :  8921
 total energy-change (2. order) :-0.1648666E-02  (-0.1567198E-02)
 number of electron  352.0000007 magnetization 
 augmentation part   124.6211141 magnetization 

 Broyden mixing:
  rms(total) = 0.15491E+01    rms(broyden)= 0.15491E+01
  rms(prec ) = 0.23687E+01
  weight for this iteration     100.00

 Free energy of the ion-electron system (eV)
  ---------------------------------------------------
  alpha Z        PSCENC =      3030.49204843
  Ewald energy   TEWEN  =    -29775.34269908
  -1/2 Hartree   DENC   =     -4593.95226692
  -V(xc)+E(xc)   XCENC  =       476.14658996
  PAW double counting   =     23920.39735419   -23172.13309131
  entropy T*S    EENTRO =         0.01301278
  eigenvalues    EBANDS =       370.01082707
  atomic energy  EATOM  =     29633.77399530
  ---------------------------------------------------
  free energy    TOTEN  =      -110.59422958 eV

  energy without entropy =     -110.60724236  energy(sigma->0) =     -110.59856717


--------------------------------------------------------------------------------------------------------




----------------------------------------- Iteration    1(  13)  ---------------------------------------


    POTLOK:  VPU time    1.24: CPU time    1.24
    SETDIJ:  VPU time    2.83: CPU time    2.83
    EDDIAG:  VPU time   58.26: CPU time   58.31
  RMM-DIIS:  VPU time  664.02: CPU time  664.59
    ORTHCH:  VPU time    8.41: CPU time    8.42
    DOS   :  VPU time    0.00: CPU time   -0.00
    CHARGE:  VPU time   28.53: CPU time   28.56
    MIXING:  VPU time    0.03: CPU time    0.03
    ------------------------------------------
      LOOP:  VPU time  763.38: CPU time  764.04

 eigenvalue-minimisations  :  8480
 total energy-change (2. order) : 0.7120702E+01  (-0.2136497E+01)
 number of electron  352.0000007 magnetization 
 augmentation part   128.9655568 magnetization 

 Broyden mixing:
  rms(total) = 0.40559E+00    rms(broyden)= 0.40559E+00
  rms(prec ) = 0.59393E+00
  weight for this iteration     100.00

 eigenvalues of (default mixing * dielectric matrix)
  average eigenvalue GAMMA=   1.1933
  1.1933

 Free energy of the ion-electron system (eV)
  ---------------------------------------------------
  alpha Z        PSCENC =      3030.49204843
  Ewald energy   TEWEN  =    -29775.34269908
  -1/2 Hartree   DENC   =     -4344.35107019
  -V(xc)+E(xc)   XCENC  =       465.07848847
  PAW double counting   =     23549.40217530   -22832.20885556
  entropy T*S    EENTRO =         0.00790372
  eigenvalues    EBANDS =       169.67448632
  atomic energy  EATOM  =     29633.77399530
  ---------------------------------------------------
  free energy    TOTEN  =      -103.47352728 eV

  energy without entropy =     -103.48143101  energy(sigma->0) =     -103.47616186


--------------------------------------------------------------------------------------------------------




----------------------------------------- Iteration    1(  14)  ---------------------------------------


    POTLOK:  VPU time    1.18: CPU time    1.18
    SETDIJ:  VPU time    2.78: CPU time    2.79
    EDDIAG:  VPU time   56.90: CPU time   57.07
  RMM-DIIS:  VPU time  655.84: CPU time  658.14
    ORTHCH:  VPU time    8.47: CPU time    8.50
    DOS   :  VPU time   -0.00: CPU time   -0.00
    CHARGE:  VPU time   28.79: CPU time   28.90
    MIXING:  VPU time    0.03: CPU time    0.03
    ------------------------------------------
      LOOP:  VPU time  754.06: CPU time  756.69

 eigenvalue-minimisations  :  8481
 total energy-change (2. order) : 0.2915297E+00  (-0.2102921E+00)
 number of electron  352.0000007 magnetization 
 augmentation part   130.0162704 magnetization 

 Broyden mixing:
  rms(total) = 0.17849E+00    rms(broyden)= 0.17849E+00
  rms(prec ) = 0.20290E+00
  weight for this iteration     100.00

 eigenvalues of (default mixing * dielectric matrix)
  average eigenvalue GAMMA=   1.7461
  1.2513  2.2409

 Free energy of the ion-electron system (eV)
  ---------------------------------------------------
  alpha Z        PSCENC =      3030.49204843
  Ewald energy   TEWEN  =    -29775.34269908
  -1/2 Hartree   DENC   =     -4273.69293431
  -V(xc)+E(xc)   XCENC  =       461.80574941
  PAW double counting   =     23522.05106453   -22822.95913209
  entropy T*S    EENTRO =         0.00731737
  eigenvalues    EBANDS =       120.68259280
  atomic energy  EATOM  =     29633.77399530
  ---------------------------------------------------
  free energy    TOTEN  =      -103.18199763 eV

  energy without entropy =     -103.18931500  energy(sigma->0) =     -103.18443675


--------------------------------------------------------------------------------------------------------




----------------------------------------- Iteration    1(  15)  ---------------------------------------


    POTLOK:  VPU time    1.20: CPU time    1.20
    SETDIJ:  VPU time    2.79: CPU time    2.79
    EDDIAG:  VPU time   56.61: CPU time   56.67
  RMM-DIIS:  VPU time  664.97: CPU time  665.54
    ORTHCH:  VPU time    8.46: CPU time    8.47
    DOS   :  VPU time    0.00: CPU time   -0.00
    CHARGE:  VPU time   28.59: CPU time   28.61
    MIXING:  VPU time    0.03: CPU time    0.03
    ------------------------------------------
      LOOP:  VPU time  762.70: CPU time  763.37

 eigenvalue-minimisations  :  8484
 total energy-change (2. order) : 0.6066343E-01  (-0.9783178E-02)
 number of electron  352.0000007 magnetization 
 augmentation part   129.8783142 magnetization 

 Broyden mixing:
  rms(total) = 0.28803E-01    rms(broyden)= 0.28801E-01
  rms(prec ) = 0.44238E-01
  weight for this iteration     100.00

 eigenvalues of (default mixing * dielectric matrix)
  average eigenvalue GAMMA=   1.7579
  1.2633  1.2633  2.7473

 Free energy of the ion-electron system (eV)
  ---------------------------------------------------
  alpha Z        PSCENC =      3030.49204843
  Ewald energy   TEWEN  =    -29775.34269908
  -1/2 Hartree   DENC   =     -4262.36098517
  -V(xc)+E(xc)   XCENC  =       461.09218569
  PAW double counting   =     23641.60387596   -22956.32724328
  entropy T*S    EENTRO =         0.00749104
  eigenvalues    EBANDS =       123.93999691
  atomic energy  EATOM  =     29633.77399530
  ---------------------------------------------------
  free energy    TOTEN  =      -103.12133421 eV

  energy without entropy =     -103.12882524  energy(sigma->0) =     -103.12383122


--------------------------------------------------------------------------------------------------------




----------------------------------------- Iteration    1(  16)  ---------------------------------------


    POTLOK:  VPU time    1.19: CPU time    1.20
    SETDIJ:  VPU time    2.79: CPU time    2.79
    EDDIAG:  VPU time   56.69: CPU time   56.75
  RMM-DIIS:  VPU time  647.01: CPU time  647.56
    ORTHCH:  VPU time    8.46: CPU time    8.47
    DOS   :  VPU time    0.00: CPU time   -0.00
    CHARGE:  VPU time   28.53: CPU time   28.56
    MIXING:  VPU time    0.03: CPU time    0.03
    ------------------------------------------
      LOOP:  VPU time  744.76: CPU time  745.41

 eigenvalue-minimisations  :  8530
 total energy-change (2. order) : 0.3569996E-03  (-0.2023486E-02)
 number of electron  352.0000007 magnetization 
 augmentation part   129.9937382 magnetization 

 Broyden mixing:
  rms(total) = 0.11469E-01    rms(broyden)= 0.11468E-01
  rms(prec ) = 0.15991E-01
  weight for this iteration     100.00

 eigenvalues of (default mixing * dielectric matrix)
  average eigenvalue GAMMA=   1.8677
  1.0920  1.0920  2.6434  2.6434

 Free energy of the ion-electron system (eV)
  ---------------------------------------------------
  alpha Z        PSCENC =      3030.49204843
  Ewald energy   TEWEN  =    -29775.34269908
  -1/2 Hartree   DENC   =     -4253.46451357
  -V(xc)+E(xc)   XCENC  =       460.66922456
  PAW double counting   =     23652.10801418   -22968.94364711
  entropy T*S    EENTRO =         0.00735855
  eigenvalues    EBANDS =       117.57924153
  atomic energy  EATOM  =     29633.77399530
  ---------------------------------------------------
  free energy    TOTEN  =      -103.12097721 eV

  energy without entropy =     -103.12833576  energy(sigma->0) =     -103.12343006


--------------------------------------------------------------------------------------------------------




----------------------------------------- Iteration    1(  17)  ---------------------------------------


    POTLOK:  VPU time    1.18: CPU time    1.18
    SETDIJ:  VPU time    2.79: CPU time    2.79
    EDDIAG:  VPU time   56.53: CPU time   56.58
  RMM-DIIS:  VPU time  679.73: CPU time  680.31
    ORTHCH:  VPU time    8.41: CPU time    8.42
    DOS   :  VPU time    0.00: CPU time   -0.00
    CHARGE:  VPU time   28.61: CPU time   28.63
    MIXING:  VPU time    0.03: CPU time    0.03
    ------------------------------------------
      LOOP:  VPU time  777.32: CPU time  778.00

 eigenvalue-minimisations  :  8669
 total energy-change (2. order) : 0.2330431E-03  (-0.7139826E-04)
 number of electron  352.0000007 magnetization 
 augmentation part   129.9904877 magnetization 

 Broyden mixing:
  rms(total) = 0.51494E-02    rms(broyden)= 0.51494E-02
  rms(prec ) = 0.72653E-02
  weight for this iteration     100.00

 eigenvalues of (default mixing * dielectric matrix)
  average eigenvalue GAMMA=   1.7196
  2.8420  2.3773  1.0623  1.1583  1.1583

 Free energy of the ion-electron system (eV)
  ---------------------------------------------------
  alpha Z        PSCENC =      3030.49204843
  Ewald energy   TEWEN  =    -29775.34269908
  -1/2 Hartree   DENC   =     -4255.47650657
  -V(xc)+E(xc)   XCENC  =       460.75550537
  PAW double counting   =     23659.17223457   -22974.81034179
  entropy T*S    EENTRO =         0.00737265
  eigenvalues    EBANDS =       118.30764695
  atomic energy  EATOM  =     29633.77399530
  ---------------------------------------------------
  free energy    TOTEN  =      -103.12074416 eV

  energy without entropy =     -103.12811681  energy(sigma->0) =     -103.12320171


--------------------------------------------------------------------------------------------------------




----------------------------------------- Iteration    1(  18)  ---------------------------------------


    POTLOK:  VPU time    1.19: CPU time    1.20
    SETDIJ:  VPU time    2.78: CPU time    2.78
    EDDIAG:  VPU time   56.57: CPU time   56.75
  RMM-DIIS:  VPU time  648.40: CPU time  650.67
    ORTHCH:  VPU time    8.42: CPU time    8.45
    DOS   :  VPU time    0.00: CPU time   -0.00
    CHARGE:  VPU time   28.77: CPU time   28.88
    MIXING:  VPU time    0.03: CPU time    0.03
    ------------------------------------------
      LOOP:  VPU time  746.21: CPU time  748.82

 eigenvalue-minimisations  :  8480
 total energy-change (2. order) : 0.6330090E-04  (-0.3366016E-04)
 number of electron  352.0000007 magnetization 
 augmentation part   129.9740485 magnetization 

 Broyden mixing:
  rms(total) = 0.27528E-03    rms(broyden)= 0.27517E-03
  rms(prec ) = 0.35617E-03
  weight for this iteration     100.00

 eigenvalues of (default mixing * dielectric matrix)
  average eigenvalue GAMMA=   1.8908
  2.8956  2.8956  2.3544  0.9707  1.1144  1.1144

 Free energy of the ion-electron system (eV)
  ---------------------------------------------------
  alpha Z        PSCENC =      3030.49204843
  Ewald energy   TEWEN  =    -29775.34269908
  -1/2 Hartree   DENC   =     -4256.25862739
  -V(xc)+E(xc)   XCENC  =       460.78798418
  PAW double counting   =     23661.02683778   -22976.67769006
  entropy T*S    EENTRO =         0.00739138
  eigenvalues    EBANDS =       119.07007860
  atomic energy  EATOM  =     29633.77399530
  ---------------------------------------------------
  free energy    TOTEN  =      -103.12068086 eV

  energy without entropy =     -103.12807224  energy(sigma->0) =     -103.12314465


--------------------------------------------------------------------------------------------------------




----------------------------------------- Iteration    1(  19)  ---------------------------------------


    POTLOK:  VPU time    1.20: CPU time    1.20
    SETDIJ:  VPU time    2.78: CPU time    2.79
    EDDIAG:  VPU time   56.39: CPU time   56.60
  RMM-DIIS:  VPU time  385.88: CPU time  387.26
    ORTHCH:  VPU time    8.48: CPU time    8.51
    DOS   :  VPU time    0.00: CPU time   -0.00
    ------------------------------------------
      LOOP:  VPU time  454.79: CPU time  456.42

 eigenvalue-minimisations  :  4776
 total energy-change (2. order) : 0.3595778E-05  (-0.6251700E-06)
 number of electron  352.0000007 magnetization 
 augmentation part   129.9740485 magnetization 

 Free energy of the ion-electron system (eV)
  ---------------------------------------------------
  alpha Z        PSCENC =      3030.49204843
  Ewald energy   TEWEN  =    -29775.34269908
  -1/2 Hartree   DENC   =     -4256.29645538
  -V(xc)+E(xc)   XCENC  =       460.78973552
  PAW double counting   =     23660.55849332   -22976.19487621
  entropy T*S    EENTRO =         0.00739194
  eigenvalues    EBANDS =       119.09168889
  atomic energy  EATOM  =     29633.77399530
  ---------------------------------------------------
  free energy    TOTEN  =      -103.12067727 eV

  energy without entropy =     -103.12806920  energy(sigma->0) =     -103.12314125


--------------------------------------------------------------------------------------------------------




 average (electrostatic) potential at core
  the test charge radii are     1.2098
  (the norm of the test charge is              1.0000)
       1 -46.8426       2 -46.8426       3 -46.8426       4 -46.8426       5 -46.8426
       6 -46.8426       7 -46.8426       8 -46.8426       9 -46.8426      10 -46.8426
      11 -46.8426      12 -46.8426      13 -46.8426      14 -46.8426      15 -46.8426
      16 -46.8426      17 -46.8426      18 -46.8426      19 -46.8426      20 -46.8426
      21 -46.8426      22 -46.8426      23 -46.8426      24 -46.8426      25 -46.8426
      26 -46.8426      27 -46.8426      28 -46.8426      29 -46.8426      30 -46.8426
      31 -46.8426      32 -46.8426
 
 
 
 E-fermi :   3.9909     XC(G=0): -11.8439     alpha+bet : -8.7755
   add alpha+bet to get absolut eigen values

 k-point   1 :       0.0625    0.0625    0.0625
  band No.  band energies     occupation 
      1      -4.3709      2.00000
      2      -2.4245      2.00000
      3      -2.4245      2.00000
      4      -2.4245      2.00000
      5      -2.1208      2.00000
      6      -2.0992      2.00000
      7      -2.0992      2.00000
      8      -2.0992      2.00000
      9      -2.0629      2.00000
     10      -2.0629      2.00000
     11      -2.0629      2.00000
     12      -1.8540      2.00000
     13      -1.8540      2.00000
     14      -1.8540      2.00000
     15      -1.6219      2.00000
     16      -1.6219      2.00000
     17      -1.6219      2.00000
     18      -1.2896      2.00000
     19      -1.2896      2.00000
     20      -1.2896      2.00000
     21      -1.1179      2.00000
     22      -1.1179      2.00000
     23      -1.1179      2.00000
     24      -1.1179      2.00000
     25      -1.1179      2.00000
     26      -1.1179      2.00000
     27      -1.0406      2.00000
     28      -1.0406      2.00000
     29      -1.0406      2.00000
     30      -0.9765      2.00000
     31      -0.9765      2.00000
     32      -0.9765      2.00000
     33      -0.9765      2.00000
     34      -0.9765      2.00000
     35      -0.9765      2.00000
     36      -0.9642      2.00000
     37      -0.9642      2.00000
     38      -0.9642      2.00000
     39      -0.8097      2.00000
     40      -0.8097      2.00000
     41      -0.8097      2.00000
     42      -0.5101      2.00000
     43      -0.5101      2.00000
     44      -0.5101      2.00000
     45      -0.5101      2.00000
     46      -0.5101      2.00000
     47      -0.5101      2.00000
     48      -0.4312      2.00000
     49      -0.4312      2.00000
     50      -0.4312      2.00000
     51      -0.4087      2.00000
     52      -0.4087      2.00000
     53      -0.4087      2.00000
     54      -0.4087      2.00000
     55      -0.4087      2.00000
     56      -0.4087      2.00000
     57      -0.3465      2.00000
     58      -0.3465      2.00000
     59      -0.3465      2.00000
     60      -0.2015      2.00000
     61      -0.2015      2.00000
     62      -0.2015      2.00000
     63      -0.2015      2.00000
     64      -0.2015      2.00000
     65      -0.2015      2.00000
     66      -0.1377      2.00000
     67      -0.1377      2.00000
     68      -0.1377      2.00000
     69      -0.1377      2.00000
     70      -0.1377      2.00000
     71      -0.1377      2.00000
     72      -0.1294      2.00000
     73      -0.1294      2.00000
     74      -0.1294      2.00000
     75      -0.0675      2.00000
     76      -0.0675      2.00000
     77      -0.0675      2.00000
     78      -0.0519      2.00000
     79      -0.0519      2.00000
     80      -0.0519      2.00000
     81      -0.0496      2.00000
     82      -0.0496      2.00000
     83      -0.0434      2.00000
     84      -0.0390      2.00000
     85      -0.0390      2.00000
     86      -0.0390      2.00000
     87      -0.0255      2.00000
     88      -0.0255      2.00000
     89       0.4872      2.00000
     90       0.4872      2.00000
     91       0.4872      2.00000
     92       0.5633      2.00000
     93       0.5633      2.00000
     94       0.5633      2.00000
     95       0.6460      2.00000
     96       0.6460      2.00000
     97       0.6460      2.00000
     98       0.7138      2.00000
     99       0.7138      2.00000
    100       0.7138      2.00000
    101       0.7138      2.00000
    102       0.7138      2.00000
    103       0.7138      2.00000
    104       0.7179      2.00000
    105       0.7179      2.00000
    106       0.7179      2.00000
    107       0.8122      2.00000
    108       0.8122      2.00000
    109       0.8122      2.00000
    110       0.8847      2.00000
    111       0.8847      2.00000
    112       0.8847      2.00000
    113       1.0252      2.00000
    114       1.0252      2.00000
    115       1.0252      2.00000
    116       1.0514      2.00000
    117       1.0514      2.00000
    118       1.0514      2.00000
    119       1.0740      2.00000
    120       1.0740      2.00000
    121       1.0740      2.00000
    122       1.0740      2.00000
    123       1.0740      2.00000
    124       1.0740      2.00000
    125       1.1127      2.00000
    126       1.1127      2.00000
    127       1.1127      2.00000
    128       1.1256      2.00000
    129       1.1256      2.00000
    130       1.1824      2.00000
    131       1.1824      2.00000
    132       1.1824      2.00000
    133       1.1824      2.00000
    134       1.1824      2.00000
    135       1.1824      2.00000
    136       1.2743      2.00000
    137       1.2743      2.00000
    138       1.2743      2.00000
    139       1.5229      2.00000
    140       1.5229      2.00000
    141       1.5229      2.00000
    142       1.6141      2.00000
    143       1.6141      2.00000
    144       1.6141      2.00000
    145       1.9444      2.00000
    146       1.9444      2.00000
    147       1.9444      2.00000
    148       1.9993      2.00000
    149       1.9993      2.00000
    150       1.9993      2.00000
    151       2.0342      2.00000
    152       2.0342      2.00000
    153       2.0538      2.00000
    154       2.0538      2.00000
    155       2.0538      2.00000
    156       2.2373      2.00000
    157       2.2373      2.00000
    158       2.2373      2.00000
    159       2.2808      2.00000
    160       2.2808      2.00000
    161       2.2808      2.00000
    162       2.2808      2.00000
    163       2.2808      2.00000
    164       2.2808      2.00000
    165       2.2843      2.00000
    166       2.2843      2.00000
    167       2.2843      2.00000
    168       3.1587      2.00000
    169       3.1587      2.00000
    170       3.1587      2.00000
    171       3.3835      2.00015
    172       3.5610      2.00958
    173       3.5610      2.00958
    174       3.5610      2.00958
    175       3.5610      2.00958
    176       3.5610      2.00958
    177       3.5610      2.00958
    178       3.7594      2.06938
    179       3.7594      2.06938
    180       3.7594      2.06938
    181       3.9843      1.05566
    182       3.9843      1.05566
    183       3.9843      1.05566
    184       5.3731     -0.00000
    185       5.3731     -0.00000
    186       5.3731     -0.00000
    187       6.3880     -0.00000
    188       6.3880     -0.00000
    189       6.3880     -0.00000
    190       6.6908     -0.00000
    191       7.8883     -0.00000
    192       7.8883     -0.00000
    193       7.8883     -0.00000
    194       7.8883     -0.00000
    195       7.8883     -0.00000
    196       7.8883     -0.00000
    197       8.8017     -0.00000
    198       8.8017     -0.00000
    199       8.8023     -0.00000
    200       9.5149      0.00000
    201       9.5149      0.00000
    202       9.5151      0.00000
    203       9.5153      0.00000
    204       9.5156      0.00000
    205       9.5300      0.00000
    206      10.2461      0.00000
    207      10.2466      0.00000
    208      10.2488      0.00000
    209      10.2550      0.00000
    210      10.2659      0.00000
    211      10.8352      0.00000
    212      11.2445      0.00000

 k-point   2 :       0.1875    0.0625    0.0625
  band No.  band energies     occupation 
      1      -4.2911      2.00000
      2      -2.8340      2.00000
      3      -2.3673      2.00000
      4      -2.3673      2.00000
      5      -2.1004      2.00000
      6      -2.0570      2.00000
      7      -2.0570      2.00000
      8      -2.0360      2.00000
      9      -2.0074      2.00000
     10      -2.0074      2.00000
     11      -1.8295      2.00000
     12      -1.8146      2.00000
     13      -1.8049      2.00000
     14      -1.8049      2.00000
     15      -1.5953      2.00000
     16      -1.5806      2.00000
     17      -1.5806      2.00000
     18      -1.4838      2.00000
     19      -1.4838      2.00000
     20      -1.4383      2.00000
     21      -1.2897      2.00000
     22      -1.2897      2.00000
     23      -1.2335      2.00000
     24      -1.2335      2.00000
     25      -1.2036      2.00000
     26      -1.1117      2.00000
     27      -1.0758      2.00000
     28      -1.0758      2.00000
     29      -0.9843      2.00000
     30      -0.9843      2.00000
     31      -0.9651      2.00000
     32      -0.9651      2.00000
     33      -0.9513      2.00000
     34      -0.9513      2.00000
     35      -0.9384      2.00000
     36      -0.9384      2.00000
     37      -0.9382      2.00000
     38      -0.9382      2.00000
     39      -0.7879      2.00000
     40      -0.7879      2.00000
     41      -0.7796      2.00000
     42      -0.7796      2.00000
     43      -0.6538      2.00000
     44      -0.5310      2.00000
     45      -0.5310      2.00000
     46      -0.5100      2.00000
     47      -0.5100      2.00000
     48      -0.4994      2.00000
     49      -0.4994      2.00000
     50      -0.4778      2.00000
     51      -0.4778      2.00000
     52      -0.4156      2.00000
     53      -0.4156      2.00000
     54      -0.3292      2.00000
     55      -0.3292      2.00000
     56      -0.3286      2.00000
     57      -0.3053      2.00000
     58      -0.3053      2.00000
     59      -0.2793      2.00000
     60      -0.2621      2.00000
     61      -0.2621      2.00000
     62      -0.2509      2.00000
     63      -0.2509      2.00000
     64      -0.1952      2.00000
     65      -0.1952      2.00000
     66      -0.1654      2.00000
     67      -0.1654      2.00000
     68      -0.1643      2.00000
     69      -0.1643      2.00000
     70      -0.1004      2.00000
     71      -0.0850      2.00000
     72      -0.0850      2.00000
     73      -0.0756      2.00000
     74      -0.0475      2.00000
     75      -0.0270      2.00000
     76      -0.0222      2.00000
     77      -0.0222      2.00000
     78      -0.0035      2.00000
     79      -0.0035      2.00000
     80       0.0041      2.00000
     81       0.0045      2.00000
     82       0.0065      2.00000
     83       0.0094      2.00000
     84       0.0094      2.00000
     85       0.0379      2.00000
     86       0.0852      2.00000
     87       0.1393      2.00000
     88       0.1393      2.00000
     89       0.3644      2.00000
     90       0.3644      2.00000
     91       0.4086      2.00000
     92       0.4086      2.00000
     93       0.4971      2.00000
     94       0.5153      2.00000
     95       0.5894      2.00000
     96       0.5894      2.00000
     97       0.6045      2.00000
     98       0.6152      2.00000
     99       0.6657      2.00000
    100       0.6657      2.00000
    101       0.7104      2.00000
    102       0.7840      2.00000
    103       0.7840      2.00000
    104       0.7966      2.00000
    105       0.7966      2.00000
    106       0.8013      2.00000
    107       0.8013      2.00000
    108       0.8059      2.00000
    109       0.8391      2.00000
    110       0.8391      2.00000
    111       0.9666      2.00000
    112       0.9666      2.00000
    113       0.9967      2.00000
    114       0.9967      2.00000
    115       1.0025      2.00000
    116       1.0025      2.00000
    117       1.0788      2.00000
    118       1.0788      2.00000
    119       1.0888      2.00000
    120       1.0925      2.00000
    121       1.0925      2.00000
    122       1.1319      2.00000
    123       1.1319      2.00000
    124       1.1420      2.00000
    125       1.1765      2.00000
    126       1.1765      2.00000
    127       1.1989      2.00000
    128       1.2337      2.00000
    129       1.2337      2.00000
    130       1.2469      2.00000
    131       1.3208      2.00000
    132       1.3208      2.00000
    133       1.3487      2.00000
    134       1.3487      2.00000
    135       1.3778      2.00000
    136       1.3940      2.00000
    137       1.4047      2.00000
    138       1.4047      2.00000
    139       1.4354      2.00000
    140       1.5677      2.00000
    141       1.5677      2.00000
    142       1.6843      2.00000
    143       1.6843      2.00000
    144       1.7062      2.00000
    145       1.7231      2.00000
    146       1.7494      2.00000
    147       1.7494      2.00000
    148       1.9018      2.00000
    149       1.9414      2.00000
    150       1.9414      2.00000
    151       1.9702      2.00000
    152       1.9759      2.00000
    153       2.0278      2.00000
    154       2.0290      2.00000
    155       2.0290      2.00000
    156       2.0416      2.00000
    157       2.0416      2.00000
    158       2.1680      2.00000
    159       2.2123      2.00000
    160       2.2123      2.00000
    161       2.2132      2.00000
    162       2.2132      2.00000
    163       2.2260      2.00000
    164       2.2807      2.00000
    165       2.2807      2.00000
    166       2.2809      2.00000
    167       2.2809      2.00000
    168       2.8019      2.00000
    169       2.8020      2.00000
    170       3.1328      2.00000
    171       3.1495      2.00000
    172       3.1760      2.00000
    173       3.1760      2.00000
    174       3.5677      2.01081
    175       3.5677      2.01081
    176       3.7206      2.06679
    177       3.7206      2.06679
    178       4.0077      0.85810
    179       4.0269      0.70078
    180       4.0269      0.70078
    181       4.0692      0.39026
    182       4.4621     -0.00430
    183       4.4621     -0.00430
    184       4.7199     -0.00000
    185       5.6334     -0.00000
    186       5.6334     -0.00000
    187       6.3926     -0.00000
    188       6.7098     -0.00000
    189       6.7098     -0.00000
    190       7.1994     -0.00000
    191       7.3685     -0.00000
    192       7.3685     -0.00000
    193       7.5498     -0.00000
    194       7.5498     -0.00000
    195       7.8598     -0.00000
    196       7.8598     -0.00000
    197       8.7512     -0.00000
    198       8.7516     -0.00000
    199       8.9326     -0.00000
    200       8.9328     -0.00000
    201       9.4537      0.00000
    202       9.4556      0.00000
    203       9.6105      0.00000
    204       9.6179      0.00000
    205       9.6296      0.00000
    206      10.1982      0.00000
    207      10.4744      0.00000
    208      10.5239      0.00000
    209      10.6165      0.00000
    210      10.7046      0.00000
    211      10.8828      0.00000
    212      11.0517      0.00000

 k-point   3 :       0.3125    0.0625    0.0625
  band No.  band energies     occupation 
      1      -4.1331      2.00000
      2      -3.2361      2.00000
      3      -2.2563      2.00000
      4      -2.2563      2.00000
      5      -2.0383      2.00000
      6      -1.9733      2.00000
      7      -1.9733      2.00000
      8      -1.9324      2.00000
      9      -1.9003      2.00000
     10      -1.9003      2.00000
     11      -1.7855      2.00000
     12      -1.7099      2.00000
     13      -1.7099      2.00000
     14      -1.7037      2.00000
     15      -1.6947      2.00000
     16      -1.6947      2.00000
     17      -1.6242      2.00000
     18      -1.5429      2.00000
     19      -1.4982      2.00000
     20      -1.4982      2.00000
     21      -1.4973      2.00000
     22      -1.4973      2.00000
     23      -1.4133      2.00000
     24      -1.3913      2.00000
     25      -1.3913      2.00000
     26      -1.2472      2.00000
     27      -1.2353      2.00000
     28      -1.2353      2.00000
     29      -1.0135      2.00000
     30      -1.0135      2.00000
     31      -0.9368      2.00000
     32      -0.9368      2.00000
     33      -0.9124      2.00000
     34      -0.9124      2.00000
     35      -0.8870      2.00000
     36      -0.8870      2.00000
     37      -0.8644      2.00000
     38      -0.8644      2.00000
     39      -0.8251      2.00000
     40      -0.8251      2.00000
     41      -0.7460      2.00000
     42      -0.7460      2.00000
     43      -0.6086      2.00000
     44      -0.6086      2.00000
     45      -0.5543      2.00000
     46      -0.5543      2.00000
     47      -0.5432      2.00000
     48      -0.5432      2.00000
     49      -0.5207      2.00000
     50      -0.5207      2.00000
     51      -0.5027      2.00000
     52      -0.4857      2.00000
     53      -0.4857      2.00000
     54      -0.3889      2.00000
     55      -0.3889      2.00000
     56      -0.3520      2.00000
     57      -0.3520      2.00000
     58      -0.3251      2.00000
     59      -0.3251      2.00000
     60      -0.2943      2.00000
     61      -0.2428      2.00000
     62      -0.2428      2.00000
     63      -0.1869      2.00000
     64      -0.1869      2.00000
     65      -0.1818      2.00000
     66      -0.1818      2.00000
     67      -0.1724      2.00000
     68      -0.1494      2.00000
     69      -0.1494      2.00000
     70      -0.1450      2.00000
     71      -0.1436      2.00000
     72      -0.1143      2.00000
     73      -0.1143      2.00000
     74      -0.0602      2.00000
     75      -0.0077      2.00000
     76      -0.0077      2.00000
     77       0.0281      2.00000
     78       0.0628      2.00000
     79       0.0628      2.00000
     80       0.0682      2.00000
     81       0.0699      2.00000
     82       0.0793      2.00000
     83       0.2232      2.00000
     84       0.2232      2.00000
     85       0.2267      2.00000
     86       0.2267      2.00000
     87       0.2923      2.00000
     88       0.2923      2.00000
     89       0.2994      2.00000
     90       0.3652      2.00000
     91       0.3948      2.00000
     92       0.4236      2.00000
     93       0.4391      2.00000
     94       0.4546      2.00000
     95       0.4546      2.00000
     96       0.4563      2.00000
     97       0.5101      2.00000
     98       0.5101      2.00000
     99       0.7026      2.00000
    100       0.7272      2.00000
    101       0.7272      2.00000
    102       0.7878      2.00000
    103       0.7878      2.00000
    104       0.8749      2.00000
    105       0.8749      2.00000
    106       0.9114      2.00000
    107       0.9114      2.00000
    108       0.9394      2.00000
    109       0.9394      2.00000
    110       0.9672      2.00000
    111       0.9672      2.00000
    112       0.9888      2.00000
    113       0.9888      2.00000
    114       1.0180      2.00000
    115       1.0559      2.00000
    116       1.0559      2.00000
    117       1.0784      2.00000
    118       1.0784      2.00000
    119       1.1116      2.00000
    120       1.1116      2.00000
    121       1.1253      2.00000
    122       1.1253      2.00000
    123       1.1743      2.00000
    124       1.1966      2.00000
    125       1.2706      2.00000
    126       1.2706      2.00000
    127       1.3437      2.00000
    128       1.3437      2.00000
    129       1.3542      2.00000
    130       1.3809      2.00000
    131       1.4276      2.00000
    132       1.4408      2.00000
    133       1.4408      2.00000
    134       1.4675      2.00000
    135       1.4965      2.00000
    136       1.4965      2.00000
    137       1.5366      2.00000
    138       1.5366      2.00000
    139       1.5521      2.00000
    140       1.5533      2.00000
    141       1.5655      2.00000
    142       1.5655      2.00000
    143       1.6917      2.00000
    144       1.6917      2.00000
    145       1.6956      2.00000
    146       1.6956      2.00000
    147       1.7181      2.00000
    148       1.7974      2.00000
    149       1.8568      2.00000
    150       1.8568      2.00000
    151       1.8655      2.00000
    152       1.8772      2.00000
    153       1.8772      2.00000
    154       1.9251      2.00000
    155       1.9484      2.00000
    156       1.9484      2.00000
    157       1.9583      2.00000
    158       2.0335      2.00000
    159       2.0870      2.00000
    160       2.0870      2.00000
    161       2.0879      2.00000
    162       2.0879      2.00000
    163       2.1203      2.00000
    164       2.2804      2.00000
    165       2.2804      2.00000
    166       2.2806      2.00000
    167       2.2806      2.00000
    168       2.4770      2.00000
    169       2.4770      2.00000
    170       2.8166      2.00000
    171       2.8166      2.00000
    172       3.0626      2.00000
    173       3.1311      2.00000
    174       3.5814      2.01368
    175       3.5814      2.01368
    176       3.6726      2.04695
    177       3.6726      2.04695
    178       3.8572      1.89660
[...]
    111       0.8401      2.00000
    112       0.8401      2.00000
    113       0.8401      2.00000
    114       0.8538      2.00000
    115       0.8538      2.00000
    116       0.8538      2.00000
    117       0.9428      2.00000
    118       0.9428      2.00000
    119       0.9428      2.00000
    120       0.9996      2.00000
    121       0.9996      2.00000
    122       0.9996      2.00000
    123       0.9996      2.00000
    124       0.9996      2.00000
    125       0.9996      2.00000
    126       1.1069      2.00000
    127       1.1069      2.00000
    128       1.1069      2.00000
    129       1.1652      2.00000
    130       1.1652      2.00000
    131       1.1652      2.00000
    132       1.1788      2.00000
    133       1.1788      2.00000
    134       1.2161      2.00000
    135       1.2161      2.00000
    136       1.2161      2.00000
    137       1.3233      2.00000
    138       1.3233      2.00000
    139       1.3233      2.00000
    140       1.3890      2.00000
    141       1.3890      2.00000
    142       1.4189      2.00000
    143       1.4189      2.00000
    144       1.4189      2.00000
    145       2.0771      2.00000
    146       2.0771      2.00000
    147       2.0771      2.00000
    148       2.1003      2.00000
    149       2.1003      2.00000
    150       2.1003      2.00000
    151       2.1003      2.00000
    152       2.1003      2.00000
    153       2.1003      2.00000
    154       2.1010      2.00000
    155       2.1010      2.00000
    156       2.1010      2.00000
    157       2.1010      2.00000
    158       2.1010      2.00000
    159       2.1010      2.00000
    160       2.1056      2.00000
    161       2.1056      2.00000
    162       2.1056      2.00000
    163       2.1228      2.00000
    164       2.1228      2.00000
    165       2.1228      2.00000
    166       2.1350      2.00000
    167       2.1350      2.00000
    168       2.1350      2.00000
    169       4.0903      0.26309
    170       4.0903      0.26309
    171       4.0903      0.26309
    172       4.4380     -0.00695
    173       4.4380     -0.00695
    174       4.4380     -0.00695
    175       4.4380     -0.00695
    176       4.4380     -0.00695
    177       4.4380     -0.00695
    178       4.7492     -0.00000
    179       4.7492     -0.00000
    180       4.7492     -0.00000
    181       4.8885     -0.00000
    182       4.8885     -0.00000
    183       4.8885     -0.00000
    184       5.2588     -0.00000
    185       5.2588     -0.00000
    186       5.2588     -0.00000
    187       5.2588     -0.00000
    188       5.2588     -0.00000
    189       5.2588     -0.00000
    190       5.6044     -0.00000
    191       5.6044     -0.00000
    192       5.6044     -0.00000
    193       8.0283     -0.00000
    194       8.0285     -0.00000
    195       8.0288     -0.00000
    196       8.4382     -0.00000
    197       8.4404     -0.00000
    198       8.4441     -0.00000
    199       8.7689     -0.00000
    200       8.7689     -0.00000
    201       8.7707     -0.00000
    202       8.7735     -0.00000
    203       8.7943     -0.00000
    204       8.8197     -0.00000
    205       9.2183     -0.00000
    206       9.2183     -0.00000
    207       9.2259     -0.00000
    208       9.2656     -0.00000
    209       9.3016     -0.00000
    210       9.3253     -0.00000
    211       9.5250      0.00000
    212       9.8640      0.00000


--------------------------------------------------------------------------------------------------------


 soft charge-density along one line, spin component           1
         0         1         2         3         4         5         6         7         8         9
 total charge-density along one line
 
 pseudopotential strength for first ion, spin component:           1
-10.362   0.000  -0.000   0.000  -0.000  -0.023  -0.000   0.000
  0.000 -10.362   0.000   0.000  -0.000  -0.000  -0.023  -0.000
 -0.000   0.000 -10.350   0.000  -0.000   0.000  -0.000  -0.025
  0.000   0.000   0.000 -10.362   0.000  -0.000  -0.000  -0.000
 -0.000  -0.000  -0.000   0.000 -10.350   0.000   0.000   0.000
 -0.023  -0.000   0.000  -0.000   0.000   0.273   0.000  -0.000
 -0.000  -0.023  -0.000  -0.000   0.000   0.000   0.273   0.000
  0.000  -0.000  -0.025  -0.000   0.000  -0.000   0.000   0.274
 -0.000  -0.000  -0.000  -0.023  -0.000   0.000   0.000   0.000
  0.000   0.000   0.000  -0.000  -0.025  -0.000  -0.000  -0.000
 -0.000  -0.000  -0.000  -0.000  -0.000   0.000   0.000  -0.000
  0.000   0.000   0.000   0.000   0.000  -0.000  -0.000  -0.000
  0.000  -0.000  -0.000   0.000  -0.000  -0.000   0.000   0.000
  0.000   0.000  -0.000   0.000   0.000  -0.000  -0.000   0.000
  0.000   0.000  -0.000  -0.000   0.000  -0.000  -0.000   0.000
 -0.000   0.000   0.000  -0.000   0.000   0.000  -0.000  -0.000
 -0.000  -0.000   0.000  -0.000  -0.000   0.000   0.000  -0.000
 -0.000  -0.000   0.000   0.000  -0.000   0.000   0.000  -0.000
 total augmentation occupancy for first ion, spin component:           1
  1.902  -0.001  -0.004   0.001   0.001  -0.060   0.001   0.001  -0.001  -0.001   0.007   0.000  -0.000  -0.000   0.000  -0.000
 -0.001   1.919  -0.003  -0.002  -0.001   0.001  -0.077   0.004   0.001  -0.001   0.001  -0.002   0.000   0.000  -0.000   0.000
 -0.004  -0.003   1.964  -0.001   0.004   0.001   0.004  -0.109   0.002  -0.002   0.020   0.005  -0.000   0.000  -0.000  -0.000
  0.001  -0.002  -0.001   1.913   0.003  -0.001   0.001   0.002  -0.066  -0.001   0.006   0.001  -0.000   0.000   0.000  -0.000
  0.001  -0.001   0.004   0.003   1.945  -0.001  -0.001  -0.002  -0.001  -0.094  -0.007  -0.002  -0.000   0.000   0.000  -0.000
 -0.060   0.001   0.001  -0.001  -0.001   0.135  -0.001   0.002   0.001   0.000  -0.002   0.001   0.000   0.000  -0.000   0.000
  0.001  -0.077   0.004   0.001  -0.001  -0.001   0.147  -0.004  -0.001   0.003   0.003   0.003  -0.000  -0.000  -0.000  -0.000
  0.001   0.004  -0.109   0.002  -0.002   0.002  -0.004   0.114  -0.002   0.000  -0.012  -0.001  -0.000   0.000   0.000  -0.000
 -0.001   0.001   0.002  -0.066  -0.001   0.001  -0.001  -0.002   0.135  -0.000  -0.002   0.001   0.000  -0.000  -0.000   0.000
 -0.001  -0.001  -0.002  -0.001  -0.094   0.000   0.003   0.000  -0.000   0.105   0.006   0.001  -0.000   0.000  -0.000  -0.000
  0.007   0.001   0.020   0.006  -0.007  -0.002   0.003  -0.012  -0.002   0.006   1.011  -0.299  -0.000  -0.000  -0.000   0.000
  0.000  -0.002   0.005   0.001  -0.002   0.001   0.003  -0.001   0.001   0.001  -0.299   0.172  -0.000  -0.000  -0.000  -0.000
 -0.000   0.000  -0.000  -0.000  -0.000   0.000  -0.000  -0.000   0.000  -0.000  -0.000  -0.000   0.115  -0.001   0.003  -0.008
 -0.000   0.000   0.000   0.000   0.000   0.000  -0.000   0.000  -0.000   0.000  -0.000  -0.000  -0.001   0.118   0.001  -0.000
  0.000  -0.000  -0.000   0.000   0.000  -0.000  -0.000   0.000  -0.000  -0.000  -0.000  -0.000   0.003   0.001   0.117  -0.000
 -0.000   0.000  -0.000  -0.000  -0.000   0.000  -0.000  -0.000   0.000  -0.000   0.000  -0.000  -0.008  -0.000  -0.000   0.001
 -0.000   0.000   0.000   0.000   0.000   0.000  -0.000   0.000  -0.000  -0.000   0.000   0.000  -0.000  -0.008  -0.000   0.000
  0.000  -0.000  -0.000   0.000   0.000  -0.000   0.000   0.000  -0.000  -0.000  -0.000   0.000  -0.000  -0.000  -0.008   0.000


------------------------ aborting loop because EDIFF is reached ----------------------------------------




--------------------------------------------------------------------------------------------------------


    CHARGE:  VPU time   28.64: CPU time   28.73
    FORLOC:  VPU time    0.19: CPU time    0.19
    FORNL :  VPU time  166.82: CPU time  167.34
    STRESS:  VPU time 1103.32: CPU time 1107.06
    FORCOR:  VPU time    1.30: CPU time    1.31
    FORHAR:  VPU time    0.45: CPU time    0.45
    MIXING:  VPU time    0.03: CPU time    0.03


--------------------------------------------------------------------------------------------------------



  FREE ENERGIE OF THE ION-ELECTRON SYSTEM (eV)
  ---------------------------------------------------
  free  energy   TOTEN  =      -103.120677 eV

  energy  without entropy=     -103.128069  energy(sigma->0) =     -103.123141
 

  FORCE on cell =-STRESS in cart. coord.  units (eV/reduce length):
  Direction    X        Y        Z        XY       YZ       ZX
  --------------------------------------------------------------------------------------
  Alpha Z   3030.49   3030.49   3030.49
  Ewald    -9925.16  -9925.16  -9925.16     -0.00     -0.00     -0.00
  Hartree   1418.75   1418.75   1418.75     -0.00     -0.00     -0.00
  E(xc)    -1578.57  -1578.57  -1578.57     -0.00     -0.00     -0.00
  Local     2414.80   2414.80   2414.80      0.00      0.00      0.00
  n-local  -1663.13  -1658.33  -1645.95      5.01      0.20      3.46
  augment   1376.71   1376.71   1376.71     -0.00     -0.00     -0.00
  Kinetic   4875.84   4881.52   4892.77      1.66     -3.68      0.14
  -------------------------------------------------------------------------------------
  Total      -35.39    -35.39    -35.39     -0.00     -0.00     -0.00
  in kB      -89.60    -89.60    -89.60     -0.00     -0.00     -0.00
  external pressure =      -89.60 kB  Pullay stress =        0.00 kB


 VOLUME and BASIS-vectors are now :
 -----------------------------------------------------------------------------
  energy-cutoff  :      600.00
  volume of cell :      632.82
      direct lattice vectors                 reciprocal lattice vectors
     8.585408810  0.000000000  0.000000000     0.116476690 -0.000000002 -0.000000002
     0.000000160  8.585408810  0.000000000     0.000000000  0.116476690 -0.000000002
     0.000000160  0.000000160  8.585408810     0.000000000  0.000000000  0.116476690

  length of vectors
     8.585408810  8.585408810  8.585408810     0.116476690  0.116476690  0.116476690


 FORCES acting on ions
    electron-ion (+dipol)            ewald-force                    non-local-force                 convergence-correction
 -----------------------------------------------------------------------------------------------
   0.454E-12 -.129E-10 0.207E-11   -.173E-12 -.542E-13 0.704E-13   -.146E-22 0.483E-23 -.417E-22   0.181E-13 -.117E-13 -.744E-12
   0.454E-12 -.703E-12 -.168E-12   -.568E-13 -.364E-13 0.197E-14   0.880E-22 -.246E-22 -.141E-22   -.114E-12 -.439E-12 0.102E-11
   0.465E-12 -.466E-13 -.547E-11   -.546E-13 -.766E-13 0.342E-13   -.355E-23 0.314E-24 -.327E-22   -.236E-12 -.383E-12 -.837E-13
   0.448E-12 0.380E-11 0.161E-11   -.995E-13 0.391E-13 0.141E-12   -.506E-23 0.275E-22 0.364E-22   -.286E-13 -.465E-13 -.313E-12
   -.459E-13 0.445E-12 0.144E-12   0.127E-13 -.115E-13 0.151E-13   -.465E-23 -.180E-22 -.529E-22   -.574E-13 -.954E-13 -.242E-12
   -.413E-13 -.296E-13 0.311E-12   0.170E-13 0.681E-13 0.527E-13   0.532E-22 -.593E-22 0.951E-23   0.101E-12 -.189E-12 -.436E-12
   0.123E-12 -.116E-11 0.126E-11   -.249E-13 0.249E-13 0.610E-15   -.398E-22 -.104E-22 0.375E-22   -.330E-14 -.260E-13 -.398E-12
   0.448E-12 0.274E-13 0.227E-11   -.386E-13 -.144E-12 0.453E-13   0.476E-23 -.346E-22 0.389E-22   -.202E-13 0.411E-13 -.222E-12
   0.448E-12 -.848E-11 -.243E-12   -.613E-13 -.684E-13 0.102E-14   -.611E-22 -.783E-23 0.496E-23   -.308E-12 0.406E-12 0.599E-12
   0.454E-12 -.135E-11 0.684E-11   -.862E-13 -.453E-13 -.702E-13   0.103E-22 0.432E-22 0.120E-22   -.121E-12 0.418E-12 -.524E-12
   -.404E-13 0.451E-12 0.416E-12   0.235E-13 -.666E-14 -.622E-14   0.367E-24 -.792E-22 -.381E-22   0.283E-12 -.192E-12 -.525E-13
   -.406E-13 -.294E-13 -.473E-13   -.184E-13 -.216E-13 -.293E-13   0.369E-22 0.483E-23 -.236E-22   0.454E-12 -.100E-12 0.703E-12
   -.338E-13 0.135E-12 0.146E-12   0.693E-13 0.266E-14 0.595E-13   -.901E-23 -.289E-22 0.277E-22   0.290E-12 0.622E-13 -.331E-12
   -.322E-13 0.297E-12 0.306E-12   0.104E-12 0.614E-13 0.263E-13   -.427E-22 0.291E-22 0.364E-22   0.111E-12 0.230E-12 -.345E-12
   0.124E-12 0.204E-11 0.853E-12   0.471E-13 0.826E-13 0.435E-13   0.139E-23 0.223E-22 0.381E-22   0.130E-12 -.967E-13 0.677E-12
   0.110E-12 -.173E-13 -.133E-11   -.755E-14 -.993E-14 -.977E-14   0.115E-22 0.105E-23 0.496E-23   0.250E-12 -.296E-13 -.425E-12
   0.130E-12 0.171E-11 0.124E-11   -.187E-13 0.542E-13 0.562E-13   0.573E-22 -.170E-22 -.662E-23   0.384E-13 -.367E-13 -.339E-12
   0.319E-12 -.336E-11 -.288E-12   0.939E-13 0.103E-12 0.133E-13   -.337E-23 -.762E-23 -.331E-22   0.125E-12 0.111E-14 -.389E-12
   0.315E-12 -.166E-13 -.258E-11   0.636E-13 -.188E-14 0.101E-12   -.362E-22 -.103E-22 -.236E-22   -.453E-13 -.133E-12 -.636E-12
   0.436E-12 -.994E-12 -.987E-11   -.488E-13 -.832E-13 -.338E-13   -.231E-23 -.362E-22 -.415E-22   -.536E-13 -.870E-14 0.215E-12
   -.278E-13 0.128E-12 0.418E-12   0.927E-13 0.115E-13 -.684E-13   -.451E-22 0.223E-22 0.682E-23   0.263E-12 0.157E-12 0.500E-13
   -.319E-13 0.297E-12 -.403E-13   0.356E-13 -.613E-13 -.452E-13   -.594E-22 -.452E-22 -.120E-22   0.947E-13 0.129E-12 0.603E-12
   0.128E-12 -.227E-13 0.210E-11   0.488E-14 0.505E-13 -.591E-13   -.179E-22 0.691E-23 -.703E-23   0.349E-13 0.249E-13 0.145E-12
   0.130E-12 -.143E-11 0.863E-12   0.284E-13 -.622E-14 0.564E-14   0.249E-22 -.139E-22 -.587E-22   0.317E-12 0.296E-13 0.625E-12
   0.123E-12 0.287E-12 0.181E-11   0.773E-13 -.102E-13 0.195E-13   0.391E-22 -.212E-22 -.869E-23   0.133E-12 0.765E-13 -.496E-12
   0.313E-12 0.270E-11 0.470E-11   -.287E-13 0.977E-13 0.799E-14   -.469E-22 0.439E-22 0.281E-22   -.216E-12 -.244E-12 0.649E-13
   0.314E-12 0.239E-13 0.203E-11   0.837E-13 -.268E-13 0.347E-13   -.943E-23 -.285E-22 0.414E-23   -.399E-12 0.111E-12 0.937E-12
   0.306E-12 -.238E-11 -.368E-12   0.890E-13 0.101E-12 -.364E-13   -.397E-22 0.184E-22 0.418E-22   -.226E-12 -.618E-13 -.627E-12
   0.306E-12 -.279E-11 -.242E-11   -.346E-13 -.181E-14 -.756E-13   0.139E-22 -.244E-22 0.000E+00   -.598E-13 0.193E-12 -.400E-12
   0.141E-12 0.292E-12 -.104E-11   -.133E-13 0.487E-13 -.577E-13   -.225E-22 0.540E-23 0.186E-23   0.644E-13 0.219E-13 0.212E-12
   0.300E-12 -.213E-11 -.154E-11   -.147E-14 0.959E-13 -.417E-13   -.129E-22 -.449E-22 0.378E-22   -.198E-12 0.182E-12 0.314E-12
   0.306E-12 -.282E-11 0.177E-11   0.533E-13 -.105E-13 -.115E-12   0.253E-22 -.231E-22 -.149E-22   -.434E-13 -.499E-13 0.682E-12
 -----------------------------------------------------------------------------------------------
   0.680E-11 -.280E-10 0.575E-11   0.130E-12 0.165E-12 0.827E-13   -.109E-21 -.305E-21 -.422E-22   0.579E-12 -.590E-13 -.156E-12
 
 
 POSITION                                       TOTAL-FORCE (eV/Angst)
 -----------------------------------------------------------------------------------
      6.43906      6.43906      4.29270        -0.000000     -0.000000     -0.000000
      6.43906      6.43906      0.00000        -0.000000     -0.000000      0.000000
      6.43906      0.00000      2.14635        -0.000000      0.000000     -0.000000
      6.43906      2.14635      4.29270         0.000000      0.000000     -0.000000
      0.00000      6.43906      2.14635        -0.000000      0.000000      0.000000
      0.00000      0.00000      4.29270        -0.000000      0.000000      0.000000
      2.14635      6.43906      4.29270        -0.000000     -0.000000     -0.000000
      6.43906      0.00000      6.43906         0.000000     -0.000000     -0.000000
      6.43906      2.14635      0.00000         0.000000      0.000000      0.000000
      6.43906      4.29270      2.14635         0.000000     -0.000000      0.000000
      0.00000      6.43906      6.43906        -0.000000     -0.000000      0.000000
      0.00000      0.00000      0.00000        -0.000000      0.000000      0.000000
      0.00000      2.14635      2.14635        -0.000000      0.000000      0.000000
      0.00000      4.29270      4.29270        -0.000000     -0.000000     -0.000000
      2.14635      6.43906      0.00000         0.000000      0.000000      0.000000
      2.14635      0.00000      2.14635        -0.000000     -0.000000      0.000000
      2.14635      2.14635      4.29270        -0.000000      0.000000      0.000000
      4.29270      6.43906      2.14635        -0.000000      0.000000      0.000000
      4.29270      0.00000      4.29270        -0.000000      0.000000     -0.000000
      6.43906      4.29270      6.43906        -0.000000     -0.000000     -0.000000
      0.00000      2.14635      6.43906        -0.000000     -0.000000     -0.000000
      0.00000      4.29270      0.00000         0.000000     -0.000000     -0.000000
      2.14635      0.00000      6.43906         0.000000      0.000000     -0.000000
      2.14635      2.14635      0.00000         0.000000     -0.000000     -0.000000
      2.14635      4.29270      2.14635        -0.000000      0.000000      0.000000
      4.29270      6.43906      6.43906         0.000000     -0.000000     -0.000000
      4.29270      0.00000      0.00000         0.000000     -0.000000     -0.000000
      4.29270      2.14635      2.14635         0.000000     -0.000000     -0.000000
      4.29270      4.29270      4.29270         0.000000      0.000000     -0.000000
      2.14635      4.29270      6.43906         0.000000     -0.000000     -0.000000
      4.29270      2.14635      6.43906        -0.000000      0.000000     -0.000000
      4.29270      4.29270      0.00000        -0.000000     -0.000000      0.000000
 -----------------------------------------------------------------------------------
    total drift:                                0.000000     -0.000000      0.000000


--------------------------------------------------------------------------------------------------------




--------------------------------------------------------------------------------------------------------


  
 reached required accuracy - stopping structural energy minimisation
 writing wavefunctions
     LOOP+:  VPU time 9130.13: CPU time 9152.25

 ----------------------------------------------------------------------------- 
|                                                                             |
|           W    W    AA    RRRRR   N    N  II  N    N   GGGG   !!!           |
|           W    W   A  A   R    R  NN   N  II  NN   N  G    G  !!!           |
|           W    W  A    A  R    R  N N  N  II  N N  N  G       !!!           |
|           W WW W  AAAAAA  RRRRR   N  N N  II  N  N N  G  GGG   !            |
|           WW  WW  A    A  R   R   N   NN  II  N   NN  G    G                |
|           W    W  A    A  R    R  N    N  II  N    N   GGGG   !!!           |
|                                                                             |
|      The partial DOS and the PROCAR file are not evaluated for NPAR/=1      |
|      please rerun with NPAR=1                                               |
|                                                                             |
 ----------------------------------------------------------------------------- 

  
  
 General timing and accounting informations for this job:
 ========================================================
  
                  Total CPU time used (sec):     9162.290
                            User time (sec):     9061.468
                          System time (sec):      100.822
                         Elapsed time (sec):     9184.399
  
                   Maximum memory used (kb):     2044856.
                   Average memory used (kb):           0.
  
                          Minor page faults:       424560
                          Major page faults:            0
                 Voluntary context switches:        26319
