    4    4   60    1
  0.1201948E+02  0.3636207E-09  0.3636207E-09  0.3636207E-09  0.5000000E-15
  1.000000000000000E-004
  CAR 
 unknown system                          
   44  120   32
 
  0.0000000E+00  0.0000000E+00  0.0000000E+00  0.3644315E-03
   1       -5.5734
   2       -1.1513
   3       -1.1513
   4       -1.1513
   5       -0.7105
   6       -0.7105
   7       -0.7105
   8        0.6427
   9        0.6427
  10        0.6427
  11        1.4482
  12        1.4482
  13        1.9831
  14        1.9831
  15        1.9831
  16        2.1331
  17        2.1331
  18        2.1331
  19        2.1331
  20        2.1331
  21        2.1331
  22        5.1652
  23        5.1652
  24        5.1652
  25       10.6362
  26       10.6362
  27       10.6362
  28       16.6711
  29       16.6711
  30       16.6711
  31       16.6711
  32       16.6711
 
  0.7142857E-01  0.0000000E+00  0.0000000E+00  0.2186589E-02
   1       -5.5121
   2       -1.1518
   3       -1.1229
   4       -1.1229
   5       -0.6944
   6       -0.6934
   7       -0.6934
   8        0.6249
   9        0.6571
  10        0.6571
  11        1.4319
  12        1.4547
  13        1.9622
  14        1.9622
  15        1.9763
  16        2.0268
  17        2.0268
  18        2.1084
  19        2.1084
  20        2.1332
  21        2.1332
  22        4.7707
  23        5.3265
  24        5.3265
  25       10.6593
  26       10.6593
  27       11.1532
  28       16.2388
  29       16.2388
  30       16.3954
  31       16.3954
  32       16.7607
 
  0.1428571E+00  0.0000000E+00  0.0000000E+00  0.2186589E-02
   1       -5.3291
   2       -1.1617
   3       -1.0404
   4       -1.0404
   5       -0.6467
   6       -0.6422
   7       -0.6422
   8        0.5724
   9        0.6999
  10        0.6999
  11        1.3847
  12        1.4741
  13        1.7606
  14        1.7606
  15        1.9008
  16        1.9008
  17        1.9561
  18        2.0366
  19        2.0366
  20        2.1333
  21        2.1333
  22        3.8856
  23        5.7573
  24        5.7573
  25       10.7302
  26       10.7302
  27       12.4126
  28       15.2780
  29       15.2780
  30       15.7221
  31       15.7221
  32       17.0267
 
  0.2142857E+00  0.0000000E+00  0.0000000E+00  0.2186589E-02
   1       -5.0274
   2       -1.2106
   3       -0.9131
   4       -0.9131
   5       -0.5695
   6       -0.5560
   7       -0.5560
   8        0.4882
   9        0.7704
  10        0.7704
  11        1.3107
  12        1.4230
  13        1.4230
  14        1.5054
  15        1.8038
  16        1.8038
  17        1.9237
  18        1.9248
  19        1.9248
  20        2.1334
  21        2.1334
  22        2.8998
  23        6.3685
  24        6.3685
  25       10.8537
  26       10.8537
  27       14.0485
  28       14.1560
  29       14.1560
  30       14.8973
  31       14.8973
  32       17.4610
 
  0.2857143E+00  0.0000000E+00  0.0000000E+00  0.2186589E-02
   1       -4.6128
   2       -1.3577
   3       -0.7574
   4       -0.7574
   5       -0.4663
   6       -0.4341
   7       -0.4341
   8        0.3772
   9        0.8671
  10        0.8671
  11        1.0718
  12        1.0718
  13        1.2179
  14        1.5472
  15        1.6816
  16        1.6816
  17        1.7830
  18        1.7830
  19        1.8807
  20        2.0311
  21        2.1336
  22        2.1336
  23        7.1012
  24        7.1012
  25       11.0368
  26       11.0368
  27       13.0107
  28       13.0107
  29       14.0735
  30       14.0735
  31       15.8922
  32       18.0520
 
  0.3571429E+00  0.0000000E+00  0.0000000E+00  0.2186589E-02
   1       -4.0955
   2       -1.6815
   3       -0.5995
   4       -0.5995
   5       -0.3415
   6       -0.2753
   7       -0.2753
   8        0.2454
   9        0.7356
  10        0.7356
  11        0.9878
  12        0.9878
  13        1.1194
  14        1.4174
  15        1.5536
  16        1.5536
  17        1.5973
  18        1.6222
  19        1.6222
  20        1.8294
  21        2.1337
  22        2.1337
  23        7.9248
  24        7.9248
  25       11.2880
  26       11.2880
  27       11.8897
  28       11.8897
  29       13.3245
  30       13.3245
  31       17.8669
  32       18.7861
 
  0.4285714E+00  0.0000000E+00  0.0000000E+00  0.2186589E-02
   1       -3.4938
   2       -2.2038
   3       -0.4762
   4       -0.4762
   5       -0.2010
   6       -0.0788
   7       -0.0788
   8        0.1000
   9        0.4283
  10        0.4283
  11        1.0372
  12        1.1019
  13        1.1291
  14        1.1291
  15        1.4510
  16        1.4510
  17        1.4535
  18        1.4535
  19        1.6535
  20        1.7725
  21        2.1338
  22        2.1338
  23        8.8235
  24        8.8235
  25       10.8124
  26       10.8124
  27       11.6085
  28       11.6085
  29       12.6917
  30       12.6917
  31       19.6493
  32       19.6493
 
  0.5000000E+00  0.0000000E+00  0.0000000E+00  0.1093294E-02
   1       -2.8418
   2       -2.8418
   3       -0.4285
   4       -0.4285
   5       -0.0514
   6       -0.0514
   7        0.1560
   8        0.1560
   9        0.1560
  10        0.1560
  11        1.0090
  12        1.0090
  13        1.2865
  14        1.2865
  15        1.2865
  16        1.2865
  17        1.4106
  18        1.4106
  19        1.7128
  20        1.7128
  21        2.1339
  22        2.1339
  23        9.7882
  24        9.7882
  25        9.7882
  26        9.7882
  27       11.8739
  28       11.8739
  29       12.3200
  30       12.3200
  31       20.6282
  32       20.6282
 
  0.7142857E-01  0.7142857E-01  0.0000000E+00  0.4373178E-02
   1       -5.4510
   2       -1.1228
   3       -1.1228
   4       -1.0949
   5       -0.6776
   6       -0.6776
   7       -0.6768
   8        0.6148
   9        0.6639
  10        0.6704
  11        1.4274
  12        1.4507
  13        1.9418
  14        1.9418
  15        1.9419
  16        1.9455
  17        2.0114
  18        2.0114
  19        2.1084
  20        2.1084
  21        2.1173
  22        4.9297
  23        4.9297
  24        5.4788
  25       10.6826
  26       11.1828
  27       11.1828
  28       15.3360
  29       16.3237
  30       16.3237
  31       16.4815
  32       16.4815
 
  0.1428571E+00  0.7142857E-01  0.0000000E+00  0.8746356E-02
   1       -5.2685
   2       -1.1312
   3       -1.0389
   4       -1.0140
   5       -0.6306
   6       -0.6270
   7       -0.6269
   8        0.5672
   9        0.7027
  10        0.7099
  11        1.3859
  12        1.4676
  13        1.7064
  14        1.7113
  15        1.8688
  16        1.8824
  17        1.9090
  18        1.9774
  19        2.0365
  20        2.1083
  21        2.1087
  22        4.0512
  23        5.3466
  24        5.8914
  25       10.7536
  26       11.2733
  27       12.4509
  28       14.2127
  29       15.3571
  30       15.8010
  31       16.5751
  32       16.6652
 
  0.2142857E+00  0.7142857E-01  0.0000000E+00  0.8746356E-02
   1       -4.9678
   2       -1.1774
   3       -0.9091
   4       -0.8888
   5       -0.5546
   6       -0.5431
   7       -0.5421
   8        0.4855
   9        0.7720
  10        0.7740
  11        1.3158
  12        1.3750
  13        1.3883
  14        1.5014
  15        1.7301
  16        1.7882
  17        1.8099
  18        1.9245
  19        1.9332
  20        2.1067
  21        2.1083
  22        3.0986
  23        5.9251
  24        6.4857
  25       10.8756
  26       11.4305
  27       13.0812
  28       14.0917
  29       14.2323
  30       14.9689
  31       16.0024
  32       16.9839
 
  0.2857143E+00  0.7142857E-01  0.0000000E+00  0.8746356E-02
   1       -4.5547
   2       -1.3207
   3       -0.7499
   4       -0.7351
   5       -0.4528
   6       -0.4257
   7       -0.4219
   8        0.3767
   9        0.8578
  10        0.8680
  11        1.0269
  12        1.0510
  13        1.2319
  14        1.5078
  15        1.5472
  16        1.6694
  17        1.6877
  18        1.7826
  19        1.8714
  20        2.1062
  21        2.1081
  22        2.3261
  23        6.6055
  24        7.2053
  25       11.0443
  26       11.6626
  27       12.0065
  28       13.0864
  29       14.1387
  30       15.1801
  31       15.9356
  32       17.5363
 
  0.3571429E+00  0.7142857E-01  0.0000000E+00  0.8746356E-02
   1       -4.0394
   2       -1.6402
   3       -0.5874
   4       -0.5774
   5       -0.3300
   6       -0.2752
   7       -0.2655
   8        0.2473
   9        0.6961
  10        0.7250
  11        0.9402
  12        0.9883
  13        1.1666
  14        1.2107
  15        1.5451
  16        1.5592
  17        1.6026
  18        1.6218
  19        1.7416
  20        1.9251
  21        2.1064
  22        2.1079
  23        7.3583
  24        8.0194
  25       10.8657
  26       11.4098
  27       11.9664
  28       11.9774
  29       13.3858
  30       14.3618
  31       17.8820
  32       18.2156
 
  0.4285714E+00  0.7142857E-01  0.0000000E+00  0.8746356E-02
   1       -3.4405
   2       -2.1581
   3       -0.4588
   4       -0.4530
   5       -0.1916
   6       -0.0906
   7       -0.0722
   8        0.1045
   9        0.3958
  10        0.4251
  11        0.9529
  12        0.9980
  13        1.1293
  14        1.2070
  15        1.4466
  16        1.4532
  17        1.4547
  18        1.5290
  19        1.6651
  20        1.8078
  21        2.1068
  22        2.1076
  23        8.1688
  24        8.9111
  25        9.9408
  26       10.8913
  27       11.7023
  28       12.3417
  29       12.7856
  30       13.6190
  31       19.0034
  32       19.1866
 
  0.5000000E+00  0.7142857E-01  0.0000000E+00  0.4373178E-02
   1       -2.7919
   2       -2.7919
   3       -0.4066
   4       -0.4066
   5       -0.0444
   6       -0.0444
   7        0.1324
   8        0.1324
   9        0.1583
  10        0.1583
  11        0.9348
  12        0.9348
  13        1.2863
  14        1.2863
  15        1.3463
  16        1.3463
  17        1.4107
  18        1.4107
  19        1.7331
  20        1.7331
  21        2.1072
  22        2.1072
  23        9.0307
  24        9.0307
  25        9.8707
  26        9.8707
  27       12.1200
  28       12.1200
  29       12.9926
  30       12.9926
  31       19.8802
  32       19.8802
 
  0.1428571E+00  0.1428571E+00  0.0000000E+00  0.4373178E-02
   1       -5.0878
   2       -1.0426
   3       -1.0426
   4       -0.9374
   5       -0.5821
   6       -0.5821
   7       -0.5808
   8        0.5372
   9        0.7261
  10        0.7392
  11        1.3703
  12        1.4689
  13        1.5373
  14        1.5876
  15        1.5876
  16        1.8282
  17        1.9082
  18        1.9082
  19        2.0361
  20        2.0361
  21        2.0702
  22        4.4596
  23        4.4596
  24        6.2646
  25       10.8230
  26       12.5674
  27       12.5674
  28       12.9698
  29       15.5911
  30       15.5911
  31       16.0352
  32       16.0352
 
  0.2142857E+00  0.1428571E+00  0.0000000E+00  0.8746356E-02
   1       -4.7902
   2       -1.0808
   3       -0.9051
   4       -0.8189
   5       -0.5095
   6       -0.5042
   7       -0.5008
   8        0.4698
   9        0.7848
  10        0.7852
  11        1.2466
  12        1.2805
  13        1.3179
  14        1.4044
  15        1.5032
  16        1.7420
  17        1.8132
  18        1.8805
  19        1.9237
  20        2.0354
  21        2.0477
  22        3.5198
  23        4.9971
  24        6.8189
  25       10.9197
  26       11.8114
  27       12.7659
  28       14.2216
  29       14.4580
  30       15.1826
  31       15.9710
  32       16.4198
 
  0.2857143E+00  0.1428571E+00  0.0000000E+00  0.8746356E-02
   1       -4.3816
   2       -1.2129
   3       -0.7350
   4       -0.6717
   5       -0.4125
   6       -0.3995
   7       -0.3859
   8        0.3715
   9        0.8383
  10        0.8754
  11        0.9067
  12        0.9869
  13        1.1716
  14        1.2532
  15        1.5606
  16        1.6327
  17        1.6938
  18        1.7815
  19        1.8199
  20        2.0346
  21        2.0375
  22        2.7476
  23        5.6112
  24        7.5060
  25       10.5494
  26       11.2662
  27       13.0501
  28       13.3103
  29       14.3362
  30       16.0576
  31       16.4835
  32       16.7261
 
  0.3571429E+00  0.1428571E+00  0.0000000E+00  0.8746356E-02
   1       -3.8726
   2       -1.5196
   3       -0.5583
   4       -0.5150
   5       -0.2954
   6       -0.2729
   7       -0.2367
   8        0.2511
   9        0.5903
  10        0.6920
  11        0.8699
  12        0.9472
  13        0.9924
  14        1.2216
  15        1.5187
  16        1.5662
  17        1.6208
  18        1.6336
  19        1.7155
  20        2.0333
  21        2.0336
  22        2.2426
  23        6.2835
  24        8.2951
  25        9.5782
  26       11.4860
  27       12.1931
  28       13.3551
  29       13.6389
  30       15.9751
  31       17.1135
  32       17.4907
 
  0.4285714E+00  0.1428571E+00  0.0000000E+00  0.8746356E-02
   1       -3.2822
   2       -2.0239
   3       -0.4126
   4       -0.3855
   5       -0.1638
   6       -0.1247
   7       -0.0530
   8        0.1167
   9        0.3077
  10        0.4147
  11        0.8227
  12        0.8476
  13        1.1312
  14        1.2740
  15        1.4311
  16        1.4526
  17        1.4584
  18        1.5624
  19        1.7202
  20        1.9729
  21        2.0319
  22        2.0326
  23        7.0105
  24        8.6509
  25        9.1680
  26       11.1244
  27       11.8359
  28       12.8472
  29       13.9590
  30       15.2250
  31       17.8456
  32       18.2818
 
  0.5000000E+00  0.1428571E+00  0.0000000E+00  0.4373178E-02
   1       -2.6446
   2       -2.6446
   3       -0.3440
   4       -0.3440
   5       -0.0241
   6       -0.0241
   7        0.0664
   8        0.0664
   9        0.1648
  10        0.1648
  11        0.8085
  12        0.8085
  13        1.2868
  14        1.2868
  15        1.3999
  16        1.3999
  17        1.4061
  18        1.4061
  19        1.8251
  20        1.8251
  21        2.0319
  22        2.0319
  23        7.7969
  24        7.7969
  25       10.1137
  26       10.1137
  27       12.2895
  28       12.2895
  29       14.5427
  30       14.5427
  31       18.6659
  32       18.6659
 
  0.2142857E+00  0.2142857E+00  0.0000000E+00  0.4373178E-02
   1       -4.4978
   2       -0.9299
   3       -0.9299
   4       -0.7113
   5       -0.4393
   6       -0.4341
   7       -0.4341
   8        0.4266
   9        0.8033
  10        0.8253
  11        1.0637
  12        1.0637
  13        1.1026
  14        1.2908
  15        1.5402
  16        1.6676
  17        1.7925
  18        1.7925
  19        1.9225
  20        1.9225
  21        1.9927
  22        4.0262
  23        4.0262
  24        7.3285
  25       10.4293
  26       11.2157
  27       14.4367
  28       14.4367
  29       14.8246
  30       14.8246
  31       15.5405
  32       15.5405
 
  0.2857143E+00  0.2142857E+00  0.0000000E+00  0.8746356E-02
   1       -4.0972
   2       -1.0440
   3       -0.7414
   4       -0.5772
   5       -0.3527
   6       -0.3452
   7       -0.3279
   8        0.3514
   9        0.7426
  10        0.8199
  11        0.8615
  12        0.8773
  13        0.9006
  14        1.2450
  15        1.5721
  16        1.6157
  17        1.6789
  18        1.7366
  19        1.7801
  20        1.9211
  21        1.9565
  22        3.2051
  23        4.5859
  24        7.9755
  25        9.3484
  26       11.3801
  27       13.6741
  28       14.5525
  29       14.8607
  30       15.3200
  31       15.9206
  32       16.4026
 
  0.3571429E+00  0.2142857E+00  0.0000000E+00  0.8746356E-02
   1       -3.5997
   2       -1.3299
   3       -0.5408
   4       -0.4269
   5       -0.2596
   6       -0.2382
   7       -0.1907
   8        0.2506
   9        0.4517
  10        0.6341
  11        0.7073
  12        0.8117
  13        1.0073
  14        1.2251
  15        1.4723
  16        1.5550
  17        1.6200
  18        1.6400
  19        1.7180
  20        1.9199
  21        1.9360
  22        2.6132
  23        5.1955
  24        8.3341
  25        8.7319
  26       11.6636
  27       12.5608
  28       13.8163
  29       15.2059
  30       15.9307
  31       16.5571
  32       17.6938
 
  0.4285714E+00  0.2142857E+00  0.0000000E+00  0.8746356E-02
   1       -3.0247
   2       -1.8105
   3       -0.3643
   4       -0.2813
   5       -0.1766
   6       -0.1186
   7       -0.0231
   8        0.1331
   9        0.1949
  10        0.3950
  11        0.6564
  12        0.7603
  13        1.1394
  14        1.2700
  15        1.3985
  16        1.4460
  17        1.4535
  18        1.5099
  19        1.8443
  20        1.9195
  21        1.9255
  22        2.2384
  23        5.8623
  24        7.4188
  25        9.5791
  26       11.5015
  27       12.0434
  28       13.1170
  29       15.7162
  30       16.6436
  31       17.0017
  32       17.2589
 
  0.5000000E+00  0.2142857E+00  0.0000000E+00  0.4373178E-02
   1       -2.4074
   2       -2.4074
   3       -0.2580
   4       -0.2580
   5       -0.0245
   6       -0.0245
   7        0.0075
   8        0.0075
   9        0.1734
  10        0.1734
  11        0.6916
  12        0.6916
  13        1.2905
  14        1.2905
  15        1.3746
  16        1.3746
  17        1.3860
  18        1.3860
  19        1.9209
  20        1.9209
  21        2.0058
  22        2.0058
  23        6.5987
  24        6.5987
  25       10.5052
  26       10.5052
  27       12.5257
  28       12.5257
  29       16.3229
  30       16.3229
  31       17.4480
  32       17.4480
 
  0.2857143E+00  0.2857143E+00  0.0000000E+00  0.4373178E-02
   1       -3.7089
   2       -0.8315
   3       -0.8315
   4       -0.4669
   5       -0.2846
   6       -0.2510
   7       -0.2510
   8        0.3073
   9        0.5839
  10        0.5839
  11        0.7269
  12        0.8018
  13        0.9551
  14        1.2083
  15        1.4919
  16        1.6289
  17        1.6289
  18        1.7180
  19        1.7791
  20        1.7791
  21        1.8872
  22        3.6993
  23        3.6993
  24        8.2187
  25        8.5838
  26       11.6081
  27       14.1659
  28       14.1659
  29       15.0552
  30       15.0552
  31       16.6794
  32       16.6794
 
  0.3571429E+00  0.2857143E+00  0.0000000E+00  0.8746356E-02
   1       -3.2290
   2       -1.0899
   3       -0.6024
   4       -0.3535
   5       -0.2077
   6       -0.1592
   7       -0.1305
   8        0.2377
   9        0.3410
  10        0.4995
  11        0.5495
  12        0.7660
  13        1.0430
  14        1.1847
  15        1.4064
  16        1.5101
  17        1.5391
  18        1.6208
  19        1.7793
  20        1.8383
  21        1.8549
  22        3.0211
  23        4.2400
  24        7.2039
  25        9.3064
  26       11.9251
  27       13.0574
  28       14.2187
  29       14.7729
  30       15.6048
  31       17.1020
  32       18.1525
 
  0.4285714E+00  0.2857143E+00  0.0000000E+00  0.8746356E-02
   1       -2.6787
   2       -1.5355
   3       -0.3954
   4       -0.2533
   5       -0.1432
   6       -0.0578
   7        0.0146
   8        0.1336
   9        0.1482
  10        0.3627
  11        0.5163
  12        0.6933
  13        1.1608
  14        1.2145
  15        1.3443
  16        1.4033
  17        1.4204
  18        1.4582
  19        1.7825
  20        1.8080
  21        2.0245
  22        2.5538
  23        4.8426
  24        6.3083
  25       10.1258
  26       12.0092
  27       12.3376
  28       13.4809
  29       15.4834
  30       16.2584
  31       17.1789
  32       17.6245
 
  0.5000000E+00  0.2857143E+00  0.0000000E+00  0.4373178E-02
   1       -2.0941
   2       -2.0941
   3       -0.2598
   4       -0.2598
   5       -0.0353
   6       -0.0353
   7        0.0470
   8        0.0470
   9        0.1810
  10        0.1810
  11        0.5971
  12        0.5971
  13        1.3011
  14        1.3011
  15        1.3018
  16        1.3018
  17        1.3400
  18        1.3400
  19        1.7909
  20        1.7909
  21        2.2434
  22        2.2434
  23        5.5258
  24        5.5258
  25       11.0296
  26       11.0296
  27       12.8540
  28       12.8540
  29       16.2878
  30       16.2878
  31       17.0145
  32       17.0145
 
  0.3571429E+00  0.3571429E+00  0.0000000E+00  0.4373178E-02
   1       -2.7753
   2       -0.8298
   3       -0.8298
   4       -0.3293
   5       -0.1063
   6       -0.0601
   7       -0.0601
   8        0.2061
   9        0.3276
  10        0.3276
  11        0.4408
  12        0.7162
  13        1.1075
  14        1.1435
  15        1.3311
  16        1.4271
  17        1.4271
  18        1.6253
  19        1.6253
  20        1.7567
  21        2.0306
  22        3.4765
  23        3.4765
  24        6.2050
  25        9.9980
  26       12.2765
  27       13.6701
  28       13.6701
  29       14.7252
  30       14.7252
  31       17.0854
  32       17.8020
 
  0.4285714E+00  0.3571429E+00  0.0000000E+00  0.8746356E-02
   1       -2.2623
   2       -1.2268
   3       -0.5923
   4       -0.3454
   5       -0.0018
   6        0.0153
   7        0.0559
   8        0.1552
   9        0.1931
  10        0.3154
  11        0.4061
  12        0.6362
  13        1.1479
  14        1.2032
  15        1.2730
  16        1.3181
  17        1.3263
  18        1.4707
  19        1.6366
  20        1.6974
  21        2.2469
  22        2.9174
  23        3.9989
  24        5.3431
  25       10.7903
  26       12.6340
  27       12.7259
  28       13.9475
  29       14.3871
  30       15.3374
  31       16.1003
  32       16.8769
 
  0.5000000E+00  0.3571429E+00  0.0000000E+00  0.4373178E-02
   1       -1.7277
   2       -1.7277
   3       -0.4245
   4       -0.4245
   5        0.0894
   6        0.0894
   7        0.0905
   8        0.0905
   9        0.1837
  10        0.1837
  11        0.5235
  12        0.5235
  13        1.2132
  14        1.2132
  15        1.2674
  16        1.2674
  17        1.3268
  18        1.3268
  19        1.6590
  20        1.6590
  21        2.5270
  22        2.5270
  23        4.6131
  24        4.6131
  25       11.6718
  26       11.6718
  27       13.2811
  28       13.2811
  29       15.1994
  30       15.1994
  31       16.0549
  32       16.0549
 
  0.4285714E+00  0.4285714E+00  0.0000000E+00  0.4373178E-02
   1       -1.8033
   2       -0.9233
   3       -0.9233
   4       -0.4761
   5        0.0958
   6        0.0958
   7        0.1307
   8        0.1492
   9        0.2525
  10        0.3196
  11        0.3196
  12        0.5637
  13        1.1145
  14        1.2075
  15        1.2290
  16        1.2290
  17        1.2731
  18        1.4959
  19        1.4959
  20        1.6062
  21        2.5192
  22        3.3481
  23        3.3481
  24        4.5339
  25       11.5581
  26       13.2153
  27       13.3636
  28       13.3636
  29       14.5192
  30       14.5192
  31       15.1024
  32       15.9840
 
  0.5000000E+00  0.4285714E+00  0.0000000E+00  0.4373178E-02
   1       -1.3414
   2       -1.3414
   3       -0.6658
   4       -0.6658
   5        0.1285
   6        0.1285
   7        0.1773
   8        0.1773
   9        0.2363
  10        0.2363
  11        0.4545
  12        0.4545
  13        1.1455
  14        1.1455
  15        1.1859
  16        1.1859
  17        1.3719
  18        1.3719
  19        1.5395
  20        1.5395
  21        2.8705
  22        2.8705
  23        3.8762
  24        3.8762
  25       12.4186
  26       12.4186
  27       13.8117
  28       13.8117
  29       14.1887
  30       14.1887
  31       15.1978
  32       15.1978
 
  0.5000000E+00  0.5000000E+00  0.0000000E+00  0.1093294E-02
   1       -0.9761
   2       -0.9761
   3       -0.9761
   4       -0.9761
   5        0.1589
   6        0.1589
   7        0.1589
   8        0.1589
   9        0.3630
  10        0.3630
  11        0.3630
  12        0.3630
  13        1.1341
  14        1.1341
  15        1.1341
  16        1.1341
  17        1.4423
  18        1.4423
  19        1.4423
  20        1.4423
  21        3.3064
  22        3.3064
  23        3.3064
  24        3.3064
  25       13.2600
  26       13.2600
  27       13.2600
  28       13.2600
  29       14.4498
  30       14.4498
  31       14.4498
  32       14.4498
 
  0.7142857E-01  0.7142857E-01  0.7142857E-01  0.2915452E-02
   1       -5.3901
   2       -1.0945
   3       -1.0945
   4       -1.0945
   5       -0.6612
   6       -0.6612
   7       -0.6612
   8        0.6053
   9        0.6766
  10        0.6766
  11        1.4353
  12        1.4353
  13        1.9127
  14        1.9127
  15        1.9127
  16        1.9260
  17        1.9260
  18        1.9260
  19        2.1029
  20        2.1029
  21        2.1029
  22        5.0781
  23        5.0781
  24        5.0781
  25       11.2126
  26       11.2126
  27       11.2126
  28       15.4161
  29       15.4161
  30       15.4161
  31       16.9348
  32       16.9348
 
  0.1428571E+00  0.7142857E-01  0.7142857E-01  0.8746356E-02
   1       -5.2082
   2       -1.1015
   3       -1.0122
   4       -1.0122
   5       -0.6148
   6       -0.6118
   7       -0.6118
   8        0.5616
   9        0.7105
  10        0.7143
  11        1.3909
  12        1.4585
  13        1.6634
  14        1.6634
  15        1.8135
  16        1.8721
  17        1.8721
  18        1.8764
  19        2.0641
  20        2.0956
  21        2.0956
  22        4.1994
  23        5.4742
  24        5.4742
  25       11.3035
  26       11.3035
  27       12.4894
  28       14.2889
  29       14.2889
  30       15.6533
  31       16.7483
  32       16.7483
 
  0.2142857E+00  0.7142857E-01  0.7142857E-01  0.8746356E-02
   1       -4.9085
   2       -1.1453
   3       -0.8849
   4       -0.8849
   5       -0.5398
   6       -0.5293
   7       -0.5293
   8        0.4829
   9        0.7735
  10        0.7767
  11        1.3236
  12        1.3432
  13        1.3432
  14        1.4959
  15        1.6428
  16        1.7838
  17        1.7838
  18        1.7908
  19        2.0108
  20        2.0903
  21        2.0903
  22        3.2564
  23        6.0337
  24        6.0337
  25       11.4593
  26       11.4593
  27       13.1556
  28       13.1556
  29       14.1345
  30       16.0399
  31       16.0774
  32       16.0774
 
  0.2857143E+00  0.7142857E-01  0.7142857E-01  0.8746356E-02
   1       -4.4969
   2       -1.2851
   3       -0.7281
   4       -0.7281
   5       -0.4394
   6       -0.4136
   7       -0.4136
   8        0.3767
   9        0.8540
  10        0.8625
  11        1.0087
  12        1.0087
  13        1.2485
  14        1.3932
  15        1.5456
  16        1.6689
  17        1.6689
  18        1.6733
  19        1.9499
  20        2.0871
  21        2.0871
  22        2.4826
  23        6.6992
  24        6.6992
  25       11.6584
  26       11.6584
  27       12.0999
  28       12.0999
  29       15.2485
  30       15.2485
  31       15.9702
  32       16.5752
 
  0.3571429E+00  0.7142857E-01  0.7142857E-01  0.8746356E-02
   1       -3.9839
   2       -1.6005
   3       -0.5660
   4       -0.5660
   5       -0.3181
   6       -0.2664
   7       -0.2664
   8        0.2499
   9        0.6889
  10        0.6889
  11        0.9192
  12        0.9699
  13        1.1135
  14        1.2086
  15        1.5343
  16        1.5462
  17        1.5462
  18        1.6052
  19        1.8839
  20        1.9766
  21        2.0854
  22        2.0854
  23        7.4394
  24        7.4394
  25       10.9974
  26       10.9974
  27       12.0540
  28       12.0540
  29       14.4248
  30       14.4248
  31       17.1722
  32       17.9963
 
  0.4285714E+00  0.7142857E-01  0.7142857E-01  0.8746356E-02
   1       -3.3878
   2       -2.1137
   3       -0.4358
   4       -0.4358
   5       -0.1817
   6       -0.0892
   7       -0.0892
   8        0.1096
   9        0.3994
  10        0.3994
  11        0.9141
  12        0.9342
  13        1.0961
  14        1.2776
  15        1.3853
  16        1.4467
  17        1.4467
  18        1.6618
  19        1.6718
  20        1.8140
  21        2.0845
  22        2.0845
  23        8.2342
  24        8.2342
  25       10.0441
  26       10.0441
  27       12.4652
  28       12.4652
  29       13.6790
  30       13.6790
  31       17.9270
  32       19.6832
 
  0.5000000E+00  0.7142857E-01  0.7142857E-01  0.4373178E-02
   1       -2.7431
   2       -2.7431
   3       -0.3843
   4       -0.3843
   5       -0.0368
   6       -0.0368
   7        0.0777
   8        0.0777
   9        0.1931
  10        0.1931
  11        0.8888
  12        0.8888
  13        1.2365
  14        1.2365
  15        1.4073
  16        1.4073
  17        1.4386
  18        1.4386
  19        1.7424
  20        1.7424
  21        2.0843
  22        2.0843
  23        8.9260
  24        8.9260
  25        9.2990
  26        9.2990
  27       12.8855
  28       12.8855
  29       13.1449
  30       13.1449
  31       18.7654
  32       18.7654
 
  0.1428571E+00  0.1428571E+00  0.7142857E-01  0.8746356E-02
   1       -5.0282
   2       -1.0151
   3       -1.0151
   4       -0.9348
   5       -0.5674
   6       -0.5674
   7       -0.5663
   8        0.5328
   9        0.7330
  10        0.7410
  11        1.3828
  12        1.4557
  13        1.4987
  14        1.5443
  15        1.5443
  16        1.7997
  17        1.8288
  18        1.8288
  19        2.0613
  20        2.0613
  21        2.0718
  22        4.5787
  23        4.5787
  24        5.8257
  25       11.3932
  26       12.6058
  27       12.6058
  28       13.0450
  29       14.5152
  30       14.5152
  31       16.9948
  32       16.9948
 
  0.2142857E+00  0.1428571E+00  0.7142857E-01  0.1749271E-01
   1       -4.7317
   2       -1.0519
   3       -0.8812
   4       -0.8152
   5       -0.4953
   6       -0.4905
   7       -0.4880
   8        0.4683
   9        0.7838
  10        0.7869
  11        1.2198