 vasp.4.6.28 25Jul05 complex 
 executed on             LinuxIFC date 2017.01.24  15:35:35
 running on    4 nodes
 distr:  one band on    1 nodes,    4 groups


--------------------------------------------------------------------------------------------------------


 INCAR:
 POTCAR:   PAW_PBE Ag 06Sep2000                   
 POTCAR:   PAW_PBE Ag 06Sep2000                   
   VRHFIN =Ag : s1 d10                                                          
   LEXCH  = PE                                                                  
   EATOM  =  1037.4134 eV,   76.2477 Ry                                         
                                                                                
   TITEL  = PAW_PBE Ag 06Sep2000                                                
   LULTRA =        F    use ultrasoft PP ?                                      
   IUNSCR =        1    unscreen: 0-lin 1-nonlin 2-no                           
   RPACOR =    2.000    partial core radius                                     
   POMASS =  107.868; ZVAL   =   11.000    mass and valenz                      
   RCORE  =    2.400    outmost cutoff radius                                   
   RWIGS  =    2.840; RWIGS  =    1.503    wigner-seitz radius (au A)           
   ENMAX  =  249.846; ENMIN  =  187.385 eV                                      
   RCLOC  =    1.962    cutoff for local pot                                    
   LCOR   =        T    correct aug charges                                     
   LPAW   =        T    paw PP                                                  
   EAUG   =  412.496                                                            
   DEXC   =    -.047                                                            
   RMAX   =    2.917    core radius for proj-oper                               
   RAUG   =    1.300    factor for augmentation sphere                          
   RDEP   =    2.416    radius for radial grids                                 
   QCUT   =   -4.285; QGAM   =    8.570    optimization parameters              
                                                                                
   Description                                                                  
     l     E      TYP  RCUT    TYP  RCUT                                        
     2   .000     23  2.400                                                     
     2   .000     23  2.400                                                     
     0   .000     23  2.400                                                     
     0   .000     23  2.400                                                     
     1  -.200     23  2.400                                                     
     1  1.500     23  2.400                                                     
     3   .000      7   .000                                                     
  local pseudopotential read in
  partial core-charges read in
  atomic valenz-charges read in
  non local Contribution for L=           2  read in
    real space projection operators read in
  non local Contribution for L=           2  read in
    real space projection operators read in
  non local Contribution for L=           0  read in
    real space projection operators read in
  non local Contribution for L=           0  read in
    real space projection operators read in
  non local Contribution for L=           1  read in
    real space projection operators read in
  non local Contribution for L=           1  read in
    real space projection operators read in
    PAW grid and wavefunctions read in
 
   number of l-projection  operators is LMAX  =           6
   number of lm-projection operators is LMMAX =          18
 

 ----------------------------------------------------------------------------- 
|                                                                             |
|  ADVICE TO THIS USER RUNNING 'VASP/VAMP'   (HEAR YOUR MASTER'S VOICE ...):  |
|                                                                             |
|      You have a (more or less) 'large supercell' and for larger cells       |
|      it might be more efficient to use real space projection operators      |
|      So try LREAL= Auto  in the INCAR   file.                               |
|      Mind: If you want to do an extremely accurate calculations keep the    |
|      reciprocal projection scheme          (i.e. LREAL=.FALSE.)             |
|                                                                             |
 ----------------------------------------------------------------------------- 

 PAW_PBE Ag 06Sep2000                   :
 energy of atom  1       EATOM=-1037.4134
 kinetic energy error for atom=    0.0019 (will be added to EATOM!!)
 
 EXHCAR: internal setup
 exchange correlation table for  LEXCH =        8
   RHO(1)=    0.500       N(1)  =     2000
   RHO(2)=  100.500       N(2)  =     4000
 
 POSCAR: No title                                
  positions in direct lattice
  No initial velocities read in
 


--------------------------------------------------------------------------------------------------------


 ion  position               nearest neighbor table
   1  0.750  0.750  0.500-   3 3.02  14 3.02  19 3.02  20 3.02   5 3.02  26 3.02   6 3.02  29 3.02
                            11 3.02  18 3.02  10 3.02   8 3.02
   2  0.750  0.750  0.000-   8 3.02  10 3.02  22 3.02  27 3.02  11 3.02  18 3.02  32 3.02   5 3.02
                            26 3.02   3 3.02  20 3.02  12 3.03
   3  0.750  0.000  0.250-   1 3.02   5 3.02   9 3.02  28 3.02  19 3.02  13 3.02  18 3.02  27 3.02
                             6 3.02   2 3.02   4 3.02  12 3.03
   4  0.750  0.250  0.500-   6 3.02   8 3.02  10 3.02  29 3.02  13 3.02  31 3.02  14 3.02  19 3.02
                            21 3.02  28 3.02   3 3.02  20 3.02
   5  0.000  0.750  0.250-   3 3.02  14 3.02  25 3.02  15 3.02   1 3.02  16 3.02  10 3.02   7 3.02
                             2 3.02  22 3.02   6 3.02  12 3.02
   6  0.000  0.000  0.500-   4 3.02   7 3.02  11 3.02  13 3.02   8 3.02  16 3.02   1 3.02  17 3.02
                             3 3.02  23 3.02  21 3.02   5 3.02
   7  0.250  0.750  0.500-   6 3.02  16 3.02  29 3.02  30 3.02  11 3.02  18 3.02  14 3.02  19 3.02
                             5 3.02  26 3.02  25 3.02  23 3.02
   8  0.750  0.000  0.750-   2 3.02   4 3.02  11 3.02  31 3.02  27 3.02   6 3.02  21 3.02  26 3.02
                            19 3.02   1 3.02   9 3.02  12 3.03
   9  0.750  0.250  0.000-   3 3.02  20 3.02  32 3.02  28 3.02  21 3.02  22 3.02  27 3.02  31 3.02
                            13 3.02   8 3.02  10 3.02  12 3.03
  10  0.750  0.500  0.250-   2 3.02   4 3.02  13 3.02  18 3.02  22 3.02  29 3.02  28 3.02   5 3.02
                            14 3.02  32 3.02   9 3.02   1 3.02
  11  0.000  0.750  0.750-   6 3.02   8 3.02  22 3.02  30 3.02   7 3.02   2 3.02  23 3.02  20 3.02
                             1 3.02  15 3.02  14 3.02  12 3.02
  12  0.002  0.000  0.000-  15 3.00  23 3.00  16 3.00  24 3.00   5 3.02  21 3.02  13 3.02  11 3.02
                             9 3.03   3 3.03   2 3.03   8 3.03
  13  0.000  0.250  0.250-   6 3.02  10 3.02  16 3.02  22 3.02   4 3.02  24 3.02   3 3.02  25 3.02
                            17 3.02   9 3.02  14 3.02  12 3.02
  14  0.000  0.500  0.500-   1 3.02   5 3.02  17 3.02  21 3.02  20 3.02  25 3.02   4 3.02   7 3.02
                            10 3.02  30 3.02  13 3.02  11 3.02
  15  0.250  0.750  0.000-  12 3.00  23 3.02  25 3.02  32 3.02  26 3.02   5 3.02  27 3.02  22 3.02
                            11 3.02  18 3.02  30 3.02  16 3.02
  16  0.250  0.000  0.250-  12 3.00   7 3.02  13 3.02  18 3.02  24 3.02   6 3.02  27 3.02   5 3.02
                            28 3.02  19 3.02  17 3.02  15 3.02
  17  0.250  0.250  0.500-  14 3.02  19 3.02  23 3.02  25 3.02  21 3.02  28 3.02   6 3.02  29 3.02
                            13 3.02  31 3.02  30 3.02  16 3.02
  18  0.500  0.750  0.250-  10 3.02  16 3.02  27 3.02  29 3.02   2 3.02   7 3.02   3 3.02  25 3.02
                             1 3.02  15 3.02  19 3.02  32 3.02
  19  0.500  0.000  0.500-   1 3.02  17 3.02  26 3.02  28 3.02   3 3.02  23 3.02   4 3.02   7 3.02
                             8 3.02  16 3.02  18 3.02  31 3.02
  20  0.750  0.500  0.750-   1 3.02   9 3.02  21 3.02  26 3.02  14 3.02  32 3.02  31 3.02  11 3.02
                            22 3.02  29 3.02   4 3.02   2 3.02
  21  0.000  0.250  0.750-  14 3.02  20 3.02  23 3.02   9 3.02  17 3.02   8 3.02  30 3.02  24 3.02
                             4 3.02  22 3.02   6 3.02  12 3.02
  22  0.000  0.500  0.000-   2 3.02  11 3.02  13 3.02  24 3.02  10 3.02  30 3.02   9 3.02  15 3.02
                            25 3.02  20 3.02  21 3.02   5 3.02
  23  0.250  0.000  0.750-  12 3.00  15 3.02  17 3.02  21 3.02  26 3.02  19 3.02  11 3.02  31 3.02
                            27 3.02   6 3.02  24 3.02   7 3.02
  24  0.250  0.250  0.000-  12 3.00  16 3.02  22 3.02  27 3.02  30 3.02  13 3.02  31 3.02  32 3.02
                            28 3.02  21 3.02  25 3.02  23 3.02
  25  0.250  0.500  0.250-   5 3.02  15 3.02  17 3.02  28 3.02  14 3.02  32 3.02  13 3.02  18 3.02
                            29 3.02  22 3.02  24 3.02   7 3.02
  26  0.500  0.750  0.750-  19 3.02  20 3.02  23 3.02  32 3.02   1 3.02  15 3.02  30 3.02   8 3.02
                             7 3.02   2 3.02  27 3.02  29 3.02
  27  0.500  0.000  0.000-   2 3.02  18 3.02  24 3.02  31 3.02  16 3.02   8 3.02   9 3.02  15 3.02
                             3 3.02  23 3.02  28 3.02  26 3.02
  28  0.500  0.250  0.250-   3 3.02  19 3.02  25 3.02  32 3.02  17 3.02   9 3.02  10 3.02  16 3.02
                             4 3.02  24 3.02  29 3.02  27 3.02
  29  0.500  0.500  0.500-   4 3.02   7 3.02  18 3.02  31 3.02  30 3.02  10 3.02  17 3.02   1 3.02
                            20 3.02  25 3.02  26 3.02  28 3.02
  30  0.250  0.500  0.750-   7 3.02  11 3.02  24 3.02  31 3.02  29 3.02  22 3.02  21 3.02  26 3.02
                            14 3.02  32 3.02  17 3.02  15 3.02
  31  0.500  0.250  0.750-   8 3.02  27 3.02  29 3.02  30 3.02  24 3.02   4 3.02  20 3.02  23 3.02
                             9 3.02  17 3.02  19 3.02  32 3.02
  32  0.500  0.500  0.000-   9 3.02  15 3.02  26 3.02  28 3.02  20 3.02  25 3.02  24 3.02   2 3.02
                            10 3.02  30 3.02  18 3.02  31 3.02
 
  LATTYP: Found a simple cubic cell.
 ALAT       =     8.5327987700
  
  Lattice vectors:
  
 A1 = (   8.5327987700,   0.0000000000,   0.0000000000)
 A2 = (   0.0000001600,   8.5327987700,   0.0000000000)
 A3 = (   0.0000001600,   0.0000001600,   8.5327987700)
 Subroutine PRICEL returns:
 Original cell was already a primitive cell.
 

Analysis of symmetry for initial positions (statically):

 Routine SETGRP: Setting up the symmetry group for a 
 simple cubic supercell.


 Subroutine GETGRP returns: Found  8 space group operations
 (whereof  8 operations were pure point group operations)
 out of a pool of 48 trial point group operations.


The static configuration has the point symmetry C_4v.

Analysis of symmetry for dynamics (positions and initial velocities):

 Subroutine DYNSYM returns: Found  8 space group operations
 (whereof  8 operations were pure point group operations)
 out of a pool of  8 trial space group operations
 (whereof  8 operations were pure point group operations)
 and found also     1 'primitive' translations


The dynamic configuration has the point symmetry C_4v.
 
 
 KPOINTS: Automatic mesh                          

Automatic generation of k-mesh.
 
 Subroutine IBZKPT returns following result:
 ===========================================
 
 Found     40 irreducible k-points:
 
 Following reciprocal coordinates:
            Coordinates               Weight
  0.062500  0.062500  0.062500      8.000000
  0.187500  0.062500  0.062500      8.000000
  0.312500  0.062500  0.062500      8.000000
  0.437500  0.062500  0.062500      8.000000
  0.062500  0.187500  0.062500     16.000000
  0.187500  0.187500  0.062500     16.000000
  0.312500  0.187500  0.062500     16.000000
  0.437500  0.187500  0.062500     16.000000
  0.062500  0.312500  0.062500     16.000000
  0.187500  0.312500  0.062500     16.000000
  0.312500  0.312500  0.062500     16.000000
  0.437500  0.312500  0.062500     16.000000
  0.062500  0.437500  0.062500     16.000000
  0.187500  0.437500  0.062500     16.000000
  0.312500  0.437500  0.062500     16.000000
  0.437500  0.437500  0.062500     16.000000
  0.062500  0.187500  0.187500      8.000000
  0.187500  0.187500  0.187500      8.000000
  0.312500  0.187500  0.187500      8.000000
  0.437500  0.187500  0.187500      8.000000
  0.062500  0.312500  0.187500     16.000000
  0.187500  0.312500  0.187500     16.000000
  0.312500  0.312500  0.187500     16.000000
  0.437500  0.312500  0.187500     16.000000
  0.062500  0.437500  0.187500     16.000000
  0.187500  0.437500  0.187500     16.000000
  0.312500  0.437500  0.187500     16.000000
  0.437500  0.437500  0.187500     16.000000
  0.062500  0.312500  0.312500      8.000000
  0.187500  0.312500  0.312500      8.000000
  0.312500  0.312500  0.312500      8.000000
  0.437500  0.312500  0.312500      8.000000
  0.062500  0.437500  0.312500     16.000000
  0.187500  0.437500  0.312500     16.000000
  0.312500  0.437500  0.312500     16.000000
  0.437500  0.437500  0.312500     16.000000
  0.062500  0.437500  0.437500      8.000000
  0.187500  0.437500  0.437500      8.000000
  0.312500  0.437500  0.437500      8.000000
  0.437500  0.437500  0.437500      8.000000
 
 Following cartesian coordinates:
            Coordinates               Weight
  0.007325  0.007325  0.007325      8.000000
  0.021974  0.007325  0.007325      8.000000
  0.036623  0.007325  0.007325      8.000000
  0.051273  0.007325  0.007325      8.000000
  0.007325  0.021974  0.007325     16.000000
  0.021974  0.021974  0.007325     16.000000
  0.036623  0.021974  0.007325     16.000000
  0.051273  0.021974  0.007325     16.000000
  0.007325  0.036623  0.007325     16.000000
  0.021974  0.036623  0.007325     16.000000
  0.036623  0.036623  0.007325     16.000000
  0.051273  0.036623  0.007325     16.000000
  0.007325  0.051273  0.007325     16.000000
  0.021974  0.051273  0.007325     16.000000
  0.036623  0.051273  0.007325     16.000000
  0.051273  0.051273  0.007325     16.000000
  0.007325  0.021974  0.021974      8.000000
  0.021974  0.021974  0.021974      8.000000
  0.036623  0.021974  0.021974      8.000000
  0.051273  0.021974  0.021974      8.000000
  0.007325  0.036623  0.021974     16.000000
  0.021974  0.036623  0.021974     16.000000
  0.036623  0.036623  0.021974     16.000000
  0.051273  0.036623  0.021974     16.000000
  0.007325  0.051273  0.021974     16.000000
  0.021974  0.051273  0.021974     16.000000
  0.036623  0.051273  0.021974     16.000000
  0.051273  0.051273  0.021974     16.000000
  0.007325  0.036623  0.036623      8.000000
  0.021974  0.036623  0.036623      8.000000
  0.036623  0.036623  0.036623      8.000000
  0.051273  0.036623  0.036623      8.000000
  0.007325  0.051273  0.036623     16.000000
  0.021974  0.051273  0.036623     16.000000
  0.036623  0.051273  0.036623     16.000000
  0.051273  0.051273  0.036623     16.000000
  0.007325  0.051273  0.051273      8.000000
  0.021974  0.051273  0.051273      8.000000
  0.036623  0.051273  0.051273      8.000000
  0.051273  0.051273  0.051273      8.000000
 


--------------------------------------------------------------------------------------------------------




 Dimension of arrays:
   k-Points           NKPTS =     40   number of bands    NBANDS=    212
   number of dos      NEDOS =    301   number of ions     NIONS =     32
   non local maximal  LDIM  =      6   non local SUM 2l+1 LMDIM =     18
   total plane-waves  NPLWV = 343000
   max r-space proj   IRMAX =      1   max aug-charges    IRDMAX= 217343
   dimension x,y,z NGX =    70 NGY =   70 NGZ =   70
   dimension x,y,z NGXF=   140 NGYF=  140 NGZF=  140
   support grid    NGXF=   280 NGYF=  280 NGZF=  280
   ions per type =              32
 NGX,Y,Z   is equivalent  to a cutoff of  13.64, 13.64, 13.64 a.u.
 NGXF,Y,Z  is equivalent  to a cutoff of  27.28, 27.28, 27.28 a.u.


 I would recommend the setting:
   dimension x,y,z NGX =    68 NGY =   68 NGZ =   68
 SYSTEM =  No title                                
 POSCAR =  No title                                

 Startparameter for this run:
   NWRITE =      2    write-flag & timer
   PREC   = accura    medium, high low
   ISTART =      1    job   : 0-new  1-cont  2-samecut
   ICHARG =      0    charge: 1-file 2-atom 10-const
   ISPIN  =      1    spin polarized calculation?
   LNONCOLLINEAR =      F non collinear calculations
   LSORBIT =      F    spin-orbit coupling
   INIWAV =      1    electr: 0-lowe 1-rand  2-diag
   LASPH  =      F    aspherical Exc in radial PAW
   METAGGA=      F    non-selfconsistent MetaGGA calc.

 Electronic Relaxation 1
   ENCUT  =  600.0 eV  44.10 Ry    6.64 a.u.  17.04 17.04 17.04*2*pi/ulx,y,z
   ENINI  =  600.0     initial cutoff
   ENAUG  =  412.5 eV  augmentation charge cutoff
   NELM   =     60;   NELMIN=  2; NELMDL=  0     # of ELM steps 
   EDIFF  = 0.1E-04   stopping-criterion for ELM
   LREAL  =      F    real-space projection
   LCOMPAT=      F    compatible to vasp.4.4
   LREAL_COMPAT= F    compatible to vasp.4.5.1-3
   GGA_COMPAT  = T    GGA compatible to vasp.4.4-vasp.4.6
   LMAXPAW     = -100 max onsite density
   LMAXMIX     =    2 max onsite mixed and CHGCAR
   VOSKOWN=      1    Vosko Wilk Nusair interpolation
   ROPT   =    0.00000
 Ionic relaxation
   EDIFFG = -.2E-01   stopping-criterion for IOM
   NSW    =      0    number of steps for IOM
   NBLOCK =      1;   KBLOCK =      1    inner block; outer block 
   IBRION =     -1    ionic relax: 0-MD 1-quasi-New 2-CG
   NFREE  =      0    steps in history (QN), initial steepest desc. (CG)
   ISIF   =      2    stress and relaxation
   IWAVPR =     10    prediction:  0-non 1-charg 2-wave 3-comb
   ISYM   =      2    0-nonsym 1-usesym 2-fastsym
   LCORR  =      T    Harris-Foulkes like correction to forces

   POTIM  =   0.50    time-step for ionic-motion
   TEIN   =    0.0    initial temperature
   TEBEG  =    0.0;   TEEND  =   0.0 temperature during run
   SMASS  =  -3.00    Nose mass-parameter (am)
   estimated Nose-frequenzy (Omega)   =  0.10E-29 period in steps =****** mass=  -0.166E-26a.u.
   NPACO  =    256;   APACO  = 16.0  distance and # of slots for P.C.
   PSTRESS=    0.0 pullay stress

  Mass of Ions in am
   POMASS = 107.87
  Ionic Valenz
   ZVAL   =  11.00
  Atomic Wigner-Seitz radii
   RWIGS  =   1.34
   NELECT =     352.0000    total number of electrons
   NUPDOWN=      -1.0000    fix difference up-down

 DOS related values:
   EMIN   =  10.00;   EMAX   =-10.00  energy-range for DOS
   ISMEAR =     1;   SIGMA  =   0.20  broadening in eV -4-tet -1-fermi 0-gaus

 Electronic relaxation 2 (details)
   IALGO  =     48    algorithm
   LDIAG  =      T    sub-space diagonalisation
   IMIX   =      4    mixing-type and parameters
     AMIX     =   0.40;   BMIX     =  1.00
     AMIX_MAG =   1.60;   BMIX_MAG =  1.00
     AMIN     =   0.10
     WC   =   100.;   INIMIX=   1;  MIXPRE=   1

 Intra band minimization:
   WEIMIN = 0.0000     energy-eigenvalue tresh-hold
   EBREAK =  0.12E-07  absolut break condition
   DEPER  =   0.30     relativ break condition  

   TIME   =   0.10     timestep for ELM

  volume/ion in A,a.u.               =      19.41       131.02
  Fermi-wavevector in a.u.,eV,Ry     =   1.354662 24.968168  1.835109

 Second variation
   LSECVAR=     F    do a second variation
 
 Write flags
   LWAVE  =      F    write WAVECAR
   LCHARG =      F    write CHGCAR
   LVTOT  =      F    write LOCPOT, local potential
   LELF   =      F    write electronic localiz. function (ELF)
   LORBIT =      0    0 simple, 1 ext, 2 COOP (PROOUT)


 Dipole corrections
   IDIPOL =      0    1-x, 2-y, 3-z
   LDIPOL =      F    correct potential



--------------------------------------------------------------------------------------------------------


 Static calculation
 charge density will be updated during run
 non-spin polarized calculation
 RMM-DIIS sequential band-by-band
 performe sub-space diagonalisation
    before iterative eigenvector-optimisation
 modified Broyden-mixing scheme, WC =      100.0
 initial mixing is a Kerker type mixing with AMIX =  0.4000 and BMIX =      1.0000
 Hartree-type preconditioning will be used
 using additional bands           36
 reciprocal scheme for non local part
 use partial core corrections
 calculate Harris-corrections to forces 
   (improved forces if not selfconsistent)
 use gradient corrections 
 use of overlap-Matrix (Vanderbilt PP)
 Methfessel and Paxton  Order N= 1 SIGMA  =   0.20


--------------------------------------------------------------------------------------------------------


  energy-cutoff  :      600.00
  volume of cell :      621.26
      direct lattice vectors                 reciprocal lattice vectors
     8.532798770  0.000000000  0.000000000     0.117194842 -0.000000002 -0.000000002
     0.000000160  8.532798770  0.000000000     0.000000000  0.117194842 -0.000000002
     0.000000160  0.000000160  8.532798770     0.000000000  0.000000000  0.117194842

  length of vectors
     8.532798770  8.532798770  8.532798770     0.117194842  0.117194842  0.117194842


 
 old parameters found on file WAVECAR:
  energy-cutoff  :      600.00
  volume of cell :      621.26
      direct lattice vectors                 reciprocal lattice vectors
     8.532798770  0.000000000  0.000000000     0.117194842 -0.000000002 -0.000000002
     0.000000160  8.532798770  0.000000000     0.000000000  0.117194842 -0.000000002
     0.000000160  0.000000160  8.532798770     0.000000000  0.000000000  0.117194842

  length of vectors

 
 k-points in units of 2pi/SCALE and weight: Automatic mesh                          
   0.00732468  0.00732468  0.00732468       0.016
   0.02197403  0.00732468  0.00732468       0.016
   0.03662339  0.00732468  0.00732468       0.016
   0.05127274  0.00732468  0.00732468       0.016
   0.00732468  0.02197403  0.00732468       0.031
   0.02197403  0.02197403  0.00732468       0.031
   0.03662339  0.02197403  0.00732468       0.031
   0.05127274  0.02197403  0.00732468       0.031
   0.00732468  0.03662339  0.00732468       0.031
   0.02197403  0.03662339  0.00732468       0.031
   0.03662339  0.03662339  0.00732468       0.031
   0.05127274  0.03662339  0.00732468       0.031
   0.00732468  0.05127274  0.00732468       0.031
   0.02197403  0.05127274  0.00732468       0.031
   0.03662339  0.05127274  0.00732468       0.031
   0.05127274  0.05127274  0.00732468       0.031
   0.00732468  0.02197403  0.02197403       0.016
   0.02197403  0.02197403  0.02197403       0.016
   0.03662339  0.02197403  0.02197403       0.016
   0.05127274  0.02197403  0.02197403       0.016
   0.00732468  0.03662339  0.02197403       0.031
   0.02197403  0.03662339  0.02197403       0.031
   0.03662339  0.03662339  0.02197403       0.031
   0.05127274  0.03662339  0.02197403       0.031
   0.00732468  0.05127274  0.02197403       0.031
   0.02197403  0.05127274  0.02197403       0.031
   0.03662339  0.05127274  0.02197403       0.031
   0.05127274  0.05127274  0.02197403       0.031
   0.00732468  0.03662339  0.03662339       0.016
   0.02197403  0.03662339  0.03662339       0.016
   0.03662339  0.03662339  0.03662339       0.016
   0.05127274  0.03662339  0.03662339       0.016
   0.00732468  0.05127274  0.03662339       0.031
   0.02197403  0.05127274  0.03662339       0.031
   0.03662339  0.05127274  0.03662339       0.031
   0.05127274  0.05127274  0.03662339       0.031
   0.00732468  0.05127274  0.05127274       0.016
   0.02197403  0.05127274  0.05127274       0.016
   0.03662339  0.05127274  0.05127274       0.016
   0.05127274  0.05127274  0.05127274       0.016
 
 k-points in reciprocal lattice and weights: Automatic mesh                          
   0.06250000  0.06250000  0.06250000       0.016
   0.18750000  0.06250000  0.06250000       0.016
   0.31250000  0.06250000  0.06250000       0.016
   0.43750000  0.06250000  0.06250000       0.016
   0.06250000  0.18750000  0.06250000       0.031
   0.18750000  0.18750000  0.06250000       0.031
   0.31250000  0.18750000  0.06250000       0.031
   0.43750000  0.18750000  0.06250000       0.031
   0.06250000  0.31250000  0.06250000       0.031
   0.18750000  0.31250000  0.06250000       0.031
   0.31250000  0.31250000  0.06250000       0.031
   0.43750000  0.31250000  0.06250000       0.031
   0.06250000  0.43750000  0.06250000       0.031
   0.18750000  0.43750000  0.06250000       0.031
   0.31250000  0.43750000  0.06250000       0.031
   0.43750000  0.43750000  0.06250000       0.031
   0.06250000  0.18750000  0.18750000       0.016
   0.18750000  0.18750000  0.18750000       0.016
   0.31250000  0.18750000  0.18750000       0.016
   0.43750000  0.18750000  0.18750000       0.016
   0.06250000  0.31250000  0.18750000       0.031
   0.18750000  0.31250000  0.18750000       0.031
   0.31250000  0.31250000  0.18750000       0.031
   0.43750000  0.31250000  0.18750000       0.031
   0.06250000  0.43750000  0.18750000       0.031
   0.18750000  0.43750000  0.18750000       0.031
   0.31250000  0.43750000  0.18750000       0.031
   0.43750000  0.43750000  0.18750000       0.031
   0.06250000  0.31250000  0.31250000       0.016
   0.18750000  0.31250000  0.31250000       0.016
   0.31250000  0.31250000  0.31250000       0.016
   0.43750000  0.31250000  0.31250000       0.016
   0.06250000  0.43750000  0.31250000       0.031
   0.18750000  0.43750000  0.31250000       0.031
   0.31250000  0.43750000  0.31250000       0.031
   0.43750000  0.43750000  0.31250000       0.031
   0.06250000  0.43750000  0.43750000       0.016
   0.18750000  0.43750000  0.43750000       0.016
   0.31250000  0.43750000  0.43750000       0.016
   0.43750000  0.43750000  0.43750000       0.016
 
 position of ions in fractional coordinates (direct lattice) 
   0.75000000  0.75000000  0.50000000
   0.75000000  0.75000000  0.00000000
   0.75000000  0.00000000  0.25000000
   0.75000000  0.25000000  0.50000000
   0.00000000  0.75000000  0.25000000
   0.00000000  0.00000000  0.50000000
   0.25000000  0.75000000  0.50000000
   0.75000000  0.00000000  0.75000000
   0.75000000  0.25000000  0.00000000
   0.75000000  0.50000000  0.25000000
   0.00000000  0.75000000  0.75000000
   0.00234400  0.00000000  0.00000000
   0.00000000  0.25000000  0.25000000
   0.00000000  0.50000000  0.50000000
   0.25000000  0.75000000  0.00000000
   0.25000000  0.00000000  0.25000000
   0.25000000  0.25000000  0.50000000
   0.50000000  0.75000000  0.25000000
   0.50000000  0.00000000  0.50000000
   0.75000000  0.50000000  0.75000000
   0.00000000  0.25000000  0.75000000
   0.00000000  0.50000000  0.00000000
   0.25000000  0.00000000  0.75000000
   0.25000000  0.25000000  0.00000000
   0.25000000  0.50000000  0.25000000
   0.50000000  0.75000000  0.75000000
   0.50000000  0.00000000  0.00000000
   0.50000000  0.25000000  0.25000000
   0.50000000  0.50000000  0.50000000
   0.25000000  0.50000000  0.75000000
   0.50000000  0.25000000  0.75000000
   0.50000000  0.50000000  0.00000000
 
 position of ions in cartesian coordinates  (Angst):
   6.39959928  6.39959916  4.26639938
   6.39959920  6.39959908  0.00000000
   6.39959912  0.00000004  2.13319969
   6.39959920  2.13319977  4.26639938
   0.00000016  6.39959912  2.13319969
   0.00000008  0.00000008  4.26639938
   2.13319989  6.39959916  4.26639938
   6.39959920  0.00000012  6.39959908
   6.39959912  2.13319969  0.00000000
   6.39959920  4.26639942  2.13319969
   0.00000024  6.39959920  6.39959908
   0.02000088  0.00000000  0.00000000
   0.00000008  2.13319973  2.13319969
   0.00000016  4.26639947  4.26639938
   2.13319981  6.39959908  0.00000000
   2.13319973  0.00000004  2.13319969
   2.13319981  2.13319977  4.26639938
   4.26639954  6.39959912  2.13319969
   4.26639947  0.00000008  4.26639938
   6.39959928  4.26639950  6.39959908
   0.00000016  2.13319981  6.39959908
   0.00000008  4.26639938  0.00000000
   2.13319981  0.00000012  6.39959908
   2.13319973  2.13319969  0.00000000
   2.13319981  4.26639942  2.13319969
   4.26639963  6.39959920  6.39959908
   4.26639938  0.00000000  0.00000000
   4.26639946  2.13319973  2.13319969
   4.26639955  4.26639947  4.26639938
   2.13319989  4.26639950  6.39959908
   4.26639954  2.13319981  6.39959908
   4.26639947  4.26639938  0.00000000
 


--------------------------------------------------------------------------------------------------------


 k-point  1 :  0.06250.06250.0625  plane waves:  20656
 k-point  2 :  0.18750.06250.0625  plane waves:  20680
 k-point  3 :  0.31250.06250.0625  plane waves:  20717
 k-point  4 :  0.43750.06250.0625  plane waves:  20706
 k-point  5 :  0.06250.18750.0625  plane waves:  20680
 k-point  6 :  0.18750.18750.0625  plane waves:  20717
 k-point  7 :  0.31250.18750.0625  plane waves:  20729
 k-point  8 :  0.43750.18750.0625  plane waves:  20737
 k-point  9 :  0.06250.31250.0625  plane waves:  20717
 k-point 10 :  0.18750.31250.0625  plane waves:  20729
 k-point 11 :  0.31250.31250.0625  plane waves:  20750
 k-point 12 :  0.43750.31250.0625  plane waves:  20748
 k-point 13 :  0.06250.43750.0625  plane waves:  20706
 k-point 14 :  0.18750.43750.0625  plane waves:  20737
 k-point 15 :  0.31250.43750.0625  plane waves:  20748
 k-point 16 :  0.43750.43750.0625  plane waves:  20769
 k-point 17 :  0.06250.18750.1875  plane waves:  20717
 k-point 18 :  0.18750.18750.1875  plane waves:  20720
 k-point 19 :  0.31250.18750.1875  plane waves:  20735
 k-point 20 :  0.43750.18750.1875  plane waves:  20748
 k-point 21 :  0.06250.31250.1875  plane waves:  20729
 k-point 22 :  0.18750.31250.1875  plane waves:  20735
 k-point 23 :  0.31250.31250.1875  plane waves:  20748
 k-point 24 :  0.43750.31250.1875  plane waves:  20737
 k-point 25 :  0.06250.43750.1875  plane waves:  20737
 k-point 26 :  0.18750.43750.1875  plane waves:  20748
 k-point 27 :  0.31250.43750.1875  plane waves:  20737
 k-point 28 :  0.43750.43750.1875  plane waves:  20742
 k-point 29 :  0.06250.31250.3125  plane waves:  20750
 k-point 30 :  0.18750.31250.3125  plane waves:  20748
 k-point 31 :  0.31250.31250.3125  plane waves:  20729
 k-point 32 :  0.43750.31250.3125  plane waves:  20742
 k-point 33 :  0.06250.43750.3125  plane waves:  20748
 k-point 34 :  0.18750.43750.3125  plane waves:  20737
 k-point 35 :  0.31250.43750.3125  plane waves:  20742
 k-point 36 :  0.43750.43750.3125  plane waves:  20742
 k-point 37 :  0.06250.43750.4375  plane waves:  20769
 k-point 38 :  0.18750.43750.4375  plane waves:  20742
 k-point 39 :  0.31250.43750.4375  plane waves:  20742
 k-point 40 :  0.43750.43750.4375  plane waves:  20729

 maximum and minimum number of plane-waves per node :  20769 20656

 maximum number of plane-waves:  20769
 maximal index in each direction: 
   IXMAX= 16   IYMAX= 16   IZMAX= 16
   IXMIN=-17   IYMIN=-17   IZMIN=-17

 NGX is ok and might be reduce to  68
 NGY is ok and might be reduce to  68
 NGZ is ok and might be reduce to  68

 parallel 3dFFT wavefunction:
    minimum data exchange during FFTs selected (reduces bandwidth)
 parallel 3dFFT charge:
    minimum data exchange during FFTs selected (reduces bandwidth)

 For storing wavefunctions 2812.91 MBYTES are necessary
 For predicting wavefunctions  151.75 MBYTES are necessary
Broyden mixing: mesh for mixing (old mesh)
   NGX = 35   NGY = 35   NGZ = 35
  (NGX  =140   NGY  =140   NGZ  =140)
 gives a total of  42875 points
 charge density for first step will be calculated from the start-wavefunctions


--------------------------------------------------------------------------------------------------------


 Maximum index for augmentation-charges        52802 (set IRDMAX)


--------------------------------------------------------------------------------------------------------


 initial charge from wavefunction
 First call to EWALD:  gamma=   0.208
 Maximum number of real-space cells 3x 3x 3
 Maximum number of reciprocal cells 3x 3x 3

    FEWALD:  VPU time    0.01: CPU time    0.01


----------------------------------------- Iteration    1(   1)  ---------------------------------------


    POTLOK:  VPU time    1.29: CPU time    1.29
    SETDIJ:  VPU time    2.54: CPU time    2.54
    EDDIAG:  VPU time  113.74: CPU time  113.84
  RMM-DIIS:  VPU time 1273.26: CPU time 1274.32
    ORTHCH:  VPU time   14.03: CPU time   14.04
    DOS   :  VPU time    0.00: CPU time   -0.00
    CHARGE:  VPU time   40.44: CPU time   40.47
    MIXING:  VPU time    0.02: CPU time    0.02
    ------------------------------------------
      LOOP:  VPU time 1445.43: CPU time 1446.64

 eigenvalue-minimisations  : 17468
 total energy-change (2. order) :-0.9124246E+02  (-0.5899620E+02)
 number of electron  352.0000008 magnetization 
 augmentation part   172.1279879 magnetization 

 Broyden mixing:
  rms(total) = 0.72947E+00    rms(broyden)= 0.66346E+00
  rms(prec ) = 0.96652E+00
  weight for this iteration     100.00

 Free energy of the ion-electron system (eV)
  ---------------------------------------------------
  alpha Z        PSCENC =      2926.94048422
  Ewald energy   TEWEN  =    -29958.85346438
  -1/2 Hartree   DENC   =     -6670.11367319
  -V(xc)+E(xc)   XCENC  =      -395.14389022
  PAW double counting   =     26805.63886754   -25370.05083381
  entropy T*S    EENTRO =        -0.01762012
  eigenvalues    EBANDS =      -626.81021630
  atomic energy  EATOM  =     33197.16788402
  ---------------------------------------------------
  free energy    TOTEN  =       -91.24246225 eV

  energy without entropy =      -91.22484213  energy(sigma->0) =      -91.23658888


--------------------------------------------------------------------------------------------------------




----------------------------------------- Iteration    1(   2)  ---------------------------------------


    POTLOK:  VPU time    0.94: CPU time    0.94
    SETDIJ:  VPU time    1.72: CPU time    1.73
    EDDIAG:  VPU time   99.09: CPU time   99.17
  RMM-DIIS:  VPU time 1351.06: CPU time 1352.19
    ORTHCH:  VPU time   16.43: CPU time   16.44
    DOS   :  VPU time    0.00: CPU time   -0.00
    CHARGE:  VPU time   51.21: CPU time   51.26
    MIXING:  VPU time    0.03: CPU time    0.03
    ------------------------------------------
      LOOP:  VPU time 1520.58: CPU time 1521.88

 eigenvalue-minimisations  : 17818
 total energy-change (2. order) : 0.1546321E+01  (-0.1253844E+01)
 number of electron  352.0000008 magnetization 
 augmentation part   169.1031080 magnetization 

 Broyden mixing:
  rms(total) = 0.11980E+00    rms(broyden)= 0.11979E+00
  rms(prec ) = 0.14717E+00
  weight for this iteration     100.00

 eigenvalues of (default mixing * dielectric matrix)
  average eigenvalue GAMMA=   0.8761
  0.8761

 Free energy of the ion-electron system (eV)
  ---------------------------------------------------
  alpha Z        PSCENC =      2926.94048422
  Ewald energy   TEWEN  =    -29958.85346438
  -1/2 Hartree   DENC   =     -6787.29990600
  -V(xc)+E(xc)   XCENC  =      -365.82916631
  PAW double counting   =     27282.98050218   -25853.74948433
  entropy T*S    EENTRO =        -0.01231634
  eigenvalues    EBANDS =      -531.04067442
  atomic energy  EATOM  =     33197.16788402
  ---------------------------------------------------
  free energy    TOTEN  =       -89.69614137 eV

  energy without entropy =      -89.68382503  energy(sigma->0) =      -89.69203592


--------------------------------------------------------------------------------------------------------




----------------------------------------- Iteration    1(   3)  ---------------------------------------


    POTLOK:  VPU time    1.16: CPU time    1.16
    SETDIJ:  VPU time    2.30: CPU time    2.31
    EDDIAG:  VPU time  111.66: CPU time  112.04
  RMM-DIIS:  VPU time 1283.99: CPU time 1286.52
    ORTHCH:  VPU time   16.40: CPU time   16.41
    DOS   :  VPU time    0.00: CPU time   -0.00
    CHARGE:  VPU time   52.22: CPU time   52.27
    MIXING:  VPU time    0.03: CPU time    0.03
    ------------------------------------------
      LOOP:  VPU time 1467.86: CPU time 1470.84

 eigenvalue-minimisations  : 18268
 total energy-change (2. order) : 0.3524189E-02  (-0.1551104E-01)
 number of electron  352.0000008 magnetization 
 augmentation part   169.2156458 magnetization 

 Broyden mixing:
  rms(total) = 0.64800E-01    rms(broyden)= 0.64800E-01
  rms(prec ) = 0.74643E-01
  weight for this iteration     100.00

 eigenvalues of (default mixing * dielectric matrix)
  average eigenvalue GAMMA=   1.6283
  0.9702  2.2865

 Free energy of the ion-electron system (eV)
  ---------------------------------------------------
  alpha Z        PSCENC =      2926.94048422
  Ewald energy   TEWEN  =    -29958.85346438
  -1/2 Hartree   DENC   =     -6777.10610828
  -V(xc)+E(xc)   XCENC  =      -366.17691507
  PAW double counting   =     27390.82074805   -25961.71030840
  entropy T*S    EENTRO =        -0.01255186
  eigenvalues    EBANDS =      -540.76238547
  atomic energy  EATOM  =     33197.16788402
  ---------------------------------------------------
  free energy    TOTEN  =       -89.69261718 eV

  energy without entropy =      -89.68006532  energy(sigma->0) =      -89.68843323


--------------------------------------------------------------------------------------------------------




----------------------------------------- Iteration    1(   4)  ---------------------------------------


    POTLOK:  VPU time    1.17: CPU time    1.17
    SETDIJ:  VPU time    2.35: CPU time    2.35
    EDDIAG:  VPU time  109.67: CPU time  109.76
  RMM-DIIS:  VPU time 1366.35: CPU time 1367.44
    ORTHCH:  VPU time   16.43: CPU time   16.45
    DOS   :  VPU time    0.00: CPU time   -0.00
    CHARGE:  VPU time   52.26: CPU time   52.30
    MIXING:  VPU time    0.03: CPU time    0.03
    ------------------------------------------
      LOOP:  VPU time 1548.35: CPU time 1549.60

 eigenvalue-minimisations  : 18159
 total energy-change (2. order) :-0.2181729E-03  (-0.3337989E-02)
 number of electron  352.0000008 magnetization 
 augmentation part   169.3860681 magnetization 

 Broyden mixing:
  rms(total) = 0.19208E-01    rms(broyden)= 0.19208E-01
  rms(prec ) = 0.27397E-01
  weight for this iteration     100.00

 eigenvalues of (default mixing * dielectric matrix)
  average eigenvalue GAMMA=   1.5453
  2.4868  1.0745  1.0745

 Free energy of the ion-electron system (eV)
  ---------------------------------------------------
  alpha Z        PSCENC =      2926.94048422
  Ewald energy   TEWEN  =    -29958.85346438
  -1/2 Hartree   DENC   =     -6769.16316556
  -V(xc)+E(xc)   XCENC  =      -366.44056419
  PAW double counting   =     27544.06376210   -26115.21624505
  entropy T*S    EENTRO =        -0.01275642
  eigenvalues    EBANDS =      -548.17877008
  atomic energy  EATOM  =     33197.16788402
  ---------------------------------------------------
  free energy    TOTEN  =       -89.69283535 eV

  energy without entropy =      -89.68007893  energy(sigma->0) =      -89.68858321


--------------------------------------------------------------------------------------------------------




----------------------------------------- Iteration    1(   5)  ---------------------------------------


    POTLOK:  VPU time    1.17: CPU time    1.17
    SETDIJ:  VPU time    2.34: CPU time    2.35
    EDDIAG:  VPU time  109.73: CPU time  109.85
  RMM-DIIS:  VPU time 1372.80: CPU time 1375.06
    ORTHCH:  VPU time   16.47: CPU time   16.50
    DOS   :  VPU time    0.00: CPU time   -0.00
    CHARGE:  VPU time   49.16: CPU time   49.26
    MIXING:  VPU time    0.03: CPU time    0.03
    ------------------------------------------
      LOOP:  VPU time 1551.81: CPU time 1554.32

 eigenvalue-minimisations  : 18147
 total energy-change (2. order) : 0.5743430E-03  (-0.7789988E-03)
 number of electron  352.0000008 magnetization 
 augmentation part   169.3010615 magnetization 

 Broyden mixing:
  rms(total) = 0.51400E-02    rms(broyden)= 0.51398E-02
  rms(prec ) = 0.73307E-02
  weight for this iteration     100.00

 eigenvalues of (default mixing * dielectric matrix)
  average eigenvalue GAMMA=   1.4072
  2.5291  1.2188  0.9405  0.9405

 Free energy of the ion-electron system (eV)
  ---------------------------------------------------
  alpha Z        PSCENC =      2926.94048422
  Ewald energy   TEWEN  =    -29958.85346438
  -1/2 Hartree   DENC   =     -6773.42144390
  -V(xc)+E(xc)   XCENC  =      -366.28425108
  PAW double counting   =     27613.50232743   -26184.98347202
  entropy T*S    EENTRO =        -0.01265681
  eigenvalues    EBANDS =      -543.74766848
  atomic energy  EATOM  =     33197.16788402
  ---------------------------------------------------
  free energy    TOTEN  =       -89.69226101 eV

  energy without entropy =      -89.67960420  energy(sigma->0) =      -89.68804207


--------------------------------------------------------------------------------------------------------




----------------------------------------- Iteration    1(   6)  ---------------------------------------


    POTLOK:  VPU time    1.12: CPU time    1.12
    SETDIJ:  VPU time    2.24: CPU time    2.24
    EDDIAG:  VPU time  108.64: CPU time  108.74
  RMM-DIIS:  VPU time 1259.93: CPU time 1260.90
    ORTHCH:  VPU time   17.06: CPU time   17.07
    DOS   :  VPU time    0.00: CPU time   -0.00
    CHARGE:  VPU time   51.41: CPU time   51.46
    MIXING:  VPU time    0.03: CPU time    0.03
    ------------------------------------------
      LOOP:  VPU time 1440.53: CPU time 1441.66

 eigenvalue-minimisations  : 18353
 total energy-change (2. order) : 0.3773669E-04  (-0.9099907E-05)
 number of electron  352.0000008 magnetization 
 augmentation part   169.3059913 magnetization 

 Broyden mixing:
  rms(total) = 0.31116E-02    rms(broyden)= 0.31116E-02
  rms(prec ) = 0.42869E-02
  weight for this iteration     100.00

 eigenvalues of (default mixing * dielectric matrix)
  average eigenvalue GAMMA=   1.4465
  2.5597  1.7785  1.0092  1.0092  0.8757

 Free energy of the ion-electron system (eV)
  ---------------------------------------------------
  alpha Z        PSCENC =      2926.94048422
  Ewald energy   TEWEN  =    -29958.85346438
  -1/2 Hartree   DENC   =     -6773.15518034
  -V(xc)+E(xc)   XCENC  =      -366.29282248
  PAW double counting   =     27615.18739734   -26186.64235687
  entropy T*S    EENTRO =        -0.01266496
  eigenvalues    EBANDS =      -544.03149982
  atomic energy  EATOM  =     33197.16788402
  ---------------------------------------------------
  free energy    TOTEN  =       -89.69222327 eV

  energy without entropy =      -89.67955831  energy(sigma->0) =      -89.68800162


--------------------------------------------------------------------------------------------------------




----------------------------------------- Iteration    1(   7)  ---------------------------------------


    POTLOK:  VPU time    1.16: CPU time    1.16
    SETDIJ:  VPU time    2.27: CPU time    2.27
    EDDIAG:  VPU time  110.67: CPU time  110.79
  RMM-DIIS:  VPU time 1353.80: CPU time 1356.12
    ORTHCH:  VPU time   15.91: CPU time   15.93
    DOS   :  VPU time    0.00: CPU time   -0.00
    CHARGE:  VPU time   51.42: CPU time   51.52
    MIXING:  VPU time    0.03: CPU time    0.03
    ------------------------------------------
      LOOP:  VPU time 1535.35: CPU time 1537.92

 eigenvalue-minimisations  : 18235
 total energy-change (2. order) : 0.2590663E-04  (-0.1262823E-04)
 number of electron  352.0000008 magnetization 
 augmentation part   169.3165509 magnetization 

 Broyden mixing:
  rms(total) = 0.31104E-03    rms(broyden)= 0.31100E-03
  rms(prec ) = 0.47886E-03
  weight for this iteration     100.00

 eigenvalues of (default mixing * dielectric matrix)
  average eigenvalue GAMMA=   1.4910
  2.6170  1.9688  1.5342  0.9716  0.9716  0.8828

 Free energy of the ion-electron system (eV)
  ---------------------------------------------------
  alpha Z        PSCENC =      2926.94048422
  Ewald energy   TEWEN  =    -29958.85346438
  -1/2 Hartree   DENC   =     -6772.68718948
  -V(xc)+E(xc)   XCENC  =      -366.30868359
  PAW double counting   =     27614.89300036   -26186.31247898
  entropy T*S    EENTRO =        -0.01267764
  eigenvalues    EBANDS =      -544.51907189
  atomic energy  EATOM  =     33197.16788402
  ---------------------------------------------------
  free energy    TOTEN  =       -89.69219737 eV

  energy without entropy =      -89.67951973  energy(sigma->0) =      -89.68797149


--------------------------------------------------------------------------------------------------------




----------------------------------------- Iteration    1(   8)  ---------------------------------------


    POTLOK:  VPU time    1.14: CPU time    1.14
    SETDIJ:  VPU time    2.28: CPU time    2.28
    EDDIAG:  VPU time  109.76: CPU time  109.86
  RMM-DIIS:  VPU time  700.54: CPU time  701.64
    ORTHCH:  VPU time   16.43: CPU time   16.46
    DOS   :  VPU time    0.00: CPU time   -0.00
    ------------------------------------------
      LOOP:  VPU time  830.24: CPU time  831.48

 eigenvalue-minimisations  : 10080
 total energy-change (2. order) : 0.3700246E-05  (-0.4447104E-06)
 number of electron  352.0000008 magnetization 
 augmentation part   169.3165509 magnetization 

 Free energy of the ion-electron system (eV)
  ---------------------------------------------------
  alpha Z        PSCENC =      2926.94048422
  Ewald energy   TEWEN  =    -29958.85346438
  -1/2 Hartree   DENC   =     -6772.64933704
  -V(xc)+E(xc)   XCENC  =      -366.30974263
  PAW double counting   =     27614.38690209   -26185.79334086
  entropy T*S    EENTRO =        -0.01267908
  eigenvalues    EBANDS =      -544.56890000
  atomic energy  EATOM  =     33197.16788402
  ---------------------------------------------------
  free energy    TOTEN  =       -89.69219367 eV

  energy without entropy =      -89.67951459  energy(sigma->0) =      -89.68796731


--------------------------------------------------------------------------------------------------------




 average (electrostatic) potential at core
  the test charge radii are     1.1249
  (the norm of the test charge is              1.0000)
       1 -42.0555       2 -42.0537       3 -42.0537       4 -42.0555       5 -42.0556
       6 -42.0557       7 -42.0558       8 -42.0537       9 -42.0537      10 -42.0555
      11 -42.0556      12 -42.0558      13 -42.0556      14 -42.0557      15 -42.0577
      16 -42.0577      17 -42.0558      18 -42.0557      19 -42.0557      20 -42.0555
      21 -42.0556      22 -42.0557      23 -42.0577      24 -42.0577      25 -42.0558
      26 -42.0557      27 -42.0557      28 -42.0557      29 -42.0557      30 -42.0558
      31 -42.0557      32 -42.0557
 
 
 
 E-fermi :   2.4856     XC(G=0): -11.4523     alpha+bet : -7.5000
   add alpha+bet to get absolut eigen values

 k-point   1 :       0.0625    0.0625    0.0625
  band No.  band energies     occupation 
      1      -4.3937      2.00000
      2      -3.2373      2.00000
      3      -3.2372      2.00000
      4      -3.2372      2.00000
      5      -3.2237      2.00000
      6      -3.2139      2.00000
      7      -3.2139      2.00000
      8      -3.2139      2.00000
      9      -3.1445      2.00000
     10      -3.1444      2.00000
     11      -3.1444      2.00000
     12      -2.8890      2.00000
     13      -2.8872      2.00000
     14      -2.8855      2.00000
     15      -2.8044      2.00000
     16      -2.8030      2.00000
     17      -2.8016      2.00000
     18      -2.6408      2.00000
     19      -2.6396      2.00000
     20      -2.6386      2.00000
     21      -2.6385      2.00000
     22      -2.6359      2.00000
     23      -2.6358      2.00000
     24      -2.6357      2.00000
     25      -2.6356      2.00000
     26      -2.6331      2.00000
     27      -2.5252      2.00000
     28      -2.5240      2.00000
     29      -2.5229      2.00000
     30      -2.4366      2.00000
     31      -2.4353      2.00000
     32      -2.4339      2.00000
     33      -2.4153      2.00000
     34      -2.4143      2.00000
     35      -2.4131      2.00000
     36      -2.4001      2.00000
     37      -2.3994      2.00000
     38      -2.3983      2.00000
     39      -2.3982      2.00000
     40      -2.3973      2.00000
     41      -2.3965      2.00000
     42      -2.2713      2.00000
     43      -2.2712      2.00000
     44      -2.2700      2.00000
     45      -2.2700      2.00000
     46      -2.2688      2.00000
     47      -2.2687      2.00000
     48      -2.1998      2.00000
     49      -2.1980      2.00000
     50      -2.1976      2.00000
     51      -2.1963      2.00000
     52      -2.1960      2.00000
     53      -2.1951      2.00000
     54      -2.1943      2.00000
     55      -2.1940      2.00000
     56      -2.1929      2.00000
     57      -2.1539      2.00000
     58      -2.1528      2.00000
     59      -2.1514      2.00000
     60      -2.0329      2.00000
     61      -2.0328      2.00000
     62      -2.0316      2.00000
     63      -2.0315      2.00000
     64      -2.0304      2.00000
     65      -2.0302      2.00000
     66      -1.9841      2.00000
     67      -1.9840      2.00000
     68      -1.9839      2.00000
     69      -1.9714      2.00000
     70      -1.9713      2.00000
     71      -1.9682      2.00000
     72      -1.9635      2.00000
     73      -1.9635      2.00000
     74      -1.9634      2.00000
     75      -1.9557      2.00000
     76      -1.9556      2.00000
     77      -1.8640      2.00000
     78      -1.8625      2.00000
     79      -1.8618      2.00000
     80      -1.8618      2.00000
     81      -1.8612      2.00000
     82      -1.8599      2.00000
     83      -1.8409      2.00000
     84      -1.8402      2.00000
     85      -1.8394      2.00000
     86      -1.8016      2.00000
     87      -1.8005      2.00000
     88      -1.7992      2.00000
     89      -1.4669      2.00000
     90      -1.4664      2.00000
     91      -1.4659      2.00000
     92      -1.4151      2.00000
     93      -1.4140      2.00000
     94      -1.4127      2.00000
     95      -1.4117      2.00000
     96      -1.4108      2.00000
     97      -1.4100      2.00000
     98      -1.4050      2.00000
     99      -1.4048      2.00000
    100      -1.4038      2.00000
    101      -1.4036      2.00000
    102      -1.4024      2.00000
    103      -1.4021      2.00000
    104      -1.3468      2.00000
    105      -1.3457      2.00000
    106      -1.3446      2.00000
    107      -1.2470      2.00000
    108      -1.2454      2.00000
    109      -1.2438      2.00000
    110      -1.1970      2.00000
    111      -1.1952      2.00000
    112      -1.1939      2.00000
    113      -1.1871      2.00000
    114      -1.1857      2.00000
    115      -1.1841      2.00000
    116      -1.1450      2.00000
    117      -1.1449      2.00000
    118      -1.1113      2.00000
    119      -1.1099      2.00000
    120      -1.1094      2.00000
    121      -1.1093      2.00000
    122      -1.1092      2.00000
    123      -1.1075      2.00000
    124      -1.1033      2.00000
    125      -1.1016      2.00000
    126      -1.0999      2.00000
    127      -1.0956      2.00000
    128      -1.0947      2.00000
    129      -1.0937      2.00000
    130      -1.0933      2.00000
    131      -1.0925      2.00000
    132      -1.0910      2.00000
    133      -1.0323      2.00000
    134      -1.0315      2.00000
    135      -1.0307      2.00000
    136      -0.8697      2.00000
    137      -0.8689      2.00000
    138      -0.8682      2.00000
    139      -0.8068      2.00000
    140      -0.8064      2.00000
    141      -0.8060      2.00000
    142      -0.7425      2.00000
    143      -0.7411      2.00000
    144      -0.7397      2.00000
    145      -0.5575      2.00000
    146      -0.5572      2.00000
    147      -0.5569      2.00000
    148      -0.5464      2.00000
    149      -0.5464      2.00000
    150      -0.5463      2.00000
    151      -0.5212      2.00000
    152      -0.5212      2.00000
    153      -0.5084      2.00000
    154      -0.5084      2.00000
    155      -0.5084      2.00000
    156      -0.3756      2.00000
    157      -0.3756      2.00000
    158      -0.3756      2.00000
    159      -0.3558      2.00000
    160      -0.3557      2.00000
    161      -0.3555      2.00000
    162      -0.3555      2.00000
    163      -0.3555      2.00000
    164      -0.3553      2.00000
    165      -0.3533      2.00000
    166      -0.3533      2.00000
    167      -0.3531      2.00000
    168       1.2802      2.00000
    169       1.2817      2.00000
    170       1.2831      2.00000
    171       1.8263      2.00003
    172       1.8268      2.00003
    173       1.8284      2.00003
    174       1.8284      2.00003
    175       1.8300      2.00004
    176       1.8304      2.00004
    177       2.1414      2.03527
    178       2.3900      1.71558
    179       2.3914      1.70717
    180       2.3928      1.69937
    181       2.4156      1.55426
    182       2.4156      1.55380
    183       2.4158      1.55282
    184       4.1404     -0.00000
    185       4.1407     -0.00000
    186       4.1410     -0.00000
    187       5.4306     -0.00000
    188       5.4308     -0.00000
    189       5.4311     -0.00000
    190       5.6739     -0.00000
    191       7.4115     -0.00000
    192       7.4120     -0.00000
    193       7.4137     -0.00000
    194       7.4137     -0.00000
    195       7.4154     -0.00000
    196       7.4159     -0.00000
    197       8.0526      0.00000
    198       8.0528      0.00000
    199       8.0551      0.00000
    200       8.0551      0.00000
    201       8.0573      0.00000
    202       8.0575      0.00000
    203       8.3430      0.00000
    204       8.3432      0.00000
    205       8.3434      0.00000
    206       8.9365      0.00000
    207       8.9368      0.00000
    208       8.9374      0.00000
    209       8.9376      0.00000
    210       8.9385      0.00000
    211      10.0746      0.00000
    212      10.3139      0.00000

 k-point   2 :       0.1875    0.0625    0.0625
  band No.  band energies     occupation 
      1      -4.3202      2.00000
      2      -3.2095      2.00000
      3      -3.2025      2.00000
      4      -3.2024      2.00000
      5      -3.1996      2.00000
      6      -3.1804      2.00000
      7      -3.1804      2.00000
      8      -3.1710      2.00000
      9      -3.1237      2.00000
     10      -3.1115      2.00000
     11      -3.1114      2.00000
     12      -3.1015      2.00000
     13      -2.8437      2.00000
     14      -2.8436      2.00000
     15      -2.8246      2.00000
     16      -2.7626      2.00000
     17      -2.7625      2.00000
     18      -2.7508      2.00000
     19      -2.6997      2.00000
     20      -2.6997      2.00000
     21      -2.6159      2.00000
     22      -2.6159      2.00000
     23      -2.6155      2.00000
     24      -2.6154      2.00000
     25      -2.6066      2.00000
     26      -2.6066      2.00000
     27      -2.5968      2.00000
     28      -2.5629      2.00000
     29      -2.5629      2.00000
     30      -2.5548      2.00000
     31      -2.5047      2.00000
     32      -2.5047      2.00000
     33      -2.4811      2.00000
     34      -2.4810      2.00000
     35      -2.4694      2.00000
     36      -2.4693      2.00000
     37      -2.4376      2.00000
     38      -2.4375      2.00000
     39      -2.4085      2.00000
     40      -2.3933      2.00000
     41      -2.3933      2.00000
     42      -2.3821      2.00000
     43      -2.3820      2.00000
     44      -2.2697      2.00000
     45      -2.2696      2.00000
     46      -2.2679      2.00000
     47      -2.2678      2.00000
     48      -2.2145      2.00000
     49      -2.2137      2.00000
     50      -2.2100      2.00000
     51      -2.2096      2.00000
     52      -2.2087      2.00000
     53      -2.2084      2.00000
     54      -2.1537      2.00000
     55      -2.1365      2.00000
     56      -2.1365      2.00000
     57      -2.1211      2.00000
     58      -2.1211      2.00000
     59      -2.0969      2.00000
     60      -2.0486      2.00000
     61      -2.0486      2.00000
     62      -2.0281      2.00000
     63      -2.0280      2.00000
     64      -2.0065      2.00000
     65      -1.9958      2.00000
     66      -1.9958      2.00000
     67      -1.9908      2.00000
     68      -1.9694      2.00000
     69      -1.9658      2.00000
     70      -1.9657      2.00000
     71      -1.9652      2.00000
     72      -1.9651      2.00000
     73      -1.9549      2.00000
     74      -1.9373      2.00000
     75      -1.9373      2.00000
     76      -1.9336      2.00000
     77      -1.9320      2.00000
     78      -1.9314      2.00000
     79      -1.9052      2.00000
     80      -1.9052      2.00000
     81      -1.8424      2.00000
     82      -1.8423      2.00000
     83      -1.7720      2.00000
     84      -1.7720      2.00000
     85      -1.7191      2.00000
     86      -1.7191      2.00000
     87      -1.6795      2.00000
     88      -1.6625      2.00000
     89      -1.5606      2.00000
     90      -1.5579      2.00000
     91      -1.5579      2.00000
     92      -1.5298      2.00000
     93      -1.4952      2.00000
     94      -1.4873      2.00000
     95      -1.4872      2.00000
     96      -1.4868      2.00000
     97      -1.4340      2.00000
     98      -1.4340      2.00000
     99      -1.4198      2.00000
    100      -1.4197      2.00000
    101      -1.3544      2.00000
    102      -1.3544      2.00000
    103      -1.3502      2.00000
    104      -1.3501      2.00000
    105      -1.3273      2.00000
    106      -1.3273      2.00000
    107      -1.3070      2.00000
    108      -1.3069      2.00000
    109      -1.3001      2.00000
    110      -1.2411      2.00000
    111      -1.2410      2.00000
    112      -1.2055      2.00000
    113      -1.2055      2.00000
    114      -1.1694      2.00000
    115      -1.1335      2.00000
    116      -1.1221      2.00000
    117      -1.1220      2.00000
    118      -1.1148      2.00000
    119      -1.1147      2.00000
    120      -1.1074      2.00000
    121      -1.1073      2.00000
    122      -1.0825      2.00000
    123      -1.0700      2.00000
    124      -1.0493      2.00000
    125      -1.0492      2.00000
    126      -1.0408      2.00000
    127      -0.9957      2.00000
    128      -0.9957      2.00000
    129      -0.9935      2.00000
    130      -0.9934      2.00000
    131      -0.9775      2.00000
    132      -0.9775      2.00000
    133      -0.9489      2.00000
    134      -0.9414      2.00000
    135      -0.9414      2.00000
    136      -0.9292      2.00000
    137      -0.8226      2.00000
    138      -0.8225      2.00000
    139      -0.7985      2.00000
    140      -0.7985      2.00000
    141      -0.7435      2.00000
    142      -0.6632      2.00000
    143      -0.6492      2.00000
    144      -0.6492      2.00000
    145      -0.5816      2.00000
    146      -0.5816      2.00000
    147      -0.5693      2.00000
    148      -0.5631      2.00000
    149      -0.5616      2.00000
    150      -0.5253      2.00000
    151      -0.5234      2.00000
    152      -0.5233      2.00000
    153      -0.5204      2.00000
    154      -0.5203      2.00000
    155      -0.4810      2.00000
    156      -0.4809      2.00000
    157      -0.4168      2.00000
    158      -0.3989      2.00000
    159      -0.3989      2.00000
    160      -0.3983      2.00000
    161      -0.3983      2.00000
    162      -0.3904      2.00000
    163      -0.3565      2.00000
    164      -0.3556      2.00000
    165      -0.3555      2.00000
    166      -0.3546      2.00000
    167      -0.2088      2.00000
    168       0.8048      2.00000
    169       0.8049      2.00000
    170       1.2954      2.00000
    171       1.3264      2.00000
    172       1.3264      2.00000
    173       1.8519      2.00007
    174       1.8522      2.00007
    175       1.8641      2.00010
    176       2.3301      1.96808
    177       2.3302      1.96795
    178       2.4209      1.51686
    179       2.4500      1.29575
    180       2.4500      1.29560
    181       2.6051      0.16200
    182       3.0217     -0.00100
    183       3.0217     -0.00100
    184       3.6153     -0.00000
    185       4.3123     -0.00000
    186       4.3123     -0.00000
    187       5.4530     -0.00000
    188       5.7035     -0.00000
    189       5.7036     -0.00000
    190       6.1142     -0.00000
    191       6.5737     -0.00000
    192       6.5738     -0.00000
    193       6.7752     -0.00000
    194       6.7752     -0.00000
    195       7.1485     -0.00000
    196       7.1485     -0.00000
    197       7.5303     -0.00000
    198       7.5303     -0.00000
    199       8.1704      0.00000
    200       8.1704      0.00000
    201       8.3605      0.00000
    202       8.3605      0.00000
    203       8.5428      0.00000
    204       8.5428      0.00000
    205       8.8631      0.00000
    206       8.9927      0.00000
    207       9.0287      0.00000
    208       9.0304      0.00000
    209       9.2468      0.00000
    210       9.3091      0.00000
    211       9.3566      0.00000
    212       9.4304      0.00000

 k-point   3 :       0.3125    0.0625    0.0625
  band No.  band energies     occupation 
      1      -4.1754      2.00000
      2      -3.3951      2.00000
      3      -3.1561      2.00000
      4      -3.1417      2.00000
      5      -3.1354      2.00000
      6      -3.1353      2.00000
      7      -3.1140      2.00000
      8      -3.1140      2.00000
      9      -3.0962      2.00000
     10      -3.0828      2.00000
     11      -3.0457      2.00000
     12      -3.0457      2.00000
     13      -2.8995      2.00000
     14      -2.8540      2.00000
     15      -2.8060      2.00000
     16      -2.8059      2.00000
     17      -2.7741      2.00000
     18      -2.7626      2.00000
     19      -2.7626      2.00000
     20      -2.7346      2.00000
     21      -2.7346      2.00000
     22      -2.7107      2.00000
     23      -2.6896      2.00000
     24      -2.6896      2.00000
     25      -2.6645      2.00000
     26      -2.6644      2.00000
     27      -2.5822      2.00000
     28      -2.5822      2.00000
     29      -2.5633      2.00000
     30      -2.5633      2.00000
     31      -2.5510      2.00000
     32      -2.5509      2.00000
     33      -2.4953      2.00000
     34      -2.4952      2.00000
     35      -2.4828      2.00000
     36      -2.4827      2.00000
     37      -2.4656      2.00000
     38      -2.4656      2.00000
     39      -2.4449      2.00000
     40      -2.4449      2.00000
     41      -2.3713      2.00000
     42      -2.3713      2.00000
     43      -2.2977      2.00000
     44      -2.2665      2.00000
     45      -2.2663      2.00000
     46      -2.2610      2.00000
     47      -2.2610      2.00000
     48      -2.2534      2.00000
     49      -2.2531      2.00000
     50      -2.2444      2.00000
     51      -2.2439      2.00000
     52      -2.2268      2.00000
     53      -2.2267      2.00000
     54      -2.1358      2.00000
     55      -2.1258      2.00000
     56      -2.1258      2.00000
     57      -2.1008      2.00000
     58      -2.1008      2.00000
     59      -2.0742      2.00000
     60      -2.0742      2.00000
     61      -2.0497      2.00000
     62      -2.0496      2.00000
     63      -2.0465      2.00000
     64      -2.0390      2.00000
     65      -2.0369      2.00000
     66      -2.0300      2.00000
     67      -2.0298      2.00000
     68      -2.0225      2.00000
     69      -2.0224      2.00000
     70      -2.0154      2.00000
     71      -2.0153      2.00000
     72      -1.9775      2.00000
     73      -1.9775      2.00000
     74      -1.9771      2.00000
     75      -1.9145      2.00000
     76      -1.9063      2.00000
     77      -1.9062      2.00000
     78      -1.8886      2.00000
     79      -1.8886      2.00000
     80      -1.8859      2.00000
     81      -1.8850      2.00000
     82      -1.8764      2.00000
     83      -1.7064      2.00000
     84      -1.7064      2.00000
     85      -1.6689      2.00000
     86      -1.6413      2.00000
     87      -1.6413      2.00000
     88      -1.6249      2.00000
     89      -1.6171      2.00000
     90      -1.6171      2.00000
     91      -1.6142      2.00000
     92      -1.6020      2.00000
     93      -1.4959      2.00000
     94      -1.4959      2.00000
     95      -1.4649      2.00000
     96      -1.4539      2.00000
     97      -1.4539      2.00000
     98      -1.4307      2.00000
     99      -1.3785      2.00000
    100      -1.3784      2.00000
    101      -1.3642      2.00000
    102      -1.3590      2.00000
    103      -1.3589      2.00000
    104      -1.2709      2.00000
    105      -1.2708      2.00000
    106      -1.2565      2.00000
    107      -1.2565      2.00000
    108      -1.2345      2.00000
    109      -1.2344      2.00000
    110      -1.2212      2.00000
    111      -1.2212      2.00000
    112      -1.2155      2.00000
    113      -1.2110      2.00000
    114      -1.2110      2.00000
    115      -1.1292      2.00000
    116      -1.1292      2.00000
    117      -1.1109      2.00000
    118      -1.1093      2.00000
    119      -1.1092      2.00000
    120      -1.1010      2.00000
    121      -1.1009      2.00000
    122      -1.0102      2.00000
    123      -1.0102      2.00000
    124      -0.9856      2.00000
    125      -0.9575      2.00000
    126      -0.9498      2.00000
    127      -0.9498      2.00000
    128      -0.9017      2.00000
    129      -0.8902      2.00000
    130      -0.8747      2.00000
    131      -0.8746      2.00000
    132      -0.8717      2.00000
    133      -0.8717      2.00000
    134      -0.8480      2.00000
    135      -0.8480      2.00000
    136      -0.8404      2.00000
    137      -0.8305      2.00000
    138      -0.8304      2.00000
    139      -0.8225      2.00000
    140      -0.8017      2.00000
    141      -0.8017      2.00000
    142      -0.7053      2.00000
    143      -0.6930      2.00000
    144      -0.6929      2.00000
    145      -0.6810      2.00000
    146      -0.6320      2.00000
    147      -0.6293      2.00000
    148      -0.6293      2.00000
    149      -0.5943      2.00000
    150      -0.5776      2.00000
    151      -0.5775      2.00000
    152      -0.5740      2.00000
    153      -0.5740      2.00000
    154      -0.5706      2.00000
    155      -0.4962      2.00000
    156      -0.4797      2.00000
    157      -0.4797      2.00000
    158      -0.4788      2.00000
    159      -0.4788      2.00000
    160      -0.4586      2.00000
    161      -0.3567      2.00000
    162      -0.3558      2.00000
    163      -0.3556      2.00000
    164      -0.3547      2.00000
    165      -0.2247      2.00000
    166      -0.2247      2.00000
    167       0.3894      2.00000
    168       0.3894      2.00000
    169       0.4542      2.00000
    170       0.8776      2.00000
    171       0.8776      2.00000
    172       1.3266      2.00000
    173       1.6387      2.00000
    174       1.9009      2.00028
    175       1.9009      2.00028
    176       2.2040      2.06297
    177       2.2041      2.06298
    178       2.4770      1.07289
    179       2.6647     -0.02132
    180       2.8470     -0.02832
    181       3.1475     -0.00003
    182       3.1476     -0.00003
    183       3.7218     -0.00000
    184       3.7218     -0.00000
    185       4.6315     -0.00000
    186       4.6315     -0.00000
    187       5.6501     -0.00000
    188       5.6501     -0.00000
    189       5.7696     -0.00000
    190       6.1578     -0.00000
    191       6.1580     -0.00000
    192       6.1953     -0.00000
    193       6.1953     -0.00000
    194       6.2199     -0.00000
    195       6.2201     -0.00000
    196       6.6991     -0.00000
    197       7.7357     -0.00000
    198       7.7357     -0.00000
    199       7.9205     -0.00000
    200       8.3718      0.00000
    201       8.3718      0.00000
    202       8.3958      0.00000
    203       8.3960      0.00000
    204       8.4849      0.00000
    205       8.4853      0.00000
    206       8.5931      0.00000
    207       8.5933      0.00000
    208       8.8500      0.00000
    209       8.8780      0.00000
    210       9.0989      0.00000
    211       9.4259      0.00000
    212       9.4664      0.00000

 k-point   4 :       0.4375    0.0625    0.0625
  band No.  band energies     occupation 
      1      -3.9643      2.00000
      2      -3.6971      2.00000
      3      -3.0811      2.00000
      4      -3.0505      2.00000
      5      -3.0410      2.00000
      6      -3.0409      2.00000
      7      -3.0230      2.00000
      8      -3.0159      2.00000
      9      -3.0159      2.00000
     10      -2.9919      2.00000
     11      -2.9915      2.00000
     12      -2.9480      2.00000
     13      -2.9480      2.00000
     14      -2.9458      2.00000
     15      -2.9272      2.00000
     16      -2.9267      2.00000
     17      -2.9265      2.00000
     18      -2.8882      2.00000
     19      -2.8881      2.00000
     20      -2.8611      2.00000
     21      -2.8201      2.00000
     22      -2.8201      2.00000
     23      -2.6593      2.00000
     24      -2.6593      2.00000
     25      -2.6031      2.00000
     26      -2.6031      2.00000
     27      -2.5583      2.00000
     28      -2.5583      2.00000
     29      -2.5465      2.00000
     30      -2.5464      2.00000
     31      -2.5203      2.00000
     32      -2.5202      2.00000
     33      -2.5181      2.00000
     34      -2.5181      2.00000
     35      -2.4760      2.00000
     36      -2.4759      2.00000
     37      -2.4736      2.00000
     38      -2.4735      2.00000
     39      -2.4061      2.00000
     40      -2.4060      2.00000
     41      -2.4009      2.00000
     42      -2.4008      2.00000
     43      -2.3470      2.00000
     44      -2.3470      2.00000
     45      -2.3275      2.00000
     46      -2.3274      2.00000
     47      -2.2716      2.00000
     48      -2.2714      2.00000
     49      -2.2686      2.00000
     50      -2.2684      2.00000
     51      -2.2319      2.00000
     52      -2.2319      2.00000
     53      -2.1962      2.00000
     54      -2.1778      2.00000
     55      -2.1777      2.00000
     56      -2.1087      2.00000
     57      -2.1062      2.00000
     58      -2.0935      2.00000
     59      -2.0935      2.00000
     60      -2.0899      2.00000
     61      -2.0899      2.00000
     62      -2.0716      2.00000
     63      -2.0702      2.00000
     64      -2.0701      2.00000
     65      -2.0411      2.00000
     66      -2.0411      2.00000
     67      -2.0165      2.00000
     68      -2.0163      2.00000
     69      -2.0159      2.00000
     70      -2.0073      2.00000
     71      -2.0070      2.00000
     72      -1.9932      2.00000
     73      -1.9445      2.00000
     74      -1.9444      2.00000
     75      -1.9010      2.00000
     76      -1.9009      2.00000
     77      -1.8515      2.00000
     78      -1.8265      2.00000
     79      -1.8264      2.00000
     80      -1.8184      2.00000
     81      -1.8183      2.00000
     82      -1.8154      2.00000
     83      -1.8154      2.00000
     84      -1.8005      2.00000
     85      -1.7961      2.00000
     86      -1.7961      2.00000
     87      -1.7681      2.00000
     88      -1.7308      2.00000
     89      -1.7308      2.00000
     90      -1.7254      2.00000
     91      -1.7245      2.00000
     92      -1.7072      2.00000
     93      -1.3651      2.00000
     94      -1.3650      2.00000
     95      -1.3625      2.00000
     96      -1.3625      2.00000
     97      -1.3360      2.00000
     98      -1.2759      2.00000
     99      -1.2385      2.00000
    100      -1.2296      2.00000
    101      -1.2295      2.00000
    102      -1.2283      2.00000
    103      -1.2283      2.00000
    104      -1.2179      2.00000
    105      -1.2179      2.00000
    106      -1.2127      2.00000
    107      -1.2126      2.00000
    108      -1.2042      2.00000
    109      -1.2042      2.00000
    110      -1.1679      2.00000
    111      -1.1608      2.00000
    112      -1.1606      2.00000
    113      -1.1596      2.00000
    114      -1.1592      2.00000
    115      -1.1573      2.00000
    116      -1.1572      2.00000
    117      -1.1240      2.00000
    118      -1.1239      2.00000
    119      -1.0779      2.00000
    120      -1.0758      2.00000
    121      -1.0757      2.00000
    122      -1.0355      2.00000
    123      -1.0273      2.00000
    124      -1.0273      2.00000
    125      -1.0193      2.00000
    126      -1.0015      2.00000
    127      -1.0015      2.00000
    128      -0.9429      2.00000
    129      -0.9428      2.00000
    130      -0.9364      2.00000
    131      -0.9364      2.00000
    132      -0.9146      2.00000
    133      -0.8359      2.00000
    134      -0.8358      2.00000
    135      -0.8348      2.00000
    136      -0.7572      2.00000
    137      -0.7571      2.00000
    138      -0.7547      2.00000
    139      -0.7456      2.00000
    140      -0.7341      2.00000
    141      -0.7265      2.00000
    142      -0.7264      2.00000
    143      -0.7243      2.00000
    144      -0.7149      2.00000
    145      -0.7148      2.00000
    146      -0.7085      2.00000
    147      -0.7085      2.00000
    148      -0.6545      2.00000
    149      -0.6543      2.00000
    150      -0.6532      2.00000
    151      -0.6418      2.00000
    152      -0.6170      2.00000
    153      -0.6081      2.00000
    154      -0.5881      2.00000
    155      -0.5880      2.00000
    156      -0.5872      2.00000
    157      -0.5872      2.00000
    158      -0.5424      2.00000
    159      -0.3567      2.00000
    160      -0.3558      2.00000
    161      -0.3557      2.00000
    162      -0.3548      2.00000
    163      -0.2958      2.00000
    164      -0.2958      2.00000
    165       0.0254      2.00000
    166       0.0254      2.00000
    167       0.1076      2.00000
    168       0.1076      2.00000
    169       0.4737      2.00000
    170       0.4737      2.00000
    171       1.2074      2.00000
    172       1.3841      2.00000
    173       1.4822      2.00000
    174       1.9763      2.00188
    175       1.9765      2.00188
    176       2.0184      2.00467
    177       2.0793      2.01444
    178       2.0794      2.01445
    179       2.5520      0.47107
    180       2.6275      0.07378
    181       3.9183     -0.00000
    182       3.9183     -0.00000
    183       4.4914     -0.00000
    184       4.4914     -0.00000
    185       4.7562     -0.00000
    186       4.7562     -0.00000
    187       5.0647     -0.00000
    188       5.0647     -0.00000
    189       5.3269     -0.00000
    190       5.3269     -0.00000
    191       5.5815     -0.00000
    192       5.5815     -0.00000
    193       6.3319     -0.00000
    194       6.8474     -0.00000
    195       6.8474     -0.00000
    196       7.0663     -0.00000
    197       7.3966     -0.00000
    198       7.6191     -0.00000
    199       7.6191     -0.00000
    200       8.0348      0.00000
    201       8.0349      0.00000
    202       8.1873      0.00000
    203       8.4110      0.00000
    204       8.4111      0.00000
    205       8.4499      0.00000
    206       8.4500      0.00000
    207       8.5208      0.00000
    208       8.5209      0.00000
    209       8.6583      0.00000
    210       8.6592      0.00000
    211       9.0193      0.00000
    212       9.3136      0.00000

 k-point   5 :       0.0625    0.1875    0.0625
  band No.  band energies     occupation 
      1      -4.3202      2.00000
      2      -3.2095      2.00000
      3      -3.2025      2.00000
      4      -3.2024      2.00000
      5      -3.1996      2.00000
      6      -3.1805      2.00000
      7      -3.1803      2.00000
      8      -3.1710      2.00000
      9      -3.1237      2.00000
     10      -3.1116      2.00000
     11      -3.1114      2.00000
     12      -3.1015      2.00000
     13      -2.8449      2.00000
     14      -2.8424      2.00000
     15      -2.8246      2.00000
     16      -2.7636      2.00000
     17      -2.7615      2.00000
     18      -2.7508      2.00000
     19      -2.6998      2.00000
     20      -2.6996      2.00000
     21      -2.6172      2.00000
     22      -2.6160      2.00000
     23      -2.6154      2.00000
     24      -2.6143      2.00000
     25      -2.6075      2.00000
     26      -2.6055      2.00000
     27      -2.5969      2.00000
     28      -2.5631      2.00000
     29      -2.5627      2.00000
     30      -2.5547      2.00000
     31      -2.5055      2.00000
     32      -2.5038      2.00000
     33      -2.4813      2.00000
     34      -2.4810      2.00000
     35      -2.4702      2.00000
     36      -2.4684      2.00000
     37      -2.4383      2.00000
     38      -2.4368      2.00000
     39      -2.4086      2.00000
     40      -2.3945      2.00000
     41      -2.3921      2.00000
     42      -2.3827      2.00000
     43      -2.3813      2.00000
     44      -2.2700      2.00000
     45      -2.2692      2.00000
[...]
    108      -1.3210      2.00000
    109      -1.3195      2.00000
    110      -1.3194      2.00000
    111      -1.3188      2.00000
    112      -1.3183      2.00000
    113      -1.3181      2.00000
    114      -1.3173      2.00000
    115      -1.3153      2.00000
    116      -1.3090      2.00000
    117      -1.2571      2.00000
    118      -1.2554      2.00000
    119      -1.2536      2.00000
    120      -1.2115      2.00000
    121      -1.2113      2.00000
    122      -1.2102      2.00000
    123      -1.2102      2.00000
    124      -1.2090      2.00000
    125      -1.2089      2.00000
    126      -1.1407      2.00000
    127      -1.1407      2.00000
    128      -1.1406      2.00000
    129      -1.1010      2.00000
    130      -1.1009      2.00000
    131      -1.0885      2.00000
    132      -1.0874      2.00000
    133      -1.0861      2.00000
    134      -1.0744      2.00000
    135      -1.0729      2.00000
    136      -1.0715      2.00000
    137      -1.0023      2.00000
    138      -1.0010      2.00000
    139      -0.9997      2.00000
    140      -0.9542      2.00000
    141      -0.9541      2.00000
    142      -0.9047      2.00000
    143      -0.9037      2.00000
    144      -0.9027      2.00000
    145      -0.4922      2.00000
    146      -0.4920      2.00000
    147      -0.4916      2.00000
    148      -0.4770      2.00000
    149      -0.4763      2.00000
    150      -0.4762      2.00000
    151      -0.4762      2.00000
    152      -0.4760      2.00000
    153      -0.4760      2.00000
    154      -0.4759      2.00000
    155      -0.4758      2.00000
    156      -0.4757      2.00000
    157      -0.4756      2.00000
    158      -0.4754      2.00000
    159      -0.4748      2.00000
    160      -0.4737      2.00000
    161      -0.4737      2.00000
    162      -0.4734      2.00000
    163      -0.4627      2.00000
    164      -0.4625      2.00000
    165      -0.4622      2.00000
    166      -0.4541      2.00000
    167      -0.4540      2.00000
    168      -0.4538      2.00000
    169       2.5831      0.27374
    170       2.5847      0.26448
    171       2.5864      0.25557
    172       2.9161     -0.00947
    173       2.9176     -0.00922
    174       2.9190     -0.00898
    175       2.9190     -0.00898
    176       2.9204     -0.00875
    177       2.9220     -0.00851
    178       3.2094     -0.00000
    179       3.2100     -0.00000
    180       3.2105     -0.00000
    181       3.4348     -0.00000
    182       3.4355     -0.00000
    183       3.4361     -0.00000
    184       3.7849     -0.00000
    185       3.7867     -0.00000
    186       3.7880     -0.00000
    187       3.7880     -0.00000
    188       3.7893     -0.00000
    189       3.7911     -0.00000
    190       4.0970     -0.00000
    191       4.0987     -0.00000
    192       4.1004     -0.00000
    193       7.0680     -0.00000
    194       7.0685     -0.00000
    195       7.0691     -0.00000
    196       7.4137     -0.00000
    197       7.4145     -0.00000
    198       7.4153     -0.00000
    199       7.8390     -0.00000
    200       7.8395     -0.00000
    201       7.8417     -0.00000
    202       7.8418     -0.00000
    203       7.8440     -0.00000
    204       7.8444     -0.00000
    205       8.1936      0.00000
    206       8.1946      0.00000
    207       8.1958      0.00000
    208       8.1969      0.00000
    209       8.1980      0.00000
    210       8.2033      0.00000
    211       8.6068      0.00000
    212       8.8292      0.00000


--------------------------------------------------------------------------------------------------------


 soft charge-density along one line, spin component           1
         0         1         2         3         4         5         6         7         8         9
 total charge-density along one line
 
 pseudopotential strength for first ion, spin component:           1
-12.415   0.000  -0.000   0.000  -0.000   0.177  -0.000   0.000
  0.000 -12.415   0.000  -0.000  -0.000  -0.000   0.177  -0.000
 -0.000   0.000 -12.406   0.000  -0.000   0.000  -0.000   0.176
  0.000  -0.000   0.000 -12.415   0.000  -0.000   0.000  -0.000
 -0.000  -0.000  -0.000   0.000 -12.406   0.000   0.000   0.000
  0.177  -0.000   0.000  -0.000   0.000   0.448   0.000  -0.000
 -0.000   0.177  -0.000   0.000   0.000   0.000   0.448   0.000
  0.000  -0.000   0.176  -0.000   0.000  -0.000   0.000   0.449
 -0.000   0.000  -0.000   0.177  -0.000   0.000  -0.000   0.000
  0.000   0.000   0.000  -0.000   0.176  -0.000  -0.000  -0.000
  0.000  -0.000  -0.000  -0.000  -0.000   0.000   0.000   0.000
  0.000   0.000   0.000   0.000   0.000  -0.000  -0.000  -0.000
 -0.000   0.000  -0.000  -0.000  -0.000   0.000  -0.000   0.000
 -0.000   0.000   0.000  -0.000  -0.000   0.000  -0.000  -0.000
  0.000  -0.000   0.000   0.000  -0.000  -0.000   0.000  -0.000
  0.000  -0.000   0.000   0.000   0.000  -0.000   0.000  -0.000
  0.000  -0.000  -0.000   0.000   0.000  -0.000   0.000   0.000
 -0.000   0.000  -0.000  -0.000   0.000   0.000  -0.000   0.000
 total augmentation occupancy for first ion, spin component:           1
  1.940   0.000  -0.001  -0.000  -0.001  -0.030  -0.000  -0.000  -0.000   0.000   0.005  -0.000  -0.000   0.000  -0.000  -0.000
  0.000   1.943  -0.001  -0.000  -0.001  -0.000  -0.033   0.001   0.000   0.000   0.003  -0.001   0.000  -0.000  -0.000  -0.000
 -0.001  -0.001   1.967  -0.001  -0.002  -0.000   0.001  -0.058   0.001   0.002   0.012   0.001  -0.000   0.000  -0.000  -0.000
 -0.000  -0.000  -0.001   1.945  -0.000  -0.000   0.000   0.001  -0.035   0.001   0.002  -0.001   0.000  -0.000   0.000  -0.000
 -0.001  -0.001  -0.002  -0.000   1.959   0.000   0.000   0.002   0.001  -0.052   0.007   0.000   0.000   0.000  -0.000  -0.000
 -0.030  -0.000  -0.000  -0.000   0.000   0.059   0.000   0.001   0.000  -0.000  -0.002   0.001  -0.000  -0.000   0.000   0.000
 -0.000  -0.033   0.001   0.000   0.000   0.000   0.061  -0.002  -0.000   0.001  -0.000   0.001   0.000   0.000   0.000   0.000
 -0.000   0.001  -0.058   0.001   0.002   0.001  -0.002   0.052  -0.001  -0.001  -0.009   0.000   0.000  -0.000   0.000  -0.000
 -0.000   0.000   0.001  -0.035   0.001   0.000  -0.000  -0.001   0.063  -0.002   0.001   0.001  -0.000   0.000  -0.000   0.000
  0.000   0.000   0.002   0.001  -0.052  -0.000   0.001  -0.001  -0.002   0.050  -0.005   0.000   0.000  -0.000  -0.000   0.000
  0.005   0.003   0.012   0.002   0.007  -0.002  -0.000  -0.009   0.001  -0.005   0.985  -0.310  -0.000  -0.000   0.000   0.000
 -0.000  -0.001   0.001  -0.001   0.000   0.001   0.001   0.000   0.001   0.000  -0.310   0.149   0.000   0.000  -0.000  -0.000
 -0.000   0.000  -0.000   0.000   0.000  -0.000   0.000   0.000  -0.000   0.000  -0.000   0.000   0.090   0.000   0.002  -0.005
  0.000  -0.000   0.000  -0.000   0.000  -0.000   0.000  -0.000   0.000  -0.000  -0.000   0.000   0.000   0.094  -0.001  -0.000
 -0.000  -0.000  -0.000   0.000  -0.000   0.000   0.000   0.000  -0.000  -0.000   0.000  -0.000   0.002  -0.001   0.092  -0.000
 -0.000  -0.000  -0.000  -0.000  -0.000   0.000   0.000  -0.000   0.000   0.000   0.000  -0.000  -0.005  -0.000  -0.000   0.000
 -0.000  -0.000  -0.000  -0.000  -0.000   0.000   0.000   0.000   0.000   0.000   0.000   0.000  -0.000  -0.005  -0.000   0.000
  0.000   0.000   0.000   0.000  -0.000  -0.000  -0.000  -0.000  -0.000   0.000  -0.000   0.000  -0.000  -0.000  -0.005   0.000


------------------------ aborting loop because EDIFF is reached ----------------------------------------




--------------------------------------------------------------------------------------------------------


    CHARGE:  VPU time   52.53: CPU time   52.58
    FORLOC:  VPU time    0.19: CPU time    0.19
    FORNL :  VPU time  306.39: CPU time  306.62
    STRESS:  VPU time 2097.87: CPU time 2099.67
    FORCOR:  VPU time    1.03: CPU time    1.03
    FORHAR:  VPU time    0.35: CPU time    0.35
    MIXING:  VPU time    0.02: CPU time    0.02


--------------------------------------------------------------------------------------------------------



  FREE ENERGIE OF THE ION-ELECTRON SYSTEM (eV)
  ---------------------------------------------------
  free  energy   TOTEN  =       -89.692194 eV

  energy  without entropy=      -89.679515  energy(sigma->0) =      -89.687967
 

  FORCE on cell =-STRESS in cart. coord.  units (eV/reduce length):
  Direction    X        Y        Z        XY       YZ       ZX
  --------------------------------------------------------------------------------------
  Alpha Z   2926.94   2926.94   2926.94
  Ewald    -9986.42  -9986.28  -9986.28     -0.00     -0.00     -0.00
  Hartree   2257.56   2257.65   2257.65     -0.00     -0.00     -0.00
  E(xc)    -1855.20  -1855.20  -1855.20     -0.00     -0.00     -0.00
  Local     3091.14   3090.90   3090.90      0.00      0.00      0.00
  n-local  -2141.10  -2144.56  -2137.63      2.17      1.16      0.16
  augment   1338.64   1338.64   1338.64     -0.00     -0.00     -0.00
  Kinetic   4347.96   4342.17   4353.74      1.53     -0.31     -2.16
  -------------------------------------------------------------------------------------
  Total      -20.48    -20.49    -20.49     -0.00     -0.00     -0.00
  in kB      -52.81    -52.83    -52.83     -0.00     -0.00     -0.00
  external pressure =      -52.82 kB  Pullay stress =        0.00 kB


 VOLUME and BASIS-vectors are now :
 -----------------------------------------------------------------------------
  energy-cutoff  :      600.00
  volume of cell :      621.26
      direct lattice vectors                 reciprocal lattice vectors
     8.532798770  0.000000000  0.000000000     0.117194842 -0.000000002 -0.000000002
     0.000000160  8.532798770  0.000000000     0.000000000  0.117194842 -0.000000002
     0.000000160  0.000000160  8.532798770     0.000000000  0.000000000  0.117194842

  length of vectors
     8.532798770  8.532798770  8.532798770     0.117194842  0.117194842  0.117194842


 FORCES acting on ions
    electron-ion (+dipol)            ewald-force                    non-local-force                 convergence-correction
 -----------------------------------------------------------------------------------------------
   -.295E-01 -.146E+00 0.144E-07   0.323E-01 0.146E+00 -.154E-07   -.207E-02 0.511E-03 -.169E-20   -.277E-03 0.244E-03 -.127E-09
   -.936E+00 -.176E+01 0.828E-08   0.932E+00 0.175E+01 -.317E-09   0.965E-02 0.743E-02 0.000E+00   0.151E-02 0.184E-02 0.126E-09
   -.936E+00 0.308E-07 0.176E+01   0.932E+00 -.326E-07 -.175E+01   0.965E-02 -.139E-09 -.743E-02   0.151E-02 -.162E-09 -.184E-02
   -.295E-01 0.146E+00 -.797E-08   0.323E-01 -.146E+00 0.850E-08   -.207E-02 -.511E-03 0.000E+00   -.277E-03 -.244E-03 0.114E-09
   0.115E+01 -.852E-02 0.852E-02   -.115E+01 0.846E-02 -.846E-02   0.187E-02 0.592E-04 -.592E-04   -.135E-03 0.194E-04 -.194E-04
   0.606E+00 -.226E-08 -.414E-07   -.609E+00 0.168E-08 0.452E-07   0.182E-02 0.525E-19 -.127E-20   0.976E-04 -.307E-09 0.584E-09
   -.240E-01 0.147E+00 -.831E-08   0.268E-01 -.146E+00 0.887E-08   -.209E-02 -.483E-03 0.000E+00   -.251E-03 -.305E-03 0.113E-09
   -.936E+00 -.246E-07 -.176E+01   0.932E+00 0.326E-07 0.175E+01   0.965E-02 0.139E-09 0.743E-02   0.151E-02 0.161E-09 0.184E-02
   -.936E+00 0.176E+01 -.206E-08   0.932E+00 -.175E+01 0.260E-09   0.965E-02 -.743E-02 0.000E+00   0.151E-02 -.184E-02 -.128E-09
   -.295E-01 -.521E-08 0.146E+00   0.323E-01 0.577E-08 -.146E+00   -.207E-02 -.959E-11 -.511E-03   -.277E-03 0.110E-09 -.245E-03
   0.115E+01 -.852E-02 -.852E-02   -.115E+01 0.846E-02 0.846E-02   0.187E-02 0.592E-04 0.592E-04   -.135E-03 0.194E-04 0.194E-04
   0.729E+01 -.119E-06 0.108E-06   -.728E+01 0.130E-06 0.130E-06   -.579E-01 0.188E-18 0.000E+00   -.756E-02 -.618E-09 -.618E-09
   0.115E+01 0.852E-02 0.852E-02   -.115E+01 -.846E-02 -.846E-02   0.187E-02 -.592E-04 -.592E-04   -.135E-03 -.194E-04 -.194E-04
   0.253E+00 -.116E-07 -.118E-07   -.251E+00 0.120E-07 0.120E-07   -.254E-02 -.446E-19 0.000E+00   0.577E-03 0.272E-09 0.272E-09
   -.925E+00 0.178E+01 -.219E-08   0.921E+00 -.178E+01 0.289E-09   0.963E-02 -.750E-02 0.000E+00   0.150E-02 -.181E-02 -.127E-09
   -.925E+00 -.251E-07 -.178E+01   0.921E+00 0.331E-07 0.178E+01   0.963E-02 0.141E-09 0.750E-02   0.150E-02 0.197E-09 0.181E-02
   -.240E-01 -.147E+00 0.142E-07   0.268E-01 0.146E+00 -.152E-07   -.209E-02 0.483E-03 0.000E+00   -.251E-03 0.305E-03 -.157E-09
   -.642E+00 0.250E-02 -.250E-02   0.646E+00 -.254E-02 0.254E-02   -.210E-02 0.497E-04 -.497E-04   -.438E-03 -.156E-04 0.156E-04
   -.486E+00 0.220E-08 0.282E-07   0.478E+00 -.166E-08 -.286E-07   0.643E-02 0.155E-19 0.000E+00   0.391E-03 0.290E-09 -.489E-09
   -.295E-01 0.117E-07 -.146E+00   0.323E-01 -.127E-07 0.146E+00   -.207E-02 0.959E-11 0.511E-03   -.277E-03 -.122E-09 0.245E-03
   0.115E+01 0.852E-02 -.852E-02   -.115E+01 -.846E-02 0.846E-02   0.187E-02 -.592E-04 0.592E-04   -.135E-03 -.194E-04 0.194E-04
   0.606E+00 -.421E-07 -.228E-08   -.609E+00 0.452E-07 0.168E-08   0.182E-02 0.628E-20 0.000E+00   0.968E-04 0.584E-09 -.307E-09
   -.925E+00 0.312E-07 0.178E+01   0.921E+00 -.331E-07 -.178E+01   0.963E-02 -.141E-09 -.750E-02   0.150E-02 -.161E-09 -.181E-02
   -.925E+00 -.178E+01 0.837E-08   0.921E+00 0.178E+01 -.289E-09   0.963E-02 0.750E-02 0.000E+00   0.150E-02 0.181E-02 0.163E-09
   -.240E-01 0.114E-07 -.147E+00   0.268E-01 -.124E-07 0.146E+00   -.209E-02 0.905E-11 0.483E-03   -.250E-03 -.151E-09 0.305E-03
   -.642E+00 0.250E-02 0.250E-02   0.646E+00 -.254E-02 -.254E-02   -.210E-02 0.497E-04 0.497E-04   -.438E-03 -.156E-04 -.156E-04
   -.191E+01 0.458E-08 -.226E-06   0.192E+01 -.223E-08 -.223E-08   -.139E-01 0.308E-21 0.136E-19   -.302E-03 0.561E-09 0.561E-09
   -.642E+00 -.250E-02 -.250E-02   0.646E+00 0.254E-02 0.254E-02   -.210E-02 -.497E-04 -.497E-04   -.438E-03 0.156E-04 0.156E-04
   -.235E+00 0.103E-07 0.101E-07   0.235E+00 -.106E-07 -.106E-07   -.232E-03 0.417E-21 0.000E+00   -.328E-03 -.277E-09 -.277E-09
   -.240E-01 -.554E-08 0.147E+00   0.268E-01 0.613E-08 -.146E+00   -.209E-02 -.905E-11 -.483E-03   -.250E-03 0.108E-09 -.305E-03
   -.642E+00 -.250E-02 0.250E-02   0.646E+00 0.254E-02 -.254E-02   -.210E-02 -.497E-04 0.497E-04   -.438E-03 0.156E-04 -.156E-04
   -.486E+00 0.275E-07 0.218E-08   0.478E+00 -.286E-07 -.166E-08   0.643E-02 0.191E-19 0.000E+00   0.391E-03 -.489E-09 0.290E-09
 -----------------------------------------------------------------------------------------------
   -.214E-02 -.295E-10 -.208E-08   0.361E-12 -.244E-12 0.694E-13   0.147E-02 0.112E-17 0.162E-17   0.100E-02 -.326E-10 -.344E-10
 
 
 POSITION                                       TOTAL-FORCE (eV/Angst)
 -----------------------------------------------------------------------------------
      6.39960      6.39960      4.26640         0.000468      0.000101      0.000000
      6.39960      6.39960      0.00000         0.006853      0.008010      0.000000
      6.39960      0.00000      2.13320         0.006853     -0.000000     -0.008010
      6.39960      2.13320      4.26640         0.000468     -0.000101      0.000000
      0.00000      6.39960      2.13320        -0.001411      0.000023     -0.000023
      0.00000      0.00000      4.26640        -0.000629      0.000000      0.000000
      2.13320      6.39960      4.26640         0.000469     -0.000100      0.000000
      6.39960      0.00000      6.39960         0.006853      0.000000      0.008010
      6.39960      2.13320      0.00000         0.006853     -0.008010      0.000000
      6.39960      4.26640      2.13320         0.000468     -0.000000     -0.000101
      0.00000      6.39960      6.39960        -0.001411      0.000023      0.000023
      0.02000      0.00000      0.00000        -0.058473      0.000000      0.000000
      0.00000      2.13320      2.13320        -0.001411     -0.000023     -0.000023
      0.00000      4.26640      4.26640        -0.000130      0.000000      0.000000
      2.13320      6.39960      0.00000         0.007397     -0.008729      0.000000
      2.13320      0.00000      2.13320         0.007397      0.000000      0.008729
      2.13320      2.13320      4.26640         0.000469      0.000100      0.000000
      4.26640      6.39960      2.13320         0.001185     -0.000006      0.000006
      4.26640      0.00000      4.26640        -0.000946     -0.000000     -0.000000
      6.39960      4.26640      6.39960         0.000468      0.000000      0.000101
      0.00000      2.13320      6.39960        -0.001411     -0.000023      0.000023
      0.00000      4.26640      0.00000        -0.000629     -0.000000      0.000000
      2.13320      0.00000      6.39960         0.007397     -0.000000     -0.008729
      2.13320      2.13320      0.00000         0.007397      0.008729      0.000000
      2.13320      4.26640      2.13320         0.000469      0.000000      0.000100
      4.26640      6.39960      6.39960         0.001185     -0.000006     -0.000006
      4.26640      0.00000      0.00000         0.002176      0.000000     -0.000000
      4.26640      2.13320      2.13320         0.001185      0.000006      0.000006
      4.26640      4.26640      4.26640        -0.000271     -0.000000     -0.000000
      2.13320      4.26640      6.39960         0.000469     -0.000000     -0.000100
      4.26640      2.13320      6.39960         0.001185      0.000006     -0.000006
      4.26640      4.26640      0.00000        -0.000946      0.000000      0.000000
 -----------------------------------------------------------------------------------
    total drift:                                0.000330     -0.000000     -0.000000


--------------------------------------------------------------------------------------------------------



 mean value of Nose-termostat <S>:     1.000 mean value of <T> :     0.000
 mean temperature <T/S>/<1/S>  :     0.000

     LOOP+:  VPU time13798.66: CPU time13814.97

 ----------------------------------------------------------------------------- 
|                                                                             |
|           W    W    AA    RRRRR   N    N  II  N    N   GGGG   !!!           |
|           W    W   A  A   R    R  NN   N  II  NN   N  G    G  !!!           |
|           W    W  A    A  R    R  N N  N  II  N N  N  G       !!!           |
|           W WW W  AAAAAA  RRRRR   N  N N  II  N  N N  G  GGG   !            |
|           WW  WW  A    A  R   R   N   NN  II  N   NN  G    G                |
|           W    W  A    A  R    R  N    N  II  N    N   GGGG   !!!           |
|                                                                             |
|      The partial DOS and the PROCAR file are not evaluated for NPAR/=1      |
|      please rerun with NPAR=1                                               |
|                                                                             |
 ----------------------------------------------------------------------------- 

  
  
 General timing and accounting informations for this job:
 ========================================================
  
                  Total CPU time used (sec):    14132.022
                            User time (sec):    13971.158
                          System time (sec):      160.864
                         Elapsed time (sec):    14150.685
  
                   Maximum memory used (kb):     3646020.
                   Average memory used (kb):           0.
  
                          Minor page faults:       676830
                          Major page faults:            0
                 Voluntary context switches:          844
