 vasp.4.6.28 25Jul05 complex 
 executed on             LinuxIFC date 2017.01.24  12:43:02
 running on    4 nodes
 distr:  one band on    1 nodes,    4 groups


--------------------------------------------------------------------------------------------------------


 INCAR:
 POTCAR:   PAW_PBE Ag 06Sep2000                   
 POTCAR:   PAW_PBE Ag 06Sep2000                   
   VRHFIN =Ag : s1 d10                                                          
   LEXCH  = PE                                                                  
   EATOM  =  1037.4134 eV,   76.2477 Ry                                         
                                                                                
   TITEL  = PAW_PBE Ag 06Sep2000                                                
   LULTRA =        F    use ultrasoft PP ?                                      
   IUNSCR =        1    unscreen: 0-lin 1-nonlin 2-no                           
   RPACOR =    2.000    partial core radius                                     
   POMASS =  107.868; ZVAL   =   11.000    mass and valenz                      
   RCORE  =    2.400    outmost cutoff radius                                   
   RWIGS  =    2.840; RWIGS  =    1.503    wigner-seitz radius (au A)           
   ENMAX  =  249.846; ENMIN  =  187.385 eV                                      
   RCLOC  =    1.962    cutoff for local pot                                    
   LCOR   =        T    correct aug charges                                     
   LPAW   =        T    paw PP                                                  
   EAUG   =  412.496                                                            
   DEXC   =    -.047                                                            
   RMAX   =    2.917    core radius for proj-oper                               
   RAUG   =    1.300    factor for augmentation sphere                          
   RDEP   =    2.416    radius for radial grids                                 
   QCUT   =   -4.285; QGAM   =    8.570    optimization parameters              
                                                                                
   Description                                                                  
     l     E      TYP  RCUT    TYP  RCUT                                        
     2   .000     23  2.400                                                     
     2   .000     23  2.400                                                     
     0   .000     23  2.400                                                     
     0   .000     23  2.400                                                     
     1  -.200     23  2.400                                                     
     1  1.500     23  2.400                                                     
     3   .000      7   .000                                                     
  local pseudopotential read in
  partial core-charges read in
  atomic valenz-charges read in
  non local Contribution for L=           2  read in
    real space projection operators read in
  non local Contribution for L=           2  read in
    real space projection operators read in
  non local Contribution for L=           0  read in
    real space projection operators read in
  non local Contribution for L=           0  read in
    real space projection operators read in
  non local Contribution for L=           1  read in
    real space projection operators read in
  non local Contribution for L=           1  read in
    real space projection operators read in
    PAW grid and wavefunctions read in
 
   number of l-projection  operators is LMAX  =           6
   number of lm-projection operators is LMMAX =          18
 

 ----------------------------------------------------------------------------- 
|                                                                             |
|  ADVICE TO THIS USER RUNNING 'VASP/VAMP'   (HEAR YOUR MASTER'S VOICE ...):  |
|                                                                             |
|      You have a (more or less) 'large supercell' and for larger cells       |
|      it might be more efficient to use real space projection operators      |
|      So try LREAL= Auto  in the INCAR   file.                               |
|      Mind: If you want to do an extremely accurate calculations keep the    |
|      reciprocal projection scheme          (i.e. LREAL=.FALSE.)             |
|                                                                             |
 ----------------------------------------------------------------------------- 

 PAW_PBE Ag 06Sep2000                   :
 energy of atom  1       EATOM=-1037.4134
 kinetic energy error for atom=    0.0019 (will be added to EATOM!!)
 
 EXHCAR: internal setup
 exchange correlation table for  LEXCH =        8
   RHO(1)=    0.500       N(1)  =     2000
   RHO(2)=  100.500       N(2)  =     4000
 
 POSCAR: No title                                
  positions in direct lattice
  No initial velocities read in
 


--------------------------------------------------------------------------------------------------------


 ion  position               nearest neighbor table
   1  0.750  0.750  0.500-   3 3.02  14 3.02  19 3.02  20 3.02   5 3.02  26 3.02   6 3.02  29 3.02
                            11 3.02  18 3.02  10 3.02   8 3.02
   2  0.750  0.750  0.000-   8 3.02  10 3.02  22 3.02  27 3.02  11 3.02  18 3.02  12 3.02  32 3.02
                             5 3.02  26 3.02   3 3.02  20 3.02
   3  0.750  0.000  0.250-   1 3.02   5 3.02   9 3.02  28 3.02  19 3.02  12 3.02  13 3.02  18 3.02
                            27 3.02   6 3.02   4 3.02   2 3.02
   4  0.750  0.250  0.500-   6 3.02   8 3.02  10 3.02  29 3.02  13 3.02  31 3.02  14 3.02  19 3.02
                            21 3.02  28 3.02   3 3.02  20 3.02
   5  0.000  0.750  0.250-   3 3.02  12 3.02  14 3.02  25 3.02  15 3.02   1 3.02  16 3.02  10 3.02
                             2 3.02   7 3.02  22 3.02   6 3.02
   6  0.000  0.000  0.500-   4 3.02   7 3.02  11 3.02  13 3.02   8 3.02  16 3.02   1 3.02  17 3.02
                             3 3.02  23 3.02  21 3.02   5 3.02
   7  0.250  0.750  0.500-   6 3.02  16 3.02  29 3.02  30 3.02  11 3.02  18 3.02  14 3.02  19 3.02
                             5 3.02  26 3.02  25 3.02  23 3.02
   8  0.750  0.000  0.750-   2 3.02   4 3.02  11 3.02  31 3.02  27 3.02   6 3.02  21 3.02  26 3.02
                            12 3.02  19 3.02   9 3.02   1 3.02
   9  0.750  0.250  0.000-   3 3.02  12 3.02  20 3.02  32 3.02  28 3.02  21 3.02  22 3.02  27 3.02
                            31 3.02  13 3.02  10 3.02   8 3.02
  10  0.750  0.500  0.250-   2 3.02   4 3.02  13 3.02  18 3.02  22 3.02  29 3.02  28 3.02   5 3.02
                            14 3.02  32 3.02   9 3.02   1 3.02
  11  0.000  0.750  0.750-   6 3.02   8 3.02  22 3.02  30 3.02   7 3.02   2 3.02  23 3.02  20 3.02
                             1 3.02  15 3.02  14 3.02  12 3.02
  12  0.000  0.000  0.000-   5 3.02   9 3.02  15 3.02  21 3.02   3 3.02  23 3.02   2 3.02  24 3.02
                            16 3.02   8 3.02  13 3.02  11 3.02
  13  0.000  0.250  0.250-   6 3.02  10 3.02  16 3.02  22 3.02   4 3.02  24 3.02   3 3.02  25 3.02
                            17 3.02   9 3.02  14 3.02  12 3.02
  14  0.000  0.500  0.500-   1 3.02   5 3.02  17 3.02  21 3.02  20 3.02  25 3.02   4 3.02   7 3.02
                            10 3.02  30 3.02  13 3.02  11 3.02
  15  0.250  0.750  0.000-  12 3.02  23 3.02  25 3.02  32 3.02  26 3.02   5 3.02  27 3.02  22 3.02
                            11 3.02  18 3.02  30 3.02  16 3.02
  16  0.250  0.000  0.250-   7 3.02  13 3.02  18 3.02  24 3.02   6 3.02  27 3.02   5 3.02  28 3.02
                            19 3.02  12 3.02  17 3.02  15 3.02
  17  0.250  0.250  0.500-  14 3.02  19 3.02  23 3.02  25 3.02  21 3.02  28 3.02   6 3.02  29 3.02
                            13 3.02  31 3.02  30 3.02  16 3.02
  18  0.500  0.750  0.250-  10 3.02  16 3.02  27 3.02  29 3.02   2 3.02   7 3.02   3 3.02  25 3.02
                             1 3.02  15 3.02  19 3.02  32 3.02
  19  0.500  0.000  0.500-   1 3.02  17 3.02  26 3.02  28 3.02   3 3.02  23 3.02   4 3.02   7 3.02
                             8 3.02  16 3.02  18 3.02  31 3.02
  20  0.750  0.500  0.750-   1 3.02   9 3.02  21 3.02  26 3.02  14 3.02  32 3.02  31 3.02  11 3.02
                            22 3.02  29 3.02   4 3.02   2 3.02
  21  0.000  0.250  0.750-  12 3.02  14 3.02  20 3.02  23 3.02   9 3.02  17 3.02   8 3.02  30 3.02
                            24 3.02   4 3.02  22 3.02   6 3.02
  22  0.000  0.500  0.000-   2 3.02  11 3.02  13 3.02  24 3.02  10 3.02  30 3.02   9 3.02  15 3.02
                            25 3.02  20 3.02  21 3.02   5 3.02
  23  0.250  0.000  0.750-  15 3.02  17 3.02  21 3.02  26 3.02  12 3.02  19 3.02  11 3.02  31 3.02
                            27 3.02   6 3.02  24 3.02   7 3.02
  24  0.250  0.250  0.000-  16 3.02  22 3.02  27 3.02  30 3.02  13 3.02  31 3.02  12 3.02  32 3.02
                            28 3.02  21 3.02  25 3.02  23 3.02
  25  0.250  0.500  0.250-   5 3.02  15 3.02  17 3.02  28 3.02  14 3.02  32 3.02  13 3.02  18 3.02
                            29 3.02  22 3.02  24 3.02   7 3.02
  26  0.500  0.750  0.750-  19 3.02  20 3.02  23 3.02  32 3.02   1 3.02  15 3.02  30 3.02   8 3.02
                             7 3.02   2 3.02  27 3.02  29 3.02
  27  0.500  0.000  0.000-   2 3.02  18 3.02  24 3.02  31 3.02  16 3.02   8 3.02   9 3.02  15 3.02
                             3 3.02  23 3.02  28 3.02  26 3.02
  28  0.500  0.250  0.250-   3 3.02  19 3.02  25 3.02  32 3.02  17 3.02   9 3.02  10 3.02  16 3.02
                             4 3.02  24 3.02  29 3.02  27 3.02
  29  0.500  0.500  0.500-   4 3.02   7 3.02  18 3.02  31 3.02  30 3.02  10 3.02  17 3.02   1 3.02
                            20 3.02  25 3.02  26 3.02  28 3.02
  30  0.250  0.500  0.750-   7 3.02  11 3.02  24 3.02  31 3.02  29 3.02  22 3.02  21 3.02  26 3.02
                            14 3.02  32 3.02  17 3.02  15 3.02
  31  0.500  0.250  0.750-   8 3.02  27 3.02  29 3.02  30 3.02  24 3.02   4 3.02  20 3.02  23 3.02
                             9 3.02  17 3.02  19 3.02  32 3.02
  32  0.500  0.500  0.000-   9 3.02  15 3.02  26 3.02  28 3.02  20 3.02  25 3.02  24 3.02   2 3.02
                            10 3.02  30 3.02  18 3.02  31 3.02
 
  LATTYP: Found a simple cubic cell.
 ALAT       =     8.5327987700
  
  Lattice vectors:
  
 A1 = (   8.5327987700,   0.0000000000,   0.0000000000)
 A2 = (   0.0000001600,   8.5327987700,   0.0000000000)
 A3 = (   0.0000001600,   0.0000001600,   8.5327987700)
 Subroutine PRICEL returns following result:
 
  LATTYP: Found a face centered cubic cell.
 ALAT       =     4.2663994250
  
  Lattice vectors:
  
 A1 = (   2.1331997325,   2.1331996925,   0.0000000000)
 A2 = (   2.1331996525,  -0.0000000400,  -2.1331996925)
 A3 = (  -0.0000000000,   2.1331996525,  -2.1331996925)
 
  32 primitive cells build up your supercell.
 

Analysis of symmetry for initial positions (statically):

 Routine SETGRP: Setting up the symmetry group for a 
 simple cubic supercell.


 Subroutine GETGRP returns: Found 48 space group operations
 (whereof 48 operations were pure point group operations)
 out of a pool of 48 trial point group operations.


The static configuration has the point symmetry O_h .

Analysis of symmetry for dynamics (positions and initial velocities):

 Subroutine DYNSYM returns: Found 48 space group operations
 (whereof 48 operations were pure point group operations)
 out of a pool of 48 trial space group operations
 (whereof 48 operations were pure point group operations)
 and found also    32 'primitive' translations


The dynamic configuration has the point symmetry O_h .
 
 
 KPOINTS: Automatic mesh                          

Automatic generation of k-mesh.
 
 Subroutine IBZKPT returns following result:
 ===========================================
 
 Found     20 irreducible k-points:
 
 Following reciprocal coordinates:
            Coordinates               Weight
  0.062500  0.062500  0.062500      8.000000
  0.187500  0.062500  0.062500     24.000000
  0.312500  0.062500  0.062500     24.000000
  0.437500  0.062500  0.062500     24.000000
  0.187500  0.187500  0.062500     24.000000
  0.312500  0.187500  0.062500     48.000000
  0.437500  0.187500  0.062500     48.000000
  0.312500  0.312500  0.062500     24.000000
  0.437500  0.312500  0.062500     48.000000
  0.437500  0.437500  0.062500     24.000000
  0.187500  0.187500  0.187500      8.000000
  0.312500  0.187500  0.187500     24.000000
  0.437500  0.187500  0.187500     24.000000
  0.312500  0.312500  0.187500     24.000000
  0.437500  0.312500  0.187500     48.000000
  0.437500  0.437500  0.187500     24.000000
  0.312500  0.312500  0.312500      8.000000
  0.437500  0.312500  0.312500     24.000000
  0.437500  0.437500  0.312500     24.000000
  0.437500  0.437500  0.437500      8.000000
 
 Following cartesian coordinates:
            Coordinates               Weight
  0.007325  0.007325  0.007325      8.000000
  0.021974  0.007325  0.007325     24.000000
  0.036623  0.007325  0.007325     24.000000
  0.051273  0.007325  0.007325     24.000000
  0.021974  0.021974  0.007325     24.000000
  0.036623  0.021974  0.007325     48.000000
  0.051273  0.021974  0.007325     48.000000
  0.036623  0.036623  0.007325     24.000000
  0.051273  0.036623  0.007325     48.000000
  0.051273  0.051273  0.007325     24.000000
  0.021974  0.021974  0.021974      8.000000
  0.036623  0.021974  0.021974     24.000000
  0.051273  0.021974  0.021974     24.000000
  0.036623  0.036623  0.021974     24.000000
  0.051273  0.036623  0.021974     48.000000
  0.051273  0.051273  0.021974     24.000000
  0.036623  0.036623  0.036623      8.000000
  0.051273  0.036623  0.036623     24.000000
  0.051273  0.051273  0.036623     24.000000
  0.051273  0.051273  0.051273      8.000000
 


--------------------------------------------------------------------------------------------------------




 Dimension of arrays:
   k-Points           NKPTS =     20   number of bands    NBANDS=    212
   number of dos      NEDOS =    301   number of ions     NIONS =     32
   non local maximal  LDIM  =      6   non local SUM 2l+1 LMDIM =     18
   total plane-waves  NPLWV = 343000
   max r-space proj   IRMAX =      1   max aug-charges    IRDMAX= 217343
   dimension x,y,z NGX =    70 NGY =   70 NGZ =   70
   dimension x,y,z NGXF=   140 NGYF=  140 NGZF=  140
   support grid    NGXF=   280 NGYF=  280 NGZF=  280
   ions per type =              32
 NGX,Y,Z   is equivalent  to a cutoff of  13.64, 13.64, 13.64 a.u.
 NGXF,Y,Z  is equivalent  to a cutoff of  27.28, 27.28, 27.28 a.u.


 I would recommend the setting:
   dimension x,y,z NGX =    68 NGY =   68 NGZ =   68
 SYSTEM =  No title                                
 POSCAR =  No title                                

 Startparameter for this run:
   NWRITE =      2    write-flag & timer
   PREC   = accura    medium, high low
   ISTART =      0    job   : 0-new  1-cont  2-samecut
   ICHARG =      2    charge: 1-file 2-atom 10-const
   ISPIN  =      1    spin polarized calculation?
   LNONCOLLINEAR =      F non collinear calculations
   LSORBIT =      F    spin-orbit coupling
   INIWAV =      1    electr: 0-lowe 1-rand  2-diag
   LASPH  =      F    aspherical Exc in radial PAW
   METAGGA=      F    non-selfconsistent MetaGGA calc.

 Electronic Relaxation 1
   ENCUT  =  600.0 eV  44.10 Ry    6.64 a.u.  17.04 17.04 17.04*2*pi/ulx,y,z
   ENINI  =  600.0     initial cutoff
   ENAUG  =  412.5 eV  augmentation charge cutoff
   NELM   =     60;   NELMIN=  2; NELMDL=-12     # of ELM steps 
   EDIFF  = 0.1E-04   stopping-criterion for ELM
   LREAL  =      F    real-space projection
   LCOMPAT=      F    compatible to vasp.4.4
   LREAL_COMPAT= F    compatible to vasp.4.5.1-3
   GGA_COMPAT  = T    GGA compatible to vasp.4.4-vasp.4.6
   LMAXPAW     = -100 max onsite density
   LMAXMIX     =    2 max onsite mixed and CHGCAR
   VOSKOWN=      1    Vosko Wilk Nusair interpolation
   ROPT   =    0.00000
 Ionic relaxation
   EDIFFG = -.2E-01   stopping-criterion for IOM
   NSW    =    100    number of steps for IOM
   NBLOCK =      1;   KBLOCK =    100    inner block; outer block 
   IBRION =      2    ionic relax: 0-MD 1-quasi-New 2-CG
   NFREE  =      1    steps in history (QN), initial steepest desc. (CG)
   ISIF   =      2    stress and relaxation
   IWAVPR =     11    prediction:  0-non 1-charg 2-wave 3-comb
   ISYM   =      2    0-nonsym 1-usesym 2-fastsym
   LCORR  =      T    Harris-Foulkes like correction to forces

   POTIM  =   0.50    time-step for ionic-motion
   TEIN   =    0.0    initial temperature
   TEBEG  =    0.0;   TEEND  =   0.0 temperature during run
   SMASS  =  -3.00    Nose mass-parameter (am)
   estimated Nose-frequenzy (Omega)   =  0.10E-29 period in steps =****** mass=  -0.166E-26a.u.
   NPACO  =    256;   APACO  = 16.0  distance and # of slots for P.C.
   PSTRESS=    0.0 pullay stress

  Mass of Ions in am
   POMASS = 107.87
  Ionic Valenz
   ZVAL   =  11.00
  Atomic Wigner-Seitz radii
   RWIGS  =   1.34
   NELECT =     352.0000    total number of electrons
   NUPDOWN=      -1.0000    fix difference up-down

 DOS related values:
   EMIN   =  10.00;   EMAX   =-10.00  energy-range for DOS
   ISMEAR =     1;   SIGMA  =   0.20  broadening in eV -4-tet -1-fermi 0-gaus

 Electronic relaxation 2 (details)
   IALGO  =     48    algorithm
   LDIAG  =      T    sub-space diagonalisation
   IMIX   =      4    mixing-type and parameters
     AMIX     =   0.40;   BMIX     =  1.00
     AMIX_MAG =   1.60;   BMIX_MAG =  1.00
     AMIN     =   0.10
     WC   =   100.;   INIMIX=   1;  MIXPRE=   1

 Intra band minimization:
   WEIMIN = 0.0010     energy-eigenvalue tresh-hold
   EBREAK =  0.12E-07  absolut break condition
   DEPER  =   0.30     relativ break condition  

   TIME   =   0.10     timestep for ELM

  volume/ion in A,a.u.               =      19.41       131.02
  Fermi-wavevector in a.u.,eV,Ry     =   1.354662 24.968168  1.835109

 Second variation
   LSECVAR=     F    do a second variation
 
 Write flags
   LWAVE  =      T    write WAVECAR
   LCHARG =      F    write CHGCAR
   LVTOT  =      F    write LOCPOT, local potential
   LELF   =      F    write electronic localiz. function (ELF)
   LORBIT =      0    0 simple, 1 ext, 2 COOP (PROOUT)


 Dipole corrections
   IDIPOL =      0    1-x, 2-y, 3-z
   LDIPOL =      F    correct potential



--------------------------------------------------------------------------------------------------------


 conjugate gradient relaxation of ions
 charge density will be updated during run
 non-spin polarized calculation
 RMM-DIIS sequential band-by-band
 performe sub-space diagonalisation
    before iterative eigenvector-optimisation
 modified Broyden-mixing scheme, WC =      100.0
 initial mixing is a Kerker type mixing with AMIX =  0.4000 and BMIX =      1.0000
 Hartree-type preconditioning will be used
 using additional bands           36
 reciprocal scheme for non local part
 use partial core corrections
 calculate Harris-corrections to forces 
   (improved forces if not selfconsistent)
 use gradient corrections 
 use of overlap-Matrix (Vanderbilt PP)
 Methfessel and Paxton  Order N= 1 SIGMA  =   0.20


--------------------------------------------------------------------------------------------------------


  energy-cutoff  :      600.00
  volume of cell :      621.26
      direct lattice vectors                 reciprocal lattice vectors
     8.532798770  0.000000000  0.000000000     0.117194842 -0.000000002 -0.000000002
     0.000000160  8.532798770  0.000000000     0.000000000  0.117194842 -0.000000002
     0.000000160  0.000000160  8.532798770     0.000000000  0.000000000  0.117194842

  length of vectors
     8.532798770  8.532798770  8.532798770     0.117194842  0.117194842  0.117194842


 
 k-points in units of 2pi/SCALE and weight: Automatic mesh                          
   0.00732468  0.00732468  0.00732468       0.016
   0.02197403  0.00732468  0.00732468       0.047
   0.03662339  0.00732468  0.00732468       0.047
   0.05127274  0.00732468  0.00732468       0.047
   0.02197403  0.02197403  0.00732468       0.047
   0.03662339  0.02197403  0.00732468       0.094
   0.05127274  0.02197403  0.00732468       0.094
   0.03662339  0.03662339  0.00732468       0.047
   0.05127274  0.03662339  0.00732468       0.094
   0.05127274  0.05127274  0.00732468       0.047
   0.02197403  0.02197403  0.02197403       0.016
   0.03662339  0.02197403  0.02197403       0.047
   0.05127274  0.02197403  0.02197403       0.047
   0.03662339  0.03662339  0.02197403       0.047
   0.05127274  0.03662339  0.02197403       0.094
   0.05127274  0.05127274  0.02197403       0.047
   0.03662339  0.03662339  0.03662339       0.016
   0.05127274  0.03662339  0.03662339       0.047
   0.05127274  0.05127274  0.03662339       0.047
   0.05127274  0.05127274  0.05127274       0.016
 
 k-points in reciprocal lattice and weights: Automatic mesh                          
   0.06250000  0.06250000  0.06250000       0.016
   0.18750000  0.06250000  0.06250000       0.047
   0.31250000  0.06250000  0.06250000       0.047
   0.43750000  0.06250000  0.06250000       0.047
   0.18750000  0.18750000  0.06250000       0.047
   0.31250000  0.18750000  0.06250000       0.094
   0.43750000  0.18750000  0.06250000       0.094
   0.31250000  0.31250000  0.06250000       0.047
   0.43750000  0.31250000  0.06250000       0.094
   0.43750000  0.43750000  0.06250000       0.047
   0.18750000  0.18750000  0.18750000       0.016
   0.31250000  0.18750000  0.18750000       0.047
   0.43750000  0.18750000  0.18750000       0.047
   0.31250000  0.31250000  0.18750000       0.047
   0.43750000  0.31250000  0.18750000       0.094
   0.43750000  0.43750000  0.18750000       0.047
   0.31250000  0.31250000  0.31250000       0.016
   0.43750000  0.31250000  0.31250000       0.047
   0.43750000  0.43750000  0.31250000       0.047
   0.43750000  0.43750000  0.43750000       0.016
 
 position of ions in fractional coordinates (direct lattice) 
   0.75000000  0.75000000  0.50000000
   0.75000000  0.75000000  0.00000000
   0.75000000  0.00000000  0.25000000
   0.75000000  0.25000000  0.50000000
   0.00000000  0.75000000  0.25000000
   0.00000000  0.00000000  0.50000000
   0.25000000  0.75000000  0.50000000
   0.75000000  0.00000000  0.75000000
   0.75000000  0.25000000  0.00000000
   0.75000000  0.50000000  0.25000000
   0.00000000  0.75000000  0.75000000
   0.00000000  0.00000000  0.00000000
   0.00000000  0.25000000  0.25000000
   0.00000000  0.50000000  0.50000000
   0.25000000  0.75000000  0.00000000
   0.25000000  0.00000000  0.25000000
   0.25000000  0.25000000  0.50000000
   0.50000000  0.75000000  0.25000000
   0.50000000  0.00000000  0.50000000
   0.75000000  0.50000000  0.75000000
   0.00000000  0.25000000  0.75000000
   0.00000000  0.50000000  0.00000000
   0.25000000  0.00000000  0.75000000
   0.25000000  0.25000000  0.00000000
   0.25000000  0.50000000  0.25000000
   0.50000000  0.75000000  0.75000000
   0.50000000  0.00000000  0.00000000
   0.50000000  0.25000000  0.25000000
   0.50000000  0.50000000  0.50000000
   0.25000000  0.50000000  0.75000000
   0.50000000  0.25000000  0.75000000
   0.50000000  0.50000000  0.00000000
 
 position of ions in cartesian coordinates  (Angst):
   6.39959928  6.39959916  4.26639938
   6.39959920  6.39959908  0.00000000
   6.39959912  0.00000004  2.13319969
   6.39959920  2.13319977  4.26639938
   0.00000016  6.39959912  2.13319969
   0.00000008  0.00000008  4.26639938
   2.13319989  6.39959916  4.26639938
   6.39959920  0.00000012  6.39959908
   6.39959912  2.13319969  0.00000000
   6.39959920  4.26639942  2.13319969
   0.00000024  6.39959920  6.39959908
   0.00000000  0.00000000  0.00000000
   0.00000008  2.13319973  2.13319969
   0.00000016  4.26639947  4.26639938
   2.13319981  6.39959908  0.00000000
   2.13319973  0.00000004  2.13319969
   2.13319981  2.13319977  4.26639938
   4.26639954  6.39959912  2.13319969
   4.26639947  0.00000008  4.26639938
   6.39959928  4.26639950  6.39959908
   0.00000016  2.13319981  6.39959908
   0.00000008  4.26639938  0.00000000
   2.13319981  0.00000012  6.39959908
   2.13319973  2.13319969  0.00000000
   2.13319981  4.26639942  2.13319969
   4.26639963  6.39959920  6.39959908
   4.26639938  0.00000000  0.00000000
   4.26639946  2.13319973  2.13319969
   4.26639955  4.26639947  4.26639938
   2.13319989  4.26639950  6.39959908
   4.26639954  2.13319981  6.39959908
   4.26639947  4.26639938  0.00000000
 


--------------------------------------------------------------------------------------------------------


 k-point  1 :  0.06250.06250.0625  plane waves:  20656
 k-point  2 :  0.18750.06250.0625  plane waves:  20680
 k-point  3 :  0.31250.06250.0625  plane waves:  20717
 k-point  4 :  0.43750.06250.0625  plane waves:  20706
 k-point  5 :  0.18750.18750.0625  plane waves:  20717
 k-point  6 :  0.31250.18750.0625  plane waves:  20729
 k-point  7 :  0.43750.18750.0625  plane waves:  20737
 k-point  8 :  0.31250.31250.0625  plane waves:  20750
 k-point  9 :  0.43750.31250.0625  plane waves:  20748
 k-point 10 :  0.43750.43750.0625  plane waves:  20769
 k-point 11 :  0.18750.18750.1875  plane waves:  20720
 k-point 12 :  0.31250.18750.1875  plane waves:  20735
 k-point 13 :  0.43750.18750.1875  plane waves:  20748
 k-point 14 :  0.31250.31250.1875  plane waves:  20748
 k-point 15 :  0.43750.31250.1875  plane waves:  20737
 k-point 16 :  0.43750.43750.1875  plane waves:  20742
 k-point 17 :  0.31250.31250.3125  plane waves:  20729
 k-point 18 :  0.43750.31250.3125  plane waves:  20742
 k-point 19 :  0.43750.43750.3125  plane waves:  20742
 k-point 20 :  0.43750.43750.4375  plane waves:  20729

 maximum and minimum number of plane-waves per node :  20769 20656

 maximum number of plane-waves:  20769
 maximal index in each direction: 
   IXMAX= 16   IYMAX= 16   IZMAX= 16
   IXMIN=-17   IYMIN=-17   IZMIN=-17

 NGX is ok and might be reduce to  68
 NGY is ok and might be reduce to  68
 NGZ is ok and might be reduce to  68

 parallel 3dFFT wavefunction:
    minimum data exchange during FFTs selected (reduces bandwidth)
 parallel 3dFFT charge:
    minimum data exchange during FFTs selected (reduces bandwidth)

 For storing wavefunctions 1406.26 MBYTES are necessary
 For predicting wavefunctions  151.75 MBYTES are necessary
Broyden mixing: mesh for mixing (old mesh)
   NGX = 35   NGY = 35   NGZ = 35
  (NGX  =140   NGY  =140   NGZ  =140)
 gives a total of  42875 points
 initial charge density was supplied:
 charge density of overlapping atoms calculated
 number of electron  352.0000000 magnetization 
 keeping initial charge density in first step


--------------------------------------------------------------------------------------------------------


 Maximum index for augmentation-charges        52802 (set IRDMAX)


--------------------------------------------------------------------------------------------------------


 First call to EWALD:  gamma=   0.208
 Maximum number of real-space cells 3x 3x 3
 Maximum number of reciprocal cells 3x 3x 3

    FEWALD:  VPU time    0.01: CPU time    0.01


----------------------------------------- Iteration    1(   1)  ---------------------------------------


    POTLOK:  VPU time    0.42: CPU time    0.42
    SETDIJ:  VPU time    0.52: CPU time    0.52
    EDDIAG:  VPU time   15.97: CPU time   15.97
  RMM-DIIS:  VPU time   45.81: CPU time   45.80
    ORTHCH:  VPU time    2.95: CPU time    2.95
    DOS   :  VPU time    0.00: CPU time   -0.00
    ------------------------------------------
      LOOP:  VPU time   65.70: CPU time   65.69

 eigenvalue-minimisations  :  4240
 total energy-change (2. order) : 0.3917025E+04  (-0.1648240E+05)
 number of electron  352.0000000 magnetization 
 augmentation part   352.0000000 magnetization 

 Free energy of the ion-electron system (eV)
  ---------------------------------------------------
  alpha Z        PSCENC =      2926.94048422
  Ewald energy   TEWEN  =    -29958.92630544
  -1/2 Hartree   DENC   =     -7130.46251260
  -V(xc)+E(xc)   XCENC  =      -352.98190758
  PAW double counting   =     27861.41421209   -26376.63839568
  entropy T*S    EENTRO =        -0.00963643
  eigenvalues    EBANDS =      3750.52076902
  atomic energy  EATOM  =     33197.16788402
  ---------------------------------------------------
  free energy    TOTEN  =      3917.02459163 eV

  energy without entropy =     3917.03422806  energy(sigma->0) =     3917.02780377


--------------------------------------------------------------------------------------------------------




----------------------------------------- Iteration    1(   2)  ---------------------------------------


    EDDIAG:  VPU time   15.91: CPU time   15.92
  RMM-DIIS:  VPU time   45.87: CPU time   45.88
    ORTHCH:  VPU time    2.97: CPU time    2.98
    DOS   :  VPU time    0.00: CPU time   -0.00
    ------------------------------------------
      LOOP:  VPU time   64.79: CPU time   64.81

 eigenvalue-minimisations  :  4240
 total energy-change (2. order) :-0.3107649E+04  (-0.3477771E+04)
 number of electron  352.0000000 magnetization 
 augmentation part   352.0000000 magnetization 

 Free energy of the ion-electron system (eV)
  ---------------------------------------------------
  alpha Z        PSCENC =      2926.94048422
  Ewald energy   TEWEN  =    -29958.92630544
  -1/2 Hartree   DENC   =     -7130.46251260
  -V(xc)+E(xc)   XCENC  =      -352.98190758
  PAW double counting   =     27861.41421209   -26376.63839568
  entropy T*S    EENTRO =         0.03357965
  eigenvalues    EBANDS =       642.82851365
  atomic energy  EATOM  =     33197.16788402
  ---------------------------------------------------
  free energy    TOTEN  =       809.37555234 eV

  energy without entropy =      809.34197269  energy(sigma->0) =      809.36435912


--------------------------------------------------------------------------------------------------------




----------------------------------------- Iteration    1(   3)  ---------------------------------------


    EDDIAG:  VPU time   16.05: CPU time   16.05
  RMM-DIIS:  VPU time   46.30: CPU time   46.29
    ORTHCH:  VPU time    2.98: CPU time    2.98
    DOS   :  VPU time    0.00: CPU time   -0.00
    ------------------------------------------
      LOOP:  VPU time   65.37: CPU time   65.35

 eigenvalue-minimisations  :  4240
 total energy-change (2. order) :-0.6385634E+03  (-0.6946266E+03)
 number of electron  352.0000000 magnetization 
 augmentation part   352.0000000 magnetization 

 Free energy of the ion-electron system (eV)
  ---------------------------------------------------
  alpha Z        PSCENC =      2926.94048422
  Ewald energy   TEWEN  =    -29958.92630544
  -1/2 Hartree   DENC   =     -7130.46251260
  -V(xc)+E(xc)   XCENC  =      -352.98190758
  PAW double counting   =     27861.41421209   -26376.63839568
  entropy T*S    EENTRO =        -0.01346203
  eigenvalues    EBANDS =         4.31216122
  atomic energy  EATOM  =     33197.16788402
  ---------------------------------------------------
  free energy    TOTEN  =       170.81215822 eV

  energy without entropy =      170.82562025  energy(sigma->0) =      170.81664557


--------------------------------------------------------------------------------------------------------




----------------------------------------- Iteration    1(   4)  ---------------------------------------


    EDDIAG:  VPU time   15.96: CPU time   15.96
  RMM-DIIS:  VPU time   46.17: CPU time   46.16
    ORTHCH:  VPU time    2.98: CPU time    2.98
    DOS   :  VPU time    0.00: CPU time   -0.00
    ------------------------------------------
      LOOP:  VPU time   65.15: CPU time   65.14

 eigenvalue-minimisations  :  4240
 total energy-change (2. order) :-0.1911868E+03  (-0.1392969E+03)
 number of electron  352.0000000 magnetization 
 augmentation part   352.0000000 magnetization 

 Free energy of the ion-electron system (eV)
  ---------------------------------------------------
  alpha Z        PSCENC =      2926.94048422
  Ewald energy   TEWEN  =    -29958.92630544
  -1/2 Hartree   DENC   =     -7130.46251260
  -V(xc)+E(xc)   XCENC  =      -352.98190758
  PAW double counting   =     27861.41421209   -26376.63839568
  entropy T*S    EENTRO =        -0.00362920
  eigenvalues    EBANDS =      -186.88449299
  atomic energy  EATOM  =     33197.16788402
  ---------------------------------------------------
  free energy    TOTEN  =       -20.37466315 eV

  energy without entropy =      -20.37103395  energy(sigma->0) =      -20.37345342


--------------------------------------------------------------------------------------------------------




----------------------------------------- Iteration    1(   5)  ---------------------------------------


    EDDIAG:  VPU time   15.88: CPU time   15.88
  RMM-DIIS:  VPU time   45.89: CPU time   45.88
    ORTHCH:  VPU time    2.95: CPU time    2.95
    DOS   :  VPU time    0.00: CPU time   -0.00
    ------------------------------------------
      LOOP:  VPU time   64.76: CPU time   64.75

 eigenvalue-minimisations  :  4240
 total energy-change (2. order) :-0.6115810E+02  (-0.3645662E+02)
 number of electron  352.0000000 magnetization 
 augmentation part   352.0000000 magnetization 

 Free energy of the ion-electron system (eV)
  ---------------------------------------------------
  alpha Z        PSCENC =      2926.94048422
  Ewald energy   TEWEN  =    -29958.92630544
  -1/2 Hartree   DENC   =     -7130.46251260
  -V(xc)+E(xc)   XCENC  =      -352.98190758
  PAW double counting   =     27861.41421209   -26376.63839568
  entropy T*S    EENTRO =         0.01502303
  eigenvalues    EBANDS =      -248.06124105
  atomic energy  EATOM  =     33197.16788402
  ---------------------------------------------------
  free energy    TOTEN  =       -81.53275898 eV

  energy without entropy =      -81.54778201  energy(sigma->0) =      -81.53776666


--------------------------------------------------------------------------------------------------------




----------------------------------------- Iteration    1(   6)  ---------------------------------------


    EDDIAG:  VPU time   15.68: CPU time   15.68
  RMM-DIIS:  VPU time   46.01: CPU time   46.00
    ORTHCH:  VPU time    2.96: CPU time    2.96
    DOS   :  VPU time    0.00: CPU time   -0.00
    ------------------------------------------
      LOOP:  VPU time   64.70: CPU time   64.68

 eigenvalue-minimisations  :  4240
 total energy-change (2. order) :-0.1147586E+02  (-0.8423274E+01)
 number of electron  352.0000000 magnetization 
 augmentation part   352.0000000 magnetization 

 Free energy of the ion-electron system (eV)
  ---------------------------------------------------
  alpha Z        PSCENC =      2926.94048422
  Ewald energy   TEWEN  =    -29958.92630544
  -1/2 Hartree   DENC   =     -7130.46251260
  -V(xc)+E(xc)   XCENC  =      -352.98190758
  PAW double counting   =     27861.41421209   -26376.63839568
  entropy T*S    EENTRO =        -0.01119141
  eigenvalues    EBANDS =      -259.51088682
  atomic energy  EATOM  =     33197.16788402
  ---------------------------------------------------
  free energy    TOTEN  =       -93.00861920 eV

  energy without entropy =      -92.99742779  energy(sigma->0) =      -93.00488873


--------------------------------------------------------------------------------------------------------




----------------------------------------- Iteration    1(   7)  ---------------------------------------


    EDDIAG:  VPU time   15.84: CPU time   15.84
  RMM-DIIS:  VPU time   45.60: CPU time   45.60
    ORTHCH:  VPU time    2.97: CPU time    2.97
    DOS   :  VPU time    0.00: CPU time   -0.00
    ------------------------------------------
      LOOP:  VPU time   64.44: CPU time   64.44

 eigenvalue-minimisations  :  4240
 total energy-change (2. order) :-0.2352971E+01  (-0.1978279E+01)
 number of electron  352.0000000 magnetization 
 augmentation part   352.0000000 magnetization 

 Free energy of the ion-electron system (eV)
  ---------------------------------------------------
  alpha Z        PSCENC =      2926.94048422
  Ewald energy   TEWEN  =    -29958.92630544
  -1/2 Hartree   DENC   =     -7130.46251260
  -V(xc)+E(xc)   XCENC  =      -352.98190758
  PAW double counting   =     27861.41421209   -26376.63839568
  entropy T*S    EENTRO =        -0.01170218
  eigenvalues    EBANDS =      -261.86334675
  atomic energy  EATOM  =     33197.16788402
  ---------------------------------------------------
  free energy    TOTEN  =       -95.36158990 eV

  energy without entropy =      -95.34988772  energy(sigma->0) =      -95.35768917


--------------------------------------------------------------------------------------------------------




----------------------------------------- Iteration    1(   8)  ---------------------------------------


    EDDIAG:  VPU time   16.01: CPU time   16.01
  RMM-DIIS:  VPU time   46.05: CPU time   46.04
    ORTHCH:  VPU time    2.96: CPU time    2.96
    DOS   :  VPU time    0.00: CPU time   -0.00
    ------------------------------------------
      LOOP:  VPU time   65.06: CPU time   65.04

 eigenvalue-minimisations  :  4240
 total energy-change (2. order) :-0.5109478E+00  (-0.4778027E+00)
 number of electron  352.0000000 magnetization 
 augmentation part   352.0000000 magnetization 

 Free energy of the ion-electron system (eV)
  ---------------------------------------------------
  alpha Z        PSCENC =      2926.94048422
  Ewald energy   TEWEN  =    -29958.92630544
  -1/2 Hartree   DENC   =     -7130.46251260
  -V(xc)+E(xc)   XCENC  =      -352.98190758
  PAW double counting   =     27861.41421209   -26376.63839568
  entropy T*S    EENTRO =        -0.01176980
  eigenvalues    EBANDS =      -262.37422696
  atomic energy  EATOM  =     33197.16788402
  ---------------------------------------------------
  free energy    TOTEN  =       -95.87253772 eV

  energy without entropy =      -95.86076792  energy(sigma->0) =      -95.86861445


--------------------------------------------------------------------------------------------------------




----------------------------------------- Iteration    1(   9)  ---------------------------------------


    EDDIAG:  VPU time   15.95: CPU time   15.94
  RMM-DIIS:  VPU time   83.39: CPU time   83.43
    ORTHCH:  VPU time    2.97: CPU time    2.97
    DOS   :  VPU time    0.00: CPU time   -0.00
    ------------------------------------------
      LOOP:  VPU time  102.34: CPU time  102.38

 eigenvalue-minimisations  :  8477
 total energy-change (2. order) :-0.1577221E+00  (-0.1490785E+00)
 number of electron  352.0000000 magnetization 
 augmentation part   352.0000000 magnetization 

 Free energy of the ion-electron system (eV)
  ---------------------------------------------------
  alpha Z        PSCENC =      2926.94048422
  Ewald energy   TEWEN  =    -29958.92630544
  -1/2 Hartree   DENC   =     -7130.46251260
  -V(xc)+E(xc)   XCENC  =      -352.98190758
  PAW double counting   =     27861.41421209   -26376.63839568
  entropy T*S    EENTRO =        -0.01178310
  eigenvalues    EBANDS =      -262.53193576
  atomic energy  EATOM  =     33197.16788402
  ---------------------------------------------------
  free energy    TOTEN  =       -96.03025983 eV

  energy without entropy =      -96.01847672  energy(sigma->0) =      -96.02633213


--------------------------------------------------------------------------------------------------------




----------------------------------------- Iteration    1(  10)  ---------------------------------------


    EDDIAG:  VPU time   15.95: CPU time   15.95
  RMM-DIIS:  VPU time   82.29: CPU time   82.27
    ORTHCH:  VPU time    2.98: CPU time    2.98
    DOS   :  VPU time    0.00: CPU time   -0.00
    ------------------------------------------
      LOOP:  VPU time  101.25: CPU time  101.23

 eigenvalue-minimisations  :  8461
 total energy-change (2. order) :-0.1344375E-01  (-0.1262791E-01)
 number of electron  352.0000000 magnetization 
 augmentation part   352.0000000 magnetization 

 Free energy of the ion-electron system (eV)
  ---------------------------------------------------
  alpha Z        PSCENC =      2926.94048422
  Ewald energy   TEWEN  =    -29958.92630544
  -1/2 Hartree   DENC   =     -7130.46251260
  -V(xc)+E(xc)   XCENC  =      -352.98190758
  PAW double counting   =     27861.41421209   -26376.63839568
  entropy T*S    EENTRO =        -0.01178628
  eigenvalues    EBANDS =      -262.54537633
  atomic energy  EATOM  =     33197.16788402
  ---------------------------------------------------
  free energy    TOTEN  =       -96.04370358 eV

  energy without entropy =      -96.03191730  energy(sigma->0) =      -96.03977482


--------------------------------------------------------------------------------------------------------




----------------------------------------- Iteration    1(  11)  ---------------------------------------


    EDDIAG:  VPU time   15.87: CPU time   15.86
  RMM-DIIS:  VPU time   78.65: CPU time   78.63
    ORTHCH:  VPU time    2.93: CPU time    2.92
    DOS   :  VPU time    0.00: CPU time   -0.00
    ------------------------------------------
      LOOP:  VPU time   97.48: CPU time   97.46

 eigenvalue-minimisations  :  8069
 total energy-change (2. order) :-0.5212528E-03  (-0.4712350E-03)
 number of electron  352.0000000 magnetization 
 augmentation part   352.0000000 magnetization 

 Free energy of the ion-electron system (eV)
  ---------------------------------------------------
  alpha Z        PSCENC =      2926.94048422
  Ewald energy   TEWEN  =    -29958.92630544
  -1/2 Hartree   DENC   =     -7130.46251260
  -V(xc)+E(xc)   XCENC  =      -352.98190758
  PAW double counting   =     27861.41421209   -26376.63839568
  entropy T*S    EENTRO =        -0.01178658
  eigenvalues    EBANDS =      -262.54589729
  atomic energy  EATOM  =     33197.16788402
  ---------------------------------------------------
  free energy    TOTEN  =       -96.04422483 eV

  energy without entropy =      -96.03243825  energy(sigma->0) =      -96.04029597


--------------------------------------------------------------------------------------------------------




----------------------------------------- Iteration    1(  12)  ---------------------------------------


    EDDIAG:  VPU time   15.99: CPU time   15.99
  RMM-DIIS:  VPU time   68.86: CPU time   68.85
    ORTHCH:  VPU time    2.95: CPU time    2.95
    DOS   :  VPU time    0.00: CPU time   -0.00
    CHARGE:  VPU time    6.57: CPU time    6.57
    MIXING:  VPU time    0.01: CPU time    0.01
    ------------------------------------------
      LOOP:  VPU time   94.42: CPU time   94.41

 eigenvalue-minimisations  :  6821
 total energy-change (2. order) :-0.4762110E-04  (-0.4592496E-04)
 number of electron  352.0000007 magnetization 
 augmentation part   163.8139758 magnetization 

 Broyden mixing:
  rms(total) = 0.14723E+01    rms(broyden)= 0.14723E+01
  rms(prec ) = 0.22191E+01
  weight for this iteration     100.00

 Free energy of the ion-electron system (eV)
  ---------------------------------------------------
  alpha Z        PSCENC =      2926.94048422
  Ewald energy   TEWEN  =    -29958.92630544
  -1/2 Hartree   DENC   =     -7130.46251260
  -V(xc)+E(xc)   XCENC  =      -352.98190758
  PAW double counting   =     27861.41421209   -26376.63839568
  entropy T*S    EENTRO =        -0.01178660
  eigenvalues    EBANDS =      -262.54594489
  atomic energy  EATOM  =     33197.16788402
  ---------------------------------------------------
  free energy    TOTEN  =       -96.04427245 eV

  energy without entropy =      -96.03248585  energy(sigma->0) =      -96.04034359


--------------------------------------------------------------------------------------------------------




----------------------------------------- Iteration    1(  13)  ---------------------------------------


    POTLOK:  VPU time    0.41: CPU time    0.41
    SETDIJ:  VPU time    0.51: CPU time    0.51
    EDDIAG:  VPU time   15.79: CPU time   15.78
  RMM-DIIS:  VPU time   83.19: CPU time   83.17
    ORTHCH:  VPU time    2.95: CPU time    2.95
    DOS   :  VPU time    0.00: CPU time   -0.00
    CHARGE:  VPU time    6.77: CPU time    6.77
    MIXING:  VPU time    0.01: CPU time    0.01
    ------------------------------------------
      LOOP:  VPU time  109.66: CPU time  109.64

 eigenvalue-minimisations  :  8480
 total energy-change (2. order) : 0.6164908E+01  (-0.2518713E+01)
 number of electron  352.0000008 magnetization 
 augmentation part   169.0079710 magnetization 

 Broyden mixing:
  rms(total) = 0.27444E+00    rms(broyden)= 0.27443E+00
  rms(prec ) = 0.37359E+00
  weight for this iteration     100.00

 eigenvalues of (default mixing * dielectric matrix)
  average eigenvalue GAMMA=   1.0415
  1.0415

 Free energy of the ion-electron system (eV)
  ---------------------------------------------------
  alpha Z        PSCENC =      2926.94048422
  Ewald energy   TEWEN  =    -29958.92630544
  -1/2 Hartree   DENC   =     -6841.21232349
  -V(xc)+E(xc)   XCENC  =      -363.50683196
  PAW double counting   =     27422.25621704   -25957.21170269
  entropy T*S    EENTRO =        -0.01241067
  eigenvalues    EBANDS =      -515.37437573
  atomic energy  EATOM  =     33197.16788402
  ---------------------------------------------------
  free energy    TOTEN  =       -89.87936469 eV

  energy without entropy =      -89.86695403  energy(sigma->0) =      -89.87522780


--------------------------------------------------------------------------------------------------------




----------------------------------------- Iteration    1(  14)  ---------------------------------------


    POTLOK:  VPU time    0.41: CPU time    0.41
    SETDIJ:  VPU time    0.52: CPU time    0.52
    EDDIAG:  VPU time   15.79: CPU time   15.79
  RMM-DIIS:  VPU time   83.17: CPU time   83.15
    ORTHCH:  VPU time    2.97: CPU time    2.97
    DOS   :  VPU time    0.00: CPU time   -0.00
    CHARGE:  VPU time    6.79: CPU time    6.79
    MIXING:  VPU time    0.01: CPU time    0.01
    ------------------------------------------
      LOOP:  VPU time  109.70: CPU time  109.68

 eigenvalue-minimisations  :  8480
 total energy-change (2. order) : 0.1257228E+00  (-0.3867881E-01)
 number of electron  352.0000008 magnetization 
 augmentation part   169.3115591 magnetization 

 Broyden mixing:
  rms(total) = 0.15001E+00    rms(broyden)= 0.15001E+00
  rms(prec ) = 0.18927E+00
  weight for this iteration     100.00

 eigenvalues of (default mixing * dielectric matrix)
  average eigenvalue GAMMA=   1.7017
  1.0532  2.3501

 Free energy of the ion-electron system (eV)
  ---------------------------------------------------
  alpha Z        PSCENC =      2926.94048422
  Ewald energy   TEWEN  =    -29958.92630544
  -1/2 Hartree   DENC   =     -6804.48207144
  -V(xc)+E(xc)   XCENC  =      -364.96998856
  PAW double counting   =     27472.11395675   -26023.55254933
  entropy T*S    EENTRO =        -0.01267172
  eigenvalues    EBANDS =      -534.03238036
  atomic energy  EATOM  =     33197.16788402
  ---------------------------------------------------
  free energy    TOTEN  =       -89.75364186 eV

  energy without entropy =      -89.74097015  energy(sigma->0) =      -89.74941796


--------------------------------------------------------------------------------------------------------




----------------------------------------- Iteration    1(  15)  ---------------------------------------


    POTLOK:  VPU time    0.40: CPU time    0.41
    SETDIJ:  VPU time    0.51: CPU time    0.51
    EDDIAG:  VPU time   15.79: CPU time   15.78
  RMM-DIIS:  VPU time   79.98: CPU time   79.96
    ORTHCH:  VPU time    2.93: CPU time    2.93
    DOS   :  VPU time    0.00: CPU time   -0.00
    CHARGE:  VPU time    6.03: CPU time    6.03
    MIXING:  VPU time    0.01: CPU time    0.01
    ------------------------------------------
      LOOP:  VPU time  105.69: CPU time  105.67

 eigenvalue-minimisations  :  8480
 total energy-change (2. order) : 0.6070714E-01  (-0.4470128E-02)
 number of electron  352.0000008 magnetization 
 augmentation part   169.2364333 magnetization 

 Broyden mixing:
  rms(total) = 0.21877E-01    rms(broyden)= 0.21876E-01
  rms(prec ) = 0.33589E-01
  weight for this iteration     100.00

 eigenvalues of (default mixing * dielectric matrix)
  average eigenvalue GAMMA=   1.7436
  2.8201  1.1041  1.3067

 Free energy of the ion-electron system (eV)
  ---------------------------------------------------
  alpha Z        PSCENC =      2926.94048422
  Ewald energy   TEWEN  =    -29958.92630544
  -1/2 Hartree   DENC   =     -6777.84389530
  -V(xc)+E(xc)   XCENC  =      -366.09690065
  PAW double counting   =     27598.19288431   -26169.48271696
  entropy T*S    EENTRO =        -0.01259202
  eigenvalues    EBANDS =      -539.63177691
  atomic energy  EATOM  =     33197.16788402
  ---------------------------------------------------
  free energy    TOTEN  =       -89.69293472 eV

  energy without entropy =      -89.68034270  energy(sigma->0) =      -89.68873738


--------------------------------------------------------------------------------------------------------




----------------------------------------- Iteration    1(  16)  ---------------------------------------


    POTLOK:  VPU time    0.39: CPU time    0.39
    SETDIJ:  VPU time    0.48: CPU time    0.48
    EDDIAG:  VPU time   15.03: CPU time   15.02
  RMM-DIIS:  VPU time   79.69: CPU time   79.67
    ORTHCH:  VPU time    2.91: CPU time    2.91
    DOS   :  VPU time    0.00: CPU time   -0.00
    CHARGE:  VPU time    6.36: CPU time    6.36
    MIXING:  VPU time    0.01: CPU time    0.01
    ------------------------------------------
      LOOP:  VPU time  104.91: CPU time  104.89

 eigenvalue-minimisations  :  8480
 total energy-change (2. order) :-0.4763283E-03  (-0.1230244E-02)
 number of electron  352.0000008 magnetization 
 augmentation part   169.3480508 magnetization 

 Broyden mixing:
  rms(total) = 0.12542E-01    rms(broyden)= 0.12542E-01
  rms(prec ) = 0.18479E-01
  weight for this iteration     100.00

 eigenvalues of (default mixing * dielectric matrix)
  average eigenvalue GAMMA=   1.8162
  2.8193  2.4316  1.0069  1.0069

 Free energy of the ion-electron system (eV)
  ---------------------------------------------------
  alpha Z        PSCENC =      2926.94048422
  Ewald energy   TEWEN  =    -29958.92630544
  -1/2 Hartree   DENC   =     -6768.81692368
  -V(xc)+E(xc)   XCENC  =      -366.44471219
  PAW double counting   =     27609.73110114   -26182.73114781
  entropy T*S    EENTRO =        -0.01272583
  eigenvalues    EBANDS =      -546.60106549
  atomic energy  EATOM  =     33197.16788402
  ---------------------------------------------------
  free energy    TOTEN  =       -89.69341105 eV

  energy without entropy =      -89.68068522  energy(sigma->0) =      -89.68916911


--------------------------------------------------------------------------------------------------------




----------------------------------------- Iteration    1(  17)  ---------------------------------------


    POTLOK:  VPU time    0.39: CPU time    0.39
    SETDIJ:  VPU time    0.54: CPU time    0.54
    EDDIAG:  VPU time   14.90: CPU time   14.90
  RMM-DIIS:  VPU time   72.98: CPU time   72.96
    ORTHCH:  VPU time    2.78: CPU time    2.78
    DOS   :  VPU time    0.00: CPU time   -0.00
    CHARGE:  VPU time    5.51: CPU time    5.51
    MIXING:  VPU time    0.01: CPU time    0.01
    ------------------------------------------
      LOOP:  VPU time   97.16: CPU time   97.15

 eigenvalue-minimisations  :  8480
 total energy-change (2. order) : 0.5923372E-03  (-0.3912823E-04)
 number of electron  352.0000008 magnetization 
 augmentation part   169.3274839 magnetization 

 Broyden mixing:
  rms(total) = 0.30092E-02    rms(broyden)= 0.30091E-02
  rms(prec ) = 0.44363E-02
  weight for this iteration     100.00

 eigenvalues of (default mixing * dielectric matrix)
  average eigenvalue GAMMA=   1.7747
  2.8607  2.3992  1.0265  1.0265  1.5604

 Free energy of the ion-electron system (eV)
  ---------------------------------------------------
  alpha Z        PSCENC =      2926.94048422
  Ewald energy   TEWEN  =    -29958.92630544
  -1/2 Hartree   DENC   =     -6771.99775468
  -V(xc)+E(xc)   XCENC  =      -366.33065590
  PAW double counting   =     27613.90465457   -26185.39242379
  entropy T*S    EENTRO =        -0.01268891
  eigenvalues    EBANDS =      -545.04601280
  atomic energy  EATOM  =     33197.16788402
  ---------------------------------------------------
  free energy    TOTEN  =       -89.69281871 eV

  energy without entropy =      -89.68012980  energy(sigma->0) =      -89.68858907


--------------------------------------------------------------------------------------------------------




----------------------------------------- Iteration    1(  18)  ---------------------------------------


    POTLOK:  VPU time    0.37: CPU time    0.37
    SETDIJ:  VPU time    0.45: CPU time    0.45
    EDDIAG:  VPU time   12.81: CPU time   12.81
  RMM-DIIS:  VPU time   70.38: CPU time   70.38
    ORTHCH:  VPU time    2.72: CPU time    2.72
    DOS   :  VPU time    0.00: CPU time   -0.00
    CHARGE:  VPU time    5.40: CPU time    5.40
    MIXING:  VPU time    0.01: CPU time    0.01
    ------------------------------------------
      LOOP:  VPU time   92.18: CPU time   92.18

 eigenvalue-minimisations  :  8185
 total energy-change (2. order) : 0.3366158E-04  (-0.1133495E-04)
 number of electron  352.0000008 magnetization 
 augmentation part   169.3171044 magnetization 

 Broyden mixing:
  rms(total) = 0.28991E-03    rms(broyden)= 0.28981E-03
  rms(prec ) = 0.39246E-03
  weight for this iteration     100.00

 eigenvalues of (default mixing * dielectric matrix)
  average eigenvalue GAMMA=   1.8390
  2.8213  2.8213  2.3623  0.9669  1.0311  1.0311

 Free energy of the ion-electron system (eV)
  ---------------------------------------------------
  alpha Z        PSCENC =      2926.94048422
  Ewald energy   TEWEN  =    -29958.92630544
  -1/2 Hartree   DENC   =     -6772.61178195
  -V(xc)+E(xc)   XCENC  =      -366.30897139
  PAW double counting   =     27614.67520509   -26186.09688896
  entropy T*S    EENTRO =        -0.01267610
  eigenvalues    EBANDS =      -544.51973454
  atomic energy  EATOM  =     33197.16788402
  ---------------------------------------------------
  free energy    TOTEN  =       -89.69278505 eV

  energy without entropy =      -89.68010895  energy(sigma->0) =      -89.68855968


--------------------------------------------------------------------------------------------------------




----------------------------------------- Iteration    1(  19)  ---------------------------------------


    POTLOK:  VPU time    0.36: CPU time    0.36
    SETDIJ:  VPU time    0.45: CPU time    0.45
    EDDIAG:  VPU time   12.93: CPU time   12.93
  RMM-DIIS:  VPU time   38.71: CPU time   38.72
    ORTHCH:  VPU time    2.75: CPU time    2.75
    DOS   :  VPU time    0.00: CPU time   -0.00
    ------------------------------------------
      LOOP:  VPU time   55.24: CPU time   55.25

 eigenvalue-minimisations  :  3703
 total energy-change (2. order) : 0.6252849E-05  (-0.1401572E-06)
 number of electron  352.0000008 magnetization 
 augmentation part   169.3171044 magnetization 

 Free energy of the ion-electron system (eV)
  ---------------------------------------------------
  alpha Z        PSCENC =      2926.94048422
  Ewald energy   TEWEN  =    -29958.92630544
  -1/2 Hartree   DENC   =     -6772.67697261
  -V(xc)+E(xc)   XCENC  =      -366.30661219
  PAW double counting   =     27614.08124198   -26185.47679061
  entropy T*S    EENTRO =        -0.01267533
  eigenvalues    EBANDS =      -544.48303284
  atomic energy  EATOM  =     33197.16788402
  ---------------------------------------------------
  free energy    TOTEN  =       -89.69277880 eV

  energy without entropy =      -89.68010346  energy(sigma->0) =      -89.68855369


--------------------------------------------------------------------------------------------------------




 average (electrostatic) potential at core
  the test charge radii are     1.1249
  (the norm of the test charge is              1.0000)
       1 -42.0553       2 -42.0553       3 -42.0553       4 -42.0553       5 -42.0553
       6 -42.0553       7 -42.0553       8 -42.0553       9 -42.0553      10 -42.0553
      11 -42.0553      12 -42.0553      13 -42.0553      14 -42.0553      15 -42.0553
      16 -42.0553      17 -42.0553      18 -42.0553      19 -42.0553      20 -42.0553
      21 -42.0553      22 -42.0553      23 -42.0553      24 -42.0553      25 -42.0553
      26 -42.0553      27 -42.0553      28 -42.0553      29 -42.0553      30 -42.0553
      31 -42.0553      32 -42.0553
 
 
 
 E-fermi :   2.4857     XC(G=0): -11.4523     alpha+bet : -7.5000
   add alpha+bet to get absolut eigen values

 k-point   1 :       0.0625    0.0625    0.0625
  band No.  band energies     occupation 
      1      -4.3936      2.00000
      2      -3.2370      2.00000
      3      -3.2370      2.00000
      4      -3.2370      2.00000
      5      -3.2235      2.00000
      6      -3.2137      2.00000
      7      -3.2137      2.00000
      8      -3.2137      2.00000
      9      -3.1442      2.00000
     10      -3.1442      2.00000
     11      -3.1442      2.00000
     12      -2.8871      2.00000
     13      -2.8871      2.00000
     14      -2.8871      2.00000
     15      -2.8029      2.00000
     16      -2.8029      2.00000
     17      -2.8029      2.00000
     18      -2.6393      2.00000
     19      -2.6393      2.00000
     20      -2.6393      2.00000
     21      -2.6356      2.00000
     22      -2.6356      2.00000
     23      -2.6356      2.00000
     24      -2.6356      2.00000
     25      -2.6356      2.00000
     26      -2.6356      2.00000
     27      -2.5237      2.00000
     28      -2.5237      2.00000
     29      -2.5237      2.00000
     30      -2.4350      2.00000
     31      -2.4350      2.00000
     32      -2.4350      2.00000
     33      -2.4139      2.00000
     34      -2.4139      2.00000
     35      -2.4139      2.00000
     36      -2.3981      2.00000
     37      -2.3981      2.00000
     38      -2.3981      2.00000
     39      -2.3981      2.00000
     40      -2.3981      2.00000
     41      -2.3981      2.00000
     42      -2.2697      2.00000
     43      -2.2697      2.00000
     44      -2.2697      2.00000
     45      -2.2697      2.00000
     46      -2.2697      2.00000
     47      -2.2697      2.00000
     48      -2.1976      2.00000
     49      -2.1976      2.00000
     50      -2.1976      2.00000
     51      -2.1948      2.00000
     52      -2.1948      2.00000
     53      -2.1948      2.00000
     54      -2.1948      2.00000
     55      -2.1948      2.00000
     56      -2.1948      2.00000
     57      -2.1525      2.00000
     58      -2.1525      2.00000
     59      -2.1525      2.00000
     60      -2.0313      2.00000
     61      -2.0313      2.00000
     62      -2.0313      2.00000
     63      -2.0313      2.00000
     64      -2.0313      2.00000
     65      -2.0313      2.00000
     66      -1.9838      2.00000
     67      -1.9838      2.00000
     68      -1.9838      2.00000
     69      -1.9711      2.00000
     70      -1.9711      2.00000
     71      -1.9680      2.00000
     72      -1.9632      2.00000
     73      -1.9632      2.00000
     74      -1.9632      2.00000
     75      -1.9554      2.00000
     76      -1.9554      2.00000
     77      -1.8616      2.00000
     78      -1.8616      2.00000
     79      -1.8616      2.00000
     80      -1.8616      2.00000
     81      -1.8616      2.00000
     82      -1.8616      2.00000
     83      -1.8400      2.00000
     84      -1.8400      2.00000
     85      -1.8400      2.00000
     86      -1.8003      2.00000
     87      -1.8003      2.00000
     88      -1.8003      2.00000
     89      -1.4661      2.00000
     90      -1.4661      2.00000
     91      -1.4661      2.00000
     92      -1.4133      2.00000
     93      -1.4133      2.00000
     94      -1.4133      2.00000
     95      -1.4106      2.00000
     96      -1.4106      2.00000
     97      -1.4106      2.00000
     98      -1.4035      2.00000
     99      -1.4035      2.00000
    100      -1.4035      2.00000
    101      -1.4035      2.00000
    102      -1.4035      2.00000
    103      -1.4035      2.00000
    104      -1.3455      2.00000
    105      -1.3455      2.00000
    106      -1.3455      2.00000
    107      -1.2451      2.00000
    108      -1.2451      2.00000
    109      -1.2451      2.00000
    110      -1.1949      2.00000
    111      -1.1949      2.00000
    112      -1.1949      2.00000
    113      -1.1855      2.00000
    114      -1.1855      2.00000
    115      -1.1855      2.00000
    116      -1.1447      2.00000
    117      -1.1447      2.00000
    118      -1.1089      2.00000
    119      -1.1089      2.00000
    120      -1.1089      2.00000
    121      -1.1089      2.00000
    122      -1.1089      2.00000
    123      -1.1089      2.00000
    124      -1.1015      2.00000
    125      -1.1015      2.00000
    126      -1.1015      2.00000
    127      -1.0934      2.00000
    128      -1.0934      2.00000
    129      -1.0934      2.00000
    130      -1.0934      2.00000
    131      -1.0934      2.00000
    132      -1.0934      2.00000
    133      -1.0313      2.00000
    134      -1.0313      2.00000
    135      -1.0313      2.00000
    136      -0.8687      2.00000
    137      -0.8687      2.00000
    138      -0.8687      2.00000
    139      -0.8061      2.00000
    140      -0.8061      2.00000
    141      -0.8061      2.00000
    142      -0.7410      2.00000
    143      -0.7410      2.00000
    144      -0.7410      2.00000
    145      -0.5569      2.00000
    146      -0.5569      2.00000
    147      -0.5569      2.00000
    148      -0.5461      2.00000
    149      -0.5461      2.00000
    150      -0.5461      2.00000
    151      -0.5209      2.00000
    152      -0.5209      2.00000
    153      -0.5081      2.00000
    154      -0.5081      2.00000
    155      -0.5081      2.00000
    156      -0.3753      2.00000
    157      -0.3753      2.00000
    158      -0.3753      2.00000
    159      -0.3552      2.00000
    160      -0.3552      2.00000
    161      -0.3552      2.00000
    162      -0.3552      2.00000
    163      -0.3552      2.00000
    164      -0.3552      2.00000
    165      -0.3530      2.00000
    166      -0.3530      2.00000
    167      -0.3530      2.00000
    168       1.2818      2.00000
    169       1.2818      2.00000
    170       1.2818      2.00000
    171       1.8285      2.00003
    172       1.8285      2.00003
    173       1.8285      2.00003
    174       1.8285      2.00003
    175       1.8285      2.00003
    176       1.8285      2.00003
    177       2.1413      2.03523
    178       2.3916      1.70654
    179       2.3916      1.70654
    180       2.3916      1.70654
    181       2.4155      1.55510
    182       2.4155      1.55510
    183       2.4155      1.55510
    184       4.1407     -0.00000
    185       4.1407     -0.00000
    186       4.1407     -0.00000
    187       5.4310     -0.00000
    188       5.4310     -0.00000
    189       5.4310     -0.00000
    190       5.6740     -0.00000
    191       7.4138     -0.00000
    192       7.4138     -0.00000
    193       7.4138     -0.00000
    194       7.4138     -0.00000
    195       7.4138     -0.00000
    196       7.4139     -0.00000
    197       8.0551      0.00000
    198       8.0551      0.00000
    199       8.0551      0.00000
    200       8.0552      0.00000
    201       8.0554      0.00000
    202       8.0605      0.00000
    203       8.3434      0.00000
    204       8.3443      0.00000
    205       8.3470      0.00000
    206       8.9377      0.00000
    207       8.9380      0.00000
    208       8.9391      0.00000
    209       8.9399      0.00000
    210       8.9613      0.00000
    211      10.0881      0.00000
    212      10.1083      0.00000

 k-point   2 :       0.1875    0.0625    0.0625
  band No.  band energies     occupation 
      1      -4.3202      2.00000
      2      -3.2093      2.00000
      3      -3.2022      2.00000
      4      -3.2022      2.00000
      5      -3.1994      2.00000
      6      -3.1802      2.00000
      7      -3.1802      2.00000
      8      -3.1707      2.00000
      9      -3.1234      2.00000
     10      -3.1112      2.00000
     11      -3.1112      2.00000
     12      -3.1014      2.00000
     13      -2.8435      2.00000
     14      -2.8435      2.00000
     15      -2.8244      2.00000
     16      -2.7624      2.00000
     17      -2.7624      2.00000
     18      -2.7506      2.00000
     19      -2.6994      2.00000
     20      -2.6994      2.00000
     21      -2.6156      2.00000
     22      -2.6156      2.00000
     23      -2.6151      2.00000
     24      -2.6151      2.00000
     25      -2.6064      2.00000
     26      -2.6064      2.00000
     27      -2.5967      2.00000
     28      -2.5627      2.00000
     29      -2.5627      2.00000
     30      -2.5545      2.00000
     31      -2.5044      2.00000
     32      -2.5044      2.00000
     33      -2.4808      2.00000
     34      -2.4808      2.00000
     35      -2.4691      2.00000
     36      -2.4691      2.00000
     37      -2.4374      2.00000
     38      -2.4374      2.00000
     39      -2.4082      2.00000
     40      -2.3930      2.00000
     41      -2.3930      2.00000
     42      -2.3819      2.00000
     43      -2.3819      2.00000
     44      -2.2693      2.00000
     45      -2.2693      2.00000
     46      -2.2677      2.00000
     47      -2.2677      2.00000
     48      -2.2134      2.00000
     49      -2.2134      2.00000
     50      -2.2093      2.00000
     51      -2.2093      2.00000
     52      -2.2090      2.00000
     53      -2.2090      2.00000
     54      -2.1535      2.00000
     55      -2.1363      2.00000
     56      -2.1363      2.00000
     57      -2.1208      2.00000
     58      -2.1208      2.00000
     59      -2.0967      2.00000
     60      -2.0483      2.00000
     61      -2.0483      2.00000
     62      -2.0278      2.00000
     63      -2.0278      2.00000
     64      -2.0063      2.00000
     65      -1.9955      2.00000
     66      -1.9955      2.00000
     67      -1.9906      2.00000
     68      -1.9691      2.00000
     69      -1.9655      2.00000
     70      -1.9655      2.00000
     71      -1.9650      2.00000
     72      -1.9650      2.00000
     73      -1.9546      2.00000
     74      -1.9371      2.00000
     75      -1.9371      2.00000
     76      -1.9333      2.00000
     77      -1.9317      2.00000
     78      -1.9311      2.00000
     79      -1.9050      2.00000
     80      -1.9050      2.00000
     81      -1.8421      2.00000
     82      -1.8421      2.00000
     83      -1.7718      2.00000
     84      -1.7718      2.00000
     85      -1.7189      2.00000
     86      -1.7189      2.00000
     87      -1.6793      2.00000
     88      -1.6623      2.00000
     89      -1.5603      2.00000
     90      -1.5576      2.00000
     91      -1.5576      2.00000
     92      -1.5295      2.00000
     93      -1.4949      2.00000
     94      -1.4870      2.00000
     95      -1.4870      2.00000
     96      -1.4866      2.00000
     97      -1.4337      2.00000
     98      -1.4337      2.00000
     99      -1.4194      2.00000
    100      -1.4194      2.00000
    101      -1.3541      2.00000
    102      -1.3541      2.00000
    103      -1.3499      2.00000
    104      -1.3499      2.00000
    105      -1.3271      2.00000
    106      -1.3271      2.00000
    107      -1.3067      2.00000
    108      -1.3067      2.00000
    109      -1.2999      2.00000
    110      -1.2408      2.00000
    111      -1.2408      2.00000
    112      -1.2052      2.00000
    113      -1.2052      2.00000
    114      -1.1692      2.00000
    115      -1.1331      2.00000
    116      -1.1217      2.00000
    117      -1.1217      2.00000
    118      -1.1145      2.00000
    119      -1.1145      2.00000
    120      -1.1070      2.00000
    121      -1.1070      2.00000
    122      -1.0824      2.00000
    123      -1.0698      2.00000
    124      -1.0490      2.00000
    125      -1.0490      2.00000
    126      -1.0406      2.00000
    127      -0.9955      2.00000
    128      -0.9955      2.00000
    129      -0.9933      2.00000
    130      -0.9933      2.00000
    131      -0.9773      2.00000
    132      -0.9773      2.00000
    133      -0.9486      2.00000
    134      -0.9412      2.00000
    135      -0.9412      2.00000
    136      -0.9290      2.00000
    137      -0.8223      2.00000
    138      -0.8223      2.00000
    139      -0.7983      2.00000
    140      -0.7983      2.00000
    141      -0.7432      2.00000
    142      -0.6629      2.00000
    143      -0.6489      2.00000
    144      -0.6489      2.00000
    145      -0.5813      2.00000
    146      -0.5813      2.00000
    147      -0.5690      2.00000
    148      -0.5628      2.00000
    149      -0.5614      2.00000
    150      -0.5250      2.00000
    151      -0.5231      2.00000
    152      -0.5231      2.00000
    153      -0.5202      2.00000
    154      -0.5202      2.00000
    155      -0.4807      2.00000
    156      -0.4807      2.00000
    157      -0.4165      2.00000
    158      -0.3986      2.00000
    159      -0.3986      2.00000
    160      -0.3980      2.00000
    161      -0.3980      2.00000
    162      -0.3901      2.00000
    163      -0.3552      2.00000
    164      -0.3552      2.00000
    165      -0.3552      2.00000
    166      -0.3552      2.00000
    167      -0.2088      2.00000
    168       0.8050      2.00000
    169       0.8050      2.00000
    170       1.2955      2.00000
    171       1.3265      2.00000
    172       1.3265      2.00000
    173       1.8523      2.00007
    174       1.8523      2.00007
    175       1.8639      2.00010
    176       2.3302      1.96811
    177       2.3302      1.96811
    178       2.4210      1.51668
    179       2.4501      1.29567
    180       2.4501      1.29567
    181       2.6052      0.16232
    182       3.0218     -0.00100
    183       3.0218     -0.00100
    184       3.6152     -0.00000
    185       4.3124     -0.00000
    186       4.3124     -0.00000
    187       5.4531     -0.00000
    188       5.7037     -0.00000
    189       5.7037     -0.00000
    190       6.1144     -0.00000
    191       6.5738     -0.00000
    192       6.5738     -0.00000
    193       6.7753     -0.00000
    194       6.7753     -0.00000
    195       7.1485     -0.00000
    196       7.1486     -0.00000
    197       7.5304     -0.00000
    198       7.5304     -0.00000
    199       8.1707      0.00000
    200       8.1718      0.00000
    201       8.3618      0.00000
    202       8.3678      0.00000
    203       8.5452      0.00000
    204       8.5516      0.00000
    205       8.8679      0.00000
    206       9.0136      0.00000
    207       9.0367      0.00000
    208       9.0738      0.00000
    209       9.2951      0.00000
    210       9.3689      0.00000
    211       9.4093      0.00000
    212       9.5368      0.00000

 k-point   3 :       0.3125    0.0625    0.0625
  band No.  band energies     occupation 
      1      -4.1754      2.00000
      2      -3.3950      2.00000
      3      -3.1558      2.00000
      4      -3.1415      2.00000
      5      -3.1351      2.00000
      6      -3.1351      2.00000
      7      -3.1137      2.00000
      8      -3.1137      2.00000
      9      -3.0960      2.00000
     10      -3.0825      2.00000
     11      -3.0454      2.00000
     12      -3.0454      2.00000
     13      -2.8993      2.00000
     14      -2.8538      2.00000
     15      -2.8056      2.00000
     16      -2.8056      2.00000
     17      -2.7739      2.00000
     18      -2.7625      2.00000
     19      -2.7625      2.00000
     20      -2.7344      2.00000
     21      -2.7344      2.00000
     22      -2.7104      2.00000
     23      -2.6894      2.00000
     24      -2.6894      2.00000
     25      -2.6642      2.00000
     26      -2.6642      2.00000
     27      -2.5820      2.00000
     28      -2.5820      2.00000
     29      -2.5630      2.00000
     30      -2.5630      2.00000
     31      -2.5507      2.00000
     32      -2.5507      2.00000
     33      -2.4950      2.00000
     34      -2.4950      2.00000
     35      -2.4825      2.00000
     36      -2.4825      2.00000
     37      -2.4654      2.00000
     38      -2.4654      2.00000
     39      -2.4447      2.00000
     40      -2.4447      2.00000
     41      -2.3710      2.00000
     42      -2.3710      2.00000
     43      -2.2974      2.00000
     44      -2.2660      2.00000
     45      -2.2660      2.00000
     46      -2.2607      2.00000
     47      -2.2607      2.00000
     48      -2.2529      2.00000
     49      -2.2529      2.00000
     50      -2.2441      2.00000
     51      -2.2441      2.00000
     52      -2.2266      2.00000
     53      -2.2266      2.00000
     54      -2.1355      2.00000
     55      -2.1256      2.00000
     56      -2.1256      2.00000
     57      -2.1006      2.00000
     58      -2.1006      2.00000
     59      -2.0739      2.00000
     60      -2.0739      2.00000
     61      -2.0494      2.00000
     62      -2.0494      2.00000
     63      -2.0463      2.00000
     64      -2.0388      2.00000
     65      -2.0366      2.00000
     66      -2.0296      2.00000
     67      -2.0296      2.00000
     68      -2.0222      2.00000
     69      -2.0222      2.00000
     70      -2.0152      2.00000
     71      -2.0152      2.00000
     72      -1.9773      2.00000
     73      -1.9773      2.00000
     74      -1.9769      2.00000
     75      -1.9141      2.00000
     76      -1.9059      2.00000
     77      -1.9059      2.00000
     78      -1.8883      2.00000
     79      -1.8883      2.00000
     80      -1.8856      2.00000
     81      -1.8847      2.00000
     82      -1.8761      2.00000
     83      -1.7061      2.00000
     84      -1.7061      2.00000
     85      -1.6686      2.00000
     86      -1.6409      2.00000
     87      -1.6409      2.00000
     88      -1.6247      2.00000
     89      -1.6168      2.00000
     90      -1.6168      2.00000
     91      -1.6140      2.00000
     92      -1.6017      2.00000
     93      -1.4957      2.00000
     94      -1.4957      2.00000
     95      -1.4646      2.00000
     96      -1.4536      2.00000
     97      -1.4536      2.00000
     98      -1.4304      2.00000
     99      -1.3782      2.00000
    100      -1.3782      2.00000
    101      -1.3639      2.00000
    102      -1.3587      2.00000
    103      -1.3587      2.00000
    104      -1.2706      2.00000
    105      -1.2706      2.00000
    106      -1.2563      2.00000
    107      -1.2563      2.00000
    108      -1.2342      2.00000
    109      -1.2342      2.00000
    110      -1.2210      2.00000
    111      -1.2210      2.00000
    112      -1.2153      2.00000
    113      -1.2108      2.00000
    114      -1.2108      2.00000
    115      -1.1289      2.00000
    116      -1.1289      2.00000
    117      -1.1105      2.00000
    118      -1.1090      2.00000
    119      -1.1090      2.00000
    120      -1.1007      2.00000
    121      -1.1007      2.00000
    122      -1.0099      2.00000
    123      -1.0099      2.00000
    124      -0.9851      2.00000
    125      -0.9572      2.00000
    126      -0.9496      2.00000
    127      -0.9496      2.00000
    128      -0.9014      2.00000
    129      -0.8899      2.00000
    130      -0.8743      2.00000
    131      -0.8743      2.00000
    132      -0.8715      2.00000
    133      -0.8715      2.00000
    134      -0.8478      2.00000
    135      -0.8478      2.00000
    136      -0.8401      2.00000
    137      -0.8302      2.00000
    138      -0.8302      2.00000
    139      -0.8222      2.00000
    140      -0.8014      2.00000
    141      -0.8014      2.00000
    142      -0.7050      2.00000
    143      -0.6927      2.00000
    144      -0.6927      2.00000
    145      -0.6808      2.00000
    146      -0.6317      2.00000
    147      -0.6290      2.00000
    148      -0.6290      2.00000
    149      -0.5940      2.00000
    150      -0.5772      2.00000
    151      -0.5772      2.00000
    152      -0.5738      2.00000
    153      -0.5738      2.00000
    154      -0.5704      2.00000
    155      -0.4959      2.00000
    156      -0.4795      2.00000
    157      -0.4795      2.00000
    158      -0.4785      2.00000
    159      -0.4785      2.00000
    160      -0.4583      2.00000
    161      -0.3554      2.00000
    162      -0.3554      2.00000
    163      -0.3553      2.00000
    164      -0.3553      2.00000
    165      -0.2245      2.00000
    166      -0.2245      2.00000
    167       0.3896      2.00000
    168       0.3896      2.00000
    169       0.4543      2.00000
    170       0.8778      2.00000
    171       0.8778      2.00000
    172       1.3268      2.00000
    173       1.6388      2.00000
    174       1.9010      2.00029
    175       1.9010      2.00029
    176       2.2041      2.06296
    177       2.2041      2.06296
    178       2.4771      1.07263
[...]
    111      -1.3192      2.00000
    112      -1.3192      2.00000
    113      -1.3172      2.00000
    114      -1.3172      2.00000
    115      -1.3172      2.00000
    116      -1.3090      2.00000
    117      -1.2552      2.00000
    118      -1.2552      2.00000
    119      -1.2552      2.00000
    120      -1.2100      2.00000
    121      -1.2100      2.00000
    122      -1.2100      2.00000
    123      -1.2100      2.00000
    124      -1.2100      2.00000
    125      -1.2100      2.00000
    126      -1.1404      2.00000
    127      -1.1404      2.00000
    128      -1.1404      2.00000
    129      -1.1007      2.00000
    130      -1.1007      2.00000
    131      -1.0871      2.00000
    132      -1.0871      2.00000
    133      -1.0871      2.00000
    134      -1.0727      2.00000
    135      -1.0727      2.00000
    136      -1.0727      2.00000
    137      -1.0008      2.00000
    138      -1.0008      2.00000
    139      -1.0008      2.00000
    140      -0.9539      2.00000
    141      -0.9539      2.00000
    142      -0.9035      2.00000
    143      -0.9035      2.00000
    144      -0.9035      2.00000
    145      -0.4916      2.00000
    146      -0.4916      2.00000
    147      -0.4916      2.00000
    148      -0.4757      2.00000
    149      -0.4757      2.00000
    150      -0.4757      2.00000
    151      -0.4757      2.00000
    152      -0.4757      2.00000
    153      -0.4757      2.00000
    154      -0.4755      2.00000
    155      -0.4755      2.00000
    156      -0.4755      2.00000
    157      -0.4755      2.00000
    158      -0.4755      2.00000
    159      -0.4755      2.00000
    160      -0.4735      2.00000
    161      -0.4735      2.00000
    162      -0.4735      2.00000
    163      -0.4622      2.00000
    164      -0.4622      2.00000
    165      -0.4622      2.00000
    166      -0.4537      2.00000
    167      -0.4537      2.00000
    168      -0.4537      2.00000
    169       2.5848      0.26439
    170       2.5848      0.26439
    171       2.5848      0.26439
    172       2.9191     -0.00898
    173       2.9191     -0.00898
    174       2.9191     -0.00898
    175       2.9191     -0.00898
    176       2.9191     -0.00898
    177       2.9191     -0.00898
    178       3.2101     -0.00000
    179       3.2101     -0.00000
    180       3.2101     -0.00000
    181       3.4355     -0.00000
    182       3.4355     -0.00000
    183       3.4355     -0.00000
    184       3.7881     -0.00000
    185       3.7881     -0.00000
    186       3.7881     -0.00000
    187       3.7881     -0.00000
    188       3.7881     -0.00000
    189       3.7881     -0.00000
    190       4.0988     -0.00000
    191       4.0988     -0.00000
    192       4.0988     -0.00000
    193       7.0686     -0.00000
    194       7.0686     -0.00000
    195       7.0689     -0.00000
    196       7.4146     -0.00000
    197       7.4152     -0.00000
    198       7.4162     -0.00000
    199       7.8418     -0.00000
    200       7.8418     -0.00000
    201       7.8420     -0.00000
    202       7.8430     -0.00000
    203       7.8680     -0.00000
    204       7.8937     -0.00000
    205       8.1957      0.00000
    206       8.1957      0.00000
    207       8.1975      0.00000
    208       8.2136      0.00000
    209       8.2730      0.00000
    210       8.4944      0.00000
    211       8.6350      0.00000
    212       8.7967      0.00000


--------------------------------------------------------------------------------------------------------


 soft charge-density along one line, spin component           1
         0         1         2         3         4         5         6         7         8         9
 total charge-density along one line
 
 pseudopotential strength for first ion, spin component:           1
-12.415   0.000  -0.000   0.000  -0.000   0.177  -0.000   0.000
  0.000 -12.415   0.000   0.000  -0.000  -0.000   0.177  -0.000
 -0.000   0.000 -12.406   0.000  -0.000   0.000  -0.000   0.176
  0.000   0.000   0.000 -12.415   0.000  -0.000  -0.000  -0.000
 -0.000  -0.000  -0.000   0.000 -12.406   0.000   0.000   0.000
  0.177  -0.000   0.000  -0.000   0.000   0.448   0.000  -0.000
 -0.000   0.177  -0.000  -0.000   0.000   0.000   0.448   0.000
  0.000  -0.000   0.176  -0.000   0.000  -0.000   0.000   0.449
 -0.000  -0.000  -0.000   0.177  -0.000   0.000   0.000   0.000
  0.000   0.000   0.000  -0.000   0.176  -0.000  -0.000  -0.000
 -0.000  -0.000  -0.000  -0.000  -0.000   0.000   0.000   0.000
  0.000   0.000   0.000   0.000   0.000  -0.000  -0.000  -0.000
  0.000  -0.000  -0.000   0.000  -0.000  -0.000   0.000   0.000
  0.000   0.000  -0.000   0.000   0.000  -0.000  -0.000   0.000
  0.000   0.000  -0.000  -0.000   0.000  -0.000  -0.000   0.000
 -0.000   0.000   0.000  -0.000   0.000   0.000  -0.000  -0.000
 -0.000  -0.000   0.000  -0.000  -0.000   0.000   0.000  -0.000
 -0.000  -0.000   0.000   0.000  -0.000   0.000   0.000  -0.000
 total augmentation occupancy for first ion, spin component:           1
  1.939  -0.000  -0.001   0.001   0.001  -0.030   0.000   0.000  -0.001  -0.001   0.005  -0.001   0.000   0.000   0.000   0.000
 -0.000   1.946  -0.002  -0.001  -0.000   0.000  -0.037   0.002   0.000  -0.001   0.001  -0.001   0.000   0.000  -0.000   0.000
 -0.001  -0.002   1.969  -0.001   0.002   0.000   0.002  -0.060   0.001  -0.001   0.018   0.001  -0.000  -0.000   0.000  -0.000
  0.001  -0.001  -0.001   1.943   0.001  -0.001   0.000   0.001  -0.032  -0.001   0.004  -0.000  -0.000  -0.000   0.000  -0.000
  0.001  -0.000   0.002   0.001   1.957  -0.001  -0.001  -0.001  -0.001  -0.050  -0.009  -0.001  -0.000   0.000  -0.000  -0.000
 -0.030   0.000   0.000  -0.001  -0.001   0.059  -0.000   0.001   0.000   0.001  -0.002   0.001  -0.000   0.000  -0.000  -0.000
  0.000  -0.037   0.002   0.000  -0.001  -0.000   0.065  -0.003  -0.000   0.001   0.002   0.002  -0.000  -0.000   0.000  -0.000
  0.000   0.002  -0.060   0.001  -0.001   0.001  -0.003   0.054  -0.001   0.000  -0.013   0.001   0.000   0.000  -0.000   0.000
 -0.001   0.000   0.001  -0.032  -0.001   0.000  -0.000  -0.001   0.059  -0.000  -0.002   0.001  -0.000   0.000  -0.000  -0.000
 -0.001  -0.001  -0.001  -0.001  -0.050   0.001   0.001   0.000  -0.000   0.048   0.008   0.000   0.000  -0.000   0.000   0.000
  0.005   0.001   0.018   0.004  -0.009  -0.002   0.002  -0.013  -0.002   0.008   0.985  -0.310   0.000  -0.000   0.000  -0.000
 -0.001  -0.001   0.001  -0.000  -0.001   0.001   0.002   0.001   0.001   0.000  -0.310   0.149  -0.000  -0.000   0.000   0.000
  0.000   0.000  -0.000  -0.000  -0.000  -0.000  -0.000   0.000  -0.000   0.000   0.000  -0.000   0.091  -0.002   0.003  -0.005
  0.000   0.000  -0.000  -0.000   0.000   0.000  -0.000   0.000   0.000  -0.000  -0.000  -0.000  -0.002   0.096   0.001  -0.000
  0.000  -0.000   0.000   0.000  -0.000  -0.000   0.000  -0.000  -0.000   0.000   0.000   0.000   0.003   0.001   0.089  -0.000
  0.000   0.000  -0.000  -0.000  -0.000  -0.000  -0.000   0.000  -0.000   0.000  -0.000   0.000  -0.005  -0.000  -0.000   0.000
 -0.000   0.000   0.000  -0.000   0.000   0.000  -0.000   0.000   0.000  -0.000   0.000   0.000  -0.000  -0.005  -0.000   0.000
  0.000   0.000   0.000   0.000  -0.000  -0.000   0.000  -0.000  -0.000   0.000   0.000  -0.000  -0.000  -0.000  -0.005   0.000


------------------------ aborting loop because EDIFF is reached ----------------------------------------




--------------------------------------------------------------------------------------------------------


    CHARGE:  VPU time    5.44: CPU time    5.44
    FORLOC:  VPU time    0.08: CPU time    0.08
    FORNL :  VPU time   60.79: CPU time   60.77
    STRESS:  VPU time   94.54: CPU time   94.52
    FORCOR:  VPU time    0.43: CPU time    0.43
    FORHAR:  VPU time    0.15: CPU time    0.15
    MIXING:  VPU time    0.01: CPU time    0.01


--------------------------------------------------------------------------------------------------------



  FREE ENERGIE OF THE ION-ELECTRON SYSTEM (eV)
  ---------------------------------------------------
  free  energy   TOTEN  =       -89.692779 eV

  energy  without entropy=      -89.680103  energy(sigma->0) =      -89.688554
 

  FORCE on cell =-STRESS in cart. coord.  units (eV/reduce length):
  Direction    X        Y        Z        XY       YZ       ZX
  --------------------------------------------------------------------------------------
  Alpha Z   2926.94   2926.94   2926.94
  Ewald    -9986.35  -9986.35  -9986.35     -0.00     -0.00     -0.00
  Hartree   2257.56   2257.56   2257.56     -0.00     -0.00     -0.00
  E(xc)    -1855.21  -1855.21  -1855.21     -0.00     -0.00     -0.00
  Local     3090.99   3090.99   3090.99      0.00      0.00      0.00
  n-local  -2146.08  -2141.56  -2135.70      2.59     -0.43      1.33
  augment   1338.60   1338.60   1338.60      0.00      0.00      0.00
  Kinetic   4339.65   4347.21   4357.01      2.15     -3.38      0.30
  -------------------------------------------------------------------------------------
  Total      -20.63    -20.63    -20.63     -0.00     -0.00     -0.00
  in kB      -53.19    -53.19    -53.19     -0.00     -0.00     -0.00
  external pressure =      -53.19 kB  Pullay stress =        0.00 kB


 VOLUME and BASIS-vectors are now :
 -----------------------------------------------------------------------------
  energy-cutoff  :      600.00
  volume of cell :      621.26
      direct lattice vectors                 reciprocal lattice vectors
     8.532798770  0.000000000  0.000000000     0.117194842 -0.000000002 -0.000000002
     0.000000160  8.532798770  0.000000000     0.000000000  0.117194842 -0.000000002
     0.000000160  0.000000160  8.532798770     0.000000000  0.000000000  0.117194842

  length of vectors
     8.532798770  8.532798770  8.532798770     0.117194842  0.117194842  0.117194842


 FORCES acting on ions
    electron-ion (+dipol)            ewald-force                    non-local-force                 convergence-correction
 -----------------------------------------------------------------------------------------------
   0.716E-12 -.173E-10 0.371E-11   0.136E-12 -.577E-13 -.438E-13   -.386E-23 0.720E-23 -.620E-24   0.161E-13 -.222E-13 -.738E-12
   0.689E-12 -.162E-11 -.520E-12   0.897E-13 -.116E-12 -.345E-13   0.444E-23 0.204E-23 -.403E-23   -.775E-13 -.370E-12 0.104E-11
   0.712E-12 -.424E-13 -.691E-11   0.830E-13 -.147E-12 0.480E-13   0.530E-23 0.305E-23 -.186E-23   -.192E-12 -.316E-12 -.202E-12
   0.708E-12 0.437E-11 0.237E-11   0.417E-13 -.342E-13 -.306E-13   0.472E-23 -.614E-23 0.202E-23   -.865E-14 -.276E-13 -.322E-12
   -.440E-13 0.682E-12 0.267E-12   -.823E-13 -.773E-13 -.169E-13   -.970E-24 0.569E-25 -.393E-23   -.308E-13 -.797E-13 -.338E-12
   -.559E-13 -.381E-13 0.469E-12   -.655E-14 0.305E-13 0.458E-13   0.488E-23 0.297E-24 -.269E-23   0.126E-12 -.114E-12 -.431E-12
   0.195E-12 -.146E-11 0.171E-11   0.107E-12 -.404E-13 -.538E-13   0.538E-23 -.128E-23 0.393E-23   -.534E-13 -.332E-13 -.396E-12
   0.694E-12 0.163E-12 0.240E-11   0.113E-12 -.686E-13 -.444E-14   -.144E-23 -.759E-23 0.227E-23   -.113E-14 0.747E-13 -.201E-12
   0.682E-12 -.110E-10 -.721E-12   0.105E-12 0.133E-13 0.414E-13   0.443E-23 0.190E-24 0.186E-23   -.235E-12 0.339E-12 0.665E-12
   0.700E-12 -.147E-11 0.854E-11   0.604E-13 -.364E-13 0.400E-13   0.257E-23 -.240E-23 -.517E-24   -.883E-13 0.355E-12 -.569E-12
   -.570E-13 0.692E-12 0.593E-12   -.257E-14 -.386E-13 -.768E-13   -.249E-23 -.115E-23 0.155E-23   0.292E-12 -.180E-12 -.371E-13
   -.539E-13 -.249E-13 -.657E-13   -.543E-13 -.119E-13 0.931E-14   -.552E-23 -.334E-24 -.445E-23   0.438E-12 -.504E-13 0.767E-12
   -.434E-13 0.202E-12 0.257E-12   0.663E-13 0.280E-13 -.844E-14   0.253E-23 0.504E-24 0.176E-23   0.274E-12 0.524E-13 -.394E-12
   -.420E-13 0.443E-12 0.457E-12   -.276E-13 0.219E-13 0.844E-13   0.798E-23 -.562E-24 0.827E-24   0.131E-12 0.172E-12 -.336E-12
   0.221E-12 0.284E-11 0.107E-11   0.373E-13 -.417E-13 -.360E-13   0.371E-23 -.962E-24 0.517E-24   0.464E-13 -.785E-13 0.729E-12
   0.195E-12 -.820E-14 -.188E-11   -.457E-13 -.318E-13 0.799E-14   -.611E-23 -.737E-24 -.445E-23   0.165E-12 0.166E-14 -.487E-12
   0.200E-12 0.223E-11 0.164E-11   0.164E-13 -.773E-13 -.299E-13   -.492E-24 0.807E-23 -.370E-23   -.146E-13 -.167E-13 -.312E-12
   0.467E-12 -.399E-11 -.399E-12   -.373E-13 0.107E-13 0.249E-13   0.570E-23 0.141E-23 -.361E-23   0.632E-13 0.910E-14 -.454E-12
   0.480E-12 -.141E-13 -.364E-11   0.240E-13 0.332E-13 0.178E-13   -.626E-23 0.573E-24 0.160E-23   -.849E-13 -.761E-13 -.611E-12
   0.682E-12 -.593E-12 -.130E-10   0.338E-13 0.551E-13 0.151E-13   0.743E-23 0.486E-24 0.564E-23   -.218E-13 -.379E-13 0.150E-12
   -.561E-13 0.188E-12 0.608E-12   -.500E-13 0.417E-13 -.400E-13   -.884E-23 -.159E-24 0.724E-24   0.275E-12 0.151E-12 0.504E-13
   -.415E-13 0.432E-12 -.543E-13   -.187E-13 0.719E-13 0.613E-13   0.485E-23 -.106E-23 0.207E-23   0.128E-12 0.928E-13 0.660E-12
   0.213E-12 -.464E-13 0.264E-11   -.262E-13 -.105E-12 -.444E-13   0.397E-23 -.183E-23 0.662E-23   -.295E-13 0.761E-13 0.146E-12
   0.225E-12 -.185E-11 0.113E-11   -.444E-14 0.266E-14 -.675E-13   0.550E-23 -.130E-23 0.297E-24   0.211E-12 0.243E-13 0.669E-12
   0.208E-12 0.420E-12 0.218E-11   -.533E-14 0.865E-13 0.560E-13   0.941E-23 -.212E-23 0.352E-23   0.618E-13 0.599E-13 -.533E-12
   0.479E-12 0.364E-11 0.639E-11   -.235E-13 0.112E-12 -.435E-13   -.575E-23 -.135E-23 0.127E-23   -.258E-12 -.216E-12 0.425E-13
   0.480E-12 0.113E-12 0.295E-11   -.205E-12 -.274E-13 -.133E-13   -.992E-25 0.443E-23 0.341E-23   -.399E-12 0.125E-12 0.972E-12
   0.469E-12 -.347E-11 -.702E-12   -.725E-13 -.409E-13 0.888E-15   0.753E-23 0.415E-23 -.496E-23   -.248E-12 -.551E-13 -.640E-12
   0.469E-12 -.343E-11 -.332E-11   -.511E-13 0.112E-12 0.396E-13   0.773E-24 0.137E-23 0.150E-23   -.970E-13 0.151E-12 -.402E-12
   0.227E-12 0.454E-12 -.144E-11   -.320E-13 0.221E-13 0.266E-14   0.354E-23 0.263E-23 0.620E-24   -.307E-14 -.147E-13 0.177E-12
   0.481E-12 -.279E-11 -.171E-11   -.166E-12 0.462E-13 -.675E-13   0.743E-23 -.246E-23 0.140E-23   -.250E-12 0.174E-12 0.257E-12
   0.469E-12 -.357E-11 0.224E-11   -.110E-12 0.674E-13 0.247E-13   -.479E-23 0.845E-23 -.698E-24   -.952E-13 -.519E-13 0.724E-12
 -----------------------------------------------------------------------------------------------
   0.107E-10 -.358E-10 0.722E-11   -.106E-12 -.198E-12 -.919E-13   0.555E-22 0.135E-22 0.788E-23   0.396E-13 0.118E-12 -.360E-12
 
 
 POSITION                                       TOTAL-FORCE (eV/Angst)
 -----------------------------------------------------------------------------------
      6.39960      6.39960      4.26640         0.000000      0.000000      0.000000
      6.39960      6.39960      0.00000         0.000000      0.000000      0.000000
      6.39960      0.00000      2.13320         0.000000      0.000000     -0.000000
      6.39960      2.13320      4.26640        -0.000000      0.000000      0.000000
      0.00000      6.39960      2.13320         0.000000     -0.000000     -0.000000
      0.00000      0.00000      4.26640         0.000000     -0.000000     -0.000000
      2.13320      6.39960      4.26640        -0.000000      0.000000      0.000000
      6.39960      0.00000      6.39960         0.000000     -0.000000      0.000000
      6.39960      2.13320      0.00000        -0.000000     -0.000000     -0.000000
      6.39960      4.26640      2.13320         0.000000      0.000000     -0.000000
      0.00000      6.39960      6.39960        -0.000000     -0.000000      0.000000
      0.00000      0.00000      0.00000        -0.000000      0.000000     -0.000000
      0.00000      2.13320      2.13320         0.000000     -0.000000     -0.000000
      0.00000      4.26640      4.26640         0.000000      0.000000      0.000000
      2.13320      6.39960      0.00000         0.000000      0.000000      0.000000
      2.13320      0.00000      2.13320         0.000000      0.000000     -0.000000
      2.13320      2.13320      4.26640         0.000000      0.000000     -0.000000
      4.26640      6.39960      2.13320        -0.000000      0.000000      0.000000
      4.26640      0.00000      4.26640        -0.000000     -0.000000      0.000000
      6.39960      4.26640      6.39960        -0.000000      0.000000      0.000000
      0.00000      2.13320      6.39960        -0.000000     -0.000000     -0.000000
      0.00000      4.26640      0.00000        -0.000000     -0.000000      0.000000
      2.13320      0.00000      6.39960        -0.000000     -0.000000      0.000000
      2.13320      2.13320      0.00000        -0.000000     -0.000000      0.000000
      2.13320      4.26640      2.13320         0.000000      0.000000     -0.000000
      4.26640      6.39960      6.39960        -0.000000      0.000000      0.000000
      4.26640      0.00000      0.00000         0.000000     -0.000000      0.000000
      4.26640      2.13320      2.13320         0.000000      0.000000      0.000000
      4.26640      4.26640      4.26640         0.000000      0.000000     -0.000000
      2.13320      4.26640      6.39960         0.000000     -0.000000     -0.000000
      4.26640      2.13320      6.39960        -0.000000     -0.000000      0.000000
      4.26640      4.26640      0.00000         0.000000      0.000000      0.000000
 -----------------------------------------------------------------------------------
    total drift:                                0.000000     -0.000000      0.000000


--------------------------------------------------------------------------------------------------------




--------------------------------------------------------------------------------------------------------


  
 reached required accuracy - stopping structural energy minimisation
 writing wavefunctions
     LOOP+:  VPU time 1756.22: CPU time 1761.85

 ----------------------------------------------------------------------------- 
|                                                                             |
|           W    W    AA    RRRRR   N    N  II  N    N   GGGG   !!!           |
|           W    W   A  A   R    R  NN   N  II  NN   N  G    G  !!!           |
|           W    W  A    A  R    R  N N  N  II  N N  N  G       !!!           |
|           W WW W  AAAAAA  RRRRR   N  N N  II  N  N N  G  GGG   !            |
|           WW  WW  A    A  R   R   N   NN  II  N   NN  G    G                |
|           W    W  A    A  R    R  N    N  II  N    N   GGGG   !!!           |
|                                                                             |
|      The partial DOS and the PROCAR file are not evaluated for NPAR/=1      |
|      please rerun with NPAR=1                                               |
|                                                                             |
 ----------------------------------------------------------------------------- 

  
  
 General timing and accounting informations for this job:
 ========================================================
  
                  Total CPU time used (sec):     1783.053
                            User time (sec):     1726.298
                          System time (sec):       56.755
                         Elapsed time (sec):     1788.668
  
                   Maximum memory used (kb):     2004340.
                   Average memory used (kb):           0.
  
                          Minor page faults:       407334
                          Major page faults:            0
                 Voluntary context switches:        45046
