   4   4   0   0
  0.1908118E+02  0.4241848E-09  0.4241848E-09  0.4241848E-09  0.5000000E-15
  1.000000000000000E-004
  CAR 
 unknown system                          
     17.67950180     -4.61749500  301      6.55079933      1.00000000
     -4.617  0.0000E+00  0.0000E+00
     -4.543  0.0000E+00  0.0000E+00
     -4.469  0.0000E+00  0.0000E+00
     -4.395  0.0000E+00  0.0000E+00
     -4.320  0.0000E+00  0.0000E+00
     -4.246  0.0000E+00  0.0000E+00
     -4.172  0.0000E+00  0.0000E+00
     -4.097  0.0000E+00  0.0000E+00
     -4.023  0.0000E+00  0.0000E+00
     -3.949  0.0000E+00  0.0000E+00
     -3.874  0.0000E+00  0.0000E+00
     -3.800  0.0000E+00  0.0000E+00
     -3.726  0.0000E+00  0.0000E+00
     -3.651  0.6548E-14  0.4867E-15
     -3.577  0.2120E-01  0.1576E-02
     -3.503  0.1291E+00  0.1123E-01
     -3.428  0.2026E+00  0.2637E-01
     -3.354  0.2356E+00  0.4409E-01
     -3.280  0.2817E+00  0.6536E-01
     -3.205  0.3139E+00  0.8930E-01
     -3.131  0.3582E+00  0.1161E+00
     -3.057  0.3738E+00  0.1440E+00
     -2.982  0.3816E+00  0.1726E+00
     -2.908  0.4696E+00  0.2079E+00
     -2.834  0.4318E+00  0.2401E+00
     -2.759  0.5043E+00  0.2777E+00
     -2.685  0.4418E+00  0.3108E+00
     -2.611  0.5823E+00  0.3543E+00
     -2.536  0.4987E+00  0.3915E+00
     -2.462  0.5868E+00  0.4352E+00
     -2.388  0.5411E+00  0.4759E+00
     -2.313  0.6274E+00  0.5226E+00
     -2.239  0.6118E+00  0.5688E+00
     -2.165  0.6319E+00  0.6159E+00
     -2.091  0.6621E+00  0.6654E+00
     -2.016  0.7073E+00  0.7184E+00
     -1.942  0.6254E+00  0.7656E+00
     -1.868  0.7352E+00  0.8209E+00
     -1.793  0.6536E+00  0.8707E+00
     -1.719  0.7835E+00  0.9297E+00
     -1.645  0.7196E+00  0.9838E+00
     -1.570  0.7092E+00  0.1037E+01
     -1.496  0.8034E+00  0.1098E+01
     -1.422  0.8172E+00  0.1159E+01
     -1.347  0.7587E+00  0.1216E+01
     -1.273  0.7842E+00  0.1276E+01
     -1.199  0.8763E+00  0.1343E+01
     -1.124  0.7926E+00  0.1402E+01
     -1.050  0.8920E+00  0.1469E+01
     -0.976  0.8406E+00  0.1532E+01
     -0.901  0.9316E+00  0.1601E+01
     -0.827  0.8438E+00  0.1664E+01
     -0.753  0.9271E+00  0.1734E+01
     -0.678  0.9139E+00  0.1803E+01
     -0.604  0.9094E+00  0.1871E+01
     -0.530  0.9481E+00  0.1941E+01
     -0.455  0.9692E+00  0.2014E+01
     -0.381  0.9252E+00  0.2084E+01
     -0.307  0.1022E+01  0.2160E+01
     -0.232  0.9662E+00  0.2233E+01
     -0.158  0.1081E+01  0.2313E+01
     -0.084  0.9428E+00  0.2383E+01
     -0.009  0.1070E+01  0.2463E+01
      0.065  0.9873E+00  0.2537E+01
      0.139  0.1176E+01  0.2624E+01
      0.214  0.9172E+00  0.2693E+01
      0.288  0.1096E+01  0.2774E+01
      0.362  0.1151E+01  0.2860E+01
      0.436  0.1051E+01  0.2939E+01
      0.511  0.1121E+01  0.3022E+01
      0.585  0.1164E+01  0.3109E+01
      0.659  0.1053E+01  0.3188E+01
      0.734  0.1233E+01  0.3279E+01
      0.808  0.1088E+01  0.3361E+01
      0.882  0.1194E+01  0.3450E+01
      0.957  0.1079E+01  0.3531E+01
      1.031  0.1261E+01  0.3625E+01
      1.105  0.1128E+01  0.3710E+01
      1.180  0.1191E+01  0.3799E+01
      1.254  0.1269E+01  0.3893E+01
      1.328  0.1158E+01  0.3981E+01
      1.403  0.1201E+01  0.4071E+01
      1.477  0.1384E+01  0.4175E+01
      1.551  0.1221E+01  0.4266E+01
      1.626  0.1135E+01  0.4352E+01
      1.700  0.1310E+01  0.4450E+01
      1.774  0.1278E+01  0.4546E+01
      1.849  0.1303E+01  0.4644E+01
      1.923  0.1278E+01  0.4741E+01
      1.997  0.1171E+01  0.4829E+01
      2.072  0.1485E+01  0.4941E+01
      2.146  0.1234E+01  0.5035E+01
      2.220  0.1362E+01  0.5137E+01
      2.295  0.1320E+01  0.5237E+01
      2.369  0.1232E+01  0.5330E+01
      2.443  0.1525E+01  0.5444E+01
      2.518  0.1279E+01  0.5540E+01
      2.592  0.1487E+01  0.5651E+01
      2.666  0.1214E+01  0.5742E+01
      2.741  0.1456E+01  0.5850E+01
      2.815  0.1416E+01  0.5957E+01
      2.889  0.1481E+01  0.6067E+01
      2.963  0.1358E+01  0.6168E+01
      3.038  0.1507E+01  0.6282E+01
      3.112  0.1389E+01  0.6386E+01
      3.186  0.1458E+01  0.6496E+01
      3.261  0.1469E+01  0.6607E+01
      3.335  0.1502E+01  0.6720E+01
      3.409  0.1496E+01  0.6833E+01
      3.484  0.1419E+01  0.6940E+01
      3.558  0.1447E+01  0.7049E+01
      3.632  0.1742E+01  0.7179E+01
      3.707  0.1434E+01  0.7286E+01
      3.781  0.1680E+01  0.7412E+01
      3.855  0.1339E+01  0.7512E+01
      3.930  0.1804E+01  0.7647E+01
      4.004  0.1663E+01  0.7772E+01
      4.078  0.1508E+01  0.7886E+01
      4.153  0.1778E+01  0.8021E+01
      4.227  0.1612E+01  0.8143E+01
      4.301  0.1612E+01  0.8264E+01
      4.376  0.1619E+01  0.8387E+01
      4.450  0.1484E+01  0.8498E+01
      4.524  0.1672E+01  0.8623E+01
      4.599  0.1637E+01  0.8747E+01
      4.673  0.1341E+01  0.8848E+01
      4.747  0.1673E+01  0.8973E+01
      4.822  0.1464E+01  0.9082E+01
      4.896  0.1581E+01  0.9201E+01
      4.970  0.1556E+01  0.9318E+01
      5.045  0.1391E+01  0.9423E+01
      5.119  0.1565E+01  0.9540E+01
      5.193  0.1753E+01  0.9671E+01
      5.268  0.1547E+01  0.9787E+01
      5.342  0.1586E+01  0.9906E+01
      5.416  0.1614E+01  0.1003E+02
      5.490  0.1615E+01  0.1015E+02
      5.565  0.1836E+01  0.1029E+02
      5.639  0.1475E+01  0.1040E+02
      5.713  0.1820E+01  0.1053E+02
      5.788  0.1629E+01  0.1066E+02
      5.862  0.1625E+01  0.1078E+02
      5.936  0.1769E+01  0.1091E+02
      6.011  0.1612E+01  0.1103E+02
      6.085  0.1841E+01  0.1117E+02
      6.159  0.1781E+01  0.1130E+02
      6.234  0.1743E+01  0.1143E+02
      6.308  0.1614E+01  0.1156E+02
      6.382  0.1617E+01  0.1168E+02
      6.457  0.1937E+01  0.1182E+02
      6.531  0.1888E+01  0.1196E+02
      6.605  0.1751E+01  0.1210E+02
      6.680  0.1638E+01  0.1222E+02
      6.754  0.1890E+01  0.1236E+02
      6.828  0.1742E+01  0.1249E+02
      6.903  0.1801E+01  0.1263E+02
      6.977  0.1849E+01  0.1277E+02
      7.051  0.1711E+01  0.1290E+02
      7.126  0.1965E+01  0.1304E+02
      7.200  0.1806E+01  0.1318E+02
      7.274  0.1922E+01  0.1332E+02
      7.349  0.1648E+01  0.1345E+02
      7.423  0.1836E+01  0.1359E+02
      7.497  0.2046E+01  0.1374E+02
      7.572  0.1915E+01  0.1389E+02
      7.646  0.1736E+01  0.1402E+02
      7.720  0.1938E+01  0.1416E+02
      7.794  0.1785E+01  0.1430E+02
      7.869  0.1924E+01  0.1444E+02
      7.943  0.2113E+01  0.1460E+02
      8.017  0.1759E+01  0.1473E+02
      8.092  0.1842E+01  0.1487E+02
      8.166  0.2136E+01  0.1503E+02
      8.240  0.1888E+01  0.1517E+02
      8.315  0.1919E+01  0.1532E+02
      8.389  0.1839E+01  0.1546E+02
      8.463  0.2017E+01  0.1561E+02
      8.538  0.2108E+01  0.1577E+02
      8.612  0.2035E+01  0.1592E+02
      8.686  0.1980E+01  0.1607E+02
      8.761  0.1780E+01  0.1620E+02
      8.835  0.2026E+01  0.1635E+02
      8.909  0.2134E+01  0.1651E+02
      8.984  0.1983E+01  0.1666E+02
      9.058  0.2128E+01  0.1682E+02
      9.132  0.1915E+01  0.1697E+02
      9.207  0.2134E+01  0.1713E+02
      9.281  0.2088E+01  0.1728E+02
      9.355  0.2040E+01  0.1744E+02
      9.430  0.1865E+01  0.1758E+02
      9.504  0.2177E+01  0.1774E+02
      9.578  0.2355E+01  0.1792E+02
      9.653  0.1960E+01  0.1807E+02
      9.727  0.2124E+01  0.1822E+02
      9.801  0.2005E+01  0.1838E+02
      9.876  0.2196E+01  0.1854E+02
      9.950  0.2067E+01  0.1870E+02
     10.024  0.2174E+01  0.1886E+02
     10.099  0.2302E+01  0.1903E+02
     10.173  0.2010E+01  0.1918E+02
     10.247  0.2179E+01  0.1935E+02
     10.321  0.2195E+01  0.1951E+02
     10.396  0.2207E+01  0.1968E+02
     10.470  0.2113E+01  0.1984E+02
     10.544  0.2363E+01  0.2001E+02
     10.619  0.2027E+01  0.2017E+02
     10.693  0.2291E+01  0.2034E+02
     10.767  0.2512E+01  0.2053E+02
     10.842  0.2231E+01  0.2069E+02
     10.916  0.2198E+01  0.2086E+02
     10.990  0.2202E+01  0.2103E+02
     11.065  0.2277E+01  0.2120E+02
     11.139  0.2302E+01  0.2137E+02
     11.213  0.2512E+01  0.2156E+02
     11.288  0.2416E+01  0.2174E+02
     11.362  0.2197E+01  0.2191E+02
     11.436  0.2557E+01  0.2210E+02
     11.511  0.2602E+01  0.2229E+02
     11.585  0.2503E+01  0.2248E+02
     11.659  0.2339E+01  0.2266E+02
     11.734  0.2740E+01  0.2286E+02
     11.808  0.2659E+01  0.2306E+02
     11.882  0.2358E+01  0.2324E+02
     11.957  0.2613E+01  0.2344E+02
     12.031  0.2356E+01  0.2361E+02
     12.105  0.2491E+01  0.2380E+02
     12.180  0.2387E+01  0.2398E+02
     12.254  0.2328E+01  0.2416E+02
     12.328  0.2324E+01  0.2433E+02
     12.403  0.2451E+01  0.2452E+02
     12.477  0.2320E+01  0.2469E+02
     12.551  0.2295E+01  0.2486E+02
     12.626  0.2342E+01  0.2504E+02
     12.700  0.2181E+01  0.2520E+02
     12.774  0.2478E+01  0.2539E+02
     12.848  0.2145E+01  0.2555E+02
     12.923  0.2248E+01  0.2572E+02
     12.997  0.2314E+01  0.2589E+02
     13.071  0.2220E+01  0.2606E+02
     13.146  0.2377E+01  0.2624E+02
     13.220  0.2118E+01  0.2640E+02
     13.294  0.2157E+01  0.2656E+02
     13.369  0.2246E+01  0.2673E+02
     13.443  0.2139E+01  0.2689E+02
     13.517  0.2658E+01  0.2709E+02
     13.592  0.1993E+01  0.2724E+02
     13.666  0.2118E+01  0.2740E+02
     13.740  0.2698E+01  0.2760E+02
     13.815  0.2042E+01  0.2776E+02
     13.889  0.2125E+01  0.2792E+02
     13.963  0.2396E+01  0.2810E+02
     14.038  0.1980E+01  0.2824E+02
     14.112  0.2331E+01  0.2842E+02
     14.186  0.2286E+01  0.2859E+02
     14.261  0.2194E+01  0.2876E+02
     14.335  0.2192E+01  0.2892E+02
     14.409  0.1978E+01  0.2907E+02
     14.484  0.2399E+01  0.2925E+02
     14.558  0.2025E+01  0.2940E+02
     14.632  0.2022E+01  0.2956E+02
     14.707  0.1990E+01  0.2971E+02
     14.781  0.1959E+01  0.2985E+02
     14.855  0.2335E+01  0.3003E+02
     14.930  0.1713E+01  0.3016E+02
     15.004  0.2030E+01  0.3031E+02
     15.078  0.1549E+01  0.3043E+02
     15.153  0.1871E+01  0.3057E+02
     15.227  0.1608E+01  0.3069E+02
     15.301  0.1404E+01  0.3079E+02
     15.375  0.1542E+01  0.3091E+02
     15.450  0.1208E+01  0.3100E+02
     15.524  0.1253E+01  0.3109E+02
     15.598  0.1220E+01  0.3119E+02
     15.673  0.1366E+01  0.3129E+02
     15.747  0.1024E+01  0.3136E+02
     15.821  0.1037E+01  0.3144E+02
     15.896  0.1041E+01  0.3152E+02
     15.970  0.1079E+01  0.3160E+02
     16.044  0.8471E+00  0.3167E+02
     16.119  0.8303E+00  0.3173E+02
     16.193  0.8556E+00  0.3179E+02
     16.267  0.7174E+00  0.3185E+02
     16.342  0.5883E+00  0.3189E+02
     16.416  0.4866E+00  0.3193E+02
     16.490  0.4028E+00  0.3196E+02
     16.565  0.3263E+00  0.3198E+02
     16.639  0.1498E+00  0.3199E+02
     16.713  0.8291E-01  0.3200E+02
     16.788  0.0000E+00  0.3200E+02
     16.862  0.0000E+00  0.3200E+02
     16.936  0.0000E+00  0.3200E+02
     17.011  0.0000E+00  0.3200E+02
     17.085  0.0000E+00  0.3200E+02
     17.159  0.0000E+00  0.3200E+02
     17.234  0.0000E+00  0.3200E+02
     17.308  0.0000E+00  0.3200E+02
     17.382  0.0000E+00  0.3200E+02
     17.457  0.0000E+00  0.3200E+02
     17.531  0.0000E+00  0.3200E+02
     17.605  0.0000E+00  0.3200E+02
     17.680  0.0000E+00  0.3200E+02
