    4    4    1    1
  0.1908118E+02  0.4241848E-09  0.4241848E-09  0.4241848E-09  0.5000000E-15
  1.000000000000000E-004
  CAR 
 unknown system                          
   12 1330   16
 
  0.0000000E+00  0.0000000E+00  0.0000000E+00  0.2143347E-04
   1       -3.6040
   2        3.9908
   3        3.9908
   4        3.9908
   5        4.9498
   6        4.9498
   7        4.9498
   8       11.5256
   9       11.5256
  10       11.5256
  11       11.5256
  12       11.5256
  13       11.5256
  14       11.7819
  15       11.7819
  16       11.7819
 
  0.2777778E-01  0.0000000E+00  0.0000000E+00  0.1286008E-03
   1       -3.5977
   2        3.8260
   3        3.9967
   4        3.9967
   5        4.9560
   6        4.9560
   7        5.1257
   8       11.2149
   9       11.2149
  10       11.4698
  11       11.4698
  12       11.5311
  13       11.5311
  14       11.7882
  15       12.1044
  16       12.1044
 
  0.5555556E-01  0.0000000E+00  0.0000000E+00  0.1286008E-03
   1       -3.5786
   2        3.4929
   3        4.0144
   4        4.0144
   5        4.9747
   6        4.9747
   7        5.4924
   8       10.8159
   9       10.8159
  10       11.3157
  11       11.3157
  12       11.5477
  13       11.5477
  14       11.8069
  15       12.5385
  16       12.5385
 
  0.8333333E-01  0.0000000E+00  0.0000000E+00  0.1286008E-03
   1       -3.5469
   2        3.1203
   3        4.0439
   4        4.0439
   5        5.0060
   6        5.0060
   7        5.9208
   8       10.4227
   9       10.4227
  10       11.0918
  11       11.0918
  12       11.5753
  13       11.5753
  14       11.8382
  15       12.9903
  16       12.9903
 
  0.1111111E+00  0.0000000E+00  0.0000000E+00  0.1286008E-03
   1       -3.5025
   2        2.7415
   3        4.0851
   4        4.0851
   5        5.0496
   6        5.0496
   7        6.3778
   8       10.0396
   9       10.0396
  10       10.8249
  11       10.8249
  12       11.6140
  13       11.6140
  14       11.8819
  15       13.4553
  16       13.4553
 
  0.1388889E+00  0.0000000E+00  0.0000000E+00  0.1286008E-03
   1       -3.4454
   2        2.3664
   3        4.1382
   4        4.1382
   5        5.1058
   6        5.1058
   7        6.8532
   8        9.6677
   9        9.6677
  10       10.5339
  11       10.5339
  12       11.6637
  13       11.6637
  14       11.9381
  15       13.9325
  16       13.9325
 
  0.1666667E+00  0.0000000E+00  0.0000000E+00  0.1286008E-03
   1       -3.3757
   2        1.9989
   3        4.2030
   4        4.2030
   5        5.1743
   6        5.1743
   7        7.3434
   8        9.3073
   9        9.3073
  10       10.2309
  11       10.2309
  12       11.7245
  13       11.7245
  14       12.0068
  15       14.4214
  16       14.4215
 
  0.1944444E+00  0.0000000E+00  0.0000000E+00  0.1286008E-03
   1       -3.2933
   2        1.6406
   3        4.2797
   4        4.2797
   5        5.2552
   6        5.2552
   7        7.8464
   8        8.9586
   9        8.9586
  10        9.9235
  11        9.9235
  12       11.7963
  13       11.7963
  14       12.0880
  15       14.6898
  16       14.9219
 
  0.2222222E+00  0.0000000E+00  0.0000000E+00  0.1286008E-03
   1       -3.1983
   2        1.2925
   3        4.3681
   4        4.3681
   5        5.3484
   6        5.3484
   7        8.3614
   8        8.6216
   9        8.6216
  10        9.6164
  11        9.6164
  12       11.8792
  13       11.8792
  14       12.1815
  15       14.7759
  16       15.4338
 
  0.2500000E+00  0.0000000E+00  0.0000000E+00  0.1286008E-03
   1       -3.0907
   2        0.9551
   3        4.4684
   4        4.4684
   5        5.4539
   6        5.4539
   7        8.2964
   8        8.2964
   9        8.8875
  10        9.3126
  11        9.3126
  12       11.9732
  13       11.9732
  14       12.2875
  15       14.8731
  16       15.5457
 
  0.2777778E+00  0.0000000E+00  0.0000000E+00  0.1286008E-03
   1       -2.9705
   2        0.6288
   3        4.5805
   4        4.5805
   5        5.5716
   6        5.5716
   7        7.9831
   8        7.9831
   9        9.0143
  10        9.0143
  11        9.4243
  12       12.0781
  13       12.0781
  14       12.4058
  15       14.9812
  16       15.2549
 
  0.3055556E+00  0.0000000E+00  0.0000000E+00  0.1286008E-03
   1       -2.8378
   2        0.3140
   3        4.7043
   4        4.7043
   5        5.7015
   6        5.7015
   7        7.6815
   8        7.6815
   9        8.7230
  10        8.7230
  11        9.9714
  12       12.1942
  13       12.1942
  14       12.5365
  15       14.9747
  16       14.9747
 
  0.3333333E+00  0.0000000E+00  0.0000000E+00  0.1286008E-03
   1       -2.6925
   2        0.0106
   3        4.8400
   4        4.8400
   5        5.8434
   6        5.8434
   7        7.3918
   8        7.3918
   9        8.4398
  10        8.4398
  11       10.5283
  12       12.3213
  13       12.3213
  14       12.6794
  15       14.7052
  16       14.7052
 
  0.3611111E+00  0.0000000E+00  0.0000000E+00  0.1286008E-03
   1       -2.5348
   2       -0.2811
   3        4.9876
   4        4.9876
   5        5.9972
   6        5.9972
   7        7.1140
   8        7.1140
   9        8.1654
  10        8.1654
  11       11.0946
  12       12.4594
  13       12.4594
  14       12.8346
  15       14.4464
  16       14.4464
 
  0.3888889E+00  0.0000000E+00  0.0000000E+00  0.1286008E-03
   1       -2.3646
   2       -0.5609
   3        5.1469
   4        5.1469
   5        6.1629
   6        6.1629
   7        6.8480
   8        6.8480
   9        7.9005
  10        7.9005
  11       11.6697
  12       12.6086
  13       12.6086
  14       13.0020
  15       14.1984
  16       14.1984
 
  0.4166667E+00  0.0000000E+00  0.0000000E+00  0.1286008E-03
   1       -2.1820
   2       -0.8288
   3        5.3181
   4        5.3181
   5        6.3403
   6        6.3403
   7        6.5939
   8        6.5939
   9        7.6457
  10        7.6457
  11       12.2528
  12       12.7688
  13       12.7688
  14       13.1815
  15       13.9613
  16       13.9613
 
  0.4444444E+00  0.0000000E+00  0.0000000E+00  0.1286008E-03
   1       -1.9871
   2       -1.0848
   3        5.5011
   4        5.5011
   5        6.3516
   6        6.3516
   7        6.5292
   8        6.5292
   9        7.4013
  10        7.4013
  11       12.8431
  12       12.9401
  13       12.9401
  14       13.3729
  15       13.7352
  16       13.7352
 
  0.4722222E+00  0.0000000E+00  0.0000000E+00  0.1286008E-03
   1       -1.7799
   2       -1.3286
   3        5.6960
   4        5.6960
   5        6.1212
   6        6.1212
   7        6.7289
   8        6.7289
   9        7.1683
  10        7.1683
  11       13.1224
  12       13.1224
  13       13.4388
  14       13.5199
  15       13.5199
  16       13.5763
 
  0.5000000E+00  0.0000000E+00  0.0000000E+00  0.6430041E-04
   1       -1.5603
   2       -1.5603
   3        5.9027
   4        5.9027
   5        5.9027
   6        5.9027
   7        6.9127
   8        6.9127
   9        6.9732
  10        6.9732
  11       13.3156
  12       13.3156
  13       13.3156
  14       13.3156
  15       13.7914
  16       13.7914
 
  0.2777778E-01  0.2777778E-01  0.0000000E+00  0.2572016E-03
   1       -3.5913
   2        3.8320
   3        3.8320
   4        4.0026
   5        4.9623
   6        5.1319
   7        5.1319
   8       10.9838
   9       11.2207
  10       11.2207
  11       11.4754
  12       11.4754
  13       11.5367
  14       12.1103
  15       12.1103
  16       12.2218
 
  0.5555556E-01  0.2777778E-01  0.0000000E+00  0.5144033E-03
   1       -3.5723
   2        3.4989
   3        3.8498
   4        4.0203
   5        4.9810
   6        5.1505
   7        5.4985
   8       10.6232
   9       10.8218
  10       11.2381
  11       11.3213
  12       11.4525
  13       11.4920
  14       12.1283
  15       12.5410
  16       12.5444
 
  0.8333333E-01  0.2777778E-01  0.0000000E+00  0.5144033E-03
   1       -3.5405
   2        3.1263
   3        3.8796
   4        4.0498
   5        5.0122
   6        5.1814
   7        5.9269
   8       10.2483
   9       10.4285
  10       11.0974
  11       11.2467
  12       11.2670
  13       11.5197
  14       12.1582
  15       12.9488
  16       12.9962
 
  0.1111111E+00  0.2777778E-01  0.0000000E+00  0.5144033E-03
   1       -3.4961
   2        2.7476
   3        3.9212
   4        4.0910
   5        5.0559
   6        5.2247
   7        6.3838
   8        9.8756
   9       10.0455
  10       10.8305
  11       10.9839
  12       11.3075
  13       11.5585
  14       12.2002
  15       13.3926
  16       13.4612
 
  0.1388889E+00  0.2777778E-01  0.0000000E+00  0.5144033E-03
   1       -3.4390
   2        2.3725
   3        3.9748
   4        4.1441
   5        5.1120
   6        5.2803
   7        6.8592
   8        9.5101
   9        9.6736
  10       10.5396
  11       10.6933
  12       11.3595
  13       11.6083
  14       12.2541
  15       13.8573
  16       13.9384
 
  0.1666667E+00  0.2777778E-01  0.0000000E+00  0.5144033E-03
   1       -3.3693
   2        2.0050
   3        4.0402
   4        4.2089
   5        5.1805
   6        5.3483
   7        7.3494
   8        9.1538
   9        9.3132
  10       10.2367
  11       10.3897
  12       11.4230
  13       11.6692
  14       12.3200
  15       14.3380
  16       14.4273
 
  0.1944444E+00  0.2777778E-01  0.0000000E+00  0.5144033E-03
   1       -3.2869
   2        1.6467
   3        4.1175
   4        4.2856
   5        5.2614
   6        5.4285
   7        7.8524
   8        8.8078
   9        8.9645
  10        9.9293
  11       10.0814
  12       11.4981
  13       11.7412
  14       12.3979
  15       14.7545
  16       14.8323
 
  0.2222222E+00  0.2777778E-01  0.0000000E+00  0.5144033E-03
   1       -3.1919
   2        1.2986
   3        4.2067
   4        4.3740
   5        5.3546
   6        5.5210
   7        8.3673
   8        8.4726
   9        8.6275
  10        9.6222
  11        9.7737
  12       11.5846
  13       11.8243
  14       12.4878
  15       14.8403
  16       15.3394
 
  0.2500000E+00  0.2777778E-01  0.0000000E+00  0.5144033E-03
   1       -3.0843
   2        0.9613
   3        4.3078
   4        4.4743
   5        5.4601
   6        5.6256
   7        8.1485
   8        8.3023
   9        8.8934
  10        9.3184
  11        9.4696
  12       11.6826
  13       11.9185
  14       12.5897
  15       14.9372
  16       15.3539
 
  0.2777778E+00  0.2777778E-01  0.0000000E+00  0.5144033E-03
   1       -2.9642
   2        0.6350
   3        4.4208
   4        4.5864
   5        5.5778
   6        5.7424
   7        7.8358
   8        7.9890
   9        9.0202
  10        9.1712
  11        9.4302
  12       11.7920
  13       12.0237
  14       12.7035
  15       15.0451
  16       15.0584
 
  0.3055556E+00  0.2777778E-01  0.0000000E+00  0.5144033E-03
   1       -2.8314
   2        0.3201
   3        4.5456
   4        4.7102
   5        5.7076
   6        5.8713
   7        7.5344
   8        7.6874
   9        8.7289
  10        8.8801
  11        9.9772
  12       11.9128
  13       12.1400
  14       12.8294
  15       14.7733
  16       14.9203
 
  0.3333333E+00  0.2777778E-01  0.0000000E+00  0.5144033E-03
   1       -2.6862
   2        0.0168
   3        4.6823
   4        4.8459
   5        5.8495
   6        6.0122
   7        7.2447
   8        7.3977
   9        8.4457
  10        8.5972
  11       10.5341
  12       12.0450
  13       12.2674
  14       12.9673
  15       14.4985
  16       14.6514
 
  0.3611111E+00  0.2777778E-01  0.0000000E+00  0.5144033E-03
   1       -2.5285
   2       -0.2748
   3        4.8309
   4        4.9935
   5        6.0033
   6        6.1650
   7        6.9666
   8        7.1199
   9        8.1714
  10        8.3233
  11       11.1003
  12       12.1885
  13       12.4058
  14       13.1172
  15       14.2342
  16       14.3930
 
  0.3888889E+00  0.2777778E-01  0.0000000E+00  0.5144033E-03
   1       -2.3583
   2       -0.5547
   3        4.9913
   4        5.1528
   5        6.1689
   6        6.3296
   7        6.7002
   8        6.8539
   9        7.9065
  10        8.0591
  11       11.6753
  12       12.3432
  13       12.5554
  14       13.2789
  15       13.9805
  16       14.1452
 
  0.4166667E+00  0.2777778E-01  0.0000000E+00  0.5144033E-03
   1       -2.1757
   2       -0.8226
   3        5.1635
   4        5.3240
   5        6.3450
   6        6.4468
   7        6.5059
   8        6.5998
   9        7.6517
  10        7.8049
  11       12.2581
  12       12.5091
  13       12.7163
  14       13.4526
  15       13.7376
  16       13.9082
 
  0.4444444E+00  0.2777778E-01  0.0000000E+00  0.5144033E-03
   1       -1.9808
   2       -1.0785
   3        5.3476
   4        5.5070
   5        6.2015
   6        6.3575
   7        6.5361
   8        6.6936
   9        7.4074
  10        7.5613
  11       12.6863
  12       12.8398
  13       12.8963
  14       13.5054
  15       13.6382
  16       13.6820
 
  0.4722222E+00  0.2777778E-01  0.0000000E+00  0.5144033E-03
   1       -1.7736
   2       -1.3224
   3        5.5434
   4        5.7019
   5        5.9705
   6        6.1271
   7        6.7360
   8        6.8916
   9        7.1750
  10        7.3287
  11       12.8745
  12       13.0681
  13       13.2842
  14       13.4466
  15       13.4666
  16       13.8355
 
  0.5000000E+00  0.2777778E-01  0.0000000E+00  0.2572016E-03
   1       -1.5541
   2       -1.5541
   3        5.7511
   4        5.7511
   5        5.9086
   6        5.9086
   7        6.9445
   8        6.9445
   9        7.1100
  10        7.1100
  11       13.0738
  12       13.0738
  13       13.2621
  14       13.2621
  15       14.0445
  16       14.0447
 
  0.5555556E-01  0.5555556E-01  0.0000000E+00  0.2572016E-03
   1       -3.5532
   2        3.5170
   3        3.5170
   4        4.0380
   5        4.9997
   6        5.5169
   7        5.5169
   8       10.2832
   9       10.8393
  10       10.8393
  11       11.3380
  12       11.3380
  13       11.5699
  14       12.5622
  15       12.5622
  16       12.6232
 
  0.8333333E-01  0.5555556E-01  0.0000000E+00  0.5144033E-03
   1       -3.5215
   2        3.1445
   3        3.5470
   4        4.0675
   5        5.0309
   6        5.5475
   7        5.9452
   8        9.9192
   9       10.4461
  10       10.8685
  11       11.1143
  12       11.3659
  13       11.4929
  14       12.5918
  15       12.8753
  16       13.0139
 
  0.1111111E+00  0.5555556E-01  0.0000000E+00  0.5144033E-03
   1       -3.4771
   2        2.7658
   3        3.5891
   4        4.1087
   5        5.0746
   6        5.5904
   7        6.4020
   8        9.5535
   9       10.0631
  10       10.8475
  11       10.9094
  12       11.2820
  13       11.4049
  14       12.6334
  15       13.2465
  16       13.4789
 
  0.1388889E+00  0.5555556E-01  0.0000000E+00  0.5144033E-03
   1       -3.4200
   2        2.3908
   3        3.6432
   4        4.1618
   5        5.1307
   6        5.6454
   7        6.8773
   8        9.1925
   9        9.6912
  10       10.5568
  11       10.9619
  12       11.0123
  13       11.4551
  14       12.6867
  15       13.6748
  16       13.9560
 
  0.1666667E+00  0.5555556E-01  0.0000000E+00  0.5144033E-03
   1       -3.3503
   2        2.0233
   3        3.7092
   4        4.2266
   5        5.1992
   6        5.7127
   7        7.3674
   8        8.8394
   9        9.3309
  10       10.2540
  11       10.7180
  12       11.0261
  13       11.5164
  14       12.7520
  15       14.1342
  16       14.4449
 
  0.1944444E+00  0.5555556E-01  0.0000000E+00  0.5144033E-03
   1       -3.2679
   2        1.6651
   3        3.7873
   4        4.3033
   5        5.2800
   6        5.7921
   7        7.8703
   8        8.4954
   9        8.9822
  10        9.9467
  11       10.4145
  12       11.1019
  13       11.5889
  14       12.8291
  15       14.6145
  16       14.9409
 
  0.2222222E+00  0.5555556E-01  0.0000000E+00  0.5144033E-03
   1       -3.1730
   2        1.3171
   3        3.8774
   4        4.3917
   5        5.3732
   6        5.8837
   7        8.1614
   8        8.3851
   9        8.6452
  10        9.6397
  11       10.1094
  12       11.1894
  13       11.6725
  14       12.9180
  15       15.0207
  16       15.1113
 
  0.2500000E+00  0.5555556E-01  0.0000000E+00  0.5144033E-03
   1       -3.0654
   2        0.9798
   3        3.9794
   4        4.4920
   5        5.4787
   6        5.9874
   7        7.8379
   8        8.3200
   9        8.9111
  10        9.3360
  11        9.8072
  12       11.2885
  13       11.7672
  14       13.0188
  15       15.0095
  16       15.1169
 
  0.2777778E+00  0.5555556E-01  0.0000000E+00  0.5144033E-03
   1       -2.9452
   2        0.6536
   3        4.0934
   4        4.6041
   5        5.5963
   6        6.1031
   7        7.5254
   8        8.0067
   9        9.0379
  10        9.4478
  11        9.5103
  12       11.3991
  13       11.8730
  14       13.1314
  15       14.7102
  16       15.0486
 
  0.3055556E+00  0.5555556E-01  0.0000000E+00  0.5144033E-03
   1       -2.8125
   2        0.3387
   3        4.2193
   4        4.7279
   5        5.7261
   6        6.2308
   7        7.2239
   8        7.7051
   9        8.7467
  10        9.2204
  11        9.9948
  12       11.5213
  13       11.9900
  14       13.2558
  15       14.4211
  16       14.7710
 
  0.3333333E+00  0.5555556E-01  0.0000000E+00  0.5144033E-03
   1       -2.6673
   2        0.0354
   3        4.3572
   4        4.8636
   5        5.8679
   6        6.3705
   7        6.9338
   8        7.4154
   9        8.4636
  10        8.9388
  11       10.5515
  12       11.6550
  13       12.1181
  14       13.3921
  15       14.1424
  16       14.5032
 
  0.3611111E+00  0.5555556E-01  0.0000000E+00  0.5144033E-03
   1       -2.5096
   2       -0.2562
   3        4.5069
   4        5.0112
   5        6.0215
   6        6.5220
   7        6.6552
   8        7.1376
   9        8.1893
  10        8.6661
  11       11.1175
  12       11.8002
  13       12.2574
  14       13.5401
  15       13.8743
  16       14.2456
 
  0.3888889E+00  0.5555556E-01  0.0000000E+00  0.5144033E-03
   1       -2.3394
   2       -0.5360
   3        4.6686
   4        5.1705
   5        6.1858
   6        6.3891
   7        6.6853
   8        6.8716
   9        7.9246
  10        8.4032
  11       11.6920
  12       11.9569
  13       12.4080
  14       13.6170
  15       13.6998
  16       13.9983
 
  0.4166667E+00  0.5555556E-01  0.0000000E+00  0.5144033E-03
   1       -2.1569
   2       -0.8039
   3        4.8421
   4        5.3417
   5        6.1297
   6        6.3669
   7        6.6175
   8        6.8601
   9        7.6699
  10        8.1504
  11       12.1250
  12       12.2727
  13       12.5717
  14       13.3705
  15       13.7615
  16       13.8712
 
  0.4444444E+00  0.5555556E-01  0.0000000E+00  0.5144033E-03
   1       -1.9620
   2       -1.0598
   3        5.0275
   4        5.5247
   5        5.8866
   6        6.3752
   7        6.5549
   8        7.0460
   9        7.4260
  10        7.9080
  11       12.3044
  12       12.7297
  13       12.8774
  14       13.1350
  15       13.5352
  16       14.0543
 
  0.4722222E+00  0.5555556E-01  0.0000000E+00  0.5144033E-03
   1       -1.7548
   2       -1.3036
   3        5.2247
   4        5.6543
   5        5.7196
   6        6.1448
   7        6.7551
   8        7.1819
   9        7.2544
  10        7.6765
  11       12.4952
  12       12.9106
  13       12.9197
  14       13.3196
  15       13.4668
  16       14.2489
 
  0.5000000E+00  0.5555556E-01  0.0000000E+00  0.2572016E-03
   1       -1.5353
   2       -1.5353
   3        5.4337
   4        5.4337
   5        5.9263
   6        5.9263
   7        6.9664
   8        6.9664
   9        7.4563
  10        7.4563
  11       12.6973
  12       12.6973
  13       13.1145
  14       13.1145
  15       14.0661
  16       14.0661
 
  0.8333333E-01  0.8333333E-01  0.0000000E+00  0.2572016E-03
   1       -3.4898
   2        3.1747
   3        3.1747
   4        4.0969
   5        5.0621
   6        5.9756
   7        5.9756
   8        9.5598
   9       10.4754
  10       10.4754
  11       11.1424
  12       11.1424
  13       11.6253
  14       12.8978
  15       13.0435
  16       13.0435
 
  0.1111111E+00  0.8333333E-01  0.0000000E+00  0.5144033E-03
   1       -3.4454
   2        2.7962
   3        3.2171
   4        4.1382
   5        5.1057
   6        6.0182
   7        6.4322
   8        9.1964
   9       10.0925
  10       10.5164
  11       10.8759
  12       11.1817
  13       11.5587
  14       13.0848
  15       13.1098
  16       13.5083
 
  0.1388889E+00  0.8333333E-01  0.0000000E+00  0.5144033E-03
   1       -3.3883
   2        2.4213
   3        3.2715
   4        4.1913
   5        5.1618
   6        6.0729
   7        6.9074
   8        8.8368
   9        9.7206
  10       10.5692
  11       10.5853
  12       11.2323
  13       11.3541
  14       13.1379
  15       13.4620
  16       13.9854
 
  0.1666667E+00  0.8333333E-01  0.0000000E+00  0.5144033E-03
   1       -3.3186
   2        2.0539
   3        3.3380
   4        4.2561
   5        5.2303
   6        6.1397
   7        7.3974
   8        8.4844
   9        9.3603
  10       10.2827
  11       10.6336
  12       11.0888
  13       11.2941
  14       13.2029
  15       13.8843
  16       14.4742
 
  0.1944444E+00  0.8333333E-01  0.0000000E+00  0.5144033E-03
   1       -3.2363
   2        1.6958
   3        3.4165
   4        4.3328
   5        5.3111
   6        6.2186
   7        7.9002
   8        8.1408
   9        9.0116
  10        9.9756
  11       10.7097
  12       10.7999
  13       11.3671
  14       13.2796
  15       14.3440
  16       14.9746
 
  0.2222222E+00  0.8333333E-01  0.0000000E+00  0.5144033E-03
   1       -3.1413
   2        1.3478
   3        3.5071
   4        4.4212
   5        5.4042
   6        6.3096
   7        7.8068
   8        8.4148
   9        8.6747
  10        9.6688
  11       10.5030
  12       10.7976
  13       11.4514
  14       13.3681
  15       14.8279
  16       14.9549
 
  0.2500000E+00  0.8333333E-01  0.0000000E+00  0.5144033E-03
   1       -3.0337
   2        1.0106
   3        3.6098
   4        4.5215
   5        5.5096
   6        6.4126
   7        7.4832
   8        8.3495
   9        8.9407
  10        9.3653
  11       10.2058
  12       10.8970
  13       11.5468
  14       13.4684
  15       14.6431
  16       15.1163
 
  0.2777778E+00  0.8333333E-01  0.0000000E+00  0.5144033E-03
   1       -2.9136
   2        0.6844
   3        3.7245
   4        4.6335
   5        5.6272
   6        6.5275
   7        7.1702
   8        8.0362
   9        9.0673
  10        9.4772
  11        9.9124
  12       11.0082
  13       11.6534
  14       13.5804
  15       14.3413
  16       14.8315
 
  0.3055556E+00  0.8333333E-01  0.0000000E+00  0.5144033E-03
   1       -2.7809
   2        0.3697
   3        3.8511
   4        4.7574
   5        5.7568
   6        6.6544
   7        6.8683
   8        7.7346
   9        8.7763
  10        9.6252
  11       10.0240
  12       11.1309
  13       11.7712
  14       13.7042
  15       14.0498
  16       14.5556
 
  0.3333333E+00  0.8333333E-01  0.0000000E+00  0.5144033E-03
   1       -2.6357
   2        0.0664
   3        3.9898
   4        4.8931
   5        5.8983
   6        6.5777
   7        6.7932
   8        7.4450
   9        8.4933
  10        9.3457
  11       10.5805
  12       11.2653
  13       11.9002
  14       13.7689
  15       13.8396
  16       14.2890
 
  0.3611111E+00  0.8333333E-01  0.0000000E+00  0.5144033E-03
   1       -2.4781
   2       -0.2251
   3        4.1404
   4        5.0407
   5        6.0506
   6        6.2996
   7        6.9437
   8        7.1671
   9        8.2192
  10        9.0750
  11       11.1460
  12       11.4112
  13       12.0407
  14       13.4987
  15       13.9868
  16       14.0320
 
  0.3888889E+00  0.8333333E-01  0.0000000E+00  0.5144033E-03
   1       -2.3079
   2       -0.5049
   3        4.3029
   4        5.2000
   5        6.0260
   6        6.2216
   7        6.9011
   8        7.1059
   9        7.9546
  10        8.8137
  11       11.5687
  12       11.7193
  13       12.1934
  14       13.2394
  15       13.7850
  16       14.1455
 
  0.4166667E+00  0.8333333E-01  0.0000000E+00  0.5144033E-03
   1       -2.1254
   2       -0.7727
   3        4.4774
   4        5.3712
   5        5.7714
   6        6.3969
   7        6.6470
   8        7.2794
   9        7.7003
  10        8.5623
  11       11.7377
  12       12.2800
  13       12.3779
  14       12.9912
  15       13.5483
  16       14.3158
 
  0.4444444E+00  0.8333333E-01  0.0000000E+00  0.5144033E-03
   1       -1.9306
   2       -1.0286
   3        4.6637
   4        5.5267
   5        5.5542
   6        6.4047
   7        6.5856
   8        7.4389
   9        7.4819
  10        8.3213
  11       11.9182
  12       12.5188
  13       12.7540
  14       12.9026
  15       13.3218
  16       14.4976
 
  0.4722222E+00  0.8333333E-01  0.0000000E+00  0.5144033E-03
   1       -1.7234
   2       -1.2723
   3        4.8618
   4        5.2934
   5        5.7491
   6        6.1743
   7        6.7859
   8        7.2200
   9        7.6640
  10        8.0911
  11       12.1101
  12       12.5281
  13       12.7050
  14       13.1058
  15       13.4970
  16       14.6927
 
  0.5000000E+00  0.8333333E-01  0.0000000E+00  0.2572016E-03
   1       -1.5040
   2       -1.5040
   3        5.0717
   4        5.0717
   5        5.9558
   6        5.9558
   7        6.9975
   8        6.9975
   9        7.8718
  10        7.8718
  11       12.3134
  12       12.3134
  13       12.9002
  14       12.9002
  15       14.0976
  16       14.0976
 
  0.1111111E+00  0.1111111E+00  0.0000000E+00  0.2572016E-03
   1       -3.4010
   2        2.8387
   3        2.8387
   4        4.1795
   5        5.1494
   6        6.4746
   7        6.4746
   8        8.8338
   9       10.1336
  10       10.1336
  11       10.9156
  12       10.9156
  13       11.7027
  14       13.1007
  15       13.5495
  16       13.5495
 
  0.1388889E+00  0.1111111E+00  0.0000000E+00  0.5144033E-03
   1       -3.3440
   2        2.4640
   3        2.8934
   4        4.2325
   5        5.2054
   6        6.5290
   7        6.9496
   8        8.4744
   9        9.7618
  10       10.1864
  11       10.6253
  12       10.9666
  13       11.6475
  14       13.2966
  15       13.6025
  16       14.0265
 
  0.1666667E+00  0.1111111E+00  0.0000000E+00  0.5144033E-03
   1       -3.2743
   2        2.0967
   3        2.9602
   4        4.2974
   5        5.2738
   6        6.5954
   7        7.4393
   8        8.1218
   9        9.4015
  10       10.2510
  11       10.3230
  12       11.0289
  13       11.4527
  14       13.6435
  15       13.6672
  16       14.5152
 
  0.1944444E+00  0.1111111E+00  0.0000000E+00  0.5144033E-03
   1       -3.1920
   2        1.7387
   3        3.0391
   4        4.3740
   5        5.3546
   6        6.6739
   7        7.7779
   8        7.9420
   9        9.0528
  10       10.0162
  11       10.3273
  12       11.1025
  13       11.1961
  14       13.7437
  15       14.0674
  16       14.9153
 
  0.2222222E+00  0.1111111E+00  0.0000000E+00  0.5144033E-03
   1       -3.0970
   2        1.3909
   3        3.1301
   4        4.4625
   5        5.4476
   6        6.7644
   7        7.4435
   8        8.4564
   9        8.7159
  10        9.7096
  11       10.4153
  12       10.9159
  13       11.1873
  14       13.8319
  15       14.5322
  16       14.5912
 
  0.2500000E+00  0.1111111E+00  0.0000000E+00  0.5144033E-03
   1       -2.9895
   2        1.0537
   3        3.2332
   4        4.5628
   5        5.5529
   6        6.8669
   7        7.1193
   8        8.3908
   9        8.9821
  10        9.4063
  11       10.5150
  12       10.6284
  13       11.2835
  14       13.9319
  15       14.2773
  16       14.8581
 
  0.2777778E+00  0.1111111E+00  0.0000000E+00  0.5144033E-03
   1       -2.8694
   2        0.7277
   3        3.3484
   4        4.6748
   5        5.6703
   6        6.8059
   7        6.9812
   8        8.0774
   9        9.1085
  10        9.5184
  11       10.3411
  12       10.6264
  13       11.3909
  14       13.9736
  15       14.0435
  16       14.5751
 
  0.3055556E+00  0.1111111E+00  0.0000000E+00  0.5144033E-03
   1       -2.7367
   2        0.4130
   3        3.4756
   4        4.7987
   5        5.7996
   6        6.5035
   7        7.1075
   8        7.7759
   9        8.8177
  10       10.0582
  11       10.0648
  12       10.7495
  13       11.5096
  14       13.6804
  15       14.1668
  16       14.3003
 
  0.3333333E+00  0.1111111E+00  0.0000000E+00  0.5144033E-03
   1       -2.5916
   2        0.1098
   3        3.6148
   4        4.9344
   5        5.9397
   6        6.2135
   7        7.2455
   8        7.4863
   9        8.5349
  10        9.7818
  11       10.6209
  12       10.8842
  13       11.6397
  14       13.3979
  15       14.0344
  16       14.3017
 
  0.3611111E+00  0.1111111E+00  0.0000000E+00  0.5144033E-03
   1       -2.4340
   2       -0.1816
   3        3.7660
   4        5.0820
   5        5.9262
   6        6.1003
   7        7.2084
   8        7.3952
   9        8.2610
  10        9.5135
  11       11.0306
  12       11.1856
  13       11.7818
  14       13.1264
  15       13.7778
  16       14.4482
 
  0.3888889E+00  0.1111111E+00  0.0000000E+00  0.5144033E-03
   1       -2.2639
   2       -0.4613
   3        3.9292
   4        5.2413
   5        5.6602
   6        6.2629
   7        6.9424
   8        7.5563
   9        7.9969
  10        9.2542
  11       11.1885
  12       11.7526
  13       11.9414
  14       12.8658
  15       13.5308
  16       14.6062
 
  0.4166667E+00  0.1111111E+00  0.0000000E+00  0.5144033E-03
   1       -2.0814