   4   4   0   0
  0.1473188E+02  0.3891402E-09  0.3891402E-09  0.3891402E-09  0.5000000E-15
  1.000000000000000E-004
  CAR 
 unknown system                          
     22.36939602     -7.02642834  301      2.09064691      1.00000000
     -7.026  0.0000E+00  0.0000E+00
     -6.928  0.0000E+00  0.0000E+00
     -6.830  0.0000E+00  0.0000E+00
     -6.732  0.0000E+00  0.0000E+00
     -6.634  0.0000E+00  0.0000E+00
     -6.536  0.0000E+00  0.0000E+00
     -6.439  0.0000E+00  0.0000E+00
     -6.341  0.0000E+00  0.0000E+00
     -6.243  0.0000E+00  0.0000E+00
     -6.145  0.0000E+00  0.0000E+00
     -6.047  0.0000E+00  0.0000E+00
     -5.949  0.0000E+00  0.0000E+00
     -5.851  0.0000E+00  0.0000E+00
     -5.753  0.0000E+00  0.0000E+00
     -5.655  0.1872E-01  0.1835E-02
     -5.557  0.9271E-01  0.1184E-01
     -5.459  0.1405E+00  0.2722E-01
     -5.361  0.1961E+00  0.4860E-01
     -5.263  0.1557E+00  0.6806E-01
     -5.165  0.2941E+00  0.9900E-01
     -5.067  0.1943E+00  0.1260E+00
     -4.969  0.2054E+00  0.1531E+00
     -4.871  0.2970E+00  0.1942E+00
     -4.773  0.2988E+00  0.2256E+00
     -4.675  0.3891E+00  0.2660E+00
     -4.577  0.3544E+00  0.3043E+00
     -4.479  0.4687E+00  0.3511E+00
     -4.381  0.3355E+00  0.3970E+00
     -4.283  0.2989E+00  0.4345E+00
     -4.185  0.4835E+00  0.4917E+00
     -4.087  0.4774E+00  0.5432E+00
     -3.989  0.3640E+00  0.5911E+00
     -3.891  0.5175E+00  0.6495E+00
     -3.793  0.5709E+00  0.7147E+00
     -3.695  0.5483E+00  0.7691E+00
     -3.597  0.4318E+00  0.8306E+00
     -3.499  0.5876E+00  0.8954E+00
     -3.401  0.6281E+00  0.9671E+00
     -3.303  0.4839E+00  0.1033E+01
     -3.205  0.7901E+00  0.1111E+01
     -3.107  0.5340E+00  0.1189E+01
     -3.009  0.7248E+00  0.1274E+01
     -2.911  0.6387E+00  0.1350E+01
     -2.813  0.7418E+00  0.1445E+01
     -2.715  0.7893E+00  0.1547E+01
     -2.617  0.6832E+00  0.1638E+01
     -2.519  0.9255E+00  0.1749E+01
     -2.421  0.9968E+00  0.1869E+01
     -2.323  0.9491E+00  0.1986E+01
     -2.225  0.1339E+01  0.2137E+01
     -2.127  0.1411E+01  0.2297E+01
     -2.029  0.1190E+01  0.2449E+01
     -1.931  0.2133E+01  0.2709E+01
     -1.833  0.2637E+01  0.3002E+01
     -1.735  0.3002E+01  0.3359E+01
     -1.637  0.3799E+01  0.3800E+01
     -1.539  0.4541E+01  0.4380E+01
     -1.441  0.4880E+01  0.4962E+01
     -1.343  0.4820E+01  0.5591E+01
     -1.245  0.7123E+01  0.6454E+01
     -1.147  0.9115E+01  0.7547E+01
     -1.049  0.1063E+02  0.8801E+01
     -0.951  0.9217E+01  0.9908E+01
     -0.853  0.9679E+01  0.1104E+02
     -0.755  0.9074E+01  0.1217E+02
     -0.657  0.1084E+02  0.1345E+02
     -0.559  0.1335E+02  0.1504E+02
     -0.461  0.1466E+02  0.1679E+02
     -0.363  0.1697E+02  0.1880E+02
     -0.265  0.1898E+02  0.2107E+02
     -0.167  0.2065E+02  0.2358E+02
     -0.069  0.1379E+02  0.2523E+02
      0.029  0.1207E+02  0.2667E+02
      0.127  0.1498E+02  0.2840E+02
      0.225  0.1784E+02  0.3051E+02
      0.323  0.1638E+02  0.3249E+02
      0.421  0.1517E+02  0.3429E+02
      0.518  0.1604E+02  0.3618E+02
      0.616  0.2465E+02  0.3895E+02
      0.714  0.1858E+02  0.4144E+02
      0.812  0.1866E+01  0.4192E+02
      0.910  0.1763E+01  0.4213E+02
      1.008  0.1689E+01  0.4234E+02
      1.106  0.1373E+01  0.4249E+02
      1.204  0.1177E+01  0.4266E+02
      1.302  0.1457E+01  0.4284E+02
      1.400  0.8851E+00  0.4296E+02
      1.498  0.1403E+01  0.4314E+02
      1.596  0.1024E+01  0.4328E+02
      1.694  0.7532E+00  0.4337E+02
      1.792  0.1516E+01  0.4357E+02
      1.890  0.1093E+01  0.4371E+02
      1.988  0.9827E+00  0.4381E+02
      2.086  0.1529E+01  0.4399E+02
      2.184  0.8862E+00  0.4411E+02
      2.282  0.8438E+00  0.4421E+02
      2.380  0.1290E+01  0.4436E+02
      2.478  0.9985E+00  0.4449E+02
      2.576  0.1188E+01  0.4462E+02
      2.674  0.8550E+00  0.4472E+02
      2.772  0.1175E+01  0.4486E+02
      2.870  0.1203E+01  0.4500E+02
      2.968  0.8196E+00  0.4508E+02
      3.066  0.1188E+01  0.4521E+02
      3.164  0.1078E+01  0.4534E+02
      3.262  0.9696E+00  0.4544E+02
      3.360  0.9562E+00  0.4555E+02
      3.458  0.8985E+00  0.4564E+02
      3.556  0.8893E+00  0.4578E+02
      3.654  0.1093E+01  0.4590E+02
      3.752  0.7644E+00  0.4599E+02
      3.850  0.9059E+00  0.4609E+02
      3.948  0.1088E+01  0.4621E+02
      4.046  0.9355E+00  0.4632E+02
      4.144  0.7691E+00  0.4641E+02
      4.242  0.8676E+00  0.4652E+02
      4.340  0.7434E+00  0.4660E+02
      4.438  0.8251E+00  0.4670E+02
      4.536  0.8657E+00  0.4680E+02
      4.634  0.6677E+00  0.4689E+02
      4.732  0.7110E+00  0.4697E+02
      4.830  0.7229E+00  0.4704E+02
      4.928  0.7898E+00  0.4714E+02
      5.026  0.1187E+01  0.4727E+02
      5.124  0.8791E+00  0.4737E+02
      5.222  0.1015E+01  0.4751E+02
      5.320  0.1165E+01  0.4763E+02
      5.418  0.1298E+01  0.4777E+02
      5.516  0.1225E+01  0.4791E+02
      5.614  0.1167E+01  0.4803E+02
      5.712  0.1019E+01  0.4816E+02
      5.810  0.1206E+01  0.4829E+02
      5.908  0.7731E+00  0.4839E+02
      6.006  0.1291E+01  0.4854E+02
      6.104  0.9459E+00  0.4866E+02
      6.202  0.1244E+01  0.4879E+02
      6.300  0.8052E+00  0.4891E+02
      6.398  0.8066E+00  0.4902E+02
      6.496  0.9481E+00  0.4913E+02
      6.594  0.1047E+01  0.4926E+02
      6.692  0.8348E+00  0.4938E+02
      6.790  0.1044E+01  0.4949E+02
      6.888  0.8110E+00  0.4961E+02
      6.986  0.9714E+00  0.4972E+02
      7.084  0.9392E+00  0.4982E+02
      7.182  0.9190E+00  0.4993E+02
      7.280  0.9413E+00  0.5005E+02
      7.378  0.6514E+00  0.5014E+02
      7.476  0.9506E+00  0.5027E+02
      7.573  0.7581E+00  0.5035E+02
      7.671  0.9725E+00  0.5047E+02
      7.769  0.8463E+00  0.5056E+02
      7.867  0.1162E+01  0.5069E+02
      7.965  0.1027E+01  0.5081E+02
      8.063  0.9533E+00  0.5091E+02
      8.161  0.9685E+00  0.5108E+02
      8.259  0.1145E+01  0.5121E+02
      8.357  0.1037E+01  0.5134E+02
      8.455  0.1208E+01  0.5148E+02
      8.553  0.1174E+01  0.5162E+02
      8.651  0.1486E+01  0.5179E+02
      8.749  0.1079E+01  0.5193E+02
      8.847  0.1037E+01  0.5207E+02
      8.945  0.1416E+01  0.5223E+02
      9.043  0.1209E+01  0.5237E+02
      9.141  0.1240E+01  0.5251E+02
      9.239  0.9723E+00  0.5264E+02
      9.337  0.1416E+01  0.5283E+02
      9.435  0.1392E+01  0.5298E+02
      9.533  0.1270E+01  0.5313E+02
      9.631  0.1183E+01  0.5328E+02
      9.729  0.1322E+01  0.5344E+02
      9.827  0.1407E+01  0.5360E+02
      9.925  0.8427E+00  0.5372E+02
     10.023  0.1370E+01  0.5389E+02
     10.121  0.1241E+01  0.5404E+02
     10.219  0.1413E+01  0.5420E+02
     10.317  0.1484E+01  0.5437E+02
     10.415  0.1320E+01  0.5455E+02
     10.513  0.1206E+01  0.5468E+02
     10.611  0.1400E+01  0.5483E+02
     10.709  0.1644E+01  0.5501E+02
     10.807  0.1131E+01  0.5515E+02
     10.905  0.1511E+01  0.5531E+02
     11.003  0.1176E+01  0.5546E+02
     11.101  0.1545E+01  0.5564E+02
     11.199  0.1320E+01  0.5580E+02
     11.297  0.1497E+01  0.5601E+02
     11.395  0.8172E+00  0.5611E+02
     11.493  0.1602E+01  0.5629E+02
     11.591  0.1663E+01  0.5647E+02
     11.689  0.1464E+01  0.5665E+02
     11.787  0.1147E+01  0.5677E+02
     11.885  0.1203E+01  0.5693E+02
     11.983  0.1706E+01  0.5712E+02
     12.081  0.1074E+01  0.5728E+02
     12.179  0.1599E+01  0.5748E+02
     12.277  0.1273E+01  0.5763E+02
     12.375  0.1455E+01  0.5780E+02
     12.473  0.1630E+01  0.5799E+02
     12.571  0.1335E+01  0.5815E+02
     12.669  0.1235E+01  0.5831E+02
     12.767  0.1659E+01  0.5848E+02
     12.865  0.1676E+01  0.5867E+02
     12.963  0.1489E+01  0.5884E+02
     13.061  0.1293E+01  0.5902E+02
     13.159  0.1466E+01  0.5921E+02
     13.257  0.1919E+01  0.5943E+02
     13.355  0.1263E+01  0.5959E+02
     13.453  0.1288E+01  0.5976E+02
     13.551  0.1698E+01  0.5996E+02
     13.649  0.1799E+01  0.6017E+02
     13.747  0.1496E+01  0.6036E+02
     13.845  0.1328E+01  0.6052E+02
     13.943  0.1542E+01  0.6067E+02
     14.041  0.1307E+01  0.6085E+02
     14.139  0.1942E+01  0.6107E+02
     14.237  0.1176E+01  0.6122E+02
     14.335  0.1051E+01  0.6134E+02
     14.433  0.1485E+01  0.6152E+02
     14.531  0.1043E+01  0.6165E+02
     14.628  0.1226E+01  0.6180E+02
     14.726  0.9120E+00  0.6190E+02
     14.824  0.1037E+01  0.6202E+02
     14.922  0.6389E+00  0.6211E+02
     15.020  0.1077E+01  0.6224E+02
     15.118  0.9558E+00  0.6235E+02
     15.216  0.4721E+00  0.6242E+02
     15.314  0.8657E+00  0.6251E+02
     15.412  0.9248E+00  0.6261E+02
     15.510  0.5778E+00  0.6267E+02
     15.608  0.7063E+00  0.6274E+02
     15.706  0.5698E+00  0.6281E+02
     15.804  0.6361E+00  0.6287E+02
     15.902  0.2890E+00  0.6292E+02
     16.000  0.5359E+00  0.6300E+02
     16.098  0.3896E+00  0.6304E+02
     16.196  0.4024E+00  0.6309E+02
     16.294  0.6714E+00  0.6316E+02
     16.392  0.3812E+00  0.6321E+02
     16.490  0.3941E+00  0.6326E+02
     16.588  0.2149E+00  0.6328E+02
     16.686  0.4842E+00  0.6333E+02
     16.784  0.3948E+00  0.6337E+02
     16.882  0.1902E+00  0.6339E+02
     16.980  0.4400E+00  0.6344E+02
     17.078  0.2547E+00  0.6347E+02
     17.176  0.2916E+00  0.6351E+02
     17.274  0.2254E+00  0.6353E+02
     17.372  0.3207E+00  0.6357E+02
     17.470  0.1419E+00  0.6359E+02
     17.568  0.2008E+00  0.6361E+02
     17.666  0.1226E+00  0.6364E+02
     17.764  0.2126E+00  0.6367E+02
     17.862  0.8268E-01  0.6368E+02
     17.960  0.2336E+00  0.6370E+02
     18.058  0.1098E+00  0.6373E+02
     18.156  0.1414E+00  0.6374E+02
     18.254  0.1922E+00  0.6376E+02
     18.352  0.1770E+00  0.6379E+02
     18.450  0.3223E-01  0.6380E+02
     18.548  0.7443E-01  0.6381E+02
     18.646  0.2825E+00  0.6384E+02
     18.744  0.9131E-01  0.6385E+02
     18.842  0.3959E-01  0.6386E+02
     18.940  0.1417E+00  0.6387E+02
     19.038  0.2126E+00  0.6389E+02
     19.136  0.5941E-03  0.6389E+02
     19.234  0.1081E+00  0.6391E+02
     19.332  0.7087E-01  0.6392E+02
     19.430  0.0000E+00  0.6392E+02
     19.528  0.1230E+00  0.6393E+02
     19.626  0.1063E+00  0.6395E+02
     19.724  0.2318E-04  0.6395E+02
     19.822  0.1418E+00  0.6396E+02
     19.920  0.1443E-01  0.6396E+02
     20.018  0.3287E-10  0.6396E+02
     20.116  0.1037E+00  0.6397E+02
     20.214  0.3520E-01  0.6398E+02
     20.312  0.0000E+00  0.6398E+02
     20.410  0.9977E-01  0.6399E+02
     20.508  0.2521E-13  0.6399E+02
     20.606  0.3619E-01  0.6399E+02
     20.704  0.3544E-01  0.6400E+02
     20.802  0.2734E-01  0.6400E+02
     20.900  0.0000E+00  0.6400E+02
     20.998  0.1382E-08  0.6400E+02
     21.096  0.5906E-02  0.6400E+02
     21.194  0.0000E+00  0.6400E+02
     21.292  0.0000E+00  0.6400E+02
     21.390  0.0000E+00  0.6400E+02
     21.488  0.0000E+00  0.6400E+02
     21.586  0.0000E+00  0.6400E+02
     21.683  0.0000E+00  0.6400E+02
     21.781  0.0000E+00  0.6400E+02
     21.879  0.0000E+00  0.6400E+02
     21.977  0.0000E+00  0.6400E+02
     22.075  0.0000E+00  0.6400E+02
     22.173  0.0000E+00  0.6400E+02
     22.271  0.0000E+00  0.6400E+02
     22.369  0.0000E+00  0.6400E+02
