    4    4    1    1
  0.1473188E+02  0.3891402E-09  0.3891402E-09  0.3891402E-09  0.5000000E-15
  1.000000000000000E-004
  CAR 
 unknown system                          
   44  455   32
 
  0.0000000E+00  0.0000000E+00  0.0000000E+00  0.7233796E-04
   1       -5.6903
   2       -1.6586
   3       -1.6586
   4       -1.6586
   5       -1.3320
   6       -1.3320
   7       -1.3320
   8       -0.3501
   9       -0.3501
  10       -0.3501
  11        0.2364
  12        0.2364
  13        0.6278
  14        0.6278
  15        0.6278
  16        0.7371
  17        0.7371
  18        0.7371
  19        0.7371
  20        0.7371
  21        0.7371
  22        3.7734
  23        3.7734
  24        3.7734
  25        7.7964
  26        7.7964
  27        7.7964
  28       13.6279
  29       13.6279
  30       13.6279
  31       13.6279
  32       13.6279
 
  0.4166667E-01  0.0000000E+00  0.0000000E+00  0.4340278E-03
   1       -5.6722
   2       -1.6593
   3       -1.6511
   4       -1.6511
   5       -1.3279
   6       -1.3277
   7       -1.3277
   8       -0.3544
   9       -0.3465
  10       -0.3465
  11        0.2324
  12        0.2380
  13        0.6227
  14        0.6227
  15        0.6261
  16        0.7130
  17        0.7130
  18        0.7310
  19        0.7310
  20        0.7371
  21        0.7371
  22        3.6231
  23        3.8143
  24        3.8143
  25        7.8045
  26        7.8045
  27        7.9846
  28       13.4880
  29       13.4880
  30       13.5289
  31       13.5289
  32       13.6532
 
  0.8333333E-01  0.0000000E+00  0.0000000E+00  0.4340278E-03
   1       -5.6181
   2       -1.6622
   3       -1.6286
   4       -1.6286
   5       -1.3158
   6       -1.3147
   7       -1.3147
   8       -0.3674
   9       -0.3357
  10       -0.3357
  11        0.2207
  12        0.2429
  13        0.6076
  14        0.6076
  15        0.6210
  16        0.6445
  17        0.6445
  18        0.7130
  19        0.7130
  20        0.7371
  21        0.7371
  22        3.2387
  23        3.9332
  24        3.9332
  25        7.8290
  26        7.8290
  27        8.4833
  28       13.1219
  29       13.1219
  30       13.2590
  31       13.2590
  32       13.7288
 
  0.1250000E+00  0.0000000E+00  0.0000000E+00  0.4340278E-03
   1       -5.5281
   2       -1.6698
   3       -1.5920
   4       -1.5920
   5       -1.2958
   6       -1.2931
   7       -1.2931
   8       -0.3887
   9       -0.3177
  10       -0.3177
  11        0.2016
  12        0.2510
  13        0.5411
  14        0.5411
  15        0.5828
  16        0.5828
  17        0.6126
  18        0.6837
  19        0.6837
  20        0.7371
  21        0.7371
  22        2.7354
  23        4.1206
  24        4.1206
  25        7.8705
  26        7.8705
  27        9.1796
  28       12.6251
  29       12.6251
  30       12.8760
  31       12.8760
  32       13.8542
 
  0.1666667E+00  0.0000000E+00  0.0000000E+00  0.4340278E-03
   1       -5.4027
   2       -1.6871
   3       -1.5427
   4       -1.5427
   5       -1.2683
   6       -1.2627
   7       -1.2627
   8       -0.4179
   9       -0.2927
  10       -0.2927
  11        0.1756
  12        0.2622
  13        0.4136
  14        0.4136
  15        0.5489
  16        0.5489
  17        0.6011
  18        0.6440
  19        0.6440
  20        0.7372
  21        0.7372
  22        2.1939
  23        4.3654
  24        4.3654
  25        7.9296
  26        7.9296
  27        9.9973
  28       12.0655
  29       12.0655
  30       12.4338
  31       12.4338
  32       14.0281
 
  0.2083333E+00  0.0000000E+00  0.0000000E+00  0.4340278E-03
   1       -5.2425
   2       -1.7221
   3       -1.4826
   4       -1.4826
   5       -1.2336
   6       -1.2233
   7       -1.2233
   8       -0.4545
   9       -0.2609
  10       -0.2609
  11        0.1436
  12        0.2721
  13        0.2721
  14        0.2762
  15        0.5068
  16        0.5068
  17        0.5867
  18        0.5952
  19        0.5952
  20        0.7373
  21        0.7373
  22        1.6618
  23        4.6575
  24        4.6575
  25        8.0075
  26        8.0075
  27       10.8959
  28       11.4801
  29       11.4801
  30       11.9697
  31       11.9697
  32       14.2492
 
  0.2500000E+00  0.0000000E+00  0.0000000E+00  0.4340278E-03
   1       -5.0482
   2       -1.7868
   3       -1.4145
   4       -1.4145
   5       -1.1923
   6       -1.1748
   7       -1.1748
   8       -0.4979
   9       -0.2224
  10       -0.2224
  11        0.1068
  12        0.1242
  13        0.1242
  14        0.2929
  15        0.4580
  16        0.4580
  17        0.5386
  18        0.5386
  19        0.5697
  20        0.7373
  21        0.7373
  22        1.1711
  23        4.9891
  24        4.9891
  25        8.1053
  26        8.1053
  27       10.8885
  28       10.8885
  29       11.5075
  30       11.5075
  31       11.8544
  32       14.5157
 
  0.2916667E+00  0.0000000E+00  0.0000000E+00  0.4340278E-03
   1       -4.8211
   2       -1.8970
   3       -1.3419
   4       -1.3419
   5       -1.1450
   6       -1.1170
   7       -1.1170
   8       -0.5473
   9       -0.1776
  10       -0.1776
  11       -0.0246
  12       -0.0246
  13        0.0668
  14        0.3119
  15        0.4048
  16        0.4048
  17        0.4759
  18        0.4759
  19        0.5502
  20        0.7374
  21        0.7374
  22        0.7480
  23        5.3543
  24        5.3543
  25        8.2247
  26        8.2247
  27       10.3011
  28       10.3011
  29       11.0617
  30       11.0617
  31       12.8610
  32       14.8258
 
  0.3333333E+00  0.0000000E+00  0.0000000E+00  0.4340278E-03
   1       -4.5628
   2       -2.0682
   3       -1.2693
   4       -1.2693
   5       -1.0926
   6       -1.0498
   7       -1.0498
   8       -0.6016
   9       -0.1705
  10       -0.1705
  11       -0.1269
  12       -0.1269
  13        0.0256
  14        0.3330
  15        0.3502
  16        0.3502
  17        0.4086
  18        0.4086
  19        0.4138
  20        0.5287
  21        0.7374
  22        0.7374
  23        5.7490
  24        5.7490
  25        8.3668
  26        8.3668
  27        9.7240
  28        9.7240
  29       10.6415
  30       10.6415
  31       13.9085
  32       15.1774
 
  0.3750000E+00  0.0000000E+00  0.0000000E+00  0.4340278E-03
   1       -4.2756
   2       -2.3067
   3       -1.2021
   4       -1.2021
   5       -1.0359
   6       -0.9730
   7       -0.9730
   8       -0.6601
   9       -0.3108
  10       -0.3108
  11       -0.0707
  12       -0.0707
  13       -0.0138
  14        0.1778
  15        0.2986
  16        0.2986
  17        0.3383
  18        0.3383
  19        0.3558
  20        0.5056
  21        0.7375
  22        0.7375
  23        6.1703
  24        6.1703
  25        8.5327
  26        8.5327
  27        9.1607
  28        9.1607
  29       10.2531
  30       10.2531
  31       14.9921
  32       15.5686
 
  0.4166667E+00  0.0000000E+00  0.0000000E+00  0.4340278E-03
   1       -3.9628
   2       -2.6027
   3       -1.1467
   4       -1.1467
   5       -0.9757
   6       -0.8864
   7       -0.8864
   8       -0.7215
   9       -0.4439
  10       -0.4439
  11       -0.0475
  12       -0.0098
  13       -0.0098
  14        0.0316
  15        0.2552
  16        0.2552
  17        0.2664
  18        0.2664
  19        0.3800
  20        0.4812
  21        0.7375
  22        0.7375
  23        6.6160
  24        6.6160
  25        8.6136
  26        8.6136
  27        8.7212
  28        8.7212
  29        9.9026
  30        9.9026
  31       15.9974
  32       15.9997
 
  0.4583333E+00  0.0000000E+00  0.0000000E+00  0.4340278E-03
   1       -3.6296
   2       -2.9354
   3       -1.1099
   4       -1.1099
   5       -0.9131
   6       -0.7901
   7       -0.7901
   8       -0.7849
   9       -0.5685
  10       -0.5685
  11       -0.0700
  12       -0.0448
  13        0.0554
  14        0.0554
  15        0.1945
  16        0.1945
  17        0.2260
  18        0.2260
  19        0.4050
  20        0.4561
  21        0.7376
  22        0.7376
  23        7.0844
  24        7.0844
  25        8.0843
  26        8.0843
  27        8.9215
  28        8.9215
  29        9.6039
  30        9.6039
  31       16.4618
  32       16.4618
 
  0.5000000E+00  0.0000000E+00  0.0000000E+00  0.2170139E-03
   1       -3.2832
   2       -3.2832
   3       -1.0970
   4       -1.0970
   5       -0.8492
   6       -0.8492
   7       -0.6841
   8       -0.6841
   9       -0.6841
  10       -0.6841
  11       -0.0730
  12       -0.0730
  13        0.1238
  14        0.1238
  15        0.1238
  16        0.1238
  17        0.2156
  18        0.2156
  19        0.4305
  20        0.4305
  21        0.7376
  22        0.7376
  23        7.5742
  24        7.5742
  25        7.5742
  26        7.5742
  27        9.0480
  28        9.0480
  29        9.4444
  30        9.4444
  31       16.9598
  32       16.9598
 
  0.4166667E-01  0.4166667E-01  0.0000000E+00  0.8680556E-03
   1       -5.6542
   2       -1.6517
   3       -1.6517
   4       -1.6435
   5       -1.3237
   6       -1.3237
   7       -1.3234
   8       -0.3568
   9       -0.3448
  10       -0.3430
  11        0.2313
  12        0.2369
  13        0.6177
  14        0.6204
  15        0.6204
  16        0.6934
  17        0.7072
  18        0.7072
  19        0.7310
  20        0.7310
  21        0.7332
  22        3.6633
  23        3.6633
  24        3.8546
  25        7.8127
  26        7.9936
  27        7.9936
  28       13.1424
  29       13.5128
  30       13.5128
  31       13.5538
  32       13.5538
 
  0.8333333E-01  0.4166667E-01  0.0000000E+00  0.1736111E-02
   1       -5.6001
   2       -1.6544
   3       -1.6290
   4       -1.6212
   5       -1.3116
   6       -1.3108
   7       -1.3106
   8       -0.3687
   9       -0.3350
  10       -0.3324
  11        0.2208
  12        0.2409
  13        0.6009
  14        0.6028
  15        0.6134
  16        0.6287
  17        0.6424
  18        0.6901
  19        0.7130
  20        0.7310
  21        0.7310
  22        3.2782
  23        3.7802
  24        3.9719
  25        7.8373
  26        8.0208
  27        8.4940
  28       12.6553
  29       13.1457
  30       13.2829
  31       13.5870
  32       13.6090
 
  0.1250000E+00  0.4166667E-01  0.0000000E+00  0.1736111E-02
   1       -5.5102
   2       -1.6617
   3       -1.5922
   4       -1.5849
   5       -1.2917
   6       -1.2892
   7       -1.2891
   8       -0.3896
   9       -0.3173
  10       -0.3149
  11        0.2021
  12        0.2491
  13        0.5260
  14        0.5279
  15        0.5782
  16        0.5883
  17        0.6004
  18        0.6636
  19        0.6837
  20        0.7305
  21        0.7310
  22        2.7753
  23        3.9638
  24        4.1573
  25        7.8790
  26        8.0668
  27        9.1918
  28       12.1064
  29       12.6481
  30       12.8988
  31       13.3419
  32       13.7099
 
  0.1666667E+00  0.4166667E-01  0.0000000E+00  0.1736111E-02
   1       -5.3849
   2       -1.6787
   3       -1.5425
   4       -1.5360
   5       -1.2643
   6       -1.2589
   7       -1.2588
   8       -0.4186
   9       -0.2924
  10       -0.2906
  11        0.1764
  12        0.2606
  13        0.4006
  14        0.4029
  15        0.5446
  16        0.5517
  17        0.5773
  18        0.6321
  19        0.6440
  20        0.7304
  21        0.7311
  22        2.2361
  23        4.2025
  24        4.3998
  25        7.9384
  26        8.1324
  27       10.0104
  28       11.5324
  29       12.0878
  30       12.4555
  31       12.9523
  32       13.8806
 
  0.2083333E+00  0.4166667E-01  0.0000000E+00  0.1736111E-02
   1       -5.2248
   2       -1.7131
   3       -1.4820
   4       -1.4764
   5       -1.2297
   6       -1.2198
   7       -1.2197
   8       -0.4550
   9       -0.2606
  10       -0.2597
  11        0.1450
  12        0.2594
  13        0.2637
  14        0.2751
  15        0.5029
  16        0.5091
  17        0.5365
  18        0.5951
  19        0.6035
  20        0.7304
  21        0.7311
  22        1.7093
  23        4.4860
  24        4.6898
  25        8.0167
  26        8.2189
  27       10.9095
  28       10.9538
  29       11.5021
  30       11.9905
  31       12.5027
  32       14.0965
 
  0.2500000E+00  0.4166667E-01  0.0000000E+00  0.1736111E-02
   1       -5.0307
   2       -1.7771
   3       -1.4134
   4       -1.4087
   5       -1.1887
   6       -1.1718
   7       -1.1714
   8       -0.4981
   9       -0.2227
  10       -0.2222
  11        0.1091
  12        0.1118
  13        0.1177
  14        0.2923
  15        0.4546
  16        0.4602
  17        0.4754
  18        0.5385
  19        0.5788
  20        0.7304
  21        0.7311
  22        1.2300
  23        4.8062
  24        5.0195
  25        8.1150
  26        8.3276
  27       10.3815
  28       10.9104
  29       11.5275
  30       11.8682
  31       12.0328
  32       14.3570
 
  0.2916667E+00  0.4166667E-01  0.0000000E+00  0.1736111E-02
   1       -4.8039
   2       -1.8864
   3       -1.3401
   4       -1.3365
   5       -1.1417
   6       -1.1147
   7       -1.1140
   8       -0.5471
   9       -0.1804
  10       -0.1775
  11       -0.0365
  12       -0.0294
  13        0.0709
  14        0.3119
  15        0.3908
  16        0.4019
  17        0.4069
  18        0.4758
  19        0.5533
  20        0.7305
  21        0.7311
  22        0.8343
  23        5.1572
  24        5.3830
  25        8.2347
  26        8.4601
  27        9.8216
  28       10.3230
  29       11.0812
  30       11.5661
  31       12.8749
  32       14.6595
 
  0.3333333E+00  0.4166667E-01  0.0000000E+00  0.1736111E-02
   1       -4.5458
   2       -2.0567
   3       -1.2667
   4       -1.2639
   5       -1.0895
   6       -1.0487
   7       -1.0471
   8       -0.6012
   9       -0.1816
  10       -0.1738
  11       -0.1347
  12       -0.1268
  13        0.0341
  14        0.2657
  15        0.3337
  16        0.3479
  17        0.3522
  18        0.4085
  19        0.5091
  20        0.5799
  21        0.7306
  22        0.7311
  23        5.5347
  24        5.7764
  25        8.3767
  26        8.6178
  27        9.2778
  28        9.7460
  29       10.6610
  30       11.1171
  31       13.9225
  32       15.0023
 
  0.3750000E+00  0.4166667E-01  0.0000000E+00  0.1736111E-02
   1       -4.2590
   2       -2.2942
   3       -1.1987
   4       -1.1966
   5       -1.0330
   6       -0.9735
   7       -0.9707
   8       -0.6593
   9       -0.3211
  10       -0.3129
  11       -0.0937
  12       -0.0707
  13        0.0090
  14        0.1127
  15        0.2968
  16        0.3004
  17        0.3381
  18        0.3573
  19        0.3936
  20        0.5184
  21        0.7307
  22        0.7311
  23        5.9356
  24        6.1965
  25        8.5333
  26        8.7604
  27        8.8010
  28        9.1829
  29       10.2740
  30       10.6953
  31       15.0059
  32       15.3820
 
  0.4166667E+00  0.4166667E-01  0.0000000E+00  0.1736111E-02
   1       -3.9467
   2       -2.5893
   3       -1.1425
   4       -1.1410
   5       -0.9732
   6       -0.8889
   7       -0.8846
   8       -0.7204
   9       -0.4531
  10       -0.4449
  11       -0.0822
  12       -0.0097
  13       -0.0055
  14        0.0240
  15        0.2541
  16        0.2567
  17        0.2663
  18        0.2980
  19        0.3823
  20        0.4894
  21        0.7308
  22        0.7311
  23        6.3576
  24        6.6411
  25        8.2270
  26        8.6361
  27        8.7479
  28        9.0055
  29        9.9292
  30       10.3074
  31       15.7970
  32       15.8548
 
  0.4583333E+00  0.4166667E-01  0.0000000E+00  0.1736111E-02
   1       -3.6139
   2       -2.9211
   3       -1.1049
   4       -1.1040
   5       -0.9109
   6       -0.7947
   7       -0.7888
   8       -0.7834
   9       -0.5765
  10       -0.5687
  11       -0.0933
  12       -0.0711
  13        0.0553
  14        0.0769
  15        0.1944
  16        0.2169
  17        0.2255
  18        0.2269
  19        0.4083
  20        0.4620
  21        0.7309
  22        0.7310
  23        6.7991
  24        7.1087
  25        7.7356
  26        8.1074
  27        8.9593
  28        9.1960
  29        9.6654
  30        9.9619
  31       16.2448
  32       16.3095
 
  0.5000000E+00  0.4166667E-01  0.0000000E+00  0.8680556E-03
   1       -3.2682
   2       -3.2682
   3       -1.0913
   4       -1.0913
   5       -0.8473
   6       -0.8473
   7       -0.6905
   8       -0.6905
   9       -0.6835
  10       -0.6835
  11       -0.0953
  12       -0.0953
  13        0.1237
  14        0.1237
  15        0.1433
  16        0.1433
  17        0.2158
  18        0.2158
  19        0.4350
  20        0.4350
  21        0.7310
  22        0.7310
  23        7.2588
  24        7.2588
  25        7.5978
  26        7.5978
  27        9.1689
  28        9.1689
  29        9.6878
  30        9.6878
  31       16.7243
  32       16.7829
 
  0.8333333E-01  0.8333333E-01  0.0000000E+00  0.8680556E-03
   1       -5.5461
   2       -1.6312
   3       -1.6312
   4       -1.5994
   5       -1.2989
   6       -1.2989
   7       -1.2980
   8       -0.3766
   9       -0.3289
  10       -0.3226
  11        0.2166
  12        0.2394
  13        0.5756
  14        0.5806
  15        0.5806
  16        0.5883
  17        0.6363
  18        0.6363
  19        0.7130
  20        0.7130
  21        0.7215
  22        3.3922
  23        3.3922
  24        4.0851
  25        7.8624
  26        8.5263
  27        8.5263
  28       12.0707
  29       13.2170
  30       13.2170
  31       13.3544
  32       13.3544
 
  0.1250000E+00  0.8333333E-01  0.0000000E+00  0.1736111E-02
   1       -5.4565
   2       -1.6378
   3       -1.5936
   4       -1.5639
   5       -1.2793
   6       -1.2776
   7       -1.2769
   8       -0.3947
   9       -0.3137
  10       -0.3065
  11        0.2013
  12        0.2455
  13        0.4858
  14        0.4911
  15        0.5467
  16        0.5645
  17        0.5942
  18        0.6262
  19        0.6836
  20        0.7130
  21        0.7158
  22        2.8892
  23        3.5695
  24        4.2647
  25        7.9047
  26        8.5807
  27        9.2283
  28       11.4637
  29       12.7167
  30       12.9669
  31       13.3349
  32       13.4729
 
  0.1666667E+00  0.8333333E-01  0.0000000E+00  0.1736111E-02
   1       -5.3316
   2       -1.6535
   3       -1.5429
   4       -1.5161
   5       -1.2523
   6       -1.2478
   7       -1.2474
   8       -0.4219
   9       -0.2901
  10       -0.2843
  11        0.1776
  12        0.2571
  13        0.3649
  14        0.3696
  15        0.4986
  16        0.5319
  17        0.5568
  18        0.6123
  19        0.6438
  20        0.7129
  21        0.7131
  22        2.3541
  23        3.7976
  24        4.5011
  25        7.9650
  26        8.6581
  27       10.0496
  28       10.8557
  29       12.1547
  30       12.5204
  31       13.4982
  32       13.5701
 
  0.2083333E+00  0.8333333E-01  0.0000000E+00  0.1736111E-02
   1       -5.1719
   2       -1.6863
   3       -1.4810
   4       -1.4578
   5       -1.2183
   6       -1.2093
   7       -1.2091
   8       -0.4571
   9       -0.2590
  10       -0.2563
  11        0.1480
  12        0.2236
  13        0.2377
  14        0.2727
  15        0.4352
  16        0.4914
  17        0.5138
  18        0.5943
  19        0.5949
  20        0.7118
  21        0.7128
  22        1.8367
  23        4.0658
  24        4.7852
  25        8.0444
  26        8.7596
  27       10.2583
  28       10.9503
  29       11.5679
  30       12.0527
  31       13.2103
  32       13.7054
 
  0.2500000E+00  0.8333333E-01  0.0000000E+00  0.1736111E-02
   1       -4.9784
   2       -1.7483
   3       -1.4106
   4       -1.3915
   5       -1.1778
   6       -1.1627
   7       -1.1616
   8       -0.4991
   9       -0.2235
  10       -0.2211
  11        0.0765
  12        0.0979
  13        0.1147
  14        0.2914
  15        0.3537
  16        0.4445
  17        0.4649
  18        0.5383
  19        0.5719
  20        0.7112
  21        0.7127
  22        1.3736
  23        4.3664
  24        5.1095
  25        8.1440
  26        8.8861
  27        9.6782
  28       10.9757
  29       11.5876
  30       11.9097
  31       12.7872
  32       13.9545
 
  0.2916667E+00  0.8333333E-01  0.0000000E+00  0.1736111E-02
   1       -4.7523
   2       -1.8551
   3       -1.3354
   4       -1.3204
   5       -1.1315
   6       -1.1078
   7       -1.1049
   8       -0.5471
   9       -0.1876
  10       -0.1767
  11       -0.0705
  12       -0.0440
  13        0.0811
  14        0.2498
  15        0.3130
  16        0.3932
  17        0.4117
  18        0.4755
  19        0.5432
  20        0.7110
  21        0.7126
  22        0.9984
  23        4.6938
  24        5.4684
  25        8.2645
  26        9.0387
  27        9.1198
  28       10.3883
  29       11.1403
  30       12.3415
  31       12.9165
  32       14.2432
 
  0.3333333E+00  0.8333333E-01  0.0000000E+00  0.1736111E-02
   1       -4.4951
   2       -2.0225
   3       -1.2598
   4       -1.2484
   5       -1.0802
   6       -1.0452
   7       -1.0391
   8       -0.6001
   9       -0.2138
  10       -0.1840
  11       -0.1532
  12       -0.1263
  13        0.0534
  14        0.1263
  15        0.3371
  16        0.3408
  17        0.3569
  18        0.4081
  19        0.5022
  20        0.7110
  21        0.7124
  22        0.7375
  23        5.0444
  24        5.8576
  25        8.3957
  26        8.5967
  27        9.2169
  28        9.8116
  29       10.7214
  30       11.8970
  31       13.9633
  32       14.5695
 
  0.3750000E+00  0.8333333E-01  0.0000000E+00  0.1736111E-02
   1       -4.2094
   2       -2.2571
   3       -1.1893
   4       -1.1806
   5       -1.0246
   6       -0.9749
   7       -0.9639
   8       -0.6571
   9       -0.3508
  10       -0.3194
  11       -0.1303
  12       -0.0704
  13        0.0064
  14        0.0440
  15        0.2914
  16        0.3047
  17        0.3378
  18        0.3633
  19        0.4339
  20        0.5938
  21        0.7111
  22        0.7123
  23        5.4159
  24        6.2743
  25        8.0559
  26        8.5927
  27        9.2492
  28        9.4150
  29       10.3433
  30       11.4677
  31       14.9307
  32       15.0275
 
  0.4166667E+00  0.8333333E-01  0.0000000E+00  0.1736111E-02
   1       -3.8984
   2       -2.5493
   3       -1.1304
   4       -1.1240
   5       -0.9657
   6       -0.8964
   7       -0.8792
   8       -0.7171
   9       -0.4798
  10       -0.4482
  11       -0.1286
  12       -0.0813
  13       -0.0096
  14        0.0660
  15        0.2505
  16        0.2601
  17        0.2660
  18        0.3435
  19        0.3913
  20        0.5275
  21        0.7112
  22        0.7121
  23        5.8072
  24        6.7160
  25        7.5669
  26        8.7035
  27        8.7874
  28        9.5886
  29       10.0547
  30       11.0628
  31       15.3247
  32       15.4860
 
  0.4583333E+00  0.8333333E-01  0.0000000E+00  0.1736111E-02
   1       -3.5672
   2       -2.8786
   3       -1.0903
   4       -1.0866
   5       -0.9045
   6       -0.8082
   7       -0.7852
   8       -0.7791
   9       -0.5997
  10       -0.5693
  11       -0.1388
  12       -0.1286
  13        0.0553
  14        0.1149
  15        0.1942
  16        0.2238
  17        0.2289
  18        0.2567
  19        0.4209
  20        0.4864
  21        0.7114
  22        0.7119
  23        6.2176
  24        7.0969
  25        7.1812
  26        8.1761
  27        9.0119
  28        9.5111
  29       10.0843
  30       10.6888
  31       15.7489
  32       15.9214
 
  0.5000000E+00  0.8333333E-01  0.0000000E+00  0.8680556E-03
   1       -3.2234
   2       -3.2234
   3       -1.0747
   4       -1.0747
   5       -0.8419
   6       -0.8419
   7       -0.7094
   8       -0.7094
   9       -0.6818
  10       -0.6818
  11       -0.1436
  12       -0.1436
  13        0.1236
  14        0.1236
  15        0.1800
  16        0.1800
  17        0.2161
  18        0.2161
  19        0.4523
  20        0.4523
  21        0.7116
  22        0.7116
  23        6.6474
  24        6.6474
  25        7.6682
  26        7.6682
  27        9.2611
  28        9.2611
  29       10.3538
  30       10.3538
  31       16.2010
  32       16.2011
 
  0.1250000E+00  0.1250000E+00  0.0000000E+00  0.8680556E-03
   1       -5.3673
   2       -1.5988
   3       -1.5988
   4       -1.5298
   5       -1.2585
   6       -1.2585
   7       -1.2567
   8       -0.4079
   9       -0.3029
  10       -0.2927
  11        0.1934
  12        0.2466
  13        0.4121
  14        0.4427
  15        0.4427
  16        0.5419
  17        0.5941
  18        0.5941
  19        0.6835
  20        0.6835
  21        0.7020
  22        3.0635
  23        3.0635
  24        4.4364
  25        7.9481
  26        9.2896
  27        9.2896
  28       10.8189
  29       12.8302
  30       12.8302
  31       13.0798
  32       13.0798
 
  0.1666667E+00  0.1250000E+00  0.0000000E+00  0.1736111E-02
   1       -5.2429
   2       -1.6125
   3       -1.5461
   4       -1.4838
   5       -1.2322
   6       -1.2294
   7       -1.2282
   8       -0.4309
   9       -0.2828
  10       -0.2739
  11        0.1750
  12        0.2563
  13        0.3115
  14        0.3118
  15        0.3810
  16        0.5109
  17        0.5587
  18        0.5872
  19        0.6436
  20        0.6833
  21        0.6927
  22        2.5297
  23        3.2841
  24        4.6640
  25        8.0099
  26        9.3761
  27       10.1151
  28       10.1863
  29       12.2652
  30       12.6280
  31       12.9875
  32       13.2363
 
  0.2083333E+00  0.1250000E+00  0.0000000E+00  0.1736111E-02
   1       -5.0840
   2       -1.6426
   3       -1.4819
   4       -1.4278
   5       -1.1991
   6       -1.1916
   7       -1.1916
   8       -0.4629
   9       -0.2540
  10       -0.2505
  11        0.1492
  12        0.1688
  13        0.1928
  14        0.2726
  15        0.3045
  16        0.4724
  17        0.5167
  18        0.5733
  19        0.5946
  20        0.6831
  21        0.6871
  22        2.0173
  23        3.5404
  24        4.9395
  25        8.0910
  26        9.4886
  27        9.5731
  28       11.0181
  29       11.6767
  30       12.1560
  31       13.1868
  32       13.4352
 
  0.2500000E+00  0.1250000E+00  0.0000000E+00  0.1736111E-02
   1       -4.8915
   2       -1.7011
   3       -1.4087
   4       -1.3639
   5       -1.1597
   6       -1.1472
   7       -1.1453
   8       -0.5024
   9       -0.2240
  10       -0.2175
  11        0.0221
  12        0.0639
  13        0.1199
  14        0.2122
  15        0.2938
  16        0.4276
  17        0.4686
  18        0.5378
  19        0.5523
  20        0.6828
  21        0.6838
  22        1.5603
  23        3.8250
  24        5.2558
  25        8.1922
  26        8.9843
  27        9.6270
  28       11.0837
  29       11.6881
  30       11.9781
  31       13.4264
  32       13.5528
 
  0.2916667E+00  0.1250000E+00  0.0000000E+00  0.1736111E-02
   1       -4.6666
   2       -1.8039
   3       -1.3301
   4       -1.2949
   5       -1.1146
   6       -1.0958
   7       -1.0900
   8       -0.5481
   9       -0.1970
  10       -0.1741
  11       -0.1231
  12       -0.0689
  13        0.0919
  14        0.1054
  15        0.3187
  16        0.3787
  17        0.4159
  18        0.4750
  19        0.5229
  20        0.6820
  21        0.6825
  22        1.1856
  23        4.1335
  24        5.6076
  25        8.2991
  26        8.4379
  27        9.7901
  28       10.4962
  29       11.2411
  30       12.9834
  31       13.1550
  32       13.7042
 
  0.3333333E+00  0.1250000E+00  0.0000000E+00  0.1736111E-02
   1       -4.4110
   2       -1.9667
   3       -1.2506
   4       -1.2238
   5       -1.0646
   6       -1.0385
   7       -1.0259
   8       -0.5990
   9       -0.2634
  10       -0.2014
  11       -0.1749
  12       -0.1245
  13       -0.0055
  14        0.0725
  15        0.3287
  16        0.3468
  17        0.3615
  18        0.4076
  19        0.4827
  20        0.6810
  21        0.6821
  22        0.9083
  23        4.4634
  24        5.9907
  25        7.8739
  26        8.4744
  27        9.9201
  28        9.9691
  29       10.8333
  30       12.7346
  31       14.0154
  32       14.0180
 
  0.3750000E+00  0.1250000E+00  0.0000000E+00  0.1736111E-02
   1       -4.1271
   2       -2.1964
   3       -1.1757
   4       -1.1553
   5       -1.0106
   6       -0.9762
   7       -0.9527
   8       -0.6540
   9       -0.3967
  10       -0.3304
  11       -0.1655
  12       -0.1007
  13       -0.0692
  14        0.0720
  15        0.2819
  16        0.3090
  17        0.3373
  18        0.3779
  19        0.4271
  20        0.6805
  21        0.6817
  22        0.7243
  23        4.8135
  24        6.4021
  25        7.3649
  26        8.6477
  27        9.3589
  28       10.0970
  29       10.5377
  30       12.3152
  31       14.3656
  32       14.6050
 
  0.4166667E+00  0.1250000E+00  0.0000000E+00  0.1736111E-02
   1       -3.8184
   2       -2.4838
   3       -1.1122
   4       -1.0966
   5       -0.9533
   6       -0.9081
   7       -0.8705
   8       -0.7121
   9       -0.5215
  10       -0.4539
  11       -0.1721
  12       -0.1642
  13       -0.0089
  14        0.0970
  15        0.2438
  16        0.2634
  17        0.2657
  18        0.3559
  19        0.4118
  20        0.6120
  21        0.6804
  22        0.6814
  23        5.1837
  24        6.8393
  25        6.8807
  26        8.8148
  27        8.8504
  28        9.9301
  29       10.6013
  30       11.9106
  31       14.7449
  32       14.9946
 
  0.4583333E+00  0.1250000E+00  0.0000000E+00  0.1736111E-02
   1       -3.4900
   2       -2.8086
   3       -1.0672
   4       -1.0581
   5       -0.8938
   6       -0.8303
   7       -0.7792
   8       -0.7721
   9       -0.6363
  10       -0.5704
  11       -0.1942