   4   4   0   0
  0.1514880E+02  0.3927770E-09  0.3927770E-09  0.3927770E-09  0.5000000E-15
  1.000000000000000E-004
  CAR 
 unknown system                          
     21.77537465     -7.00540434  301      1.90478884      1.00000000
     -7.005  0.0000E+00  0.0000E+00
     -6.909  0.0000E+00  0.0000E+00
     -6.814  0.0000E+00  0.0000E+00
     -6.718  0.0000E+00  0.0000E+00
     -6.622  0.0000E+00  0.0000E+00
     -6.526  0.0000E+00  0.0000E+00
     -6.430  0.0000E+00  0.0000E+00
     -6.334  0.0000E+00  0.0000E+00
     -6.238  0.0000E+00  0.0000E+00
     -6.142  0.0000E+00  0.0000E+00
     -6.046  0.0000E+00  0.0000E+00
     -5.950  0.0000E+00  0.0000E+00
     -5.854  0.0000E+00  0.0000E+00
     -5.758  0.0000E+00  0.0000E+00
     -5.662  0.1908E-01  0.1831E-02
     -5.566  0.9468E-01  0.1184E-01
     -5.470  0.1429E+00  0.2716E-01
     -5.374  0.1988E+00  0.4846E-01
     -5.279  0.1577E+00  0.6794E-01
     -5.183  0.2957E+00  0.9855E-01
     -5.087  0.1937E+00  0.1255E+00
     -4.991  0.2391E+00  0.1524E+00
     -4.895  0.2972E+00  0.1936E+00
     -4.799  0.3005E+00  0.2252E+00
     -4.703  0.3921E+00  0.2655E+00
     -4.607  0.3616E+00  0.3042E+00
     -4.511  0.4645E+00  0.3488E+00
     -4.415  0.3245E+00  0.3953E+00
     -4.319  0.3168E+00  0.4322E+00
     -4.223  0.4761E+00  0.4900E+00
     -4.127  0.5137E+00  0.5422E+00
     -4.031  0.4065E+00  0.5875E+00
     -3.935  0.4888E+00  0.6457E+00
     -3.840  0.5634E+00  0.7128E+00
     -3.744  0.5070E+00  0.7641E+00
     -3.648  0.5244E+00  0.8282E+00
     -3.552  0.5470E+00  0.8903E+00
     -3.456  0.5963E+00  0.9627E+00
     -3.360  0.5865E+00  0.1031E+01
     -3.264  0.7132E+00  0.1102E+01
     -3.168  0.7548E+00  0.1188E+01
     -3.072  0.8128E+00  0.1267E+01
     -2.976  0.5976E+00  0.1338E+01
     -2.880  0.8168E+00  0.1437E+01
     -2.784  0.7571E+00  0.1528E+01
     -2.688  0.7721E+00  0.1628E+01
     -2.592  0.9834E+00  0.1738E+01
     -2.496  0.1090E+01  0.1854E+01
     -2.400  0.1105E+01  0.1978E+01
     -2.305  0.1325E+01  0.2110E+01
     -2.209  0.1292E+01  0.2266E+01
     -2.113  0.1342E+01  0.2427E+01
     -2.017  0.2306E+01  0.2664E+01
     -1.921  0.2274E+01  0.2930E+01
     -1.825  0.3111E+01  0.3294E+01
     -1.729  0.3436E+01  0.3670E+01
     -1.633  0.4974E+01  0.4237E+01
     -1.537  0.5114E+01  0.4839E+01
     -1.441  0.5583E+01  0.5469E+01
     -1.345  0.7416E+01  0.6270E+01
     -1.249  0.9374E+01  0.7321E+01
     -1.153  0.1097E+02  0.8597E+01
     -1.057  0.9730E+01  0.9736E+01
     -0.961  0.1000E+02  0.1089E+02
     -0.866  0.9881E+01  0.1207E+02
     -0.770  0.1137E+02  0.1332E+02
     -0.674  0.1373E+02  0.1493E+02
     -0.578  0.1539E+02  0.1673E+02
     -0.482  0.1804E+02  0.1877E+02
     -0.386  0.2035E+02  0.2112E+02
     -0.290  0.2159E+02  0.2366E+02
     -0.194  0.1464E+02  0.2534E+02
     -0.098  0.1268E+02  0.2680E+02
     -0.002  0.1626E+02  0.2863E+02
      0.094  0.1927E+02  0.3081E+02
      0.190  0.1641E+02  0.3278E+02
      0.286  0.1611E+02  0.3461E+02
      0.382  0.1776E+02  0.3664E+02
      0.478  0.2920E+02  0.3988E+02
      0.574  0.1397E+02  0.4177E+02
      0.669  0.1340E+01  0.4197E+02
      0.765  0.1340E+01  0.4217E+02
      0.861  0.1630E+01  0.4237E+02
      0.957  0.1574E+01  0.4255E+02
      1.053  0.1163E+01  0.4269E+02
      1.149  0.1619E+01  0.4288E+02
      1.245  0.9802E+00  0.4300E+02
      1.341  0.1654E+01  0.4317E+02
      1.437  0.1101E+01  0.4330E+02
      1.533  0.1120E+01  0.4342E+02
      1.629  0.1390E+01  0.4359E+02
      1.725  0.1069E+01  0.4372E+02
      1.821  0.1105E+01  0.4384E+02
      1.917  0.1569E+01  0.4401E+02
      2.013  0.1056E+01  0.4412E+02
      2.109  0.1003E+01  0.4424E+02
      2.204  0.1308E+01  0.4438E+02
      2.300  0.1086E+01  0.4451E+02
      2.396  0.9501E+00  0.4462E+02
      2.492  0.1067E+01  0.4474E+02
      2.588  0.1189E+01  0.4488E+02
      2.684  0.1034E+01  0.4500E+02
      2.780  0.6525E+00  0.4508E+02
      2.876  0.1430E+01  0.4522E+02
      2.972  0.1034E+01  0.4535E+02
      3.068  0.9143E+00  0.4545E+02
      3.164  0.9827E+00  0.4556E+02
      3.260  0.9902E+00  0.4567E+02
      3.356  0.9832E+00  0.4578E+02
      3.452  0.1053E+01  0.4590E+02
      3.548  0.8328E+00  0.4600E+02
      3.643  0.7177E+00  0.4608E+02
      3.739  0.1075E+01  0.4621E+02
      3.835  0.1004E+01  0.4632E+02
      3.931  0.7321E+00  0.4642E+02
      4.027  0.9090E+00  0.4651E+02
      4.123  0.8399E+00  0.4660E+02
      4.219  0.8569E+00  0.4670E+02
      4.315  0.9150E+00  0.4680E+02
      4.411  0.6848E+00  0.4689E+02
      4.507  0.6459E+00  0.4697E+02
      4.603  0.7791E+00  0.4705E+02
      4.699  0.1011E+01  0.4717E+02
      4.795  0.1068E+01  0.4729E+02
      4.891  0.1155E+01  0.4741E+02
      4.987  0.1112E+01  0.4755E+02
      5.083  0.1053E+01  0.4765E+02
      5.178  0.1344E+01  0.4780E+02
      5.274  0.1253E+01  0.4794E+02
      5.370  0.1167E+01  0.4806E+02
      5.466  0.1127E+01  0.4818E+02
      5.562  0.1159E+01  0.4832E+02
      5.658  0.9445E+00  0.4843E+02
      5.754  0.1360E+01  0.4857E+02
      5.850  0.7914E+00  0.4867E+02
      5.946  0.1420E+01  0.4881E+02
      6.042  0.9141E+00  0.4893E+02
      6.138  0.1006E+01  0.4904E+02
      6.234  0.1144E+01  0.4916E+02
      6.330  0.1306E+01  0.4929E+02
      6.426  0.9686E+00  0.4940E+02
      6.522  0.1120E+01  0.4952E+02
      6.617  0.8548E+00  0.4962E+02
      6.713  0.8076E+00  0.4973E+02
      6.809  0.9865E+00  0.4983E+02
      6.905  0.1097E+01  0.4995E+02
      7.001  0.9271E+00  0.5006E+02
      7.097  0.6850E+00  0.5015E+02
      7.193  0.8661E+00  0.5027E+02
      7.289  0.6158E+00  0.5035E+02
      7.385  0.1070E+01  0.5047E+02
      7.481  0.8854E+00  0.5057E+02
      7.577  0.1225E+01  0.5071E+02
      7.673  0.1168E+01  0.5083E+02
      7.769  0.1134E+01  0.5096E+02
      7.865  0.1054E+01  0.5109E+02
      7.961  0.1093E+01  0.5124E+02
      8.057  0.1205E+01  0.5137E+02
      8.152  0.1103E+01  0.5151E+02
      8.248  0.1113E+01  0.5165E+02
      8.344  0.1586E+01  0.5181E+02
      8.440  0.1218E+01  0.5196E+02
      8.536  0.1153E+01  0.5210E+02
      8.632  0.1279E+01  0.5224E+02
      8.728  0.1338E+01  0.5240E+02
      8.824  0.1221E+01  0.5253E+02
      8.920  0.1178E+01  0.5268E+02
      9.016  0.1552E+01  0.5285E+02
      9.112  0.1379E+01  0.5301E+02
      9.208  0.1289E+01  0.5316E+02
      9.304  0.1334E+01  0.5331E+02
      9.400  0.1420E+01  0.5346E+02
      9.496  0.1288E+01  0.5360E+02
      9.592  0.1164E+01  0.5373E+02
      9.687  0.1520E+01  0.5390E+02
      9.783  0.1181E+01  0.5405E+02
      9.879  0.1347E+01  0.5421E+02
      9.975  0.1275E+01  0.5439E+02
     10.071  0.1371E+01  0.5455E+02
     10.167  0.1176E+01  0.5468E+02
     10.263  0.1391E+01  0.5484E+02
     10.359  0.1319E+01  0.5500E+02
     10.455  0.1125E+01  0.5515E+02
     10.551  0.1512E+01  0.5532E+02
     10.647  0.1297E+01  0.5547E+02
     10.743  0.1636E+01  0.5566E+02
     10.839  0.1311E+01  0.5581E+02
     10.935  0.1580E+01  0.5600E+02
     11.031  0.8612E+00  0.5611E+02
     11.126  0.1683E+01  0.5627E+02
     11.222  0.1607E+01  0.5646E+02
     11.318  0.1701E+01  0.5664E+02
     11.414  0.1160E+01  0.5677E+02
     11.510  0.1159E+01  0.5692E+02
     11.606  0.1709E+01  0.5712E+02
     11.702  0.1082E+01  0.5726E+02
     11.798  0.1786E+01  0.5748E+02
     11.894  0.1285E+01  0.5762E+02
     11.990  0.1589E+01  0.5779E+02
     12.086  0.1693E+01  0.5797E+02
     12.182  0.1435E+01  0.5814E+02
     12.278  0.1098E+01  0.5828E+02
     12.374  0.1576E+01  0.5846E+02
     12.470  0.1625E+01  0.5865E+02
     12.566  0.1664E+01  0.5884E+02
     12.661  0.1444E+01  0.5899E+02
     12.757  0.1548E+01  0.5918E+02
     12.853  0.2065E+01  0.5940E+02
     12.949  0.1460E+01  0.5957E+02
     13.045  0.1382E+01  0.5973E+02
     13.141  0.1575E+01  0.5992E+02
     13.237  0.1835E+01  0.6013E+02
     13.333  0.1637E+01  0.6031E+02
     13.429  0.1619E+01  0.6050E+02
     13.525  0.1304E+01  0.6065E+02
     13.621  0.1654E+01  0.6083E+02
     13.717  0.1853E+01  0.6103E+02
     13.813  0.1404E+01  0.6120E+02
     13.909  0.1215E+01  0.6133E+02
     14.005  0.1697E+01  0.6151E+02
     14.101  0.1110E+01  0.6164E+02
     14.196  0.1350E+01  0.6178E+02
     14.292  0.9732E+00  0.6189E+02
     14.388  0.8345E+00  0.6199E+02
     14.484  0.9756E+00  0.6210E+02
     14.580  0.9622E+00  0.6220E+02
     14.676  0.1055E+01  0.6234E+02
     14.772  0.6690E+00  0.6241E+02
     14.868  0.7278E+00  0.6249E+02
     14.964  0.9081E+00  0.6258E+02
     15.060  0.5563E+00  0.6266E+02
     15.156  0.6150E+00  0.6273E+02
     15.252  0.6489E+00  0.6280E+02
     15.348  0.5799E+00  0.6286E+02
     15.444  0.3681E+00  0.6291E+02
     15.540  0.7039E+00  0.6298E+02
     15.635  0.3461E+00  0.6302E+02
     15.731  0.3156E+00  0.6307E+02
     15.827  0.7569E+00  0.6316E+02
     15.923  0.3712E+00  0.6320E+02
     16.019  0.3750E+00  0.6324E+02
     16.115  0.2582E+00  0.6327E+02
     16.211  0.4701E+00  0.6332E+02
     16.307  0.3429E+00  0.6337E+02
     16.403  0.2532E+00  0.6339E+02
     16.499  0.4224E+00  0.6343E+02
     16.595  0.1844E+00  0.6346E+02
     16.691  0.4314E+00  0.6350E+02
     16.787  0.2821E+00  0.6353E+02
     16.883  0.3325E+00  0.6356E+02
     16.979  0.2887E+00  0.6359E+02
     17.075  0.8408E-01  0.6360E+02
     17.170  0.2532E+00  0.6363E+02
     17.266  0.3670E+00  0.6367E+02
     17.362  0.8438E-01  0.6368E+02
     17.458  0.1401E+00  0.6369E+02
     17.554  0.2016E+00  0.6372E+02
     17.650  0.1810E+00  0.6374E+02
     17.746  0.1166E+00  0.6375E+02
     17.842  0.2957E+00  0.6378E+02
     17.938  0.3619E-01  0.6379E+02
     18.034  0.1447E+00  0.6381E+02
     18.130  0.1895E+00  0.6383E+02
     18.226  0.6721E-01  0.6385E+02
     18.322  0.8457E-01  0.6385E+02
     18.418  0.1808E+00  0.6387E+02
     18.514  0.1164E+00  0.6388E+02
     18.609  0.1429E-09  0.6389E+02
     18.705  0.5585E-01  0.6390E+02
     18.801  0.1448E+00  0.6392E+02
     18.897  0.0000E+00  0.6392E+02
     18.993  0.1080E+00  0.6393E+02
     19.089  0.1311E+00  0.6394E+02
     19.185  0.2392E-08  0.6395E+02
     19.281  0.8467E-01  0.6395E+02
     19.377  0.7268E-01  0.6396E+02
     19.473  0.9497E-14  0.6396E+02
     19.569  0.7368E-01  0.6397E+02
     19.665  0.7790E-04  0.6397E+02
     19.761  0.3612E-01  0.6398E+02
     19.857  0.7219E-01  0.6398E+02
     19.953  0.7496E-14  0.6399E+02
     20.049  0.3625E-01  0.6399E+02
     20.144  0.4807E-01  0.6400E+02
     20.240  0.2358E-01  0.6400E+02
     20.336  0.0000E+00  0.6400E+02
     20.432  0.2435E-08  0.6400E+02
     20.528  0.6032E-02  0.6400E+02
     20.624  0.0000E+00  0.6400E+02
     20.720  0.0000E+00  0.6400E+02
     20.816  0.0000E+00  0.6400E+02
     20.912  0.0000E+00  0.6400E+02
     21.008  0.0000E+00  0.6400E+02
     21.104  0.0000E+00  0.6400E+02
     21.200  0.0000E+00  0.6400E+02
     21.296  0.0000E+00  0.6400E+02
     21.392  0.0000E+00  0.6400E+02
     21.488  0.0000E+00  0.6400E+02
     21.584  0.0000E+00  0.6400E+02
     21.679  0.0000E+00  0.6400E+02
     21.775  0.0000E+00  0.6400E+02
