    4    4    1    1
  0.1514880E+02  0.3927770E-09  0.3927770E-09  0.3927770E-09  0.5000000E-15
  1.000000000000000E-004
  CAR 
 unknown system                          
   44  455   32
 
  0.0000000E+00  0.0000000E+00  0.0000000E+00  0.7233796E-04
   1       -5.6972
   2       -1.7231
   3       -1.7231
   4       -1.7231
   5       -1.4101
   6       -1.4101
   7       -1.4101
   8       -0.4710
   9       -0.4710
  10       -0.4710
  11        0.0904
  12        0.0904
  13        0.4653
  14        0.4653
  15        0.4653
  16        0.5700
  17        0.5700
  18        0.5700
  19        0.5700
  20        0.5700
  21        0.5700
  22        3.6072
  23        3.6072
  24        3.6072
  25        7.4474
  26        7.4474
  27        7.4474
  28       13.2512
  29       13.2512
  30       13.2512
  31       13.2512
  32       13.2512
 
  0.4166667E-01  0.0000000E+00  0.0000000E+00  0.4340278E-03
   1       -5.6795
   2       -1.7238
   3       -1.7158
   4       -1.7158
   5       -1.4062
   6       -1.4059
   7       -1.4059
   8       -0.4751
   9       -0.4675
  10       -0.4675
  11        0.0867
  12        0.0920
  13        0.4605
  14        0.4605
  15        0.4637
  16        0.5473
  17        0.5473
  18        0.5642
  19        0.5642
  20        0.5700
  21        0.5700
  22        3.4553
  23        3.6464
  24        3.6464
  25        7.4555
  26        7.4555
  27        7.6366
  28       13.1138
  29       13.1138
  30       13.1523
  31       13.1523
  32       13.2759
 
  0.8333333E-01  0.0000000E+00  0.0000000E+00  0.4340278E-03
   1       -5.6264
   2       -1.7268
   3       -1.6941
   4       -1.6941
   5       -1.3946
   6       -1.3935
   7       -1.3935
   8       -0.4874
   9       -0.4571
  10       -0.4571
  11        0.0755
  12        0.0967
  13        0.4461
  14        0.4461
  15        0.4588
  16        0.4828
  17        0.4828
  18        0.5470
  19        0.5470
  20        0.5700
  21        0.5700
  22        3.0694
  23        3.7606
  24        3.7606
  25        7.4799
  26        7.4799
  27        8.1350
  28       12.7543
  29       12.7543
  30       12.8831
  31       12.8831
  32       13.3496
 
  0.1250000E+00  0.0000000E+00  0.0000000E+00  0.4340278E-03
   1       -5.5382
   2       -1.7345
   3       -1.6587
   4       -1.6587
   5       -1.3754
   6       -1.3727
   7       -1.3727
   8       -0.5077
   9       -0.4399
  10       -0.4399
  11        0.0573
  12        0.1045
  13        0.3849
  14        0.3849
  15        0.4224
  16        0.4224
  17        0.4508
  18        0.5190
  19        0.5190
  20        0.5700
  21        0.5700
  22        2.5676
  23        3.9412
  24        3.9412
  25        7.5211
  26        7.5211
  27        8.8269
  28       12.2661
  29       12.2661
  30       12.5023
  31       12.5023
  32       13.4718
 
  0.1666667E+00  0.0000000E+00  0.0000000E+00  0.4340278E-03
   1       -5.4152
   2       -1.7519
   3       -1.6111
   4       -1.6111
   5       -1.3490
   6       -1.3434
   7       -1.3434
   8       -0.5356
   9       -0.4159
  10       -0.4159
  11        0.0325
  12        0.1152
  13        0.2639
  14        0.2639
  15        0.3901
  16        0.3901
  17        0.4398
  18        0.4811
  19        0.4811
  20        0.5701
  21        0.5701
  22        2.0301
  23        4.1777
  24        4.1777
  25        7.5798
  26        7.5798
  27        9.6362
  28       11.7161
  29       11.7161
  30       12.0636
  31       12.0636
  32       13.6414
 
  0.2083333E+00  0.0000000E+00  0.0000000E+00  0.4340278E-03
   1       -5.2580
   2       -1.7867
   3       -1.5531
   4       -1.5531
   5       -1.3157
   6       -1.3055
   7       -1.3055
   8       -0.5706
   9       -0.3853
  10       -0.3853
  11        0.0019
  12        0.1286
  13        0.1292
  14        0.1292
  15        0.3499
  16        0.3499
  17        0.4260
  18        0.4344
  19        0.4344
  20        0.5701
  21        0.5701
  22        1.5034
  23        4.4607
  24        4.4607
  25        7.6571
  26        7.6571
  27       10.5236
  28       11.1408
  29       11.1408
  30       11.6041
  31       11.6041
  32       13.8570
 
  0.2500000E+00  0.0000000E+00  0.0000000E+00  0.4340278E-03
   1       -5.0675
   2       -1.8509
   3       -1.4874
   4       -1.4874
   5       -1.2762
   6       -1.2589
   7       -1.2589
   8       -0.6120
   9       -0.3484
  10       -0.3484
  11       -0.0332
  12       -0.0121
  13       -0.0120
  14        0.1446
  15        0.3033
  16        0.3033
  17        0.3804
  18        0.3804
  19        0.4097
  20        0.5702
  21        0.5702
  22        1.0186
  23        4.7827
  24        4.7827
  25        7.7540
  26        7.7540
  27       10.5595
  28       10.5595
  29       11.1470
  30       11.1470
  31       11.4690
  32       14.1170
 
  0.2916667E+00  0.0000000E+00  0.0000000E+00  0.4340278E-03
   1       -4.8445
   2       -1.9602
   3       -1.4173
   4       -1.4173
   5       -1.2309
   6       -1.2034
   7       -1.2034
   8       -0.6592
   9       -0.3055
  10       -0.3055
  11       -0.1544
  12       -0.1544
  13       -0.0714
  14        0.1628
  15        0.2524
  16        0.2524
  17        0.3204
  18        0.3204
  19        0.3911
  20        0.5703
  21        0.5703
  22        0.6014
  23        5.1382
  24        5.1382
  25        7.8718
  26        7.8718
  27        9.9826
  28        9.9826
  29       10.7068
  30       10.7068
  31       12.4612
  32       14.4196
 
  0.3333333E+00  0.0000000E+00  0.0000000E+00  0.4340278E-03
   1       -4.5909
   2       -2.1301
   3       -1.3471
   4       -1.3471
   5       -1.1807
   6       -1.1388
   7       -1.1388
   8       -0.7111
   9       -0.2942
  10       -0.2942
  11       -0.2569
  12       -0.2569
  13       -0.1107
  14        0.1830
  15        0.2003
  16        0.2003
  17        0.2560
  18        0.2560
  19        0.2726
  20        0.3705
  21        0.5703
  22        0.5703
  23        5.5229
  24        5.5229
  25        8.0116
  26        8.0116
  27        9.4158
  28        9.4158
  29       10.2926
  30       10.2926
  31       13.4937
  32       14.7630
 
  0.3750000E+00  0.0000000E+00  0.0000000E+00  0.4340278E-03
   1       -4.3088
   2       -2.3667
   3       -1.2822
   4       -1.2822
   5       -1.1264
   6       -1.0649
   7       -1.0649
   8       -0.7669
   9       -0.4287
  10       -0.4287
  11       -0.2030
  12       -0.2030
  13       -0.1483
  14        0.0411
  15        0.1509
  16        0.1509
  17        0.1887
  18        0.1887
  19        0.2049
  20        0.3484
  21        0.5704
  22        0.5704
  23        5.9342
  24        5.9342
  25        8.1736
  26        8.1736
  27        8.8629
  28        8.8629
  29        9.9112
  30        9.9112
  31       14.5620
  32       15.1451
 
  0.4166667E+00  0.0000000E+00  0.0000000E+00  0.4340278E-03
   1       -4.0013
   2       -2.6600
   3       -1.2288
   4       -1.2288
   5       -1.0688
   6       -0.9817
   7       -0.9817
   8       -0.8257
   9       -0.5565
  10       -0.5565
  11       -0.1804
  12       -0.1446
  13       -0.1446
  14       -0.1018
  15        0.1094
  16        0.1094
  17        0.1200
  18        0.1200
  19        0.2280
  20        0.3250
  21        0.5704
  22        0.5704
  23        6.3697
  24        6.3697
  25        8.3262
  26        8.3262
  27        8.3551
  28        8.3551
  29        9.5698
  30        9.5698
  31       15.5640
  32       15.5660
 
  0.4583333E+00  0.0000000E+00  0.0000000E+00  0.4340278E-03
   1       -3.6734
   2       -2.9889
   3       -1.1933
   4       -1.1933
   5       -1.0089
   6       -0.8891
   7       -0.8891
   8       -0.8863
   9       -0.6762
  10       -0.6762
  11       -0.2016
  12       -0.1764
  13       -0.0822
  14       -0.0822
  15        0.0511
  16        0.0511
  17        0.0813
  18        0.0813
  19        0.2520
  20        0.3009
  21        0.5704
  22        0.5704
  23        6.8280
  24        6.8280
  25        7.8073
  26        7.8073
  27        8.5407
  28        8.5407
  29        9.2872
  30        9.2872
  31       16.0180
  32       16.0180
 
  0.5000000E+00  0.0000000E+00  0.0000000E+00  0.2170139E-03
   1       -3.3322
   2       -3.3322
   3       -1.1807
   4       -1.1807
   5       -0.9477
   6       -0.9477
   7       -0.7872
   8       -0.7872
   9       -0.7872
  10       -0.7872
  11       -0.2041
  12       -0.2041
  13       -0.0166
  14       -0.0166
  15       -0.0166
  16       -0.0166
  17        0.0713
  18        0.0713
  19        0.2764
  20        0.2764
  21        0.5704
  22        0.5704
  23        7.3075
  24        7.3075
  25        7.3075
  26        7.3075
  27        8.6464
  28        8.6464
  29        9.1491
  30        9.1491
  31       16.5050
  32       16.5050
 
  0.4166667E-01  0.4166667E-01  0.0000000E+00  0.8680556E-03
   1       -5.6618
   2       -1.7165
   3       -1.7165
   4       -1.7085
   5       -1.4020
   6       -1.4020
   7       -1.4018
   8       -0.4774
   9       -0.4658
  10       -0.4641
  11        0.0856
  12        0.0910
  13        0.4557
  14        0.4583
  15        0.4583
  16        0.5290
  17        0.5418
  18        0.5418
  19        0.5642
  20        0.5642
  21        0.5662
  22        3.4939
  23        3.4939
  24        3.6851
  25        7.4636
  26        7.6456
  27        7.6456
  28       12.7719
  29       13.1380
  30       13.1380
  31       13.1765
  32       13.1765
 
  0.8333333E-01  0.4166667E-01  0.0000000E+00  0.1736111E-02
   1       -5.6088
   2       -1.7192
   3       -1.6946
   4       -1.6870
   5       -1.3905
   6       -1.3897
   7       -1.3894
   8       -0.4887
   9       -0.4564
  10       -0.4540
  11        0.0756
  12        0.0948
  13        0.4398
  14        0.4415
  15        0.4516
  16        0.4679
  17        0.4806
  18        0.5255
  19        0.5470
  20        0.5642
  21        0.5642
  22        3.1072
  23        3.6060
  24        3.7979
  25        7.4882
  26        7.6727
  27        8.1456
  28       12.2917
  29       12.7775
  30       12.9065
  31       13.2104
  32       13.2305
 
  0.1250000E+00  0.4166667E-01  0.0000000E+00  0.1736111E-02
   1       -5.5206
   2       -1.7267
   3       -1.6590
   4       -1.6519
   5       -1.3714
   6       -1.3690
   7       -1.3688
   8       -0.5086
   9       -0.4394
  10       -0.4372
  11        0.0577
  12        0.1026
  13        0.3702
  14        0.3725
  15        0.4180
  16        0.4280
  17        0.4392
  18        0.5001
  19        0.5190
  20        0.5637
  21        0.5642
  22        2.6056
  23        3.7826
  24        3.9765
  25        7.5296
  26        7.7185
  27        8.8389
  28       11.7510
  29       12.2885
  30       12.5245
  31       12.9655
  32       13.3302
 
  0.1666667E+00  0.4166667E-01  0.0000000E+00  0.1736111E-02
   1       -5.3978
   2       -1.7437
   3       -1.6110
   4       -1.6046
   5       -1.3451
   6       -1.3398
   7       -1.3397
   8       -0.5363
   9       -0.4156
  10       -0.4138
  11        0.0332
  12        0.1136
  13        0.2514
  14        0.2538
  15        0.3860
  16        0.3929
  17        0.4173
  18        0.4700
  19        0.4811
  20        0.5636
  21        0.5642
  22        2.0702
  23        4.0129
  24        4.2110
  25        7.5886
  26        7.7837
  27        9.6490
  28       11.1862
  29       11.7379
  30       12.0848
  31       12.5794
  32       13.4964
 
  0.2083333E+00  0.4166667E-01  0.0000000E+00  0.1736111E-02
   1       -5.2407
   2       -1.7779
   3       -1.5526
   4       -1.5471
   5       -1.3120
   6       -1.3022
   7       -1.3021
   8       -0.5710
   9       -0.3851
  10       -0.3842
  11        0.0032
  12        0.1170
  13        0.1212
  14        0.1275
  15        0.3462
  16        0.3522
  17        0.3787
  18        0.4344
  19        0.4424
  20        0.5636
  21        0.5643
  22        1.5484
  23        4.2872
  24        4.4920
  25        7.6661
  26        7.8696
  27       10.5369
  28       10.6171
  29       11.1623
  30       11.6245
  31       12.1344
  32       13.7075
 
  0.2500000E+00  0.4166667E-01  0.0000000E+00  0.1736111E-02
   1       -5.0503
   2       -1.8415
   3       -1.4863
   4       -1.4818
   5       -1.2727
   6       -1.2560
   7       -1.2557
   8       -0.6122
   9       -0.3487
  10       -0.3483
  11       -0.0310
  12       -0.0239
  13       -0.0182
  14        0.1440
  15        0.3001
  16        0.3054
  17        0.3209
  18        0.3803
  19        0.4187
  20        0.5636
  21        0.5643
  22        1.0740
  23        4.5978
  24        4.8122
  25        7.7634
  26        7.9773
  27       10.0548
  28       10.5809
  29       11.1668
  30       11.4824
  31       11.6698
  32       13.9617
 
  0.2916667E+00  0.4166667E-01  0.0000000E+00  0.1736111E-02
   1       -4.8276
   2       -1.9499
   3       -1.4156
   4       -1.4121
   5       -1.2277
   6       -1.2012
   7       -1.2005
   8       -0.6590
   9       -0.3081
  10       -0.3054
  11       -0.1658
  12       -0.1590
  13       -0.0675
  14        0.1628
  15        0.2412
  16        0.2497
  17        0.2545
  18        0.3203
  19        0.3944
  20        0.5637
  21        0.5643
  22        0.6816
  23        4.9389
  24        5.1661
  25        7.8813
  26        8.1082
  27        9.5054
  28       10.0039
  29       10.7264
  30       11.2088
  31       12.4746
  32       14.2572
 
  0.3333333E+00  0.4166667E-01  0.0000000E+00  0.1736111E-02
   1       -4.5743
   2       -2.1189
   3       -1.3447
   4       -1.3421
   5       -1.1777
   6       -1.1376
   7       -1.1362
   8       -0.7106
   9       -0.3049
  10       -0.2973
  11       -0.2643
  12       -0.2568
  13       -0.1026
  14        0.1236
  15        0.1837
  16        0.1980
  17        0.2022
  18        0.2559
  19        0.3544
  20        0.4249
  21        0.5638
  22        0.5643
  23        5.3064
  24        5.5496
  25        8.0202
  26        8.2633
  27        8.9730
  28        9.4373
  29       10.3126
  30       10.7656
  31       13.5068
  32       14.5961
 
  0.3750000E+00  0.4166667E-01  0.0000000E+00  0.1736111E-02
   1       -4.2925
   2       -2.3545
   3       -1.2790
   4       -1.2770
   5       -1.1237
   6       -1.0654
   7       -1.0627
   8       -0.7662
   9       -0.4387
  10       -0.4308
  11       -0.2249
  12       -0.2030
  13       -0.1264
  14       -0.0232
  15        0.1492
  16        0.1526
  17        0.1886
  18        0.2063
  19        0.2436
  20        0.3608
  21        0.5639
  22        0.5643
  23        5.6971
  24        5.9597
  25        8.1683
  26        8.4420
  27        8.4714
  28        8.8846
  29        9.9334
  30       10.3499
  31       14.5739
  32       14.9636
 
  0.4166667E+00  0.4166667E-01  0.0000000E+00  0.1736111E-02
   1       -3.9854
   2       -2.6468
   3       -1.2248
   4       -1.2233
   5       -1.0664
   6       -0.9841
   7       -0.9800
   8       -0.8246
   9       -0.5654
  10       -0.5575
  11       -0.2137
  12       -0.1446
  13       -0.1380
  14       -0.1121
  15        0.1083
  16        0.1108
  17        0.1199
  18        0.1509
  19        0.2303
  20        0.3329
  21        0.5640
  22        0.5643
  23        6.1087
  24        6.3942
  25        7.9297
  26        8.3483
  27        8.3967
  28        8.6372
  29        9.6004
  30        9.9690
  31       15.3694
  32       15.4197
 
  0.4583333E+00  0.4166667E-01  0.0000000E+00  0.1736111E-02
   1       -3.6580
   2       -2.9749
   3       -1.1885
   4       -1.1876
   5       -1.0068
   6       -0.8935
   7       -0.8879
   8       -0.8849
   9       -0.6839
  10       -0.6764
  11       -0.2240
  12       -0.2018
  13       -0.0822
  14       -0.0614
  15        0.0510
  16        0.0729
  17        0.0809
  18        0.0822
  19        0.2552
  20        0.3067
  21        0.5641
  22        0.5642
  23        6.5397
  24        6.8517
  25        7.4539
  26        7.8298
  27        8.5939
  28        8.8067
  29        9.3594
  30        9.6337
  31       15.8080
  32       15.8662
 
  0.5000000E+00  0.4166667E-01  0.0000000E+00  0.8680556E-03
   1       -3.3174
   2       -3.3174
   3       -1.1753
   4       -1.1753
   5       -0.9459
   6       -0.9459
   7       -0.7934
   8       -0.7934
   9       -0.7866
  10       -0.7866
  11       -0.2256
  12       -0.2256
  13       -0.0167
  14       -0.0167
  15        0.0023
  16        0.0023
  17        0.0716
  18        0.0716
  19        0.2808
  20        0.2808
  21        0.5642
  22        0.5642
  23        6.9886
  24        6.9886
  25        7.3306
  26        7.3306
  27        8.7831
  28        8.7831
  29        9.3794
  30        9.3794
  31       16.2829
  32       16.3030
 
  0.8333333E-01  0.8333333E-01  0.0000000E+00  0.8680556E-03
   1       -5.5559
   2       -1.6969
   3       -1.6969
   4       -1.6659
   5       -1.3783
   6       -1.3783
   7       -1.3773
   8       -0.4962
   9       -0.4506
  10       -0.4446
  11        0.0715
  12        0.0934
  13        0.4178
  14        0.4208
  15        0.4208
  16        0.4277
  17        0.4745
  18        0.4745
  19        0.5470
  20        0.5470
  21        0.5550
  22        3.2163
  23        3.2163
  24        3.9068
  25        7.5131
  26        8.1778
  27        8.1778
  28       11.7156
  29       12.8471
  30       12.8471
  31       12.9762
  32       12.9762
 
  0.1250000E+00  0.8333333E-01  0.0000000E+00  0.1736111E-02
   1       -5.4680
   2       -1.7036
   3       -1.6605
   4       -1.6317
   5       -1.3595
   6       -1.3579
   7       -1.3571
   8       -0.5134
   9       -0.4361
  10       -0.4291
  11        0.0570
  12        0.0992
  13        0.3326
  14        0.3368
  15        0.3888
  16        0.4050
  17        0.4338
  18        0.4646
  19        0.5189
  20        0.5469
  21        0.5496
  22        2.7144
  23        3.3865
  24        4.0802
  25        7.5551
  26        8.2318
  27        8.8750
  28       11.1180
  29       12.3555
  30       12.5911
  31       12.9621
  32       13.0918
 
  0.1666667E+00  0.8333333E-01  0.0000000E+00  0.1736111E-02
   1       -5.3454
   2       -1.7193
   3       -1.6115
   4       -1.5855
   5       -1.3336
   6       -1.3291
   7       -1.3286
   8       -0.5394
   9       -0.4134
  10       -0.4078
  11        0.0344
  12        0.1104
  13        0.2172
  14        0.2222
  15        0.3432
  16        0.3739
  17        0.3979
  18        0.4511
  19        0.4809
  20        0.5469
  21        0.5471
  22        2.1828
  23        3.6063
  24        4.3089
  25        7.6149
  26        8.3086
  27        9.6876
  28       10.5197
  29       11.8032
  30       12.1484
  31       13.1216
  32       13.1881
 
  0.2083333E+00  0.8333333E-01  0.0000000E+00  0.1736111E-02
   1       -5.1888
   2       -1.7520
   3       -1.5517
   4       -1.5293
   5       -1.3010
   6       -1.2920
   7       -1.2920
   8       -0.5730
   9       -0.3836
  10       -0.3809
  11        0.0061
  12        0.0825
  13        0.0965
  14        0.1252
  15        0.2832
  16        0.3352
  17        0.3569
  18        0.4339
  19        0.4342
  20        0.5459
  21        0.5468
  22        1.6697
  23        3.8656
  24        4.5844
  25        7.6934
  26        8.4090
  27        9.9323
  28       10.5767
  29       11.2266
  30       11.6856
  31       12.8316
  32       13.3240
 
  0.2500000E+00  0.8333333E-01  0.0000000E+00  0.1736111E-02
   1       -4.9990
   2       -1.8134
   3       -1.4838
   4       -1.4654
   5       -1.2622
   6       -1.2471
   7       -1.2463
   8       -0.6131
   9       -0.3494
  10       -0.3472
  11       -0.0579
  12       -0.0371
  13       -0.0256
  14        0.1432
  15        0.2059
  16        0.2904
  17        0.3101
  18        0.3800
  19        0.4124
  20        0.5453
  21        0.5467
  22        1.2106
  23        4.1568
  24        4.8996
  25        7.7915
  26        8.5339
  27        9.3625
  28       10.6447
  29       11.2264
  30       11.5225
  31       12.4131
  32       13.5673
 
  0.2916667E+00  0.8333333E-01  0.0000000E+00  0.1736111E-02
   1       -4.7770
   2       -1.9193
   3       -1.4111
   4       -1.3968
   5       -1.2179
   6       -1.1943
   7       -1.1918
   8       -0.6589
   9       -0.3150
  10       -0.3046
  11       -0.1986
  12       -0.1729
  13       -0.0577
  14        0.1073
  15        0.1639
  16        0.2414
  17        0.2592
  18        0.3200
  19        0.3851
  20        0.5451
  21        0.5466
  22        0.8381
  23        4.4748
  24        5.2491
  25        7.9090
  26        8.6838
  27        8.8155
  28       10.0677
  29       10.7858
  30       11.9728
  31       12.5142
  32       13.8497
 
  0.3333333E+00  0.8333333E-01  0.0000000E+00  0.1736111E-02
   1       -4.5245
   2       -2.0855
   3       -1.3381
   4       -1.3273
   5       -1.1688
   6       -1.1341
   7       -1.1285
   8       -0.7095
   9       -0.3359
  10       -0.3071
  11       -0.2820
  12       -0.2563
  13       -0.0841
  14       -0.0108
  15        0.1870
  16        0.1913
  17        0.2069
  18        0.2556
  19        0.3465
  20        0.5450
  21        0.5464
  22        0.5784
  23        4.8159
  24        5.6287
  25        8.0291
  26        8.3114
  27        8.8573
  28        9.5014
  29       10.3750
  30       11.5341
  31       13.5439
  32       14.1689
 
  0.3750000E+00  0.8333333E-01  0.0000000E+00  0.1736111E-02
   1       -4.2437
   2       -2.3181
   3       -1.2700
   4       -1.2618
   5       -1.1155
   6       -1.0665
   7       -1.0562
   8       -0.7640
   9       -0.4674
  10       -0.4369
  11       -0.2599
  12       -0.2027
  13       -0.1263
  14       -0.0930
  15        0.1440
  16        0.1569
  17        0.1883
  18        0.2120
  19        0.2819
  20        0.4352
  21        0.5451
  22        0.5463
  23        5.1780
  24        6.0355
  25        7.7533
  26        8.2507
  27        8.9495
  28        9.0459
  29       10.0092
  30       11.1109
  31       14.5227
  32       14.5727
 
  0.4166667E+00  0.8333333E-01  0.0000000E+00  0.1736111E-02
   1       -3.9380
   2       -2.6076
   3       -1.2132
   4       -1.2071
   5       -1.0592
   6       -0.9912
   7       -0.9748
   8       -0.8214
   9       -0.5913
  10       -0.5606
  11       -0.2581
  12       -0.2112
  13       -0.1445
  14       -0.0718
  15        0.1048
  16        0.1142
  17        0.1196
  18        0.1950
  19        0.2389
  20        0.3699
  21        0.5453
  22        0.5461
  23        5.5597
  24        6.4673
  25        7.2798
  26        8.4141
  27        8.4359
  28        9.1982
  29        9.7438
  30       10.7122
  31       14.9088
  32       15.0523
 
  0.4583333E+00  0.8333333E-01  0.0000000E+00  0.1736111E-02
   1       -3.6121
   2       -2.9331
   3       -1.1744
   4       -1.1709
   5       -1.0005
   6       -0.9066
   7       -0.8844
   8       -0.8806
   9       -0.7064
  10       -0.6769
  11       -0.2677
  12       -0.2572
  13       -0.0822
  14       -0.0249
  15        0.0508
  16        0.0793
  17        0.0843
  18        0.1114
  19        0.2673
  20        0.3302
  21        0.5455
  22        0.5459
  23        5.9607
  24        6.8206
  25        6.9224
  26        7.8969
  27        8.6543
  28        9.1269
  29        9.7682
  30       10.3453
  31       15.3249
  32       15.4803
 
  0.5000000E+00  0.8333333E-01  0.0000000E+00  0.8680556E-03
   1       -3.2734
   2       -3.2734
   3       -1.1593
   4       -1.1593
   5       -0.9407
   6       -0.9407
   7       -0.8117
   8       -0.8117
   9       -0.7850
  10       -0.7850
  11       -0.2720
  12       -0.2720
  13       -0.0168
  14       -0.0168
  15        0.0377
  16        0.0377
  17        0.0719
  18        0.0719
  19        0.2974
  20        0.2974
  21        0.5457
  22        0.5457
  23        6.3809
  24        6.3809
  25        7.3993
  26        7.3993
  27        8.8946
  28        8.8946
  29       10.0199
  30       10.0199
  31       15.7689
  32       15.7689
 
  0.1250000E+00  0.1250000E+00  0.0000000E+00  0.8680556E-03
   1       -5.3805
   2       -1.6659
   3       -1.6659
   4       -1.5988
   5       -1.3395
   6       -1.3395
   7       -1.3375
   8       -0.5259
   9       -0.4257
  10       -0.4159
  11        0.0494
  12        0.1003
  13        0.2627
  14        0.2907
  15        0.2907
  16        0.3834
  17        0.4338
  18        0.4338
  19        0.5188
  20        0.5188
  21        0.5364
  22        2.8816
  23        2.8816
  24        4.2462
  25        7.5981
  26        8.9355
  27        8.9355
  28       10.4834
  29       12.4664
  30       12.4664
  31       12.7013
  32       12.7013
 
  0.1666667E+00  0.1250000E+00  0.0000000E+00  0.1736111E-02
   1       -5.2585
   2       -1.6796
   3       -1.6150
   4       -1.5545
   5       -1.3143
   6       -1.3115
   7       -1.3101
   8       -0.5479
   9       -0.4064
  10       -0.3978
  11        0.0319
  12        0.1096
  13        0.1664
  14        0.1670
  15        0.2319
  16        0.3539
  17        0.3999
  18        0.4272
  19        0.4807
  20        0.5186
  21        0.5275
  22        2.3512
  23        3.0942
  24        4.4668
  25        7.6592
  26        9.0209
  27        9.7519
  28        9.8612
  29       11.9113
  30       12.2538
  31       12.6201
  32       12.8543
 
  0.2083333E+00  0.1250000E+00  0.0000000E+00  0.1736111E-02
   1       -5.1026
   2       -1.7096
   3       -1.5528
   4       -1.5005
   5       -1.2826
   6       -1.2752
   7       -1.2748
   8       -0.5784
   9       -0.3788
  10       -0.3753
  11        0.0072
  12        0.0300
  13        0.0537
  14        0.1253
  15        0.1591
  16        0.3171
  17        0.3598
  18        0.4139
  19        0.4338
  20        0.5184
  21        0.5222
  22        1.8429
  23        3.3419
  24        4.7342
  25        7.7391
  26        9.1314
  27        9.2588
  28       10.6427
  29       11.3330
  30       11.7875
  31       12.8150
  32       13.0490
 
  0.2500000E+00  0.1250000E+00  0.0000000E+00  0.1736111E-02
   1       -4.9137
   2       -1.7676
   3       -1.4821
   4       -1.4391
   5       -1.2448
   6       -1.2320
   7       -1.2306
   8       -0.6161
   9       -0.3499
  10       -0.3438
  11       -0.1102
  12       -0.0695
  13       -0.0207
  14        0.0711
  15        0.1455
  16        0.2743
  17        0.3138
  18        0.3796
  19        0.3939
  20        0.5181
  21        0.5191
  22        1.3899
  23        3.6179
  24        5.0419
  25        7.8373
  26        8.6818
  27        9.2669
  28       10.7503
  29       11.3265
  30       11.5882
  31       13.0493
  32       13.1662
 
  0.2916667E+00  0.1250000E+00  0.0000000E+00  0.1736111E-02
   1       -4.6929
   2       -1.8694
   3       -1.4061
   4       -1.3726
   5       -1.2016
   6       -1.1824
   7       -1.1776
   8       -0.6598
   9       -0.3239
  10       -0.3022
  11       -0.2492
  12       -0.1967
  13       -0.0474
  14       -0.0311
  15        0.1693
  16        0.2276
  17        0.2635
  18        0.3195
  19        0.3660
  20        0.5173
  21        0.5178
  22        1.0184
  23        3.9178
  24        5.3846
  25        7.9310
  26        8.1570
  27        9.4247
  28       10.1733
  29       10.8883
  30       12.5762
  31       12.7730
  32       13.3212
 
  0.3333333E+00  0.1250000E+00  0.0000000E+00  0.1736111E-02
   1       -4.4419
   2       -2.0309
   3       -1.3293
   4       -1.3041
   5       -1.1538
   6       -1.1272
   7       -1.1159
   8       -0.7084
   9       -0.3838
  10       -0.3237
  11       -0.3026
  12       -0.2546
  13       -0.1376
  14       -0.0658
  15        0.1798
  16        0.1963
  17        0.2114
  18        0.2551
  19        0.3277
  20        0.5163
  21        0.5175
  22        0.7438
  23        4.2391
  24        5.7583
  25        7.5746
  26        8.1326
  27        9.5929
  28        9.6076
  29       10.4943
  30       12.3580
  31       13.5790
  32       13.6285
 
  0.3750000E+00  0.1250000E+00  0.0000000E+00  0.1736111E-02
   1       -4.1629
   2       -2.2586
   3       -1.2570
   4       -1.2379
   5       -1.1020
   6       -1.0675
   7       -1.0455
   8       -0.7610
   9       -0.5118
  10       -0.4475
  11       -0.2936
  12       -0.2296
  13       -0.2016
  14       -0.0661
  15        0.1350
  16        0.1611
  17        0.1878
  18        0.2261
  19        0.2748
  20        0.5159
  21        0.5171
  22        0.5622
  23        4.5807
  24        6.1601
  25        7.0794
  26        8.2992
  27        9.0567
  28        9.6990
  29       10.2225
  30       11.9444
  31       13.9692
  32       14.1768
 
  0.4166667E+00  0.1250000E+00  0.0000000E+00  0.1736111E-02
   1       -3.8594
   2       -2.5432
   3       -1.1956
   4       -1.1810
   5       -1.0472
   6       -1.0023
   7       -0.9665
   8       -0.8165
   9       -0.6315
  10       -0.5661
  11       -0.2997
  12       -0.2911
  13       -0.1438
  14       -0.0421
  15        0.0985
  16        0.1175
  17        0.1192
  18        0.2068
  19        0.2586
  20        0.4519
  21        0.5158
  22        0.5167
  23        4.9424
  24        6.5875
  25        6.6051
  26        8.4983
  27        8.5229
  28        9.5458
  29       10.2735
  30       11.5457
  31       14.3412
  32       14.5651
 
  0.4583333E+00  0.1250000E+00  0.0000000E+00  0.1736111E-02
   1       -3.5362
   2       -2.8643
   3       -1.1522
   4       -1.1436
   5       -0.9902
   6       -0.9279
   7       -0.8787
   8       -0.8739
   9       -0.7418
  10       -0.6780
  11       -0.3202