       N       E                     dE             d eps       ncg     rms          rms(c)
DAV:   1     0.325431336422E+03    0.32543E+03   -0.26973E+04 29496   0.265E+03
DAV:   2     0.592275403449E+01   -0.31951E+03   -0.30489E+03 29160   0.413E+02
DAV:   3    -0.166465837002E+02   -0.22569E+02   -0.21860E+02 32536   0.133E+02
DAV:   4    -0.169394502568E+02   -0.29287E+00   -0.29267E+00 32216   0.158E+01
DAV:   5    -0.169400479112E+02   -0.59765E-03   -0.59764E-03 32960   0.646E-01    0.130E+01
DAV:   6    -0.158603132778E+02    0.10797E+01   -0.27326E+01 31832   0.791E+01    0.815E+00
DAV:   7    -0.140251252280E+02    0.18352E+01   -0.61008E+00 33104   0.366E+01    0.690E-01
DAV:   8    -0.140188882277E+02    0.62370E-02   -0.10646E-01 34432   0.367E+00    0.895E-01
DAV:   9    -0.140036092790E+02    0.15279E-01   -0.48974E-02 33432   0.324E+00    0.115E-01
DAV:  10    -0.140034590715E+02    0.15021E-03   -0.12367E-03 33560   0.473E-01    0.147E-02
DAV:  11    -0.140034618471E+02   -0.27756E-05   -0.22226E-05 32672   0.477E-02    0.250E-03
DAV:  12    -0.140034642063E+02   -0.23592E-05   -0.30178E-07 33344   0.626E-03    0.133E-03
DAV:  13    -0.140034650624E+02   -0.85610E-06   -0.84561E-08 32752   0.382E-03    0.846E-05
DAV:  14    -0.140034650325E+02    0.29836E-07   -0.14675E-09 19600   0.334E-04    0.222E-05
DAV:  15    -0.140034650141E+02    0.18418E-07   -0.99396E-11 18064   0.971E-05    0.143E-05
DAV:  16    -0.140034650038E+02    0.10311E-07   -0.16301E-11 17544   0.451E-05    0.808E-06
DAV:  17    -0.140034650042E+02   -0.36653E-09   -0.10021E-12 17168   0.793E-06
   1 F= -.14003465E+02 E0= -.14003418E+02  d E =-.931363E-04
