   4   4   0   0
  0.1599348E+02  0.3999456E-09  0.3999456E-09  0.3999456E-09  0.5000000E-15
  1.000000000000000E-004
  CAR 
 unknown system                          
     21.24720801     -4.17824639  301      8.34164994      1.00000000
     -4.178  0.0000E+00  0.0000E+00
     -4.093  0.0000E+00  0.0000E+00
     -4.009  0.0000E+00  0.0000E+00
     -3.924  0.0000E+00  0.0000E+00
     -3.839  0.0000E+00  0.0000E+00
     -3.754  0.0000E+00  0.0000E+00
     -3.670  0.0000E+00  0.0000E+00
     -3.585  0.0000E+00  0.0000E+00
     -3.500  0.0000E+00  0.0000E+00
     -3.415  0.0000E+00  0.0000E+00
     -3.331  0.0000E+00  0.0000E+00
     -3.246  0.0000E+00  0.0000E+00
     -3.161  0.0000E+00  0.0000E+00
     -3.076  0.6065E-17  0.5140E-18
     -2.992  0.1865E-01  0.1581E-02
     -2.907  0.1138E+00  0.1136E-01
     -2.822  0.1815E+00  0.2688E-01
     -2.737  0.2090E+00  0.4484E-01
     -2.653  0.2529E+00  0.6688E-01
     -2.568  0.2668E+00  0.9058E-01
     -2.483  0.3314E+00  0.1190E+00
     -2.398  0.3088E+00  0.1466E+00
     -2.314  0.3481E+00  0.1771E+00
     -2.229  0.3842E+00  0.2118E+00
     -2.144  0.3911E+00  0.2454E+00
     -2.059  0.4398E+00  0.2838E+00
     -1.975  0.4035E+00  0.3202E+00
     -1.890  0.4438E+00  0.3596E+00
     -1.805  0.4972E+00  0.4022E+00
     -1.720  0.4793E+00  0.4456E+00
     -1.636  0.5024E+00  0.4889E+00
     -1.551  0.5272E+00  0.5366E+00
     -1.466  0.5145E+00  0.5815E+00
     -1.381  0.5727E+00  0.6324E+00
     -1.297  0.5440E+00  0.6798E+00
     -1.212  0.5774E+00  0.7313E+00
     -1.127  0.6158E+00  0.7844E+00
     -1.042  0.6134E+00  0.8383E+00
     -0.958  0.6120E+00  0.8909E+00
     -0.873  0.6325E+00  0.9484E+00
     -0.788  0.6914E+00  0.1008E+01
     -0.703  0.6399E+00  0.1066E+01
     -0.619  0.6250E+00  0.1121E+01
     -0.534  0.7102E+00  0.1184E+01
     -0.449  0.6857E+00  0.1244E+01
     -0.364  0.7815E+00  0.1312E+01
     -0.280  0.6512E+00  0.1370E+01
     -0.195  0.7186E+00  0.1433E+01
     -0.110  0.8222E+00  0.1504E+01
     -0.025  0.7231E+00  0.1566E+01
      0.059  0.7130E+00  0.1638E+01
      0.144  0.6624E+00  0.1703E+01
      0.229  0.8432E+00  0.1781E+01
      0.314  0.6740E+00  0.1848E+01
      0.398  0.7425E+00  0.1914E+01
      0.483  0.8741E+00  0.1993E+01
      0.568  0.8156E+00  0.2068E+01
      0.653  0.7128E+00  0.2139E+01
      0.737  0.8287E+00  0.2217E+01
      0.822  0.8098E+00  0.2292E+01
      0.907  0.8487E+00  0.2372E+01
      0.992  0.8754E+00  0.2452E+01
      1.076  0.7582E+00  0.2523E+01
      1.161  0.1027E+01  0.2613E+01
      1.246  0.8121E+00  0.2687E+01
      1.331  0.9056E+00  0.2765E+01
      1.415  0.1004E+01  0.2855E+01
      1.500  0.8993E+00  0.2934E+01
      1.585  0.9430E+00  0.3020E+01
      1.670  0.9825E+00  0.3108E+01
      1.754  0.8978E+00  0.3189E+01
      1.839  0.1044E+01  0.3284E+01
      1.924  0.9185E+00  0.3367E+01
      2.009  0.9015E+00  0.3455E+01
      2.093  0.9689E+00  0.3543E+01
      2.178  0.1028E+01  0.3636E+01
      2.263  0.1063E+01  0.3727E+01
      2.348  0.9050E+00  0.3813E+01
      2.432  0.1180E+01  0.3914E+01
      2.517  0.9378E+00  0.4000E+01
      2.602  0.1108E+01  0.4098E+01
      2.687  0.9814E+00  0.4188E+01
      2.771  0.1156E+01  0.4292E+01
      2.856  0.9015E+00  0.4376E+01
      2.941  0.1237E+01  0.4490E+01
      3.026  0.9984E+00  0.4584E+01
      3.110  0.1020E+01  0.4679E+01
      3.195  0.1191E+01  0.4782E+01
      3.280  0.1145E+01  0.4884E+01
      3.365  0.1135E+01  0.4989E+01
      3.449  0.1091E+01  0.5089E+01
      3.534  0.1189E+01  0.5200E+01
      3.619  0.1175E+01  0.5307E+01
      3.704  0.1163E+01  0.5413E+01
      3.788  0.1120E+01  0.5515E+01
      3.873  0.1237E+01  0.5625E+01
      3.958  0.1109E+01  0.5725E+01
      4.043  0.1055E+01  0.5822E+01
      4.127  0.1339E+01  0.5942E+01
      4.212  0.1152E+01  0.6046E+01
      4.297  0.1191E+01  0.6157E+01
      4.382  0.1157E+01  0.6264E+01
      4.466  0.1245E+01  0.6379E+01
      4.551  0.1201E+01  0.6487E+01
      4.636  0.1415E+01  0.6612E+01
      4.721  0.1173E+01  0.6719E+01
      4.805  0.1226E+01  0.6833E+01
      4.890  0.1261E+01  0.6952E+01
      4.975  0.1234E+01  0.7065E+01
      5.060  0.1458E+01  0.7194E+01
      5.144  0.1160E+01  0.7305E+01
      5.229  0.1375E+01  0.7429E+01
      5.314  0.1350E+01  0.7552E+01
      5.399  0.1553E+01  0.7690E+01
      5.483  0.1326E+01  0.7811E+01
      5.568  0.1373E+01  0.7934E+01
      5.653  0.1455E+01  0.8067E+01
      5.738  0.1353E+01  0.8196E+01
      5.822  0.1389E+01  0.8323E+01
      5.907  0.1291E+01  0.8440E+01
      5.992  0.1431E+01  0.8568E+01
      6.077  0.1323E+01  0.8686E+01
      6.161  0.1262E+01  0.8804E+01
      6.246  0.1316E+01  0.8925E+01
      6.331  0.1275E+01  0.9039E+01
      6.416  0.1313E+01  0.9155E+01
      6.500  0.1199E+01  0.9267E+01
      6.585  0.1287E+01  0.9386E+01
      6.670  0.1328E+01  0.9504E+01
      6.755  0.1216E+01  0.9615E+01
      6.839  0.1348E+01  0.9741E+01
      6.924  0.1324E+01  0.9861E+01
      7.009  0.1376E+01  0.9986E+01
      7.094  0.1374E+01  0.1011E+02
      7.178  0.1411E+01  0.1024E+02
      7.263  0.1265E+01  0.1035E+02
      7.348  0.1568E+01  0.1050E+02
      7.433  0.1496E+01  0.1063E+02
      7.517  0.1531E+01  0.1077E+02
      7.602  0.1462E+01  0.1090E+02
      7.687  0.1434E+01  0.1102E+02
      7.772  0.1321E+01  0.1115E+02
      7.856  0.1477E+01  0.1128E+02
      7.941  0.1361E+01  0.1140E+02
      8.026  0.1213E+01  0.1152E+02
      8.111  0.1377E+01  0.1164E+02
      8.195  0.1418E+01  0.1177E+02
      8.280  0.1468E+01  0.1190E+02
      8.365  0.1590E+01  0.1204E+02
      8.450  0.1455E+01  0.1218E+02
      8.534  0.1502E+01  0.1231E+02
      8.619  0.1543E+01  0.1245E+02
      8.704  0.1436E+01  0.1259E+02
      8.789  0.1698E+01  0.1274E+02
      8.873  0.1332E+01  0.1286E+02
      8.958  0.1600E+01  0.1301E+02
      9.043  0.1667E+01  0.1316E+02
      9.128  0.1594E+01  0.1330E+02
      9.212  0.1455E+01  0.1343E+02
      9.297  0.1473E+01  0.1356E+02
      9.382  0.1726E+01  0.1372E+02
      9.467  0.1544E+01  0.1386E+02
      9.551  0.1446E+01  0.1399E+02
      9.636  0.1598E+01  0.1413E+02
      9.721  0.1583E+01  0.1428E+02
      9.806  0.1481E+01  0.1441E+02
      9.891  0.1470E+01  0.1454E+02
      9.975  0.1594E+01  0.1469E+02
     10.060  0.1788E+01  0.1486E+02
     10.145  0.1602E+01  0.1501E+02
     10.230  0.1472E+01  0.1515E+02
     10.314  0.1352E+01  0.1527E+02
     10.399  0.1594E+01  0.1541E+02
     10.484  0.1863E+01  0.1558E+02
     10.569  0.1894E+01  0.1575E+02
     10.653  0.1480E+01  0.1589E+02
     10.738  0.1563E+01  0.1602E+02
     10.823  0.1588E+01  0.1617E+02
     10.908  0.1665E+01  0.1632E+02
     10.992  0.1719E+01  0.1648E+02
     11.077  0.1645E+01  0.1664E+02
     11.162  0.1664E+01  0.1679E+02
     11.247  0.1616E+01  0.1693E+02
     11.331  0.1752E+01  0.1709E+02
     11.416  0.1708E+01  0.1725E+02
     11.501  0.1529E+01  0.1739E+02
     11.586  0.1878E+01  0.1756E+02
     11.670  0.1843E+01  0.1773E+02
     11.755  0.1589E+01  0.1788E+02
     11.840  0.1478E+01  0.1801E+02
     11.925  0.2202E+01  0.1821E+02
     12.009  0.1568E+01  0.1835E+02
     12.094  0.1748E+01  0.1851E+02
     12.179  0.1755E+01  0.1867E+02
     12.264  0.1702E+01  0.1883E+02
     12.348  0.1902E+01  0.1900E+02
     12.433  0.1687E+01  0.1915E+02
     12.518  0.1760E+01  0.1932E+02
     12.603  0.1867E+01  0.1949E+02
     12.687  0.1935E+01  0.1966E+02
     12.772  0.1619E+01  0.1981E+02
     12.857  0.1989E+01  0.1999E+02
     12.942  0.1833E+01  0.2016E+02
     13.026  0.1733E+01  0.2031E+02
     13.111  0.2105E+01  0.2051E+02
     13.196  0.1735E+01  0.2066E+02
     13.281  0.1794E+01  0.2083E+02
     13.365  0.1868E+01  0.2100E+02
     13.450  0.2075E+01  0.2118E+02
     13.535  0.1908E+01  0.2136E+02
     13.620  0.1926E+01  0.2153E+02
     13.704  0.2101E+01  0.2172E+02
     13.789  0.2045E+01  0.2190E+02
     13.874  0.2041E+01  0.2208E+02
     13.959  0.1657E+01  0.2224E+02
     14.043  0.2247E+01  0.2244E+02
     14.128  0.2284E+01  0.2265E+02
     14.213  0.2198E+01  0.2285E+02
     14.298  0.2174E+01  0.2304E+02
     14.382  0.2016E+01  0.2323E+02
     14.467  0.2239E+01  0.2343E+02
     14.552  0.2023E+01  0.2362E+02
     14.637  0.2067E+01  0.2381E+02
     14.721  0.2008E+01  0.2398E+02
     14.806  0.2204E+01  0.2419E+02
     14.891  0.2239E+01  0.2438E+02
     14.976  0.1877E+01  0.2456E+02
     15.060  0.1820E+01  0.2473E+02
     15.145  0.2121E+01  0.2492E+02
     15.230  0.1982E+01  0.2510E+02
     15.315  0.1985E+01  0.2528E+02
     15.399  0.2083E+01  0.2546E+02
     15.484  0.1885E+01  0.2564E+02
     15.569  0.1936E+01  0.2581E+02
     15.654  0.1999E+01  0.2600E+02
     15.738  0.1911E+01  0.2617E+02
     15.823  0.1914E+01  0.2634E+02
     15.908  0.2100E+01  0.2653E+02
     15.993  0.2054E+01  0.2672E+02
     16.077  0.1772E+01  0.2688E+02
     16.162  0.1837E+01  0.2705E+02
     16.247  0.2264E+01  0.2725E+02
     16.332  0.1734E+01  0.2741E+02
     16.416  0.1966E+01  0.2759E+02
     16.501  0.2080E+01  0.2778E+02
     16.586  0.1650E+01  0.2793E+02
     16.671  0.1875E+01  0.2810E+02
     16.755  0.2012E+01  0.2828E+02
     16.840  0.1628E+01  0.2844E+02
     16.925  0.2096E+01  0.2863E+02
     17.010  0.1945E+01  0.2880E+02
     17.094  0.1766E+01  0.2896E+02
     17.179  0.1785E+01  0.2912E+02
     17.264  0.1840E+01  0.2929E+02
     17.349  0.1840E+01  0.2946E+02
     17.433  0.1532E+01  0.2960E+02
     17.518  0.1861E+01  0.2976E+02
     17.603  0.1530E+01  0.2990E+02
     17.688  0.1609E+01  0.3005E+02
     17.772  0.1630E+01  0.3019E+02
     17.857  0.1433E+01  0.3033E+02
     17.942  0.1480E+01  0.3046E+02
     18.027  0.1327E+01  0.3058E+02
     18.111  0.1327E+01  0.3070E+02
     18.196  0.1238E+01  0.3082E+02
     18.281  0.1205E+01  0.3093E+02
     18.366  0.1183E+01  0.3103E+02
     18.450  0.9157E+00  0.3111E+02
     18.535  0.1015E+01  0.3120E+02
     18.620  0.1012E+01  0.3129E+02
     18.705  0.9265E+00  0.3138E+02
     18.789  0.9567E+00  0.3147E+02
     18.874  0.8584E+00  0.3154E+02
     18.959  0.7103E+00  0.3161E+02
     19.044  0.7248E+00  0.3167E+02
     19.128  0.7659E+00  0.3174E+02
     19.213  0.5970E+00  0.3179E+02
     19.298  0.4725E+00  0.3184E+02
     19.383  0.4734E+00  0.3188E+02
     19.467  0.3773E+00  0.3192E+02
     19.552  0.2702E+00  0.3194E+02
     19.637  0.2077E+00  0.3196E+02
     19.722  0.1623E+00  0.3197E+02
     19.806  0.1359E+00  0.3198E+02
     19.891  0.4735E-01  0.3199E+02
     19.976  0.9721E-01  0.3200E+02
     20.061  0.7951E-07  0.3200E+02
     20.145  0.1214E-01  0.3200E+02
     20.230  0.0000E+00  0.3200E+02
     20.315  0.0000E+00  0.3200E+02
     20.400  0.0000E+00  0.3200E+02
     20.484  0.0000E+00  0.3200E+02
     20.569  0.0000E+00  0.3200E+02
     20.654  0.0000E+00  0.3200E+02
     20.739  0.0000E+00  0.3200E+02
     20.823  0.0000E+00  0.3200E+02
     20.908  0.0000E+00  0.3200E+02
     20.993  0.0000E+00  0.3200E+02
     21.078  0.0000E+00  0.3200E+02
     21.162  0.0000E+00  0.3200E+02
     21.247  0.0000E+00  0.3200E+02
