    4    4    1    1
  0.1599348E+02  0.3999456E-09  0.3999456E-09  0.3999456E-09  0.5000000E-15
  1.000000000000000E-004
  CAR 
 unknown system                          
   12 1330   16
 
  0.0000000E+00  0.0000000E+00  0.0000000E+00  0.2143347E-04
   1       -3.0225
   2        5.3299
   3        5.3299
   4        5.3299
   5        6.7213
   6        6.7213
   7        6.7213
   8       13.5941
   9       13.5941
  10       13.5941
  11       14.0716
  12       14.0716
  13       14.0716
  14       14.0716
  15       14.0716
  16       14.0716
 
  0.2777778E-01  0.0000000E+00  0.0000000E+00  0.1286008E-03
   1       -3.0154
   2        5.1814
   3        5.3364
   4        5.3364
   5        6.7282
   6        6.7282
   7        6.8821
   8       13.3085
   9       13.3085
  10       13.6012
  11       14.0170
  12       14.0170
  13       14.0776
  14       14.0776
  15       14.3704
  16       14.3704
 
  0.5555556E-01  0.0000000E+00  0.0000000E+00  0.1286008E-03
   1       -2.9940
   2        4.8503
   3        5.3559
   4        5.3559
   5        6.7487
   6        6.7487
   7        7.2501
   8       12.8813
   9       12.8813
  10       13.6223
  11       13.8640
  12       13.8640
  13       14.0956
  14       14.0956
  15       14.8373
  16       14.8373
 
  0.8333333E-01  0.0000000E+00  0.0000000E+00  0.1286008E-03
   1       -2.9583
   2        4.4580
   3        5.3885
   4        5.3885
   5        6.7829
   6        6.7829
   7        7.7038
   8       12.4499
   9       12.4499
  10       13.6368
  11       13.6368
  12       13.6576
  13       14.1257
  14       14.1257
  15       15.3347
  16       15.3347
 
  0.1111111E+00  0.0000000E+00  0.0000000E+00  0.1286008E-03
   1       -2.9083
   2        4.0493
   3        5.4340
   4        5.4340
   5        6.8306
   6        6.8306
   7        8.1985
   8       12.0270
   9       12.0270
  10       13.3605
  11       13.3605
  12       13.7069
  13       14.1679
  14       14.1679
  15       15.8501
  16       15.8501
 
  0.1388889E+00  0.0000000E+00  0.0000000E+00  0.1286008E-03
   1       -2.8441
   2        3.6396
   3        5.4926
   4        5.4926
   5        6.8917
   6        6.8917
   7        8.7187
   8       11.6154
   9       11.6154
  10       13.0547
  11       13.0547
  12       13.7703
  13       14.2220
  14       14.2220
  15       16.3804
  16       16.3804
 
  0.1666667E+00  0.0000000E+00  0.0000000E+00  0.1286008E-03
   1       -2.7657
   2        3.2353
   3        5.5643
   4        5.5643
   5        6.9662
   6        6.9662
   7        9.2580
   8       11.2161
   9       11.2161
  10       12.7329
  11       12.7329
  12       13.8477
  13       14.2883
  14       14.2883
  15       16.9246
  16       16.9246
 
  0.1944444E+00  0.0000000E+00  0.0000000E+00  0.1286008E-03
   1       -2.6731
   2        2.8395
   3        5.6489
   4        5.6489
   5        7.0538
   6        7.0538
   7        9.8133
   8       10.8296
   9       10.8296
  10       12.4039
  11       12.4039
  12       13.9392
  13       14.3665
  14       14.3665
  15       17.4824
  16       17.4824
 
  0.2222222E+00  0.0000000E+00  0.0000000E+00  0.1286008E-03
   1       -2.5663
   2        2.4539
   3        5.7466
   4        5.7466
   5        7.1543
   6        7.1543
   7       10.3830
   8       10.4560
   9       10.4560
  10       12.0739
  11       12.0739
  12       14.0448
  13       14.4569
  14       14.4569
  15       18.0533
  16       18.0719
 
  0.2500000E+00  0.0000000E+00  0.0000000E+00  0.1286008E-03
   1       -2.4453
   2        2.0793
   3        5.8574
   4        5.8574
   5        7.2672
   6        7.2672
   7       10.0955
   8       10.0955
   9       10.9659
  10       11.7471
  11       11.7471
  12       14.1643
  13       14.5593
  14       14.5593
  15       18.2229
  16       18.4505
 
  0.2777778E+00  0.0000000E+00  0.0000000E+00  0.1286008E-03
   1       -2.3103
   2        1.7165
   3        5.9812
   4        5.9812
   5        7.3920
   6        7.3920
   7        9.7481
   8        9.7481
   9       11.4266
  10       11.4266
  11       11.5616
  12       14.2977
  13       14.6737
  14       14.6737
  15       18.1347
  16       18.1349
 
  0.3055556E+00  0.0000000E+00  0.0000000E+00  0.1286008E-03
   1       -2.1612
   2        1.3658
   3        6.1182
   4        6.1182
   5        7.5281
   6        7.5281
   7        9.4138
   8        9.4138
   9       11.1152
  10       11.1152
  11       12.1693
  12       14.4451
  13       14.8002
  14       14.8002
  15       17.8309
  16       17.8365
 
  0.3333333E+00  0.0000000E+00  0.0000000E+00  0.1286008E-03
   1       -1.9981
   2        1.0277
   3        6.2681
   4        6.2681
   5        7.6741
   6        7.6741
   7        9.0928
   8        9.0928
   9       10.8153
  10       10.8153
  11       12.7888
  12       14.6064
  13       14.9388
  14       14.9388
  15       17.5381
  16       17.5463
 
  0.3611111E+00  0.0000000E+00  0.0000000E+00  0.1286008E-03
   1       -1.8210
   2        0.7022
   3        6.4312
   4        6.4312
   5        7.8281
   6        7.8281
   7        8.7849
   8        8.7849
   9       10.5297
  10       10.5297
  11       13.4198
  12       14.7815
  13       15.0895
  14       15.0895
  15       17.2566
  16       17.2616
 
  0.3888889E+00  0.0000000E+00  0.0000000E+00  0.1286008E-03
   1       -1.6300
   2        0.3897
   3        6.6074
   4        6.6074
   5        7.9870
   6        7.9870
   7        8.4903
   8        8.4903
   9       10.2624
  10       10.2624
  11       14.0618
  12       14.9703
  13       15.2523
  14       15.2523
  15       16.9632
  16       16.9865
 
  0.4166667E+00  0.0000000E+00  0.0000000E+00  0.1286008E-03
   1       -1.4252
   2        0.0902
   3        6.7967
   4        6.7967
   5        8.1448
   6        8.1448
   7        8.2088
   8        8.2088
   9       10.0199
  10       10.0199
  11       14.7147
  12       15.1729
  13       15.4271
  14       15.4271
  15       16.6681
  16       16.7281
 
  0.4444444E+00  0.0000000E+00  0.0000000E+00  0.1286008E-03
   1       -1.2066
   2       -0.1960
   3        6.9992
   4        6.9992
   5        7.9405
   6        7.9405
   7        8.2898
   8        8.2898
   9        9.8142
  10        9.8142
  11       15.3780
  12       15.3890
  13       15.6139
  14       15.6139
  15       16.3865
  16       16.4814
 
  0.4722222E+00  0.0000000E+00  0.0000000E+00  0.1286008E-03
   1       -0.9743
   2       -0.4689
   3        7.2148
   4        7.2148
   5        7.6854
   6        7.6854
   7        8.4001
   8        8.4001
   9        9.6673
  10        9.6673
  11       15.6185
  12       15.8128
  13       15.8128
  14       16.0515
  15       16.1175
  16       16.2466
 
  0.5000000E+00  0.0000000E+00  0.0000000E+00  0.6430041E-04
   1       -0.7284
   2       -0.7284
   3        7.4435
   4        7.4435
   5        7.4435
   6        7.4435
   7        8.4431
   8        8.4431
   9        9.6121
  10        9.6121
  11       15.8614
  12       15.8614
  13       16.0237
  14       16.0237
  15       16.0237
  16       16.0237
 
  0.2777778E-01  0.2777778E-01  0.0000000E+00  0.2572016E-03
   1       -3.0083
   2        5.1880
   3        5.1880
   4        5.3429
   5        6.7350
   6        6.8888
   7        6.8888
   8       13.1001
   9       13.3153
  10       13.3153
  11       14.0231
  12       14.0231
  13       14.0837
  14       14.3767
  15       14.3767
  16       14.4693
 
  0.5555556E-01  0.2777778E-01  0.0000000E+00  0.5144033E-03
   1       -2.9869
   2        4.8569
   3        5.2077
   4        5.3624
   5        6.7555
   6        6.9092
   7        7.2568
   8       12.7165
   9       12.8880
  10       13.3356
  11       13.8701
  12       13.9877
  13       14.0412
  14       14.3956
  15       14.8321
  16       14.8437
 
  0.8333333E-01  0.2777778E-01  0.0000000E+00  0.5144033E-03
   1       -2.9512
   2        4.4647
   3        5.2405
   4        5.3950
   5        6.7896
   6        6.9431
   7        7.7104
   8       12.3042
   9       12.4565
  10       13.3694
  11       13.6430
  12       13.7703
  13       14.0714
  14       14.4271
  15       15.2965
  16       15.3412
 
  0.1111111E+00  0.2777778E-01  0.0000000E+00  0.5144033E-03
   1       -2.9012
   2        4.0560
   3        5.2864
   4        5.4405
   5        6.8373
   6        6.9904
   7        8.2050
   8       11.8915
   9       12.0336
  10       13.3668
  11       13.4168
  12       13.4952
  13       14.1137
  14       14.4712
  15       15.7963
  16       15.8565
 
  0.1388889E+00  0.2777778E-01  0.0000000E+00  0.5144033E-03
   1       -2.8370
   2        3.6463
   3        5.3454
   4        5.4991
   5        6.8984
   6        7.0511
   7        8.7252
   8       11.4862
   9       11.6220
  10       13.0611
  11       13.1886
  12       13.4776
  13       14.1681
  14       14.5279
  15       16.3176
  16       16.3868
 
  0.1666667E+00  0.2777778E-01  0.0000000E+00  0.5144033E-03
   1       -2.7586
   2        3.2421
   3        5.4175
   4        5.5708
   5        6.9728
   6        7.1251
   7        9.2644
   8       11.0911
   9       11.2227
  10       12.7394
  11       12.8656
  12       13.5519
  13       14.2346
  14       14.5973
  15       16.8558
  16       16.9311
 
  0.1944444E+00  0.2777778E-01  0.0000000E+00  0.5144033E-03
   1       -2.6660
   2        2.8463
   3        5.5027
   4        5.6554
   5        7.0602
   6        7.2120
   7        9.8196
   8       10.7075
   9       10.8362
  10       12.4106
  11       12.5354
  12       13.6395
  13       14.3132
  14       14.6794
  15       17.4090
  16       17.4888
 
  0.2222222E+00  0.2777778E-01  0.0000000E+00  0.5144033E-03
   1       -2.5592
   2        2.4607
   3        5.6011
   4        5.7532
   5        7.1605
   6        7.3117
   7       10.3362
   8       10.3891
   9       10.4626
  10       12.0808
  11       12.2044
  12       13.7406
  13       14.4040
  14       14.7742
  15       17.9770
  16       18.0657
 
  0.2500000E+00  0.2777778E-01  0.0000000E+00  0.5144033E-03
   1       -2.4382
   2        2.0862
   3        5.7125
   4        5.8639
   5        7.2730
   6        7.4238
   7        9.9776
   8       10.1021
   9       10.9719
  10       11.7542
  11       11.8767
  12       13.8550
  13       14.5068
  14       14.8817
  15       18.0671
  16       18.2863
 
  0.2777778E+00  0.2777778E-01  0.0000000E+00  0.5144033E-03
   1       -2.3032
   2        1.7234
   3        5.8370
   4        5.9878
   5        7.3972
   6        7.5478
   7        9.6322
   8        9.7546
   9       11.4340
  10       11.5553
  11       11.5673
  12       13.9826
  13       14.6218
  14       15.0019
  15       17.7357
  16       18.0822
 
  0.3055556E+00  0.2777778E-01  0.0000000E+00  0.5144033E-03
   1       -2.1541
   2        1.3727
   3        5.9745
   4        6.1247
   5        7.5320
   6        7.6827
   7        9.3005
   8        9.4204
   9       11.1230
  10       11.2428
  11       12.1747
  12       14.1235
  13       14.7490
  14       15.1350
  15       17.4141
  16       17.7788
 
  0.3333333E+00  0.2777778E-01  0.0000000E+00  0.5144033E-03
   1       -1.9910
   2        1.0346
   3        6.1251
   4        6.2747
   5        7.6756
   6        7.8275
   7        8.9835
   8        9.0993
   9       10.8237
  10       10.9415
  11       12.7938
  12       14.2774
  13       14.8884
  14       15.2809
  15       17.1027
  16       17.4861
 
  0.3611111E+00  0.2777778E-01  0.0000000E+00  0.5144033E-03
   1       -1.8139
   2        0.7092
   3        6.2887
   4        6.4378
   5        7.8235
   6        7.9800
   7        8.6840
   8        8.7915
   9       10.5392
  10       10.6538
  11       13.4240
  12       14.4444
  13       15.0402
  14       15.4396
  15       16.8021
  16       17.2044
 
  0.3888889E+00  0.2777778E-01  0.0000000E+00  0.5144033E-03
   1       -1.6230
   2        0.3966
   3        6.4653
   4        6.6140
   5        7.9596
   6        8.1367
   7        8.4155
   8        8.4968
   9       10.2739
  10       10.3832
  11       14.0646
  12       14.6243
  13       15.2047
  14       15.6113
  15       16.5126
  16       16.9341
 
  0.4166667E+00  0.2777778E-01  0.0000000E+00  0.5144033E-03
   1       -1.4182
   2        0.0972
   3        6.6547
   4        6.8033
   5        7.9767
   6        8.2153
   7        8.2805
   8        8.2906
   9       10.0350
  10       10.1351
  11       14.7141
  12       14.8170
  13       15.3833
  14       15.7958
  15       16.2345
  16       16.6751
 
  0.4444444E+00  0.2777778E-01  0.0000000E+00  0.5144033E-03
   1       -1.1996
   2       -0.1890
   3        6.8569
   4        7.0057
   5        7.7753
   6        7.9471
   7        8.3686
   8        8.4284
   9        9.8368
  10        9.9194
  11       15.0224
  12       15.3590
  13       15.5890
  14       15.9680
  15       15.9933
  16       16.4277
 
  0.4722222E+00  0.2777778E-01  0.0000000E+00  0.5144033E-03
   1       -0.9673
   2       -0.4619
   3        7.0715
   4        7.2213
   5        7.5346
   6        7.6920
   7        8.4820
   8        8.5245
   9        9.7051
  10        9.7551
  11       15.2404
  12       15.7133
  13       15.7443
  14       16.0764
  15       16.1915
  16       16.2038
 
  0.5000000E+00  0.2777778E-01  0.0000000E+00  0.2572016E-03
   1       -0.7214
   2       -0.7214
   3        7.2980
   4        7.2980
   5        7.4501
   6        7.4501
   7        8.5453
   8        8.5453
   9        9.6744
  10        9.6744
  11       15.4707
  12       15.4707
  13       15.9657
  14       15.9657
  15       16.4271
  16       16.4271
 
  0.5555556E-01  0.5555556E-01  0.0000000E+00  0.2572016E-03
   1       -2.9654
   2        4.8768
   3        4.8768
   4        5.3820
   5        6.7760
   6        7.2769
   7        7.2769
   8       12.3737
   9       12.9079
  10       12.9079
  11       13.8884
  12       13.8884
  13       14.1201
  14       14.8629
  15       14.8629
  16       14.9171
 
  0.8333333E-01  0.5555556E-01  0.0000000E+00  0.5144033E-03
   1       -2.9298
   2        4.4847
   3        4.9099
   4        5.4145
   5        6.8100
   6        7.3103
   7        7.7303
   8       11.9837
   9       12.4764
  10       12.9413
  11       13.6616
  12       13.9190
  13       14.0269
  14       14.8949
  15       15.2249
  16       15.3605
 
  0.1111111E+00  0.5555556E-01  0.0000000E+00  0.5144033E-03
   1       -2.8798
   2        4.0762
   3        4.9563
   4        5.4601
   5        6.8575
   6        7.3571
   7        8.2247
   8       11.5843
   9       12.0534
  10       12.9879
  11       13.3858
  12       13.7911
  13       13.9618
  14       14.9397
  15       15.6628
  16       15.8758
 
  0.1388889E+00  0.5555556E-01  0.0000000E+00  0.5144033E-03
   1       -2.8156
   2        3.6666
   3        5.0160
   4        5.5187
   5        6.9184
   6        7.4170
   7        8.7446
   8       11.1875
   9       11.6418
  10       13.0478
  11       13.0804
  12       13.4979
  13       14.0168
  14       14.9973
  15       16.1542
  16       16.4062
 
  0.1666667E+00  0.5555556E-01  0.0000000E+00  0.5144033E-03
   1       -2.7372
   2        3.2625
   3        5.0888
   4        5.5903
   5        6.9924
   6        7.4900
   7        9.2835
   8       10.7983
   9       11.2425
  10       12.7591
  11       13.1210
  12       13.1797
  13       14.0841
  14       15.0677
  15       16.6749
  16       16.9504
 
  0.1944444E+00  0.5555556E-01  0.0000000E+00  0.5144033E-03
   1       -2.6446
   2        2.8668
   3        5.1749
   4        5.6750
   5        7.0794
   6        7.5758
   7        9.8383
   8       10.4191
   9       10.8559
  10       12.4307
  11       12.8514
  12       13.2075
  13       14.1636
  14       15.1510
  15       17.2164
  16       17.5081
 
  0.2222222E+00  0.5555556E-01  0.0000000E+00  0.5144033E-03
   1       -2.5378
   2        2.4813
   3        5.2742
   4        5.7727
   5        7.1788
   6        7.6742
   7       10.0514
   8       10.4074
   9       10.4823
  10       12.1014
  11       12.5208
  12       13.3072
  13       14.2554
  14       15.2471
  15       17.7750
  16       17.9758
 
  0.2500000E+00  0.5555556E-01  0.0000000E+00  0.5144033E-03
   1       -2.4169
   2        2.1068
   3        5.3866
   4        5.8835
   5        7.2901
   6        7.7847
   7        9.6964
   8       10.1218
   9       10.9897
  10       11.7755
  11       12.1929
  12       13.4200
  13       14.3596
  14       15.3560
  15       17.6302
  16       18.2477
 
  0.2777778E+00  0.5555556E-01  0.0000000E+00  0.5144033E-03
   1       -2.2819
   2        1.7441
   3        5.5122
   4        6.0073
   5        7.4121
   6        7.9067
   7        9.3552
   8        9.7743
   9       11.4563
  10       11.5844
  11       11.8710
  12       13.5461
  13       14.4761
  14       15.4778
  15       17.2947
  16       17.9352
 
  0.3055556E+00  0.5555556E-01  0.0000000E+00  0.5144033E-03
   1       -2.1328
   2        1.3935
   3        5.6509
   4        6.1442
   5        7.5427
   6        8.0393
   7        9.0298
   8        9.4401
   9       11.1467
  10       11.5574
  11       12.1908
  12       13.6853
  13       14.6052
  14       15.6124
  15       16.9700
  16       17.6325
 
  0.3333333E+00  0.5555556E-01  0.0000000E+00  0.5144033E-03
   1       -1.9697
   2        1.0554
   3        5.8026
   4        6.2942
   5        7.6765
   6        8.1809
   7        8.7250
   8        9.1190
   9       10.8495
  10       11.2542
  11       12.8083
  12       13.8375
  13       14.7471
  14       15.7599
  15       16.6562
  16       17.3400
 
  0.3611111E+00  0.5555556E-01  0.0000000E+00  0.5144033E-03
   1       -1.7927
   2        0.7300
   3        5.9673
   4        6.4573
   5        7.7964
   6        8.3288
   7        8.4571
   8        8.8111
   9       10.5686
  10       10.9635
  11       13.4359
  12       14.0027
  13       14.9024
  14       15.9203
  15       16.3539
  16       17.0581
 
  0.3888889E+00  0.5555556E-01  0.0000000E+00  0.5144033E-03
   1       -1.6018
   2        0.4175
   3        6.1448
   4        6.6335
   5        7.8308
   6        8.2959
   7        8.4780
   8        8.5165
   9       10.3097
  10       10.6877
  11       14.0713
  12       14.1810
  13       15.0730
  14       16.0634
  15       16.0935
  16       16.7870
 
  0.4166667E+00  0.5555556E-01  0.0000000E+00  0.5144033E-03
   1       -1.3970
   2        0.1181
   3        6.3350
   4        6.8229
   5        7.6838
   6        8.2350
   7        8.3344
   8        8.6183
   9       10.0838
  10       10.4304
  11       14.3721
  12       14.7063
  13       15.2670
  14       15.7847
  15       16.2795
  16       16.5269
 
  0.4444444E+00  0.5555556E-01  0.0000000E+00  0.5144033E-03
   1       -1.1784
   2       -0.1681
   3        6.5377
   4        7.0253
   5        7.4546
   6        7.9667
   7        8.4674
   8        8.7288
   9        9.9123
  10       10.1978
  11       14.5760
  12       15.2708
  13       15.5181
  14       15.5540
  15       16.2775
  16       16.4782
 
  0.4722222E+00  0.5555556E-01  0.0000000E+00  0.5144033E-03
   1       -0.9462
   2       -0.4409
   3        6.7525
   4        7.2141
   5        7.2409
   6        7.7116
   7        8.6122
   8        8.7741
   9        9.8313
  10       10.0020
  11       14.7927
  12       15.2639
  13       15.5771
  14       16.0385
  15       16.1213
  16       16.6897
 
  0.5000000E+00  0.5555556E-01  0.0000000E+00  0.2572016E-03
   1       -0.7003
   2       -0.7003
   3        6.9785
   4        6.9785
   5        7.4697
   6        7.4697
   7        8.7284
   8        8.7284
   9        9.8674
  10        9.8674
  11       15.0220
  12       15.0220
  13       15.8078
  14       15.8078
  15       16.7859
  16       16.7859
 
  0.8333333E-01  0.8333333E-01  0.0000000E+00  0.2572016E-03
   1       -2.8941
   2        4.5182
   3        4.5182
   4        5.4471
   5        6.8438
   6        7.7633
   7        7.7633
   8       11.6071
   9       12.5095
  10       12.5095
  11       13.6926
  12       13.6926
  13       14.1809
  14       15.2608
  15       15.3926
  16       15.3926
 
  0.1111111E+00  0.8333333E-01  0.0000000E+00  0.5144033E-03
   1       -2.8441
   2        4.1098
   3        4.5650
   4        5.4926
   5        6.8911
   6        7.8095
   7        8.2573
   8       11.2159
   9       12.0864
  10       12.5559
  11       13.4173
  12       13.7361
  13       14.0976
  14       15.4377
  15       15.5278
  16       15.9081
 
  0.1388889E+00  0.8333333E-01  0.0000000E+00  0.5144033E-03
   1       -2.7800
   2        3.7004
   3        4.6251
   4        5.5512
   5        6.9516
   6        7.8687
   7        8.7768
   8       10.8246
   9       11.6747
  10       12.6155
  11       13.1126
  12       13.7920
  13       13.8624
  14       15.4956
  15       15.9473
  16       16.4384
 
  0.1666667E+00  0.8333333E-01  0.0000000E+00  0.5144033E-03
   1       -2.7016
   2        3.2964
   3        4.6986
   4        5.6229
   5        7.0250
   6        7.9407
   7        9.3152
   8       10.4394
   9       11.2754
  10       12.6883
  11       12.7919
  12       13.5675
  13       13.8603
  14       15.5663
  15       16.4343
  16       16.9827
 
  0.1944444E+00  0.8333333E-01  0.0000000E+00  0.5144033E-03
   1       -2.6090
   2        2.9009
   3        4.7853
   4        5.7076
   5        7.1110
   6        8.0253
   7        9.8695
   8       10.0635
   9       10.8888
  10       12.4643
  11       12.7743
  12       13.2498
  13       13.9412
  14       15.6500
  15       16.9568
  16       17.5403
 
  0.2222222E+00  0.8333333E-01  0.0000000E+00  0.5144033E-03
   1       -2.5022
   2        2.5155
   3        4.8854
   4        5.8053
   5        7.2089
   6        8.1222
   7        9.6991
   8       10.4378
   9       10.5152
  10       12.1360
  11       12.8735
  12       12.9247
  13       14.0346
  14       15.7465
  15       17.5032
  16       17.5506
 
  0.2500000E+00  0.8333333E-01  0.0000000E+00  0.5144033E-03
   1       -2.3814
   2        2.1411
   3        4.9987
   4        5.9161
   5        7.3176
   6        8.2308
   7        9.3480
   8       10.1546
   9       11.0191
  10       11.8114
  11       12.5998
  12       12.9858
  13       14.1407
  14       15.8558
  15       17.2018
  16       18.0372
 
  0.2777778E+00  0.8333333E-01  0.0000000E+00  0.5144033E-03
   1       -2.2464
   2        1.7785
   3        5.1252
   4        6.0399
   5        7.4347
   6        8.3503
   7        9.0128
   8        9.8072
   9       11.4939
  10       11.6124
  11       12.2794
  12       13.1113
  13       14.2596
  14       15.9781
  15       16.8637
  16       17.7172
 
  0.3055556E+00  0.8333333E-01  0.0000000E+00  0.5144033E-03
   1       -2.0974
   2        1.4280
   3        5.2649
   4        6.1768
   5        7.5546
   6        8.4794
   7        8.6994
   8        9.4729
   9       11.1868
  10       11.9663
  11       12.2168
  12       13.2499
  13       14.3918
  14       16.1131
  15       16.5368
  16       17.4153
 
  0.3333333E+00  0.8333333E-01  0.0000000E+00  0.5144033E-03
   1       -1.9343
   2        1.0900
   3        5.4176
   4        6.3269
   5        7.6601
   6        8.4246
   7        8.6159
   8        9.1518
   9       10.8939
  10       11.6628
  11       12.8311
  12       13.4016
  13       14.5380
  14       16.2214
  15       16.2610
  16       17.1229
 
  0.3611111E+00  0.8333333E-01  0.0000000E+00  0.5144033E-03
   1       -1.7573
   2        0.7647
   3        5.5834
   4        6.4900
   5        7.6903
   6        8.2488
   7        8.7554
   8        8.8439
   9       10.6203
  10       11.3705
  11       13.4528
  12       13.5663
  13       14.7003
  14       15.9179
  15       16.4217
  16       16.8405
 
  0.3888889E+00  0.8333333E-01  0.0000000E+00  0.5144033E-03
   1       -1.5664
   2        0.4523
   3        5.7621
   4        6.6662
   5        7.5588
   6        8.2574
   7        8.5492
   8        8.8893
   9       10.3757
  10       11.0914
  11       13.7441
  12       14.0749
  13       14.8856
  14       15.6264
  15       16.5685
  16       16.5951
 
  0.4166667E+00  0.8333333E-01  0.0000000E+00  0.5144033E-03
   1       -1.3617
   2        0.1530
   3        5.9535
   4        6.8555
   5        7.3323
   6        8.2677
   7        8.3821
   8        8.9990
   9       10.1792
  10       10.8278
  11       13.9347
  12       14.6643
  13       15.1263
  14       15.3471
  15       16.3070
  16       16.7813
 
  0.4444444E+00  0.8333333E-01  0.0000000E+00  0.5144033E-03
   1       -1.1432
   2       -0.1331
   3        6.1574
   4        7.0580
   5        7.0851
   6        7.9994
   7        8.5453
   8        9.0495
   9       10.0665
  10       10.5833
  11       14.1383
  12       15.0802
  13       15.0864
  14       15.5567
  15       16.0557
  16       16.9800
 
  0.4722222E+00  0.8333333E-01  0.0000000E+00  0.5144033E-03
   1       -0.9110
   2       -0.4059
   3        6.3735
   4        6.8392
   5        7.2736
   6        7.7443
   7        8.7188
   8        9.0065
   9       10.0724
  10       10.3646
  11       14.3547
  12       14.8257
  13       15.3479
  14       15.8141
  15       16.1699
  16       17.1913
 
  0.5000000E+00  0.8333333E-01  0.0000000E+00  0.2572016E-03
   1       -0.6652
   2       -0.6652
   3        6.6012
   4        6.6012
   5        7.5024
   6        7.5024
   7        8.8825
   8        8.8825
   9       10.1851
  10       10.1851
  11       14.5839
  12       14.5839
  13       15.5803
  14       15.5803
  15       16.8337
  16       16.8337
 
  0.1111111E+00  0.1111111E+00  0.0000000E+00  0.2572016E-03
   1       -2.7942
   2        4.1569
   3        4.1569
   4        5.5382
   5        6.9379
   6        8.3029
   7        8.3029
   8       10.8297
   9       12.1326
  10       12.1326
  11       13.4616
  12       13.4616
  13       14.2659
  14       15.5294
  15       15.9532
  16       15.9532
 
  0.1388889E+00  0.1111111E+00  0.0000000E+00  0.5144033E-03
   1       -2.7301
   2        3.7478
   3        4.2174
   4        5.5968
   5        6.9977
   6        8.3614
   7        8.8218
   8       10.4420
   9       11.7209
  10       12.1921
  11       13.1577
  12       13.5185
  13       14.1946
  14       15.7749
  15       16.0112
  16       16.4836
 
  0.1666667E+00  0.1111111E+00  0.0000000E+00  0.5144033E-03
   1       -2.6517
   2        3.3440
   3        4.2914
   4        5.6685
   5        7.0701
   6        8.4323
   7        9.3594
   8       10.0596
   9       11.3215
  10       12.2647
  11       12.8380
  12       13.5881
  13       13.9672
  14       16.0821
  15       16.1868
  16       17.0278
 
  0.1944444E+00  0.1111111E+00  0.0000000E+00  0.5144033E-03
   1       -2.5592
   2        2.9487
   3        4.3787
   4        5.7532
   5        7.1545
   6        8.5156
   7        9.6866
   8        9.9128
   9       10.9349
  10       12.3505
  11       12.5116
  12       13.6706
  13       13.6781
  14       16.1658
  15       16.6750
  16       17.4983
 
  0.2222222E+00  0.1111111E+00  0.0000000E+00  0.5144033E-03
   1       -2.4525
   2        2.5634
   3        4.4794
   4        5.8509
   5        7.2496
   6        8.6107
   7        9.3257
   8       10.4799
   9       10.5612
  10       12.1847
  11       12.4494
  12       13.3669
  13       13.7660
  14       16.2625
  15       17.1353
  16       17.2030
 
  0.2500000E+00  0.1111111E+00  0.0000000E+00  0.5144033E-03
   1       -2.3316
   2        2.1892
   3        4.5934
   4        5.9617
   5        7.3531
   6        8.7169
   7        8.9803
   8       10.2006
   9       11.0596
  10       11.8620
  11       12.5615
  12       13.0495
  13       13.8746
  14       16.3719
  15       16.7840
  16       17.7567
 
  0.2777778E+00  0.1111111E+00  0.0000000E+00  0.5144033E-03
   1       -2.1967
   2        1.8267
   3        4.7207
   4        6.0856
   5        7.4592
   6        8.6567
   7        8.8331
   8        9.8531
   9       11.5474
  10       11.6506
  11       12.6868
  12       12.7335
  13       13.9969
  14       16.4439
  15       16.4943
  16       17.4524
 
  0.3055556E+00  0.1111111E+00  0.0000000E+00  0.5144033E-03
   1       -2.0477
   2        1.4764
   3        4.8612
   4        6.2225
   5        7.5508
   6        8.3720
   7        8.9571
   8        9.5188
   9       11.2448
  10       12.2513
  11       12.4230
  12       12.8251
  13       14.1337
  14       16.1154
  15       16.6294
  16       17.1510
 
  0.3333333E+00  0.1111111E+00  0.0000000E+00  0.5144033E-03
   1       -1.8847
   2        1.1385
   3        5.0149
   4        6.3725
   5        7.5722
   6        8.1822
   7        9.0851
   8        9.1977
   9       10.9596
  10       12.1208
  11       12.8593
  12       12.9766
  13       14.2874
  14       15.7987
  15       16.7773
  16       16.8585
 
  0.3611111E+00  0.1111111E+00  0.0000000E+00  0.5144033E-03
   1       -1.7078
   2        0.8133
   3        5.1817
   4        6.5356
   5        7.4420
   6        8.1681
   7        8.8898
   8        9.2092
   9       10.7005
  10       11.8286
  11       13.1410
  12       13.4679
  13       14.4640
  14       15.4942
  15       16.5756
  16       16.9379
 
  0.3888889E+00  0.1111111E+00  0.0000000E+00  0.5144033E-03
   1       -1.5170
   2        0.5011
   3        5.3614
   4        6.7119
   5        7.2116
   6        8.2779
   7        8.5951
   8        9.3122
   9       10.4858
  10       11.5482
  11       13.3186
  12       14.0540
  13       14.6864
  14       15.2019
  15       16.3026
  16       17.1112
 
  0.4166667E+00  0.1111111E+00  0.0000000E+00  0.5144033E-03
   1       -1.3123