 running on    8 nodes
 distr:  one band on    1 nodes,    8 groups
 vasp.4.6.28 25Jul05 complex 
 POSCAR found :  1 types and    4 ions
 LDA part: xc-table for Pade appr. of Perdew
 POSCAR, INCAR and KPOINTS ok, starting setup
 FFT: planning ...           1
 reading WAVECAR
 WARNING: random wavefunctions but no delay for mixing, default for NELMDL
 entering main loop
       N       E                     dE             d eps       ncg     rms          rms(c)
DAV:   1     0.150035375240E+02    0.15004E+02   -0.62694E+03 42560   0.100E+03
DAV:   2    -0.140813311500E+02   -0.29085E+02   -0.27295E+02 55320   0.114E+02
DAV:   3    -0.150521117965E+02   -0.97078E+00   -0.96308E+00 56928   0.154E+01
DAV:   4    -0.150589324188E+02   -0.68206E-02   -0.68199E-02 50888   0.153E+00
DAV:   5    -0.150590134439E+02   -0.81025E-04   -0.81024E-04 58216   0.171E-01    0.190E+00
DAV:   6    -0.150056173180E+02    0.53396E-01   -0.54741E-03 49992   0.383E-01    0.118E+00
DAV:   7    -0.149666493406E+02    0.38968E-01   -0.17094E-02 48632   0.639E-01    0.492E-02
DAV:   8    -0.149666770366E+02   -0.27696E-04   -0.13592E-04 57656   0.755E-02    0.130E-02
DAV:   9    -0.149666810119E+02   -0.39754E-05   -0.39376E-06 55040   0.956E-03    0.124E-03
DAV:  10    -0.149666801627E+02    0.84924E-06   -0.44559E-08 58368   0.164E-03    0.335E-04
DAV:  11    -0.149666799947E+02    0.16800E-06   -0.15383E-09 40160   0.226E-04    0.274E-05
DAV:  12    -0.149666800181E+02   -0.23379E-07   -0.14598E-10 32664   0.771E-05    0.798E-06
DAV:  13    -0.149666800195E+02   -0.14477E-08   -0.33943E-11 30232   0.278E-05
   1 F= -.14966680E+02 E0= -.14966644E+02  d E =-.719438E-04
