 running on    4 nodes
 distr:  one band on    1 nodes,    4 groups
 vasp.4.6.28 25Jul05 complex 
 POSCAR found :  1 types and   32 ions

 ----------------------------------------------------------------------------- 
|                                                                             |
|  ADVICE TO THIS USER RUNNING 'VASP/VAMP'   (HEAR YOUR MASTER'S VOICE ...):  |
|                                                                             |
|      You have a (more or less) 'large supercell' and for larger cells       |
|      it might be more efficient to use real space projection operators      |
|      So try LREAL= Auto  in the INCAR   file.                               |
|      Mind: If you want to do an extremely accurate calculations keep the    |
|      reciprocal projection scheme          (i.e. LREAL=.FALSE.)             |
|                                                                             |
 ----------------------------------------------------------------------------- 

 LDA part: xc-table for Pade appr. of Perdew
 found WAVECAR, reading the header
  number of k-points has changed, file:   4 present:   6
  trying to continue reading WAVECAR, but it might fail
 POSCAR, INCAR and KPOINTS ok, starting setup
 FFT: planning ...           1
 reading WAVECAR
 the WAVECAR file was read sucessfully
 initial charge from wavefunction
 entering main loop
       N       E                     dE             d eps       ncg     rms          rms(c)
DAV:   1    -0.101835780825E+03   -0.10184E+03   -0.53906E+02  2704   0.371E+01BRMIX: very serious problems
 the old and the new charge density differ
 old charge density:   347.47913 new  352.00000
    0.556E+00
DAV:   2    -0.101743411143E+03    0.92370E-01   -0.13293E+01  2720   0.106E+01    0.923E-01
DAV:   3    -0.101768499510E+03   -0.25088E-01   -0.33846E-01  2688   0.191E+00    0.584E-01
DAV:   4    -0.101769112427E+03   -0.61292E-03   -0.75153E-03  3004   0.328E-01    0.276E-01
DAV:   5    -0.101769423906E+03   -0.31148E-03   -0.97860E-04  2704   0.126E-01    0.365E-02
DAV:   6    -0.101769408938E+03    0.14968E-04   -0.20393E-04  2736   0.516E-02    0.108E-02
DAV:   7    -0.101769407155E+03    0.17835E-05   -0.10306E-05  1432   0.174E-02
   1 F= -.10176941E+03 E0= -.10176039E+03  d E =-.270643E-01

 ----------------------------------------------------------------------------- 
|                                                                             |
|           W    W    AA    RRRRR   N    N  II  N    N   GGGG   !!!           |
|           W    W   A  A   R    R  NN   N  II  NN   N  G    G  !!!           |
|           W    W  A    A  R    R  N N  N  II  N N  N  G       !!!           |
|           W WW W  AAAAAA  RRRRR   N  N N  II  N  N N  G  GGG   !            |
|           WW  WW  A    A  R   R   N   NN  II  N   NN  G    G                |
|           W    W  A    A  R    R  N    N  II  N    N   GGGG   !!!           |
|                                                                             |
|      The partial DOS and the PROCAR file are not evaluated for NPAR/=1      |
|      please rerun with NPAR=1                                               |
|                                                                             |
 ----------------------------------------------------------------------------- 

