 vasp.4.6.28 25Jul05 complex 
 executed on             LinuxIFC date 2017.01.06  18:42:21
 running on    4 nodes
 distr:  one band on    1 nodes,    4 groups


--------------------------------------------------------------------------------------------------------


 INCAR:
 POTCAR:   PAW_PBE Au 06Sep2000                   
 POTCAR:   PAW_PBE Au 06Sep2000                   
   VRHFIN =Au: s1d10                                                            
   LEXCH  = PE                                                                  
   EATOM  =   926.0567 eV,   68.0632 Ry                                         
                                                                                
   TITEL  = PAW_PBE Au 06Sep2000                                                
   LULTRA =        F    use ultrasoft PP ?                                      
   IUNSCR =        1    unscreen: 0-lin 1-nonlin 2-no                           
   RPACOR =    2.330    partial core radius                                     
   POMASS =  196.966; ZVAL   =   11.000    mass and valenz                      
   RCORE  =    2.500    outmost cutoff radius                                   
   RWIGS  =    2.840; RWIGS  =    1.503    wigner-seitz radius (au A)           
   ENMAX  =  229.948; ENMIN  =  172.461 eV                                      
   RCLOC  =    1.964    cutoff for local pot                                    
   LCOR   =        T    correct aug charges                                     
   LPAW   =        T    paw PP                                                  
   EAUG   =  356.670                                                            
   DEXC   =    -.025                                                            
   RMAX   =    3.041    core radius for proj-oper                               
   RAUG   =    1.300    factor for augmentation sphere                          
   RDEP   =    2.598    radius for radial grids                                 
   QCUT   =   -4.111; QGAM   =    8.222    optimization parameters              
                                                                                
   Description                                                                  
     l     E      TYP  RCUT    TYP  RCUT                                        
     2   .000     23  2.500                                                     
     2   .000     23  2.500                                                     
     0   .000     23  2.500                                                     
     0   .000     23  2.500                                                     
     1  -.200     23  2.500                                                     
     1   .000     23  2.500                                                     
     3   .000      7   .000                                                     
  local pseudopotential read in
  partial core-charges read in
  atomic valenz-charges read in
  non local Contribution for L=           2  read in
    real space projection operators read in
  non local Contribution for L=           2  read in
    real space projection operators read in
  non local Contribution for L=           0  read in
    real space projection operators read in
  non local Contribution for L=           0  read in
    real space projection operators read in
  non local Contribution for L=           1  read in
    real space projection operators read in
  non local Contribution for L=           1  read in
    real space projection operators read in
    PAW grid and wavefunctions read in
 
   number of l-projection  operators is LMAX  =           6
   number of lm-projection operators is LMMAX =          18
 

 ----------------------------------------------------------------------------- 
|                                                                             |
|  ADVICE TO THIS USER RUNNING 'VASP/VAMP'   (HEAR YOUR MASTER'S VOICE ...):  |
|                                                                             |
|      You have a (more or less) 'large supercell' and for larger cells       |
|      it might be more efficient to use real space projection operators      |
|      So try LREAL= Auto  in the INCAR   file.                               |
|      Mind: If you want to do an extremely accurate calculations keep the    |
|      reciprocal projection scheme          (i.e. LREAL=.FALSE.)             |
|                                                                             |
 ----------------------------------------------------------------------------- 

 PAW_PBE Au 06Sep2000                   :
 energy of atom  1       EATOM= -926.0567
 kinetic energy error for atom=    0.0013 (will be added to EATOM!!)
 
 EXHCAR: internal setup
 exchange correlation table for  LEXCH =        8
   RHO(1)=    0.500       N(1)  =     2000
   RHO(2)=  100.500       N(2)  =     4000
 
 POSCAR: No title                                
  positions in direct lattice
  No initial velocities read in
 


--------------------------------------------------------------------------------------------------------


 ion  position               nearest neighbor table
   1  0.750  0.750  0.500-   3 3.06   5 3.06  14 3.06  19 3.06  20 3.06  26 3.06  11 3.06   6 3.06
                            18 3.06  29 3.06  10 3.06   8 3.06
   2  0.750  0.750  0.000-  12 3.05  10 3.06  11 3.06   8 3.06  18 3.06  22 3.06  27 3.06  26 3.06
                             5 3.06  32 3.06   3 3.06  20 3.06
   3  0.750  0.000  0.250-  12 3.05   5 3.06   9 3.06   1 3.06  19 3.06  28 3.06  18 3.06   6 3.06
                            27 3.06  13 3.06   4 3.06   2 3.06
   4  0.750  0.250  0.500-   6 3.06   8 3.06  10 3.06  13 3.06  29 3.06  31 3.06  21 3.06  28 3.06
                            14 3.06  19 3.06   3 3.06  20 3.06
   5  0.000  0.750  0.250-   1 3.06   3 3.06  14 3.06  15 3.06  25 3.06   2 3.06   7 3.06  16 3.06
                            10 3.06  22 3.06   6 3.06  12 3.06
   6  0.000  0.000  0.500-   4 3.06   7 3.06   8 3.06  11 3.06  13 3.06  16 3.06   1 3.06   3 3.06
                            17 3.06  23 3.06  21 3.06   5 3.06
   7  0.250  0.750  0.500-   6 3.06  11 3.06  16 3.06  18 3.06  29 3.06  30 3.06  19 3.06  26 3.06
                             5 3.06  14 3.06  25 3.06  23 3.06
   8  0.750  0.000  0.750-  12 3.05   4 3.06   6 3.06  11 3.06   2 3.06  27 3.06  31 3.06  26 3.06
                            19 3.06  21 3.06   9 3.06   1 3.06
   9  0.750  0.250  0.000-  12 3.05   3 3.06  20 3.06  21 3.06  28 3.06  32 3.06  27 3.06  13 3.06
                            31 3.06  22 3.06  10 3.06   8 3.06
  10  0.750  0.500  0.250-   2 3.06   4 3.06  13 3.06  18 3.06  22 3.06  29 3.06  14 3.06  28 3.06
                             5 3.06  32 3.06   9 3.06   1 3.06
  11  0.000  0.750  0.750-   2 3.06   6 3.06   7 3.06   8 3.06  22 3.06  30 3.06  20 3.06   1 3.06
                            23 3.06  15 3.06  14 3.06  12 3.06
  12  0.998  0.000  0.000-   9 3.05   3 3.05   2 3.05   8 3.05   5 3.06  21 3.06  11 3.06  13 3.06
                            15 3.08  23 3.08  24 3.08  16 3.08
  13  0.000  0.250  0.250-   4 3.06   6 3.06  10 3.06  16 3.06  22 3.06  24 3.06  17 3.06   3 3.06
                             9 3.06  25 3.06  14 3.06  12 3.06
  14  0.000  0.500  0.500-   1 3.06   5 3.06  17 3.06  20 3.06  21 3.06  25 3.06   7 3.06  10 3.06
                             4 3.06  30 3.06  13 3.06  11 3.06
  15  0.250  0.750  0.000-   5 3.06  23 3.06  25 3.06  26 3.06  32 3.06  18 3.06  22 3.06  27 3.06
                            11 3.06  30 3.06  16 3.06  12 3.08
  16  0.250  0.000  0.250-   6 3.06   7 3.06  13 3.06  18 3.06  24 3.06  27 3.06   5 3.06  19 3.06
                            28 3.06  17 3.06  15 3.06  12 3.08
  17  0.250  0.250  0.500-  14 3.06  19 3.06  21 3.06  23 3.06  25 3.06  28 3.06   6 3.06  13 3.06
                            29 3.06  31 3.06  30 3.06  16 3.06
  18  0.500  0.750  0.250-   2 3.06   7 3.06  10 3.06  16 3.06  27 3.06  29 3.06   1 3.06  25 3.06
                             3 3.06  15 3.06  19 3.06  32 3.06
  19  0.500  0.000  0.500-   1 3.06   3 3.06  17 3.06  23 3.06  26 3.06  28 3.06   4 3.06   7 3.06
                             8 3.06  16 3.06  18 3.06  31 3.06
  20  0.750  0.500  0.750-   1 3.06   9 3.06  14 3.06  21 3.06  26 3.06  32 3.06  11 3.06  29 3.06
                            31 3.06  22 3.06   4 3.06   2 3.06
  21  0.000  0.250  0.750-   9 3.06  14 3.06  17 3.06  20 3.06  23 3.06   8 3.06   4 3.06  24 3.06
                            30 3.06  22 3.06   6 3.06  12 3.06
  22  0.000  0.500  0.000-   2 3.06  10 3.06  11 3.06  13 3.06  24 3.06  30 3.06  20 3.06   9 3.06
                            25 3.06  15 3.06  21 3.06   5 3.06
  23  0.250  0.000  0.750-  15 3.06  17 3.06  19 3.06  21 3.06  26 3.06  11 3.06   6 3.06  27 3.06
                            31 3.06  24 3.06   7 3.06  12 3.08
  24  0.250  0.250  0.000-  13 3.06  16 3.06  22 3.06  27 3.06  30 3.06  31 3.06  21 3.06  28 3.06
                            32 3.06  25 3.06  23 3.06  12 3.08
  25  0.250  0.500  0.250-   5 3.06  14 3.06  15 3.06  17 3.06  28 3.06  32 3.06  22 3.06  13 3.06
                            29 3.06  18 3.06  24 3.06   7 3.06
  26  0.500  0.750  0.750-   1 3.06  15 3.06  19 3.06  20 3.06  23 3.06  32 3.06   8 3.06   2 3.06
                            30 3.06   7 3.06  27 3.06  29 3.06
  27  0.500  0.000  0.000-   2 3.06   8 3.06  16 3.06  18 3.06  24 3.06  31 3.06   9 3.06  23 3.06
                            15 3.06   3 3.06  28 3.06  26 3.06
  28  0.500  0.250  0.250-   3 3.06   9 3.06  17 3.06  19 3.06  25 3.06  32 3.06  10 3.06  24 3.06
                            16 3.06   4 3.06  29 3.06  27 3.06
  29  0.500  0.500  0.500-   4 3.06   7 3.06  10 3.06  18 3.06  30 3.06  31 3.06  20 3.06  25 3.06
                            17 3.06   1 3.06  26 3.06  28 3.06
  30  0.250  0.500  0.750-   7 3.06  11 3.06  22 3.06  24 3.06  29 3.06  31 3.06  26 3.06  14 3.06
                            21 3.06  32 3.06  17 3.06  15 3.06
  31  0.500  0.250  0.750-   4 3.06   8 3.06  24 3.06  27 3.06  29 3.06  30 3.06   9 3.06  17 3.06
                            20 3.06  23 3.06  19 3.06  32 3.06
  32  0.500  0.500  0.000-   9 3.06  15 3.06  20 3.06  25 3.06  26 3.06  28 3.06   2 3.06  10 3.06
                            24 3.06  30 3.06  18 3.06  31 3.06
 
  LATTYP: Found a simple cubic cell.
 ALAT       =     8.6679608100
  
  Lattice vectors:
  
 A1 = (   8.6679608100,   0.0000000000,   0.0000000000)
 A2 = (   0.0000001600,   8.6679608100,   0.0000000000)
 A3 = (   0.0000001600,   0.0000001600,   8.6679608100)
 Subroutine PRICEL returns:
 Original cell was already a primitive cell.
 

Analysis of symmetry for initial positions (statically):

 Routine SETGRP: Setting up the symmetry group for a 
 simple cubic supercell.


 Subroutine GETGRP returns: Found  8 space group operations
 (whereof  8 operations were pure point group operations)
 out of a pool of 48 trial point group operations.


The static configuration has the point symmetry C_4v.

Analysis of symmetry for dynamics (positions and initial velocities):

 Subroutine DYNSYM returns: Found  8 space group operations
 (whereof  8 operations were pure point group operations)
 out of a pool of  8 trial space group operations
 (whereof  8 operations were pure point group operations)
 and found also     1 'primitive' translations


The dynamic configuration has the point symmetry C_4v.
 
 
 KPOINTS: Automatic mesh                          

Automatic generation of k-mesh.
 
 Subroutine IBZKPT returns following result:
 ===========================================
 
 Found      6 irreducible k-points:
 
 Following reciprocal coordinates:
            Coordinates               Weight
  0.000000  0.000000  0.000000      1.000000
  0.333333  0.000000  0.000000      2.000000
  0.000000  0.333333  0.000000      4.000000
  0.333333  0.333333  0.000000      8.000000
  0.000000  0.333333  0.333333      4.000000
  0.333333  0.333333  0.333333      8.000000
 
 Following cartesian coordinates:
            Coordinates               Weight
  0.000000  0.000000  0.000000      1.000000
  0.038456 -0.000000 -0.000000      2.000000
  0.000000  0.038456 -0.000000      4.000000
  0.038456  0.038456 -0.000000      8.000000
  0.000000  0.038456  0.038456      4.000000
  0.038456  0.038456  0.038456      8.000000
 


--------------------------------------------------------------------------------------------------------




 Dimension of arrays:
   k-Points           NKPTS =      6   number of bands    NBANDS=    212
   number of dos      NEDOS =    301   number of ions     NIONS =     32
   non local maximal  LDIM  =      6   non local SUM 2l+1 LMDIM =     18
   total plane-waves  NPLWV = 343000
   max r-space proj   IRMAX =      1   max aug-charges    IRDMAX= 257832
   dimension x,y,z NGX =    70 NGY =   70 NGZ =   70
   dimension x,y,z NGXF=   140 NGYF=  140 NGZF=  140
   support grid    NGXF=   280 NGYF=  280 NGZF=  280
   ions per type =              32
 NGX,Y,Z   is equivalent  to a cutoff of  13.43, 13.43, 13.43 a.u.
 NGXF,Y,Z  is equivalent  to a cutoff of  26.85, 26.85, 26.85 a.u.


 I would recommend the setting:
   dimension x,y,z NGX =    69 NGY =   69 NGZ =   69
 SYSTEM =  No title                                
 POSCAR =  No title                                

 Startparameter for this run:
   NWRITE =      2    write-flag & timer
   PREC   = accura    medium, high low
   ISTART =      1    job   : 0-new  1-cont  2-samecut
   ICHARG =      0    charge: 1-file 2-atom 10-const
   ISPIN  =      1    spin polarized calculation?
   LNONCOLLINEAR =      F non collinear calculations
   LSORBIT =      F    spin-orbit coupling
   INIWAV =      1    electr: 0-lowe 1-rand  2-diag
   LASPH  =      F    aspherical Exc in radial PAW
   METAGGA=      F    non-selfconsistent MetaGGA calc.

 Electronic Relaxation 1
   ENCUT  =  600.0 eV  44.10 Ry    6.64 a.u.  17.31 17.31 17.31*2*pi/ulx,y,z
   ENINI  =  600.0     initial cutoff
   ENAUG  =  356.7 eV  augmentation charge cutoff
   NELM   =     60;   NELMIN=  2; NELMDL=  0     # of ELM steps 
   EDIFF  = 0.1E-04   stopping-criterion for ELM
   LREAL  =      F    real-space projection
   LCOMPAT=      F    compatible to vasp.4.4
   LREAL_COMPAT= F    compatible to vasp.4.5.1-3
   GGA_COMPAT  = T    GGA compatible to vasp.4.4-vasp.4.6
   LMAXPAW     = -100 max onsite density
   LMAXMIX     =    2 max onsite mixed and CHGCAR
   VOSKOWN=      1    Vosko Wilk Nusair interpolation
   ROPT   =    0.00000
 Ionic relaxation
   EDIFFG = -.2E-01   stopping-criterion for IOM
   NSW    =      0    number of steps for IOM
   NBLOCK =      1;   KBLOCK =      1    inner block; outer block 
   IBRION =     -1    ionic relax: 0-MD 1-quasi-New 2-CG
   NFREE  =      0    steps in history (QN), initial steepest desc. (CG)
   ISIF   =      2    stress and relaxation
   IWAVPR =     10    prediction:  0-non 1-charg 2-wave 3-comb
   ISYM   =      2    0-nonsym 1-usesym 2-fastsym
   LCORR  =      T    Harris-Foulkes like correction to forces

   POTIM  =   0.50    time-step for ionic-motion
   TEIN   =    0.0    initial temperature
   TEBEG  =    0.0;   TEEND  =   0.0 temperature during run
   SMASS  =  -3.00    Nose mass-parameter (am)
   estimated Nose-frequenzy (Omega)   =  0.10E-29 period in steps =****** mass=  -0.172E-26a.u.
   NPACO  =    256;   APACO  = 16.0  distance and # of slots for P.C.
   PSTRESS=    0.0 pullay stress

  Mass of Ions in am
   POMASS = 196.97
  Ionic Valenz
   ZVAL   =  11.00
  Atomic Wigner-Seitz radii
   RWIGS  =   1.34
   NELECT =     352.0000    total number of electrons
   NUPDOWN=      -1.0000    fix difference up-down

 DOS related values:
   EMIN   =  10.00;   EMAX   =-10.00  energy-range for DOS
   ISMEAR =     1;   SIGMA  =   0.20  broadening in eV -4-tet -1-fermi 0-gaus

 Electronic relaxation 2 (details)
   IALGO  =     38    algorithm
   LDIAG  =      T    sub-space diagonalisation
   IMIX   =      4    mixing-type and parameters
     AMIX     =   0.40;   BMIX     =  1.00
     AMIX_MAG =   1.60;   BMIX_MAG =  1.00
     AMIN     =   0.10
     WC   =   100.;   INIMIX=   1;  MIXPRE=   1

 Intra band minimization:
   WEIMIN = 0.0000     energy-eigenvalue tresh-hold
   EBREAK =  0.12E-07  absolut break condition
   DEPER  =   0.30     relativ break condition  

   TIME   =   0.10     timestep for ELM

  volume/ion in A,a.u.               =      20.35       137.34
  Fermi-wavevector in a.u.,eV,Ry     =   1.333538 24.195567  1.778324

 Second variation
   LSECVAR=     F    do a second variation
 
 Write flags
   LWAVE  =      F    write WAVECAR
   LCHARG =      F    write CHGCAR
   LVTOT  =      F    write LOCPOT, local potential
   LELF   =      F    write electronic localiz. function (ELF)
   LORBIT =      0    0 simple, 1 ext, 2 COOP (PROOUT)


 Dipole corrections
   IDIPOL =      0    1-x, 2-y, 3-z
   LDIPOL =      F    correct potential



--------------------------------------------------------------------------------------------------------


 Static calculation
 charge density will be updated during run
 non-spin polarized calculation
 Variant of blocked Davidson
 Davidson routine will perform the subspace rotation
 performe sub-space diagonalisation
    after iterative eigenvector-optimisation
 modified Broyden-mixing scheme, WC =      100.0
 initial mixing is a Kerker type mixing with AMIX =  0.4000 and BMIX =      1.0000
 Hartree-type preconditioning will be used
 using additional bands           36
 reciprocal scheme for non local part
 use partial core corrections
 calculate Harris-corrections to forces 
   (improved forces if not selfconsistent)
 use gradient corrections 
 use of overlap-Matrix (Vanderbilt PP)
 Methfessel and Paxton  Order N= 1 SIGMA  =   0.20


--------------------------------------------------------------------------------------------------------


  energy-cutoff  :      600.00
  volume of cell :      651.25
      direct lattice vectors                 reciprocal lattice vectors
     8.667960810  0.000000000  0.000000000     0.115367388 -0.000000002 -0.000000002
     0.000000160  8.667960810  0.000000000     0.000000000  0.115367388 -0.000000002
     0.000000160  0.000000160  8.667960810     0.000000000  0.000000000  0.115367388

  length of vectors
     8.667960810  8.667960810  8.667960810     0.115367388  0.115367388  0.115367388


 
 old parameters found on file WAVECAR:
  energy-cutoff  :      600.00
  volume of cell :      651.25
      direct lattice vectors                 reciprocal lattice vectors
     8.667960810  0.000000000  0.000000000     0.115367388 -0.000000002 -0.000000002
     0.000000160  8.667960810  0.000000000     0.000000000  0.115367388 -0.000000002
     0.000000160  0.000000160  8.667960810     0.000000000  0.000000000  0.115367388

  length of vectors

 
 k-points in units of 2pi/SCALE and weight: Automatic mesh                          
   0.00000000  0.00000000  0.00000000       0.037
   0.03845580 -0.00000000 -0.00000000       0.074
   0.00000000  0.03845580 -0.00000000       0.148
   0.03845580  0.03845580 -0.00000000       0.296
   0.00000000  0.03845580  0.03845580       0.148
   0.03845580  0.03845580  0.03845579       0.296
 
 k-points in reciprocal lattice and weights: Automatic mesh                          
   0.00000000  0.00000000  0.00000000       0.037
   0.33333333  0.00000000  0.00000000       0.074
   0.00000000  0.33333333  0.00000000       0.148
   0.33333333  0.33333333  0.00000000       0.296
   0.00000000  0.33333333  0.33333333       0.148
   0.33333333  0.33333333  0.33333333       0.296
 
 position of ions in fractional coordinates (direct lattice) 
   0.75000000  0.75000000  0.50000000
   0.75000000  0.75000000  0.00000000
   0.75000000  0.00000000  0.25000000
   0.75000000  0.25000000  0.50000000
   0.00000000  0.75000000  0.25000000
   0.00000000  0.00000000  0.50000000
   0.25000000  0.75000000  0.50000000
   0.75000000  0.00000000  0.75000000
   0.75000000  0.25000000  0.00000000
   0.75000000  0.50000000  0.25000000
   0.00000000  0.75000000  0.75000000
   0.99769300  0.00000000  0.00000000
   0.00000000  0.25000000  0.25000000
   0.00000000  0.50000000  0.50000000
   0.25000000  0.75000000  0.00000000
   0.25000000  0.00000000  0.25000000
   0.25000000  0.25000000  0.50000000
   0.50000000  0.75000000  0.25000000
   0.50000000  0.00000000  0.50000000
   0.75000000  0.50000000  0.75000000
   0.00000000  0.25000000  0.75000000
   0.00000000  0.50000000  0.00000000
   0.25000000  0.00000000  0.75000000
   0.25000000  0.25000000  0.00000000
   0.25000000  0.50000000  0.25000000
   0.50000000  0.75000000  0.75000000
   0.50000000  0.00000000  0.00000000
   0.50000000  0.25000000  0.25000000
   0.50000000  0.50000000  0.50000000
   0.25000000  0.50000000  0.75000000
   0.50000000  0.25000000  0.75000000
   0.50000000  0.50000000  0.00000000
 
 position of ions in cartesian coordinates  (Angst):
   6.50097081  6.50097069  4.33398041
   6.50097073  6.50097061  0.00000000
   6.50097065  0.00000004  2.16699020
   6.50097073  2.16699028  4.33398041
   0.00000016  6.50097065  2.16699020
   0.00000008  0.00000008  4.33398041
   2.16699040  6.50097069  4.33398041
   6.50097073  0.00000012  6.50097061
   6.50097065  2.16699020  0.00000000
   6.50097073  4.33398044  2.16699020
   0.00000024  6.50097073  6.50097061
   8.64796382  0.00000000  0.00000000
   0.00000008  2.16699024  2.16699020
   0.00000016  4.33398049  4.33398041
   2.16699032  6.50097061  0.00000000
   2.16699024  0.00000004  2.16699020
   2.16699032  2.16699028  4.33398041
   4.33398057  6.50097065  2.16699020
   4.33398049  0.00000008  4.33398041
   6.50097081  4.33398053  6.50097061
   0.00000016  2.16699032  6.50097061
   0.00000008  4.33398041  0.00000000
   2.16699032  0.00000012  6.50097061
   2.16699024  2.16699020  0.00000000
   2.16699032  4.33398044  2.16699020
   4.33398065  6.50097073  6.50097061
   4.33398041  0.00000000  0.00000000
   4.33398048  2.16699024  2.16699020
   4.33398057  4.33398049  4.33398041
   2.16699040  4.33398053  6.50097061
   4.33398057  2.16699032  6.50097061
   4.33398049  4.33398041  0.00000000
 


--------------------------------------------------------------------------------------------------------


 k-point  1 :  0.00000.00000.0000  plane waves:  21823
 k-point  2 :  0.33330.00000.0000  plane waves:  21706
 k-point  3 :  0.00000.33330.0000  plane waves:  21706
 k-point  4 :  0.33330.33330.0000  plane waves:  21706
 k-point  5 :  0.00000.33330.3333  plane waves:  21706
 k-point  6 :  0.33330.33330.3333  plane waves:  21773

 maximum and minimum number of plane-waves per node :  21823 21706

 maximum number of plane-waves:  21823
 maximal index in each direction: 
   IXMAX= 17   IYMAX= 17   IZMAX= 17
   IXMIN=-17   IYMIN=-17   IZMIN=-17

 NGX is ok and might be reduce to  70
 NGY is ok and might be reduce to  70
 NGZ is ok and might be reduce to  70

 parallel 3dFFT wavefunction:
    minimum data exchange during FFTs selected (reduces bandwidth)
 parallel 3dFFT charge:
    minimum data exchange during FFTs selected (reduces bandwidth)

 For storing wavefunctions  442.38 MBYTES are necessary
 For predicting wavefunctions  158.97 MBYTES are necessary
Broyden mixing: mesh for mixing (old mesh)
   NGX = 35   NGY = 35   NGZ = 35
  (NGX  =140   NGY  =140   NGZ  =140)
 gives a total of  42875 points
 charge density for first step will be calculated from the start-wavefunctions


--------------------------------------------------------------------------------------------------------


 Maximum index for augmentation-charges        62636 (set IRDMAX)


--------------------------------------------------------------------------------------------------------


 initial charge from wavefunction
 First call to EWALD:  gamma=   0.204
 Maximum number of real-space cells 3x 3x 3
 Maximum number of reciprocal cells 3x 3x 3

    FEWALD:  VPU time    0.01: CPU time    0.01


----------------------------------------- Iteration    1(   1)  ---------------------------------------


    POTLOK:  VPU time    2.90: CPU time    2.92
    SETDIJ:  VPU time    7.75: CPU time    7.79
    EDDAV :  VPU time  598.47: CPU time  601.50
    DOS   :  VPU time    0.00: CPU time   -0.00
    CHARGE:  VPU time   26.85: CPU time   27.03
    MIXING:  VPU time    0.06: CPU time    0.06
    ------------------------------------------
      LOOP:  VPU time  636.05: CPU time  639.34

 eigenvalue-minimisations  :  2704
 total energy-change (2. order) :-0.1018358E+03  (-0.5390586E+02)
 number of electron  352.0000010 magnetization 
 augmentation part   132.2138195 magnetization 

 Broyden mixing:
  rms(total) = 0.55557E+00    rms(broyden)= 0.52656E+00
  rms(prec ) = 0.80066E+00
  weight for this iteration     100.00

 Free energy of the ion-electron system (eV)
  ---------------------------------------------------
  alpha Z        PSCENC =      2944.72857511
  Ewald energy   TEWEN  =    -29491.69857381
  -1/2 Hartree   DENC   =     -4297.52043304
  -V(xc)+E(xc)   XCENC  =       438.61062945
  PAW double counting   =     22920.40416326   -22236.96137610
  entropy T*S    EENTRO =        -0.06811682
  eigenvalues    EBANDS =       -13.10464417
  atomic energy  EATOM  =     29633.77399530
  ---------------------------------------------------
  free energy    TOTEN  =      -101.83578082 eV

  energy without entropy =     -101.76766401  energy(sigma->0) =     -101.81307522


--------------------------------------------------------------------------------------------------------




----------------------------------------- Iteration    1(   2)  ---------------------------------------


    POTLOK:  VPU time    2.90: CPU time    2.91
    SETDIJ:  VPU time    7.76: CPU time    7.81
    EDDAV :  VPU time  593.44: CPU time  596.15
    DOS   :  VPU time    0.00: CPU time   -0.00
    CHARGE:  VPU time   27.26: CPU time   27.33
    MIXING:  VPU time    0.10: CPU time    0.10
    ------------------------------------------
      LOOP:  VPU time  631.49: CPU time  634.34

 eigenvalue-minimisations  :  2720
 total energy-change (2. order) : 0.9236968E-01  (-0.1329339E+01)
 number of electron  352.0000010 magnetization 
 augmentation part   130.3232910 magnetization 

 Broyden mixing:
  rms(total) = 0.92309E-01    rms(broyden)= 0.92305E-01
  rms(prec ) = 0.11151E+00
  weight for this iteration     100.00

 eigenvalues of (default mixing * dielectric matrix)
  average eigenvalue GAMMA=   0.9969
  0.9969

 Free energy of the ion-electron system (eV)
  ---------------------------------------------------
  alpha Z        PSCENC =      2944.72857511
  Ewald energy   TEWEN  =    -29491.69857381
  -1/2 Hartree   DENC   =     -4375.66737744
  -V(xc)+E(xc)   XCENC  =       457.76721717
  PAW double counting   =     23269.27361278   -22582.76643852
  entropy T*S    EENTRO =        -0.02810264
  eigenvalues    EBANDS =        42.87368091
  atomic energy  EATOM  =     29633.77399530
  ---------------------------------------------------
  free energy    TOTEN  =      -101.74341114 eV

  energy without entropy =     -101.71530850  energy(sigma->0) =     -101.73404360


--------------------------------------------------------------------------------------------------------




----------------------------------------- Iteration    1(   3)  ---------------------------------------


    POTLOK:  VPU time    2.92: CPU time    2.93
    SETDIJ:  VPU time    7.75: CPU time    7.80
    EDDAV :  VPU time  579.47: CPU time  582.38
    DOS   :  VPU time    0.00: CPU time   -0.00
    CHARGE:  VPU time   26.98: CPU time   27.16
    MIXING:  VPU time    0.11: CPU time    0.11
    ------------------------------------------
      LOOP:  VPU time  617.27: CPU time  620.41

 eigenvalue-minimisations  :  2688
 total energy-change (2. order) :-0.2508837E-01  (-0.3384563E-01)
 number of electron  352.0000010 magnetization 
 augmentation part   130.1337994 magnetization 

 Broyden mixing:
  rms(total) = 0.58436E-01    rms(broyden)= 0.58435E-01
  rms(prec ) = 0.63369E-01
  weight for this iteration     100.00

 eigenvalues of (default mixing * dielectric matrix)
  average eigenvalue GAMMA=   1.2379
  1.2379  1.2379

 Free energy of the ion-electron system (eV)
  ---------------------------------------------------
  alpha Z        PSCENC =      2944.72857511
  Ewald energy   TEWEN  =    -29491.69857381
  -1/2 Hartree   DENC   =     -4381.30114073
  -V(xc)+E(xc)   XCENC  =       458.02653571
  PAW double counting   =     23405.36929698   -22718.02968843
  entropy T*S    EENTRO =        -0.02650673
  eigenvalues    EBANDS =        47.38900709
  atomic energy  EATOM  =     29633.77399530
  ---------------------------------------------------
  free energy    TOTEN  =      -101.76849951 eV

  energy without entropy =     -101.74199278  energy(sigma->0) =     -101.75966393


--------------------------------------------------------------------------------------------------------




----------------------------------------- Iteration    1(   4)  ---------------------------------------


    POTLOK:  VPU time    2.86: CPU time    2.88
    SETDIJ:  VPU time    7.70: CPU time    7.74
    EDDAV :  VPU time  633.91: CPU time  637.25
    DOS   :  VPU time   -0.00: CPU time   -0.00
    CHARGE:  VPU time   26.14: CPU time   26.28
    MIXING:  VPU time    0.07: CPU time    0.08
    ------------------------------------------
      LOOP:  VPU time  670.72: CPU time  674.26

 eigenvalue-minimisations  :  3004
 total energy-change (2. order) :-0.6129179E-03  (-0.7515326E-03)
 number of electron  352.0000010 magnetization 
 augmentation part   130.1477260 magnetization 

 Broyden mixing:
  rms(total) = 0.27620E-01    rms(broyden)= 0.27620E-01
  rms(prec ) = 0.29902E-01
  weight for this iteration     100.00

 eigenvalues of (default mixing * dielectric matrix)
  average eigenvalue GAMMA=   1.5145
  2.5542  0.9947  0.9947

 Free energy of the ion-electron system (eV)
  ---------------------------------------------------
  alpha Z        PSCENC =      2944.72857511
  Ewald energy   TEWEN  =    -29491.69857381
  -1/2 Hartree   DENC   =     -4380.92817825
  -V(xc)+E(xc)   XCENC  =       458.02947181
  PAW double counting   =     23493.85189073   -22806.12539439
  entropy T*S    EENTRO =        -0.02705672
  eigenvalues    EBANDS =        46.62615780
  atomic energy  EATOM  =     29633.77399530
  ---------------------------------------------------
  free energy    TOTEN  =      -101.76911243 eV

  energy without entropy =     -101.74205570  energy(sigma->0) =     -101.76009352


--------------------------------------------------------------------------------------------------------




----------------------------------------- Iteration    1(   5)  ---------------------------------------


    POTLOK:  VPU time    2.69: CPU time    2.70
    SETDIJ:  VPU time    7.67: CPU time    7.70
    EDDAV :  VPU time  553.18: CPU time  555.96
    DOS   :  VPU time    0.00: CPU time   -0.00
    CHARGE:  VPU time   11.14: CPU time   11.17
    MIXING:  VPU time    0.04: CPU time    0.04
    ------------------------------------------
      LOOP:  VPU time  574.74: CPU time  577.61

 eigenvalue-minimisations  :  2704
 total energy-change (2. order) :-0.3114790E-03  (-0.9786035E-04)
 number of electron  352.0000010 magnetization 
 augmentation part   130.1561730 magnetization 

 Broyden mixing:
  rms(total) = 0.36526E-02    rms(broyden)= 0.36526E-02
  rms(prec ) = 0.55220E-02
  weight for this iteration     100.00

 eigenvalues of (default mixing * dielectric matrix)
  average eigenvalue GAMMA=   1.4213
  2.5188  1.1426  1.1426  0.8810

 Free energy of the ion-electron system (eV)
  ---------------------------------------------------
  alpha Z        PSCENC =      2944.72857511
  Ewald energy   TEWEN  =    -29491.69857381
  -1/2 Hartree   DENC   =     -4381.47506442
  -V(xc)+E(xc)   XCENC  =       458.07047842
  PAW double counting   =     23571.30936071   -22883.20978794
  entropy T*S    EENTRO =        -0.02725906
  eigenvalues    EBANDS =        46.75885179
  atomic energy  EATOM  =     29633.77399530
  ---------------------------------------------------
  free energy    TOTEN  =      -101.76942391 eV

  energy without entropy =     -101.74216485  energy(sigma->0) =     -101.76033755


--------------------------------------------------------------------------------------------------------




----------------------------------------- Iteration    1(   6)  ---------------------------------------


    POTLOK:  VPU time    1.50: CPU time    1.51
    SETDIJ:  VPU time    3.03: CPU time    3.04
    EDDAV :  VPU time  148.53: CPU time  148.90
    DOS   :  VPU time    0.00: CPU time   -0.00
    CHARGE:  VPU time   11.14: CPU time   11.17
    MIXING:  VPU time    0.04: CPU time    0.04
    ------------------------------------------
      LOOP:  VPU time  164.27: CPU time  164.68

 eigenvalue-minimisations  :  2736
 total energy-change (2. order) : 0.1496838E-04  (-0.2039343E-04)
 number of electron  352.0000010 magnetization 
 augmentation part   130.1451152 magnetization 

 Broyden mixing:
  rms(total) = 0.10804E-02    rms(broyden)= 0.10803E-02
  rms(prec ) = 0.14595E-02
  weight for this iteration     100.00

 eigenvalues of (default mixing * dielectric matrix)
  average eigenvalue GAMMA=   1.3862
  2.5091  1.5743  1.0085  1.0085  0.8305

 Free energy of the ion-electron system (eV)
  ---------------------------------------------------
  alpha Z        PSCENC =      2944.72857511
  Ewald energy   TEWEN  =    -29491.69857381
  -1/2 Hartree   DENC   =     -4382.15785846
  -V(xc)+E(xc)   XCENC  =       458.10223787
  PAW double counting   =     23579.10200026   -22890.94914256
  entropy T*S    EENTRO =        -0.02706456
  eigenvalues    EBANDS =        47.35642192
  atomic energy  EATOM  =     29633.77399530
  ---------------------------------------------------
  free energy    TOTEN  =      -101.76940894 eV

  energy without entropy =     -101.74234438  energy(sigma->0) =     -101.76038742


--------------------------------------------------------------------------------------------------------




----------------------------------------- Iteration    1(   7)  ---------------------------------------


    POTLOK:  VPU time    1.52: CPU time    1.52
    SETDIJ:  VPU time    3.02: CPU time    3.03
    EDDAV :  VPU time   95.00: CPU time   95.24
    DOS   :  VPU time    0.00: CPU time   -0.00
    ------------------------------------------
      LOOP:  VPU time   99.56: CPU time   99.82

 eigenvalue-minimisations  :  1432
 total energy-change (2. order) : 0.1783541E-05  (-0.1030619E-05)
 number of electron  352.0000010 magnetization 
 augmentation part   130.1451152 magnetization 

 Free energy of the ion-electron system (eV)
  ---------------------------------------------------
  alpha Z        PSCENC =      2944.72857511
  Ewald energy   TEWEN  =    -29491.69857381
  -1/2 Hartree   DENC   =     -4382.18742669
  -V(xc)+E(xc)   XCENC  =       458.10430557
  PAW double counting   =     23579.16232606   -22891.00812039
  entropy T*S    EENTRO =        -0.02706432
  eigenvalues    EBANDS =        47.38257602
  atomic energy  EATOM  =     29633.77399530
  ---------------------------------------------------
  free energy    TOTEN  =      -101.76940715 eV

  energy without entropy =     -101.74234284  energy(sigma->0) =     -101.76038572


--------------------------------------------------------------------------------------------------------




 average (electrostatic) potential at core
  the test charge radii are     1.2098
  (the norm of the test charge is              1.0000)
       1 -47.0731       2 -47.0753       3 -47.0753       4 -47.0731       5 -47.0730
       6 -47.0730       7 -47.0726       8 -47.0753       9 -47.0753      10 -47.0731
      11 -47.0730      12 -47.0731      13 -47.0730      14 -47.0731      15 -47.0705
      16 -47.0705      17 -47.0726      18 -47.0730      19 -47.0731      20 -47.0731
      21 -47.0730      22 -47.0730      23 -47.0705      24 -47.0705      25 -47.0726
      26 -47.0730      27 -47.0730      28 -47.0730      29 -47.0730      30 -47.0726
      31 -47.0730      32 -47.0731
 
 
 
 E-fermi :   3.5581     XC(G=0): -11.6807     alpha+bet : -8.5271
   add alpha+bet to get absolut eigen values

 k-point   1 :       0.0000    0.0000    0.0000
  band No.  band energies     occupation 
      1      -4.4497      2.00000
      2      -2.3511      2.00000
      3      -2.3451      2.00000
      4      -2.3451      2.00000
      5      -2.3451      2.00000
      6      -2.3451      2.00000
      7      -2.3394      2.00000
      8      -2.2185      2.00000
      9      -2.2185      2.00000
     10      -2.2185      2.00000
     11      -2.2185      2.00000
     12      -1.9682      2.00000
     13      -1.9682      2.00000
     14      -1.9681      2.00000
     15      -1.7480      2.00000
     16      -1.7480      2.00000
     17      -1.7480      2.00000
     18      -1.2472      2.00000
     19      -1.2445      2.00000
     20      -1.2445      2.00000
     21      -1.2415      2.00000
     22      -1.2413      2.00000
     23      -1.2411      2.00000
     24      -1.2410      2.00000
     25      -1.2410      2.00000
     26      -1.2407      2.00000
     27      -1.2378      2.00000
     28      -1.2378      2.00000
     29      -1.2351      2.00000
     30      -1.1096      2.00000
     31      -1.1061      2.00000
     32      -1.1061      2.00000
     33      -1.1060      2.00000
     34      -1.1060      2.00000
     35      -1.1026      2.00000
     36      -1.0439      2.00000
     37      -1.0404      2.00000
     38      -1.0404      2.00000
     39      -1.0403      2.00000
     40      -1.0403      2.00000
     41      -1.0369      2.00000
     42      -0.5859      2.00000
     43      -0.5816      2.00000
     44      -0.5816      2.00000
     45      -0.5794      2.00000
     46      -0.5793      2.00000
     47      -0.5793      2.00000
     48      -0.5793      2.00000
     49      -0.5793      2.00000
     50      -0.5792      2.00000
     51      -0.5775      2.00000
     52      -0.5775      2.00000
     53      -0.5735      2.00000
     54      -0.5265      2.00000
     55      -0.5265      2.00000
     56      -0.5227      2.00000
     57      -0.5227      2.00000
     58      -0.5227      2.00000
     59      -0.5227      2.00000
     60      -0.5226      2.00000
     61      -0.5226      2.00000
     62      -0.5226      2.00000
     63      -0.5220      2.00000
     64      -0.5184      2.00000
     65      -0.5184      2.00000
     66      -0.2956      2.00000
     67      -0.2896      2.00000
     68      -0.2893      2.00000
     69      -0.2893      2.00000
     70      -0.2889      2.00000
     71      -0.2889      2.00000
     72      -0.2889      2.00000
     73      -0.2889      2.00000
     74      -0.2885      2.00000
     75      -0.2885      2.00000
     76      -0.2884      2.00000
     77      -0.2826      2.00000
     78      -0.2445      2.00000
     79      -0.2443      2.00000
     80      -0.2443      2.00000
     81      -0.2443      2.00000
     82      -0.2442      2.00000
     83      -0.2442      2.00000
     84      -0.2442      2.00000
     85      -0.2438      2.00000
     86      -0.2265      2.00000
     87      -0.2265      2.00000
     88      -0.2264      2.00000
     89       0.3461      2.00000
     90       0.3493      2.00000
     91       0.3496      2.00000
     92       0.3496      2.00000
     93       0.3497      2.00000
     94       0.3531      2.00000
     95       0.4677      2.00000
     96       0.4693      2.00000
     97       0.4711      2.00000
     98       0.4711      2.00000
     99       0.4720      2.00000
    100       0.4720      2.00000
    101       0.4720      2.00000
    102       0.4720      2.00000
    103       0.4730      2.00000
    104       0.4730      2.00000
    105       0.4752      2.00000
    106       0.4761      2.00000
    107       0.6919      2.00000
    108       0.6919      2.00000
    109       0.6963      2.00000
    110       0.6963      2.00000
    111       0.6965      2.00000
    112       0.6966      2.00000
    113       0.6966      2.00000
    114       0.6967      2.00000
    115       0.6969      2.00000
    116       0.6969      2.00000
    117       0.7010      2.00000
    118       0.7010      2.00000
    119       0.8127      2.00000
    120       0.8156      2.00000
    121       0.8156      2.00000
    122       0.8157      2.00000
    123       0.8157      2.00000
    124       0.8187      2.00000
    125       0.8784      2.00000
    126       0.8792      2.00000
    127       0.8865      2.00000
    128       0.8865      2.00000
    129       0.8906      2.00000
    130       0.8912      2.00000
    131       0.8913      2.00000
    132       0.8913      2.00000
    133       0.8913      2.00000
    134       0.8915      2.00000
    135       0.8921      2.00000
    136       0.8924      2.00000
    137       0.8966      2.00000
    138       0.8966      2.00000
    139       1.2831      2.00000
    140       1.2852      2.00000
    141       1.2853      2.00000
    142       1.2853      2.00000
    143       1.2853      2.00000
    144       1.2873      2.00000
    145       1.7196      2.00000
    146       1.7196      2.00000
    147       1.7197      2.00000
    148       1.7552      2.00000
    149       1.7553      2.00000
    150       1.7553      2.00000
    151       1.7553      2.00000
    152       1.7553      2.00000
    153       1.7553      2.00000
    154       1.7553      2.00000
    155       1.7554      2.00000
    156       1.9862      2.00000
    157       1.9869      2.00000
    158       1.9871      2.00000
    159       1.9871      2.00000
    160       1.9871      2.00000
    161       1.9871      2.00000
    162       1.9880      2.00000
    163       1.9882      2.00000
    164       1.9882      2.00000
    165       1.9883      2.00000
    166       1.9883      2.00000
    167       1.9891      2.00000
    168       3.2184      2.03722
    169       3.2201      2.03798
    170       3.2201      2.03798
    171       3.2214      2.03855
    172       3.2221      2.03886
    173       3.2221      2.03888
    174       3.2222      2.03892
    175       3.2222      2.03892
    176       3.2231      2.03931
    177       3.2243      2.03984
    178       3.2243      2.03984
    179       3.2259      2.04057
    180       3.4806      1.60419
    181       3.4806      1.60419
    182       3.4807      1.60408
    183       3.4807      1.60407
    184       5.1697     -0.00000
    185       5.1697     -0.00000
    186       5.1699     -0.00000
    187       5.9100     -0.00000
    188       5.9100     -0.00000
    189       5.9100     -0.00000
    190       5.9101     -0.00000
    191       7.5657     -0.00000
    192       7.5659     -0.00000
    193       7.5660     -0.00000
    194       7.5661     -0.00000
    195       7.5661     -0.00000
    196       7.5664     -0.00000
    197       8.1896     -0.00000
    198       8.1897     -0.00000
    199       8.1898     -0.00000
    200       9.4475      0.00000
    201       9.4475      0.00000
    202       9.4533      0.00000
    203       9.4533      0.00000
    204       9.4540      0.00000
    205       9.4540      0.00000
    206       9.4541      0.00000
    207       9.4542      0.00000
    208       9.4547      0.00000
    209       9.4547      0.00000
    210       9.4604      0.00000
    211       9.4604      0.00000
    212      11.3154      0.00000

 k-point   2 :       0.3333    0.0000    0.0000
  band No.  band energies     occupation 
      1      -4.1744      2.00000
      2      -3.3915      2.00000
      3      -2.1525      2.00000
      4      -2.1523      2.00000
      5      -2.1523      2.00000
      6      -2.1523      2.00000
      7      -2.0737      2.00000
      8      -2.0737      2.00000
      9      -2.0737      2.00000
     10      -2.0737      2.00000
     11      -1.8922      2.00000
     12      -1.8183      2.00000
     13      -1.8015      2.00000
     14      -1.8013      2.00000
     15      -1.6760      2.00000
     16      -1.6760      2.00000
     17      -1.6757      2.00000
     18      -1.6757      2.00000
     19      -1.6628      2.00000
     20      -1.6623      2.00000
     21      -1.6622      2.00000
     22      -1.6622      2.00000
     23      -1.6579      2.00000
     24      -1.6098      2.00000
     25      -1.6098      2.00000
     26      -1.4054      2.00000
     27      -1.3884      2.00000
     28      -1.3884      2.00000
     29      -1.1980      2.00000
     30      -1.1980      2.00000
     31      -1.0012      2.00000
     32      -1.0006      2.00000
     33      -1.0005      2.00000
     34      -1.0005      2.00000
     35      -0.9898      2.00000
     36      -0.9898      2.00000
     37      -0.9898      2.00000
     38      -0.9892      2.00000
     39      -0.9643      2.00000
     40      -0.9643      2.00000
     41      -0.9643      2.00000
     42      -0.9642      2.00000
     43      -0.7715      2.00000
     44      -0.7715      2.00000
     45      -0.7715      2.00000
     46      -0.7714      2.00000
     47      -0.6492      2.00000
     48      -0.6332      2.00000
     49      -0.6332      2.00000
     50      -0.6332      2.00000
     51      -0.6331      2.00000
     52      -0.5678      2.00000
     53      -0.5678      2.00000
     54      -0.5678      2.00000
     55      -0.5678      2.00000
     56      -0.5130      2.00000
     57      -0.5111      2.00000
     58      -0.5111      2.00000
     59      -0.5110      2.00000
     60      -0.5039      2.00000
     61      -0.5037      2.00000
     62      -0.5037      2.00000
     63      -0.5019      2.00000
     64      -0.4014      2.00000
     65      -0.4014      2.00000
     66      -0.4014      2.00000
     67      -0.4014      2.00000
     68      -0.3431      2.00000
     69      -0.2930      2.00000
     70      -0.2929      2.00000
     71      -0.2929      2.00000
     72      -0.2929      2.00000
     73      -0.2568      2.00000
     74      -0.2567      2.00000
     75      -0.2567      2.00000
     76      -0.2565      2.00000
     77      -0.1336      2.00000
     78      -0.1335      2.00000
     79      -0.1335      2.00000
     80      -0.1334      2.00000
     81      -0.1164      2.00000
     82      -0.1164      2.00000
     83      -0.0038      2.00000
     84      -0.0037      2.00000
     85      -0.0037      2.00000
     86      -0.0037      2.00000
     87       0.1711      2.00000
     88       0.1712      2.00000
     89       0.1712      2.00000
     90       0.1713      2.00000
     91       0.2039      2.00000
     92       0.2039      2.00000
     93       0.2295      2.00000
     94       0.2296      2.00000
     95       0.2296      2.00000
     96       0.2296      2.00000
     97       0.3826      2.00000
     98       0.3826      2.00000
     99       0.4706      2.00000
    100       0.6476      2.00000
    101       0.6477      2.00000
    102       0.6478      2.00000
    103       0.6478      2.00000
    104       0.6919      2.00000
    105       0.6919      2.00000
    106       0.6919      2.00000
    107       0.6920      2.00000
    108       0.7175      2.00000
    109       0.7175      2.00000
    110       0.7175      2.00000
    111       0.7176      2.00000
    112       0.7280      2.00000
    113       0.7281      2.00000
    114       0.7281      2.00000
    115       0.7281      2.00000
    116       0.7581      2.00000
    117       0.8436      2.00000
    118       0.8437      2.00000
    119       0.8438      2.00000
    120       0.8438      2.00000
    121       0.8634      2.00000
    122       0.8634      2.00000
    123       0.8635      2.00000
    124       0.8635      2.00000
    125       0.9319      2.00000
    126       1.0787      2.00000
    127       1.1139      2.00000
    128       1.1141      2.00000
    129       1.2111      2.00000
    130       1.2112      2.00000
    131       1.2112      2.00000
    132       1.2112      2.00000
    133       1.2284      2.00000
    134       1.2284      2.00000
    135       1.2285      2.00000
    136       1.2286      2.00000
    137       1.2758      2.00000
    138       1.2758      2.00000
    139       1.2842      2.00000
    140       1.2949      2.00000
    141       1.2949      2.00000
    142       1.2949      2.00000
    143       1.2950      2.00000
    144       1.3961      2.00000
    145       1.3961      2.00000
    146       1.4985      2.00000
    147       1.5390      2.00000
    148       1.5393      2.00000
    149       1.5393      2.00000
    150       1.5393      2.00000
    151       1.5477      2.00000
    152       1.5481      2.00000
    153       1.6070      2.00000
    154       1.6070      2.00000
    155       1.6070      2.00000
    156       1.6071      2.00000
    157       1.6596      2.00000
    158       1.7680      2.00000
    159       1.7680      2.00000
    160       1.7680      2.00000
    161       1.7680      2.00000
    162       1.7795      2.00000
    163       1.7795      2.00000
    164       1.9863      2.00000
    165       1.9872      2.00000
    166       1.9878      2.00000
    167       1.9890      2.00000
    168       2.2800      2.00000
    169       2.2800      2.00000
    170       2.2800      2.00000
    171       2.2800      2.00000
    172       3.2494      2.05138
    173       3.2498      2.05153
    174       3.2499      2.05159
    175       3.2499      2.05159
    176       3.3476      2.05949
    177       3.3479      2.05930
    178       3.3479      2.05929
    179       3.3479      2.05929
    180       3.3809      2.01781
    181       4.5254     -0.00000
    182       4.5254     -0.00000
    183       4.5255     -0.00000
    184       4.5255     -0.00000
    185       5.9737     -0.00000
    186       5.9737     -0.00000
    187       6.2923     -0.00000
    188       6.2923     -0.00000
    189       6.2923     -0.00000
    190       6.2923     -0.00000
    191       6.9679     -0.00000
    192       6.9679     -0.00000
    193       6.9679     -0.00000
    194       6.9679     -0.00000
    195       7.6035     -0.00000
    196       7.6035     -0.00000
    197       7.7145     -0.00000
    198       7.7146     -0.00000
    199       8.0274     -0.00000
    200       8.0275     -0.00000
    201       9.1782      0.00000
    202       9.1782      0.00000
    203       9.1782      0.00000
    204       9.1782      0.00000
    205       9.7366      0.00000
    206       9.7366      0.00000
    207       9.7366      0.00000
    208       9.7366      0.00000
    209       9.9193      0.00000
    210       9.9194      0.00000
    211       9.9194      0.00000
    212       9.9194      0.00000

 k-point   3 :       0.0000    0.3333    0.0000
  band No.  band energies     occupation 
      1      -4.1743      2.00000
      2      -3.3915      2.00000
      3      -2.1569      2.00000
      4      -2.1523      2.00000
      5      -2.1523      2.00000
      6      -2.1480      2.00000
      7      -2.0741      2.00000
      8      -2.0739      2.00000
      9      -2.0735      2.00000
     10      -2.0733      2.00000
     11      -1.8922      2.00000
     12      -1.8181      2.00000
     13      -1.8015      2.00000
     14      -1.8014      2.00000
     15      -1.6802      2.00000
     16      -1.6761      2.00000
     17      -1.6759      2.00000
     18      -1.6721      2.00000
     19      -1.6630      2.00000
     20      -1.6627      2.00000
     21      -1.6620      2.00000
     22      -1.6608      2.00000
     23      -1.6579      2.00000
     24      -1.6099      2.00000
     25      -1.6098      2.00000
     26      -1.4053      2.00000
     27      -1.3885      2.00000
     28      -1.3884      2.00000
     29      -1.1981      2.00000
     30      -1.1980      2.00000
     31      -1.0030      2.00000
     32      -1.0010      2.00000
     33      -1.0006      2.00000
     34      -0.9984      2.00000
     35      -0.9918      2.00000
     36      -0.9901      2.00000
     37      -0.9896      2.00000
     38      -0.9876      2.00000
     39      -0.9669      2.00000
     40      -0.9642      2.00000
     41      -0.9641      2.00000
     42      -0.9614      2.00000
     43      -0.7741      2.00000
     44      -0.7714      2.00000
     45      -0.7714      2.00000
     46      -0.7688      2.00000
     47      -0.6491      2.00000
     48      -0.6359      2.00000
     49      -0.6332      2.00000
     50      -0.6332      2.00000
     51      -0.6305      2.00000
     52      -0.5705      2.00000
     53      -0.5680      2.00000
     54      -0.5678      2.00000
     55      -0.5653      2.00000
     56      -0.5154      2.00000
     57      -0.5110      2.00000
     58      -0.5109      2.00000
     59      -0.5080      2.00000
     60      -0.5065      2.00000
     61      -0.5039      2.00000
     62      -0.5038      2.00000
     63      -0.4998      2.00000
     64      -0.4031      2.00000
     65      -0.4016      2.00000
     66      -0.4014      2.00000
     67      -0.4000      2.00000
     68      -0.3432      2.00000
     69      -0.2940      2.00000
     70      -0.2932      2.00000
     71      -0.2927      2.00000
     72      -0.2921      2.00000
     73      -0.2590      2.00000
     74      -0.2566      2.00000
     75      -0.2565      2.00000
     76      -0.2542      2.00000
     77      -0.1340      2.00000
     78      -0.1333      2.00000
     79      -0.1333      2.00000
     80      -0.1327      2.00000
     81      -0.1164      2.00000
     82      -0.1163      2.00000
     83      -0.0066      2.00000
     84      -0.0037      2.00000
     85      -0.0037      2.00000
     86      -0.0008      2.00000
     87       0.1703      2.00000
     88       0.1713      2.00000
     89       0.1713      2.00000
     90       0.1722      2.00000
     91       0.2038      2.00000
     92       0.2039      2.00000
     93       0.2281      2.00000
     94       0.2289      2.00000
     95       0.2303      2.00000
     96       0.2310      2.00000
     97       0.3825      2.00000
     98       0.3825      2.00000
     99       0.4704      2.00000
    100       0.6457      2.00000
    101       0.6476      2.00000
    102       0.6476      2.00000
    103       0.6494      2.00000
    104       0.6884      2.00000
    105       0.6920      2.00000
    106       0.6921      2.00000
    107       0.6947      2.00000
    108       0.7146      2.00000
    109       0.7168      2.00000
    110       0.7175      2.00000
    111       0.7206      2.00000
    112       0.7266      2.00000
    113       0.7281      2.00000
    114       0.7289      2.00000
    115       0.7301      2.00000
    116       0.7581      2.00000
    117       0.8420      2.00000
    118       0.8438      2.00000
    119       0.8440      2.00000
    120       0.8458      2.00000
    121       0.8616      2.00000
    122       0.8634      2.00000
    123       0.8634      2.00000
    124       0.8652      2.00000
    125       0.9321      2.00000
    126       1.0789      2.00000
    127       1.1138      2.00000
    128       1.1139      2.00000
    129       1.2098      2.00000
    130       1.2105      2.00000
    131       1.2118      2.00000
    132       1.2126      2.00000
    133       1.2262      2.00000
    134       1.2285      2.00000
    135       1.2285      2.00000
    136       1.2308      2.00000
    137       1.2758      2.00000
    138       1.2760      2.00000
    139       1.2840      2.00000
    140       1.2932      2.00000
    141       1.2950      2.00000
    142       1.2950      2.00000
    143       1.2966      2.00000
    144       1.3959      2.00000
    145       1.3960      2.00000
    146       1.4986      2.00000
    147       1.5377      2.00000
    148       1.5393      2.00000
    149       1.5393      2.00000
    150       1.5410      2.00000
    151       1.5478      2.00000
    152       1.5478      2.00000
    153       1.6057      2.00000
    154       1.6069      2.00000
    155       1.6070      2.00000
    156       1.6083      2.00000
    157       1.6596      2.00000
    158       1.7674      2.00000
    159       1.7680      2.00000
    160       1.7681      2.00000
    161       1.7685      2.00000
    162       1.7794      2.00000
    163       1.7795      2.00000
    164       1.9874      2.00000
    165       1.9874      2.00000
    166       1.9880      2.00000
    167       1.9880      2.00000
    168       2.2782      2.00000
    169       2.2800      2.00000
    170       2.2800      2.00000
    171       2.2817      2.00000
    172       3.2479      2.05065
    173       3.2491      2.05123
    174       3.2507      2.05195
    175       3.2519      2.05249
    176       3.3461      2.06055
    177       3.3464      2.06038
    178       3.3493      2.05819
    179       3.3498      2.05786
    180       3.3803      2.01886
    181       4.5231     -0.00000
    182       4.5254     -0.00000
    183       4.5254     -0.00000
    184       4.5278     -0.00000
    185       5.9737     -0.00000
    186       5.9738     -0.00000
    187       6.2905     -0.00000
    188       6.2923     -0.00000
    189       6.2923     -0.00000
    190       6.2941     -0.00000
    191       6.9652     -0.00000
    192       6.9677     -0.00000
    193       6.9681     -0.00000
    194       6.9706     -0.00000
    195       7.6034     -0.00000
    196       7.6035     -0.00000
    197       7.7145     -0.00000
    198       7.7146     -0.00000
    199       8.0274     -0.00000
    200       8.0275     -0.00000
    201       9.1760      0.00000
    202       9.1781      0.00000
    203       9.1788      0.00000
    204       9.1805      0.00000
    205       9.7339      0.00000
    206       9.7364      0.00000
    207       9.7366      0.00000
    208       9.7392      0.00000
    209       9.9195      0.00000
    210       9.9213      0.00000
    211      10.3011      0.00000
    212      10.3018      0.00000

 k-point   4 :       0.3333    0.3333    0.0000
  band No.  band energies     occupation 
      1      -3.9101      2.00000
      2      -3.1630      2.00000
      3      -3.1587      2.00000
      4      -2.5223      2.00000
      5      -2.0985      2.00000
      6      -2.0984      2.00000
      7      -2.0781      2.00000
      8      -2.0779      2.00000
      9      -1.9002      2.00000
     10      -1.8989      2.00000
     11      -1.8982      2.00000
     12      -1.8967      2.00000
     13      -1.8139      2.00000
     14      -1.8139      2.00000
     15      -1.7182      2.00000
     16      -1.7180      2.00000
     17      -1.7162      2.00000
     18      -1.6264      2.00000
     19      -1.6241      2.00000
     20      -1.5276      2.00000
     21      -1.5270      2.00000
     22      -1.4199      2.00000
     23      -1.4102      2.00000
     24      -1.4074      2.00000
     25      -1.3632      2.00000
     26      -1.3621      2.00000
     27      -1.3597      2.00000
     28      -1.3585      2.00000
     29      -1.2967      2.00000
     30      -1.2965      2.00000
     31      -1.2948      2.00000
     32      -1.2796      2.00000
     33      -1.2777      2.00000
     34      -1.1395      2.00000
     35      -1.1382      2.00000
     36      -1.1240      2.00000
     37      -1.1224      2.00000
     38      -0.9954      2.00000
     39      -0.9928      2.00000
     40      -0.9864      2.00000
     41      -0.9861      2.00000
     42      -0.9789      2.00000
     43      -0.9778      2.00000
     44      -0.8910      2.00000
     45      -0.8909      2.00000
     46      -0.7719      2.00000
     47      -0.7718      2.00000
     48      -0.6356      2.00000
     49      -0.6341      2.00000
     50      -0.6335      2.00000
     51      -0.6322      2.00000
     52      -0.6307      2.00000
     53      -0.6214      2.00000
     54      -0.6176      2.00000
     55      -0.6156      2.00000
     56      -0.4616      2.00000
     57      -0.4616      2.00000
     58      -0.4123      2.00000
     59      -0.4107      2.00000
     60      -0.3770      2.00000
     61      -0.3088      2.00000
     62      -0.3069      2.00000
     63      -0.3064      2.00000
     64      -0.3047      2.00000
     65      -0.2545      2.00000
     66      -0.2544      2.00000
     67      -0.2186      2.00000
     68      -0.2185      2.00000
     69      -0.2156      2.00000
     70      -0.2155      2.00000
     71      -0.2054      2.00000
     72      -0.2054      2.00000
     73      -0.1037      2.00000
     74      -0.1037      2.00000
     75      -0.0771      2.00000
     76      -0.0591      2.00000
     77      -0.0590      2.00000
     78      -0.0476      2.00000
     79      -0.0082      2.00000
     80      -0.0004      2.00000
     81       0.0629      2.00000
     82       0.0635      2.00000
     83       0.0665      2.00000
     84       0.0704      2.00000
     85       0.0752      2.00000
     86       0.0762      2.00000
     87       0.0766      2.00000
     88       0.0776      2.00000
     89       0.0823      2.00000
     90       0.0826      2.00000
     91       0.2054      2.00000
     92       0.2085      2.00000
     93       0.2255      2.00000
     94       0.2265      2.00000
     95       0.2276      2.00000
     96       0.2286      2.00000
     97       0.2986      2.00000
     98       0.2993      2.00000
     99       0.3323      2.00000
    100       0.3426      2.00000
    101       0.3470      2.00000
    102       0.3814      2.00000
    103       0.3815      2.00000
    104       0.4421      2.00000
    105       0.4436      2.00000
    106       0.4454      2.00000
    107       0.4469      2.00000
    108       0.4913      2.00000
    109       0.5861      2.00000
    110       0.5877      2.00000
    111       0.6794      2.00000
    112       0.6794      2.00000
    113       0.7324      2.00000
    114       0.7327      2.00000
    115       0.7360      2.00000
    116       0.7445      2.00000
    117       0.7446      2.00000
    118       0.8308      2.00000
    119       0.9359      2.00000
    120       1.0308      2.00000
    121       1.0320      2.00000
    122       1.0455      2.00000
    123       1.0462      2.00000
    124       1.0482      2.00000
    125       1.0494      2.00000
    126       1.0929      2.00000
    127       1.1522      2.00000
    128       1.1549      2.00000
    129       1.1837      2.00000
    130       1.1859      2.00000
    131       1.2519      2.00000
    132       1.2525      2.00000
    133       1.2538      2.00000
    134       1.2548      2.00000
    135       1.2637      2.00000
    136       1.2664      2.00000
    137       1.2702      2.00000
    138       1.2721      2.00000
    139       1.3560      2.00000
    140       1.3583      2.00000
    141       1.4088      2.00000
    142       1.4096      2.00000
    143       1.4102      2.00000
    144       1.4454      2.00000
    145       1.4741      2.00000
    146       1.4741      2.00000
    147       1.5212      2.00000
    148       1.5218      2.00000
    149       1.5218      2.00000
    150       1.5223      2.00000
    151       1.5809      2.00000
    152       1.5820      2.00000
    153       1.5827      2.00000
    154       1.6796      2.00000
    155       1.6796      2.00000
    156       1.7003      2.00000
    157       1.7003      2.00000
    158       1.7038      2.00000
    159       1.7039      2.00000
    160       1.7716      2.00000
    161       1.7728      2.00000
    162       1.7746      2.00000
    163       1.7758      2.00000
    164       1.7771      2.00000
    165       1.7787      2.00000
    166       1.8436      2.00000
    167       2.2260      2.00000
    168       2.2265      2.00000
    169       2.2280      2.00000
    170       2.2284      2.00000
    171       2.2983      2.00000
    172       2.2983      2.00000
    173       2.3524      2.00000
    174       2.3534      2.00000
    175       3.4331      1.86188
    176       3.4338      1.85875
    177       4.1434     -0.00028
    178       4.1449     -0.00027
    179       4.7706     -0.00000
    180       4.7722     -0.00000
    181       4.7722     -0.00000
    182       4.7738     -0.00000
    183       5.0156     -0.00000
    184       5.0156     -0.00000
    185       5.3078     -0.00000
    186       5.3103     -0.00000
    187       5.7594     -0.00000
    188       5.9382     -0.00000
    189       5.9382     -0.00000
    190       6.3648     -0.00000
    191       6.3648     -0.00000
    192       6.6384     -0.00000
    193       7.0914     -0.00000
    194       7.0925     -0.00000
    195       7.4961     -0.00000
    196       7.4961     -0.00000
    197       7.7568     -0.00000
    198       7.8481     -0.00000
    199       7.8493     -0.00000
    200       7.8500     -0.00000
    201       7.8512     -0.00000
    202       8.1294     -0.00000
    203       8.1334     -0.00000
    204       8.7178     -0.00000
    205       8.7178     -0.00000
    206       9.4398      0.00000
    207       9.8036      0.00000
    208       9.8047      0.00000
    209       9.9048      0.00000
    210      10.2058      0.00000
    211      10.2346      0.00000
    212      10.2412      0.00000

 k-point   5 :       0.0000    0.3333    0.3333
  band No.  band energies     occupation 
      1      -3.9101      2.00000
      2      -3.1609      2.00000
      3      -3.1608      2.00000
      4      -2.5224      2.00000
      5      -2.0989      2.00000
      6      -2.0982      2.00000
      7      -2.0797      2.00000
      8      -2.0762      2.00000
      9      -1.9009      2.00000
     10      -1.8991      2.00000
     11      -1.8979      2.00000
     12      -1.8960      2.00000
     13      -1.8140      2.00000
     14      -1.8139      2.00000
     15      -1.7181      2.00000
     16      -1.7181      2.00000
     17      -1.7162      2.00000
     18      -1.6253      2.00000
     19      -1.6253      2.00000
     20      -1.5273      2.00000
     21      -1.5273      2.00000
     22      -1.4195      2.00000
     23      -1.4091      2.00000
     24      -1.4090      2.00000
     25      -1.3611      2.00000
     26      -1.3610      2.00000
     27      -1.3607      2.00000
     28      -1.3606      2.00000
     29      -1.2966      2.00000
     30      -1.2956      2.00000
     31      -1.2955      2.00000
     32      -1.2788      2.00000
     33      -1.2787      2.00000
     34      -1.1388      2.00000
     35      -1.1388      2.00000
     36      -1.1232      2.00000
     37      -1.1232      2.00000
     38      -0.9942      2.00000
     39      -0.9941      2.00000
     40      -0.9863      2.00000
     41      -0.9862      2.00000
     42      -0.9784      2.00000
     43      -0.9783      2.00000
     44      -0.8911      2.00000
     45      -0.8910      2.00000
     46      -0.7735      2.00000
     47      -0.7703      2.00000
     48      -0.6346      2.00000
     49      -0.6339      2.00000
     50      -0.6338      2.00000
     51      -0.6336      2.00000
     52      -0.6304      2.00000
     53      -0.6207      2.00000
     54      -0.6170      2.00000
     55      -0.6169      2.00000
     56      -0.4617      2.00000
     57      -0.4617      2.00000
     58      -0.4116      2.00000
     59      -0.4115      2.00000
     60      -0.3770      2.00000
     61      -0.3085      2.00000
     62      -0.3069      2.00000
     63      -0.3064      2.00000
     64      -0.3047      2.00000
     65      -0.2557      2.00000
     66      -0.2532      2.00000
     67      -0.2203      2.00000
     68      -0.2173      2.00000
     69      -0.2168      2.00000
     70      -0.2137      2.00000
     71      -0.2054      2.00000
     72      -0.2052      2.00000
     73      -0.1056      2.00000
     74      -0.1013      2.00000
     75      -0.0772      2.00000
     76      -0.0593      2.00000
     77      -0.0590      2.00000
     78      -0.0475      2.00000
     79      -0.0085      2.00000
     80      -0.0001      2.00000
     81       0.0635      2.00000
     82       0.0636      2.00000
     83       0.0679      2.00000
     84       0.0685      2.00000
     85       0.0758      2.00000
     86       0.0763      2.00000
     87       0.0764      2.00000
     88       0.0769      2.00000
     89       0.0826      2.00000
     90       0.0827      2.00000
     91       0.2069      2.00000
     92       0.2069      2.00000
     93       0.2258      2.00000
     94       0.2265      2.00000
     95       0.2276      2.00000
     96       0.2283      2.00000
     97       0.2989      2.00000
     98       0.2990      2.00000
     99       0.3321      2.00000
    100       0.3448      2.00000
    101       0.3449      2.00000
    102       0.3806      2.00000
    103       0.3821      2.00000
    104       0.4439      2.00000
    105       0.4440      2.00000
    106       0.4451      2.00000
    107       0.4451      2.00000
    108       0.4912      2.00000
    109       0.5868      2.00000
    110       0.5868      2.00000
    111       0.6784      2.00000
    112       0.6802      2.00000
    113       0.7324      2.00000
    114       0.7328      2.00000
    115       0.7360      2.00000
    116       0.7446      2.00000
    117       0.7446      2.00000
    118       0.8307      2.00000
    119       0.9361      2.00000
    120       1.0314      2.00000
    121       1.0316      2.00000
    122       1.0460      2.00000
    123       1.0461      2.00000
    124       1.0484      2.00000
    125       1.0484      2.00000
    126       1.0930      2.00000
    127       1.1536      2.00000
    128       1.1537      2.00000
    129       1.1846      2.00000
    130       1.1847      2.00000
    131       1.2521      2.00000
    132       1.2532      2.00000
    133       1.2535      2.00000
    134       1.2544      2.00000
    135       1.2653      2.00000
    136       1.2654      2.00000
    137       1.2709      2.00000
    138       1.2710      2.00000
    139       1.3571      2.00000
    140       1.3571      2.00000
    141       1.4085      2.00000
    142       1.4093      2.00000
    143       1.4108      2.00000
    144       1.4455      2.00000
    145       1.4739      2.00000
    146       1.4743      2.00000
    147       1.5205      2.00000
    148       1.5215      2.00000
    149       1.5220      2.00000
    150       1.5229      2.00000
    151       1.5810      2.00000
    152       1.5822      2.00000
    153       1.5823      2.00000
    154       1.6794      2.00000
    155       1.6799      2.00000
    156       1.7002      2.00000
    157       1.7004      2.00000
    158       1.7037      2.00000
    159       1.7039      2.00000
    160       1.7726      2.00000
    161       1.7726      2.00000
    162       1.7753      2.00000
    163       1.7753      2.00000
    164       1.7776      2.00000
    165       1.7776      2.00000
    166       1.8436      2.00000
    167       2.2271      2.00000
    168       2.2271      2.00000
    169       2.2274      2.00000
    170       2.2274      2.00000
    171       2.2975      2.00000
    172       2.2991      2.00000
    173       2.3528      2.00000
    174       2.3528      2.00000
    175       3.4334      1.86073
    176       3.4334      1.86036
    177       4.1441     -0.00028
    178       4.1441     -0.00027
    179       4.7686     -0.00000
    180       4.7717     -0.00000
    181       4.7727     -0.00000
    182       4.7757     -0.00000
    183       5.0156     -0.00000
    184       5.0156     -0.00000
    185       5.3090     -0.00000
    186       5.3090     -0.00000
    187       5.7594     -0.00000
    188       5.9382     -0.00000
    189       5.9382     -0.00000
    190       6.3647     -0.00000
    191       6.3648     -0.00000
    192       6.6385     -0.00000
    193       7.0919     -0.00000
    194       7.0920     -0.00000
    195       7.4961     -0.00000
    196       7.4961     -0.00000
    197       7.7568     -0.00000
    198       7.8467     -0.00000
    199       7.8495     -0.00000
    200       7.8497     -0.00000
    201       7.8525     -0.00000
    202       8.1314     -0.00000
    203       8.1316     -0.00000
    204       8.7163     -0.00000
    205       8.7192     -0.00000
    206       9.4397      0.00000
    207       9.8041      0.00000
    208       9.8042      0.00000
    209       9.9684      0.00000
    210      10.2042      0.00000
    211      10.2342      0.00000
    212      10.2413      0.00000

 k-point   6 :       0.3333    0.3333    0.3333
  band No.  band energies     occupation 
      1      -3.6642      2.00000
      2      -2.9796      2.00000
      3      -2.9766      2.00000
      4      -2.9738      2.00000
      5      -2.4933      2.00000
      6      -2.4910      2.00000
      7      -2.4887      2.00000
      8      -2.3620      2.00000
      9      -1.7295      2.00000
     10      -1.7292      2.00000
     11      -1.7290      2.00000
     12      -1.6534      2.00000
     13      -1.6532      2.00000
     14      -1.6530      2.00000
     15      -1.6068      2.00000
     16      -1.6048      2.00000
     17      -1.6028      2.00000
     18      -1.4771      2.00000
     19      -1.4763      2.00000
     20      -1.4743      2.00000
     21      -1.4743      2.00000
     22      -1.4725      2.00000
     23      -1.4717      2.00000
     24      -1.4003      2.00000
     25      -1.3982      2.00000
     26      -1.3964      2.00000
     27      -1.3839      2.00000
     28      -1.3831      2.00000
     29      -1.3818      2.00000
     30      -1.3817      2.00000
     31      -1.3805      2.00000
     32      -1.3797      2.00000
     33      -1.3243      2.00000
     34      -1.3236      2.00000
     35      -1.3229      2.00000
     36      -1.0636      2.00000
     37      -1.0627      2.00000
     38      -1.0618      2.00000
     39      -0.9104      2.00000
     40      -0.9089      2.00000
     41      -0.9077      2.00000
     42      -0.9077      2.00000
     43      -0.9066      2.00000
     44      -0.9052      2.00000
     45      -0.6436      2.00000
     46      -0.6420      2.00000
     47      -0.6407      2.00000
     48      -0.6227      2.00000
     49      -0.6214      2.00000
     50      -0.6203      2.00000
     51      -0.6203      2.00000
     52      -0.6194      2.00000
     53      -0.6177      2.00000
     54      -0.5138      2.00000
     55      -0.5123      2.00000
     56      -0.5107      2.00000
     57      -0.4839      2.00000
     58      -0.4837      2.00000
     59      -0.4832      2.00000
     60      -0.3672      2.00000
     61      -0.3236      2.00000
     62      -0.3216      2.00000
     63      -0.3197      2.00000
     64      -0.2233      2.00000
     65      -0.2229      2.00000
     66      -0.2213      2.00000
     67      -0.2212      2.00000
     68      -0.2198      2.00000
     69      -0.2194      2.00000
     70      -0.1056      2.00000
     71      -0.1055      2.00000
     72      -0.0414      2.00000
     73      -0.0413      2.00000
     74      -0.0060      2.00000
     75      -0.0046      2.00000
     76      -0.0031      2.00000
     77       0.0372      2.00000
     78       0.0382      2.00000
     79       0.0392      2.00000
     80       0.0566      2.00000
     81       0.0570      2.00000
     82       0.0574      2.00000
     83       0.0859      2.00000
     84       0.0861      2.00000
     85       0.0882      2.00000
     86       0.0883      2.00000
     87       0.0903      2.00000
     88       0.0906      2.00000
     89       0.0995      2.00000
     90       0.1003      2.00000
     91       0.1012      2.00000
     92       0.1133      2.00000
     93       0.1146      2.00000
     94       0.1160      2.00000
     95       0.1441      2.00000
     96       0.1465      2.00000
     97       0.1490      2.00000
     98       0.1872      2.00000
     99       0.1873      2.00000
    100       0.1873      2.00000
    101       0.3683      2.00000
    102       0.3700      2.00000
    103       0.3715      2.00000
    104       0.5248      2.00000
    105       0.5625      2.00000
    106       0.5649      2.00000
    107       0.5670      2.00000
    108       0.5805      2.00000
    109       0.5808      2.00000
    110       0.5827      2.00000
    111       0.5827      2.00000
    112       0.5848      2.00000
    113       0.5849      2.00000
    114       0.7744      2.00000
    115       0.7767      2.00000
    116       0.7792      2.00000
    117       0.7958      2.00000
    118       0.7964      2.00000
    119       0.7972      2.00000
    120       0.8060      2.00000
    121       0.8077      2.00000
    122       0.8096      2.00000
    123       0.8510      2.00000
    124       0.8511      2.00000
    125       0.8760      2.00000
    126       0.8781      2.00000
    127       0.8801      2.00000
    128       0.9322      2.00000
    129       0.9332      2.00000
    130       0.9342      2.00000
    131       0.9343      2.00000
    132       0.9352      2.00000
    133       0.9364      2.00000
    134       1.1347      2.00000
    135       1.1364      2.00000
    136       1.1379      2.00000
    137       1.1904      2.00000
    138       1.1904      2.00000
    139       1.1905      2.00000
    140       1.3391      2.00000
    141       1.3391      2.00000
    142       1.4926      2.00000
    143       1.4938      2.00000
    144       1.4950      2.00000
    145       1.6353      2.00000
    146       1.6355      2.00000
    147       1.6361      2.00000
    148       1.6483      2.00000
    149       1.6496      2.00000
    150       1.6499      2.00000
    151       1.6500      2.00000
    152       1.6503      2.00000
    153       1.6515      2.00000
    154       1.7464      2.00000
    155       1.7467      2.00000
    156       1.7470      2.00000
    157       1.7596      2.00000
    158       1.7606      2.00000
    159       1.7610      2.00000
    160       1.7611      2.00000
    161       1.7615      2.00000
    162       1.7625      2.00000
    163       1.7856      2.00000
    164       1.7857      2.00000
    165       1.7860      2.00000
    166       1.8602      2.00000
    167       1.8602      2.00000
    168       1.8604      2.00000
    169       2.7031      2.00000
    170       2.7046      2.00000
    171       2.7061      2.00000
    172       3.6306      0.42891
    173       3.6321      0.41896
    174       3.6333      0.41045
    175       3.6334      0.41030
    176       3.6346      0.40188
    177       3.6361      0.39234
    178       4.2638     -0.00001
    179       4.2648     -0.00001
    180       4.2657     -0.00001
    181       4.6672     -0.00000
    182       4.6686     -0.00000
    183       4.6699     -0.00000
    184       5.6686     -0.00000
    185       5.6710     -0.00000
    186       5.6719     -0.00000
    187       5.6719     -0.00000
    188       5.6728     -0.00000
    189       5.6752     -0.00000
    190       6.0938     -0.00000
    191       6.0939     -0.00000
    192       6.0939     -0.00000
    193       6.8234     -0.00000
    194       6.8257     -0.00000
    195       6.8281     -0.00000
    196       7.2174     -0.00000
    197       7.2190     -0.00000
    198       7.2206     -0.00000
    199       8.2744     -0.00000
    200       8.2749     -0.00000
    201       8.2768     -0.00000
    202       8.2768     -0.00000
    203       8.2787     -0.00000
    204       8.2793     -0.00000
    205       9.3672      0.00000
    206       9.3674      0.00000
    207       9.3693      0.00000
    208       9.3693      0.00000
    209       9.3713      0.00000
    210       9.3715      0.00000
    211       9.5565      0.00000
    212       9.5565      0.00000


--------------------------------------------------------------------------------------------------------


 soft charge-density along one line, spin component           1
         0         1         2         3         4         5         6         7         8         9
 total charge-density along one line
 
 pseudopotential strength for first ion, spin component:           1
-10.464   0.000   0.000   0.000   0.000  -0.009  -0.000  -0.000
  0.000 -10.464   0.000   0.000  -0.000  -0.000  -0.009  -0.000
  0.000   0.000 -10.452   0.000  -0.000  -0.000  -0.000  -0.010
  0.000   0.000   0.000 -10.464   0.000  -0.000  -0.000  -0.000
  0.000  -0.000  -0.000   0.000 -10.452  -0.000   0.000   0.000
 -0.009  -0.000  -0.000  -0.000  -0.000   0.271   0.000   0.000
 -0.000  -0.009  -0.000  -0.000   0.000   0.000   0.271   0.000
 -0.000  -0.000  -0.010  -0.000   0.000   0.000   0.000   0.272
 -0.000  -0.000  -0.000  -0.009  -0.000   0.000   0.000   0.000
 -0.000   0.000   0.000  -0.000  -0.010   0.000  -0.000  -0.000
 -0.000  -0.000   0.000  -0.000  -0.000   0.000   0.000  -0.000
  0.000   0.000  -0.000   0.000   0.000  -0.000  -0.000   0.000
  0.000  -0.000   0.000   0.000   0.000  -0.000   0.000  -0.000
  0.000  -0.000  -0.000   0.000   0.000  -0.000   0.000   0.000
 -0.000   0.000  -0.000  -0.000   0.000   0.000  -0.000   0.000
 -0.000   0.000  -0.000  -0.000  -0.000   0.000  -0.000   0.000
 -0.000   0.000   0.000  -0.000  -0.000   0.000  -0.000  -0.000
  0.000  -0.000   0.000   0.000  -0.000  -0.000   0.000  -0.000
 total augmentation occupancy for first ion, spin component:           1
  1.905   0.000  -0.006   0.000   0.000  -0.067  -0.000   0.002   0.000  -0.000   0.010   0.001   0.000  -0.000  -0.000   0.000
  0.000   1.912   0.003   0.000  -0.005  -0.000  -0.073  -0.001   0.000   0.002   0.010   0.002   0.000  -0.000   0.000  -0.000
 -0.006   0.003   1.958   0.003  -0.002   0.002  -0.001  -0.107  -0.002   0.001   0.011   0.003   0.000  -0.000  -0.000   0.000
  0.000   0.000   0.003   1.919   0.005   0.000   0.000  -0.002  -0.078  -0.003   0.011   0.002  -0.000   0.000   0.000   0.000
  0.000  -0.005  -0.002   0.005   1.951  -0.000   0.002   0.001  -0.003  -0.103   0.006   0.001   0.000  -0.000  -0.000   0.000
 -0.067  -0.000   0.002   0.000  -0.000   0.123  -0.000   0.001  -0.000   0.000  -0.004   0.001  -0.000   0.000   0.000  -0.000
 -0.000  -0.073  -0.001   0.000   0.002  -0.000   0.127   0.000  -0.000  -0.000  -0.005  -0.000  -0.000  -0.000  -0.000   0.000
  0.002  -0.001  -0.107  -0.002   0.001   0.001   0.000   0.100   0.001  -0.000  -0.007  -0.001  -0.000   0.000   0.000   0.000
  0.000   0.000  -0.002  -0.078  -0.003  -0.000  -0.000   0.001   0.131   0.001  -0.007  -0.001   0.000  -0.000  -0.000  -0.000
 -0.000   0.002   0.001  -0.003  -0.103   0.000  -0.000  -0.000   0.001   0.099  -0.004  -0.000  -0.000   0.000   0.000  -0.000
  0.010   0.010   0.011   0.011   0.006  -0.004  -0.005  -0.007  -0.007  -0.004   0.998  -0.283   0.000  -0.000  -0.000  -0.000
  0.001   0.002   0.003   0.002   0.001   0.001  -0.000  -0.001  -0.001  -0.000  -0.283   0.159   0.000  -0.000   0.000   0.000
  0.000   0.000   0.000  -0.000   0.000  -0.000  -0.000  -0.000   0.000  -0.000   0.000   0.000   0.110   0.002   0.002  -0.008
 -0.000  -0.000  -0.000   0.000  -0.000   0.000  -0.000   0.000  -0.000   0.000  -0.000  -0.000   0.002   0.110   0.002  -0.000
 -0.000   0.000  -0.000   0.000  -0.000   0.000  -0.000   0.000  -0.000   0.000  -0.000   0.000   0.002   0.002   0.110  -0.000
  0.000  -0.000   0.000   0.000   0.000  -0.000   0.000   0.000  -0.000  -0.000  -0.000   0.000  -0.008  -0.000  -0.000   0.001
 -0.000  -0.000   0.000   0.000   0.000   0.000  -0.000  -0.000  -0.000  -0.000   0.000   0.000  -0.000  -0.008  -0.000   0.000
 -0.000  -0.000  -0.000  -0.000   0.000   0.000   0.000   0.000   0.000  -0.000   0.000  -0.000  -0.000  -0.000  -0.008   0.000


------------------------ aborting loop because EDIFF is reached ----------------------------------------




--------------------------------------------------------------------------------------------------------


    CHARGE:  VPU time   11.43: CPU time   11.46
    FORLOC:  VPU time    0.20: CPU time    0.21
    FORNL :  VPU time   54.57: CPU time   54.65
    STRESS:  VPU time  119.97: CPU time  120.22
    FORCOR:  VPU time    1.59: CPU time    1.59
    FORHAR:  VPU time    0.52: CPU time    0.52
    MIXING:  VPU time    0.04: CPU time    0.04


--------------------------------------------------------------------------------------------------------



  FREE ENERGIE OF THE ION-ELECTRON SYSTEM (eV)
  ---------------------------------------------------
  free  energy   TOTEN  =      -101.769407 eV

  energy  without entropy=     -101.742343  energy(sigma->0) =     -101.760386
 

  FORCE on cell =-STRESS in cart. coord.  units (eV/reduce length):
  Direction    X        Y        Z        XY       YZ       ZX
  --------------------------------------------------------------------------------------
  Alpha Z   2944.73   2944.73   2944.73
  Ewald    -9830.69  -9830.56  -9830.56     -0.00     -0.00     -0.00
  Hartree   1460.65   1460.75   1460.75     -0.00     -0.00     -0.00
  E(xc)    -1576.24  -1576.24  -1576.24     -0.00     -0.00     -0.00
  Local     2368.86   2368.61   2368.61      0.00      0.00      0.00
  n-local  -1670.15  -1675.43  -1664.85      5.67      5.69      5.72
  augment   1377.32   1377.31   1377.31     -0.00     -0.00     -0.00
  Kinetic   4880.19   4875.40   4884.97      3.40      3.77      4.14
  -------------------------------------------------------------------------------------
  Total      -45.34    -45.38    -45.38     -0.00     -0.00     -0.00
  in kB     -111.54   -111.64   -111.64     -0.00     -0.00     -0.00
  external pressure =     -111.60 kB  Pullay stress =        0.00 kB


 VOLUME and BASIS-vectors are now :
 -----------------------------------------------------------------------------
  energy-cutoff  :      600.00
  volume of cell :      651.25
      direct lattice vectors                 reciprocal lattice vectors
     8.667960810  0.000000000  0.000000000     0.115367388 -0.000000002 -0.000000002
     0.000000160  8.667960810  0.000000000     0.000000000  0.115367388 -0.000000002
     0.000000160  0.000000160  8.667960810     0.000000000  0.000000000  0.115367388

  length of vectors
     8.667960810  8.667960810  8.667960810     0.115367388  0.115367388  0.115367388


 FORCES acting on ions
    electron-ion (+dipol)            ewald-force                    non-local-force                 convergence-correction
 -----------------------------------------------------------------------------------------------
   0.246E-01 0.140E+00 -.132E-07   -.256E-01 -.139E+00 0.142E-07   0.299E-03 -.134E-03 0.136E-19   0.135E-03 -.363E-03 0.319E-09
   0.878E+00 0.170E+01 -.884E-08   -.878E+00 -.170E+01 0.271E-09   -.596E-02 -.313E-02 -.237E-19   -.214E-03 -.153E-02 -.458E-09
   0.878E+00 -.289E-07 -.170E+01   -.878E+00 0.311E-07 0.170E+01   -.596E-02 0.577E-10 0.313E-02   -.214E-03 0.309E-09 0.153E-02
   0.246E-01 -.140E+00 0.760E-08   -.256E-01 0.139E+00 -.832E-08   0.299E-03 0.134E-03 0.136E-19   0.135E-03 0.363E-03 -.184E-09
   -.109E+01 -.820E-02 0.820E-02   0.110E+01 0.794E-02 -.794E-02   -.585E-02 0.191E-04 -.191E-04   0.521E-03 0.323E-03 -.323E-03
   -.574E+00 0.228E-08 0.385E-07   0.581E+00 -.157E-08 -.425E-07   -.389E-02 -.219E-19 0.000E+00   -.882E-03 0.546E-09 -.105E-08
   0.300E-01 -.140E+00 0.729E-08   -.308E-01 0.139E+00 -.799E-08   0.364E-03 0.366E-03 0.000E+00   -.189E-03 0.230E-03 -.176E-09
   0.878E+00 0.225E-07 0.170E+01   -.878E+00 -.311E-07 -.170E+01   -.596E-02 -.577E-10 -.313E-02   -.214E-03 -.486E-09 -.153E-02
   0.878E+00 -.170E+01 0.238E-08   -.878E+00 0.170E+01 -.271E-09   -.596E-02 0.313E-02 -.271E-19   -.214E-03 0.153E-02 0.281E-09
   0.246E-01 0.502E-08 -.140E+00   -.256E-01 -.575E-08 0.139E+00   0.299E-03 0.247E-11 0.134E-03   0.135E-03 -.178E-09 0.363E-03
   -.109E+01 -.820E-02 -.820E-02   0.110E+01 0.794E-02 0.794E-02   -.585E-02 0.191E-04 0.191E-04   0.521E-03 0.323E-03 0.323E-03
   -.696E+01 0.110E-06 0.317E-07   0.695E+01 -.122E-06 -.122E-06   0.691E-01 0.393E-19 0.000E+00   -.145E-01 0.163E-08 0.163E-08
   -.109E+01 0.820E-02 0.820E-02   0.110E+01 -.794E-02 -.794E-02   -.585E-02 -.191E-04 -.191E-04   0.521E-03 -.323E-03 -.323E-03
   -.237E+00 0.107E-07 0.107E-07   0.240E+00 -.113E-07 -.113E-07   0.265E-03 -.738E-20 0.000E+00   -.212E-02 -.468E-09 -.468E-09
   0.888E+00 -.167E+01 0.225E-08   -.889E+00 0.167E+01 -.244E-09   -.549E-02 0.266E-02 0.000E+00   -.685E-03 0.183E-02 0.279E-09
   0.888E+00 0.221E-07 0.167E+01   -.889E+00 -.306E-07 -.167E+01   -.549E-02 -.490E-10 -.266E-02   -.685E-03 -.427E-09 -.183E-02
   0.300E-01 0.140E+00 -.134E-07   -.308E-01 -.139E+00 0.145E-07   0.364E-03 -.366E-03 0.136E-19   -.189E-03 -.230E-03 0.295E-09
   0.613E+00 0.234E-02 -.234E-02   -.616E+00 -.238E-02 0.238E-02   0.957E-03 0.633E-04 -.633E-04   0.109E-02 -.270E-04 0.270E-04
   0.463E+00 -.214E-08 -.258E-07   -.456E+00 0.156E-08 0.268E-07   -.528E-02 0.686E-20 0.000E+00   0.214E-02 -.561E-09 0.886E-09
   0.246E-01 -.106E-07 0.140E+00   -.256E-01 0.117E-07 -.139E+00   0.299E-03 -.247E-11 -.134E-03   0.135E-03 0.312E-09 -.363E-03
   -.109E+01 0.820E-02 -.820E-02   0.110E+01 -.794E-02 0.794E-02   -.585E-02 -.191E-04 0.191E-04   0.521E-03 -.323E-03 0.323E-03
   -.574E+00 0.387E-07 0.227E-08   0.581E+00 -.425E-07 -.157E-08   -.389E-02 0.275E-19 0.000E+00   -.882E-03 -.105E-08 0.546E-09
   0.888E+00 -.286E-07 -.167E+01   -.889E+00 0.306E-07 0.167E+01   -.549E-02 0.490E-10 0.266E-02   -.685E-03 0.312E-09 0.183E-02
   0.888E+00 0.167E+01 -.873E-08   -.889E+00 -.167E+01 0.298E-09   -.549E-02 -.266E-02 0.000E+00   -.685E-03 -.183E-02 -.393E-09
   0.300E-01 -.108E-07 0.140E+00   -.308E-01 0.119E-07 -.139E+00   0.364E-03 -.675E-11 -.366E-03   -.189E-03 0.291E-09 -.230E-03
   0.613E+00 0.234E-02 0.234E-02   -.616E+00 -.238E-02 -.238E-02   0.957E-03 0.633E-04 0.633E-04   0.109E-02 -.270E-04 -.270E-04
   0.182E+01 -.485E-08 0.753E-07   -.183E+01 0.209E-08 0.209E-08   0.110E-01 -.587E-20 -.339E-20   -.213E-02 -.115E-08 -.115E-08
   0.613E+00 -.234E-02 -.234E-02   -.616E+00 0.238E-02 0.238E-02   0.957E-03 -.633E-04 -.633E-04   0.109E-02 0.270E-04 0.270E-04
   0.219E+00 -.952E-08 -.953E-08   -.224E+00 0.994E-08 0.994E-08   0.202E-02 -.103E-20 -.169E-20   0.195E-02 0.482E-09 0.482E-09
   0.300E-01 0.471E-08 -.140E+00   -.308E-01 -.542E-08 0.139E+00   0.364E-03 0.675E-11 0.366E-03   -.189E-03 -.172E-09 0.230E-03
   0.613E+00 -.234E-02 0.234E-02   -.616E+00 0.238E-02 -.238E-02   0.957E-03 -.633E-04 0.633E-04   0.109E-02 0.270E-04 -.270E-04
   0.463E+00 -.256E-07 -.214E-08   -.456E+00 0.268E-07 0.156E-08   -.528E-02 -.990E-22 -.136E-19   0.214E-02 0.886E-09 -.560E-09
 -----------------------------------------------------------------------------------------------
   0.110E-01 -.697E-10 -.147E-09   -.107E-13 -.487E-12 0.220E-12   0.135E-02 -.122E-18 -.393E-18   -.117E-01 0.151E-09 0.150E-09
 
 
 POSITION                                       TOTAL-FORCE (eV/Angst)
 -----------------------------------------------------------------------------------
      6.50097      6.50097      4.33398        -0.000575      0.000495     -0.000000
      6.50097      6.50097      0.00000        -0.007067     -0.008110      0.000000
      6.50097      0.00000      2.16699        -0.007067      0.000000      0.008110
      6.50097      2.16699      4.33398        -0.000575     -0.000495      0.000000
      0.00000      6.50097      2.16699         0.003918      0.000081     -0.000081
      0.00000      0.00000      4.33398         0.001611     -0.000000      0.000000
      2.16699      6.50097      4.33398        -0.000567     -0.000489     -0.000000
      6.50097      0.00000      6.50097        -0.007067     -0.000000     -0.008110
      6.50097      2.16699      0.00000        -0.007067      0.008110      0.000000
      6.50097      4.33398      2.16699        -0.000575     -0.000000     -0.000495
      0.00000      6.50097      6.50097         0.003918      0.000081      0.000081
      8.64796      0.00000      0.00000         0.041837     -0.000000      0.000000
      0.00000      2.16699      2.16699         0.003918     -0.000081     -0.000081
      0.00000      4.33398      4.33398         0.000782     -0.000000      0.000000
      2.16699      6.50097      0.00000        -0.006594      0.007391     -0.000000
      2.16699      0.00000      2.16699        -0.006594     -0.000000     -0.007391
      2.16699      2.16699      4.33398        -0.000567      0.000489      0.000000
      4.33398      6.50097      2.16699        -0.000567     -0.000008      0.000008
      4.33398      0.00000      4.33398         0.003689     -0.000000     -0.000000
      6.50097      4.33398      6.50097        -0.000575      0.000000      0.000495
      0.00000      2.16699      6.50097         0.003918     -0.000081      0.000081
      0.00000      4.33398      0.00000         0.001611      0.000000     -0.000000
      2.16699      0.00000      6.50097        -0.006594      0.000000      0.007391
      2.16699      2.16699      0.00000        -0.006594     -0.007391      0.000000
      2.16699      4.33398      2.16699        -0.000567      0.000000      0.000489
      4.33398      6.50097      6.50097        -0.000567     -0.000008     -0.000008
      4.33398      0.00000      0.00000        -0.005836      0.000000      0.000000
      4.33398      2.16699      2.16699        -0.000567      0.000008      0.000008
      4.33398      4.33398      4.33398        -0.001573     -0.000000      0.000000
      2.16699      4.33398      6.50097        -0.000567     -0.000000     -0.000489
      4.33398      2.16699      6.50097        -0.000567      0.000008     -0.000008
      4.33398      4.33398      0.00000         0.003689      0.000000      0.000000
 -----------------------------------------------------------------------------------
    total drift:                                0.000657      0.000000      0.000000


--------------------------------------------------------------------------------------------------------



 mean value of Nose-termostat <S>:     1.000 mean value of <T> :     0.000
 mean temperature <T/S>/<1/S>  :     0.000

     LOOP+:  VPU time 3582.64: CPU time 3599.37

 ----------------------------------------------------------------------------- 
|                                                                             |
|           W    W    AA    RRRRR   N    N  II  N    N   GGGG   !!!           |
|           W    W   A  A   R    R  NN   N  II  NN   N  G    G  !!!           |
|           W    W  A    A  R    R  N N  N  II  N N  N  G       !!!           |
|           W WW W  AAAAAA  RRRRR   N  N N  II  N  N N  G  GGG   !            |
|           WW  WW  A    A  R   R   N   NN  II  N   NN  G    G                |
|           W    W  A    A  R    R  N    N  II  N    N   GGGG   !!!           |
|                                                                             |
|      The partial DOS and the PROCAR file are not evaluated for NPAR/=1      |
|      please rerun with NPAR=1                                               |
|                                                                             |
 ----------------------------------------------------------------------------- 

  
  
 General timing and accounting informations for this job:
 ========================================================
  
                  Total CPU time used (sec):     3716.143
                            User time (sec):     3603.694
                          System time (sec):      112.449
                         Elapsed time (sec):     3741.594
  
                   Maximum memory used (kb):      912164.
                   Average memory used (kb):           0.
  
                          Minor page faults:       153019
                          Major page faults:            0
                 Voluntary context switches:         1008
