   4   4   0   0
  0.1392114E+02  0.3818665E-09  0.3818665E-09  0.3818665E-09  0.5000000E-15
  1.000000000000000E-004
  CAR 
 unknown system                          
     23.61789267     -7.06474663  301      2.49020374      1.00000000
     -7.065  0.0000E+00  0.0000E+00
     -6.962  0.0000E+00  0.0000E+00
     -6.860  0.0000E+00  0.0000E+00
     -6.758  0.0000E+00  0.0000E+00
     -6.656  0.0000E+00  0.0000E+00
     -6.553  0.0000E+00  0.0000E+00
     -6.451  0.0000E+00  0.0000E+00
     -6.349  0.0000E+00  0.0000E+00
     -6.247  0.0000E+00  0.0000E+00
     -6.144  0.0000E+00  0.0000E+00
     -6.042  0.0000E+00  0.0000E+00
     -5.940  0.0000E+00  0.0000E+00
     -5.837  0.0000E+00  0.0000E+00
     -5.735  0.0000E+00  0.0000E+00
     -5.633  0.1802E-01  0.1843E-02
     -5.531  0.7755E-01  0.1184E-01
     -5.428  0.1358E+00  0.2735E-01
     -5.326  0.1228E+00  0.4887E-01
     -5.224  0.1518E+00  0.6833E-01
     -5.122  0.2475E+00  0.9982E-01
     -5.019  0.1953E+00  0.1269E+00
     -4.917  0.2034E+00  0.1546E+00
     -4.815  0.2944E+00  0.1952E+00
     -4.712  0.2949E+00  0.2265E+00
     -4.610  0.2802E+00  0.2669E+00
     -4.508  0.2384E+00  0.3043E+00
     -4.406  0.4932E+00  0.3556E+00
     -4.303  0.3505E+00  0.4000E+00
     -4.201  0.3389E+00  0.4399E+00
     -4.099  0.4110E+00  0.4933E+00
     -3.996  0.4926E+00  0.5468E+00
     -3.894  0.3326E+00  0.5964E+00
     -3.792  0.4522E+00  0.6564E+00
     -3.690  0.4187E+00  0.7154E+00
     -3.587  0.5905E+00  0.7793E+00
     -3.485  0.4750E+00  0.8369E+00
     -3.383  0.5199E+00  0.9049E+00
     -3.281  0.4749E+00  0.9784E+00
     -3.178  0.3532E+00  0.1035E+01
     -3.076  0.7714E+00  0.1132E+01
     -2.974  0.5632E+00  0.1201E+01
     -2.871  0.6238E+00  0.1287E+01
     -2.769  0.7146E+00  0.1382E+01
     -2.667  0.6360E+00  0.1472E+01
     -2.565  0.8861E+00  0.1574E+01
     -2.462  0.8408E+00  0.1671E+01
     -2.360  0.8396E+00  0.1783E+01
     -2.258  0.1018E+01  0.1914E+01
     -2.156  0.7361E+00  0.2031E+01
     -2.053  0.1256E+01  0.2194E+01
     -1.951  0.1274E+01  0.2359E+01
     -1.849  0.1434E+01  0.2550E+01
     -1.746  0.1829E+01  0.2808E+01
     -1.644  0.2752E+01  0.3148E+01
     -1.542  0.2897E+01  0.3528E+01
     -1.440  0.4566E+01  0.4065E+01
     -1.337  0.4351E+01  0.4626E+01
     -1.235  0.4960E+01  0.5263E+01
     -1.133  0.5657E+01  0.5928E+01
     -1.030  0.7641E+01  0.6864E+01
     -0.928  0.8690E+01  0.7996E+01
     -0.826  0.9145E+01  0.9217E+01
     -0.724  0.7593E+01  0.1024E+02
     -0.621  0.8668E+01  0.1137E+02
     -0.519  0.8266E+01  0.1246E+02
     -0.417  0.1037E+02  0.1373E+02
     -0.315  0.1208E+02  0.1528E+02
     -0.212  0.1289E+02  0.1697E+02
     -0.110  0.1532E+02  0.1889E+02
     -0.008  0.1670E+02  0.2104E+02
      0.095  0.1867E+02  0.2348E+02
      0.197  0.1190E+02  0.2507E+02
      0.299  0.1026E+02  0.2647E+02
      0.401  0.1204E+02  0.2801E+02
      0.504  0.1493E+02  0.2994E+02
      0.606  0.1446E+02  0.3191E+02
      0.708  0.1306E+02  0.3365E+02
      0.810  0.1313E+02  0.3536E+02
      0.913  0.1628E+02  0.3746E+02
      1.015  0.2555E+02  0.4062E+02
      1.117  0.7832E+01  0.4187E+02
      1.220  0.1743E+01  0.4207E+02
      1.322  0.1164E+01  0.4223E+02
      1.424  0.1382E+01  0.4242E+02
      1.526  0.1521E+01  0.4261E+02
      1.629  0.1252E+01  0.4275E+02
      1.731  0.1358E+01  0.4292E+02
      1.833  0.1089E+01  0.4305E+02
      1.935  0.1336E+01  0.4323E+02
      2.038  0.8156E+00  0.4335E+02
      2.140  0.1435E+01  0.4353E+02
      2.242  0.1012E+01  0.4366E+02
      2.345  0.6289E+00  0.4377E+02
      2.447  0.1489E+01  0.4395E+02
      2.549  0.1267E+01  0.4409E+02
      2.651  0.8977E+00  0.4419E+02
      2.754  0.1289E+01  0.4433E+02
      2.856  0.1020E+01  0.4447E+02
      2.958  0.1023E+01  0.4460E+02
      3.061  0.4406E+00  0.4467E+02
      3.163  0.1258E+01  0.4483E+02
      3.265  0.1167E+01  0.4498E+02
      3.367  0.7269E+00  0.4507E+02
      3.470  0.8430E+00  0.4517E+02
      3.572  0.1125E+01  0.4531E+02
      3.674  0.9028E+00  0.4543E+02
      3.776  0.7790E+00  0.4554E+02
      3.879  0.5909E+00  0.4562E+02
      3.981  0.1108E+01  0.4576E+02
      4.083  0.9123E+00  0.4588E+02
      4.186  0.6515E+00  0.4598E+02
      4.288  0.7615E+00  0.4609E+02
      4.390  0.9212E+00  0.4620E+02
      4.492  0.8247E+00  0.4631E+02
      4.595  0.6298E+00  0.4641E+02
      4.697  0.8659E+00  0.4651E+02
      4.799  0.5755E+00  0.4660E+02
      4.901  0.7384E+00  0.4669E+02
      5.004  0.8371E+00  0.4680E+02
      5.106  0.8611E+00  0.4690E+02
      5.208  0.4823E+00  0.4697E+02
      5.311  0.6908E+00  0.4705E+02
      5.413  0.7262E+00  0.4714E+02
      5.515  0.7180E+00  0.4722E+02
      5.617  0.8299E+00  0.4732E+02
      5.720  0.8697E+00  0.4744E+02
      5.822  0.8306E+00  0.4756E+02
      5.924  0.1238E+01  0.4769E+02
      6.027  0.9028E+00  0.4783E+02
      6.129  0.1120E+01  0.4797E+02
      6.231  0.7449E+00  0.4808E+02
      6.333  0.1148E+01  0.4823E+02
      6.436  0.8844E+00  0.4834E+02
      6.538  0.1042E+01  0.4847E+02
      6.640  0.9738E+00  0.4862E+02
      6.742  0.5025E+00  0.4869E+02
      6.845  0.1524E+01  0.4887E+02
      6.947  0.7982E+00  0.4898E+02
      7.049  0.8467E+00  0.4909E+02
      7.152  0.1097E+01  0.4921E+02
      7.254  0.1173E+01  0.4934E+02
      7.356  0.9850E+00  0.4946E+02
      7.458  0.7736E+00  0.4958E+02
      7.561  0.6752E+00  0.4967E+02
      7.663  0.8630E+00  0.4979E+02
      7.765  0.6979E+00  0.4990E+02
      7.867  0.9063E+00  0.5003E+02
      7.970  0.8173E+00  0.5013E+02
      8.072  0.1034E+01  0.5024E+02
      8.174  0.8023E+00  0.5033E+02
      8.277  0.7817E+00  0.5044E+02
      8.379  0.9476E+00  0.5055E+02
      8.481  0.7822E+00  0.5065E+02
      8.583  0.8485E+00  0.5077E+02
      8.686  0.7277E+00  0.5085E+02
      8.788  0.1173E+01  0.5102E+02
      8.890  0.1040E+01  0.5115E+02
      8.993  0.8809E+00  0.5128E+02
      9.095  0.9861E+00  0.5142E+02
      9.197  0.8467E+00  0.5155E+02
      9.299  0.1298E+01  0.5172E+02
      9.402  0.1194E+01  0.5188E+02
      9.504  0.1025E+01  0.5202E+02
      9.606  0.1154E+01  0.5217E+02
      9.708  0.1375E+01  0.5233E+02
      9.811  0.1181E+01  0.5248E+02
      9.913  0.7830E+00  0.5261E+02
     10.015  0.1424E+01  0.5278E+02
     10.118  0.1133E+01  0.5293E+02
     10.220  0.1021E+01  0.5307E+02
     10.322  0.1250E+01  0.5323E+02
     10.424  0.1248E+01  0.5341E+02
     10.527  0.1266E+01  0.5357E+02
     10.629  0.1228E+01  0.5371E+02
     10.731  0.1336E+01  0.5386E+02
     10.833  0.1262E+01  0.5401E+02
     10.936  0.1371E+01  0.5417E+02
     11.038  0.1497E+01  0.5435E+02
     11.140  0.1465E+01  0.5453E+02
     11.243  0.9721E+00  0.5465E+02
     11.345  0.1312E+01  0.5484E+02
     11.447  0.1212E+01  0.5497E+02
     11.549  0.1164E+01  0.5514E+02
     11.652  0.1203E+01  0.5529E+02
     11.754  0.1266E+01  0.5546E+02
     11.856  0.1244E+01  0.5563E+02
     11.958  0.1386E+01  0.5582E+02
     12.061  0.1598E+01  0.5601E+02
     12.163  0.6791E+00  0.5610E+02
     12.265  0.1414E+01  0.5629E+02
     12.368  0.1501E+01  0.5649E+02
     12.470  0.1356E+01  0.5665E+02
     12.572  0.1082E+01  0.5678E+02
     12.674  0.1154E+01  0.5694E+02
     12.777  0.1529E+01  0.5714E+02
     12.879  0.1116E+01  0.5730E+02
     12.981  0.1324E+01  0.5749E+02
     13.084  0.1198E+01  0.5765E+02
     13.186  0.1297E+01  0.5783E+02
     13.288  0.1638E+01  0.5802E+02
     13.390  0.1222E+01  0.5818E+02
     13.493  0.1011E+01  0.5833E+02
     13.595  0.1498E+01  0.5852E+02
     13.697  0.1384E+01  0.5871E+02
     13.799  0.1408E+01  0.5888E+02
     13.902  0.1481E+01  0.5907E+02
     14.004  0.1484E+01  0.5926E+02
     14.106  0.1585E+01  0.5947E+02
     14.209  0.1190E+01  0.5963E+02
     14.311  0.1647E+01  0.5983E+02
     14.413  0.1378E+01  0.6002E+02
     14.515  0.1852E+01  0.6024E+02
     14.618  0.1439E+01  0.6041E+02
     14.720  0.9767E+00  0.6056E+02
     14.822  0.1283E+01  0.6074E+02
     14.924  0.1337E+01  0.6093E+02
     15.027  0.1502E+01  0.6112E+02
     15.129  0.1072E+01  0.6126E+02
     15.231  0.1181E+01  0.6142E+02
     15.334  0.1238E+01  0.6158E+02
     15.436  0.9686E+00  0.6171E+02
     15.538  0.1073E+01  0.6186E+02
     15.640  0.7192E+00  0.6195E+02
     15.743  0.8798E+00  0.6206E+02
     15.845  0.9311E+00  0.6216E+02
     15.947  0.1105E+01  0.6228E+02
     16.050  0.7141E+00  0.6238E+02
     16.152  0.6899E+00  0.6246E+02
     16.254  0.6055E+00  0.6254E+02
     16.356  0.7626E+00  0.6264E+02
     16.459  0.4481E+00  0.6270E+02
     16.561  0.4487E+00  0.6277E+02
     16.663  0.3963E+00  0.6283E+02
     16.765  0.5385E+00  0.6290E+02
     16.868  0.6526E+00  0.6297E+02
     16.970  0.2879E+00  0.6301E+02
     17.072  0.5433E+00  0.6306E+02
     17.175  0.5812E+00  0.6313E+02
     17.277  0.2638E+00  0.6318E+02
     17.379  0.3292E+00  0.6322E+02
     17.481  0.2692E+00  0.6326E+02
     17.584  0.3690E+00  0.6330E+02
     17.686  0.3452E+00  0.6335E+02
     17.788  0.2360E+00  0.6339E+02
     17.890  0.2853E+00  0.6342E+02
     17.993  0.2808E+00  0.6346E+02
     18.095  0.3293E+00  0.6349E+02
     18.197  0.2186E+00  0.6352E+02
     18.300  0.2721E+00  0.6356E+02
     18.402  0.2335E+00  0.6359E+02
     18.504  0.6806E-01  0.6360E+02
     18.606  0.2305E+00  0.6363E+02
     18.709  0.3607E+00  0.6367E+02
     18.811  0.6844E-01  0.6368E+02
     18.913  0.1014E+00  0.6369E+02
     19.015  0.1753E+00  0.6372E+02
     19.118  0.1697E+00  0.6374E+02
     19.220  0.7632E-01  0.6375E+02
     19.322  0.3071E+00  0.6378E+02
     19.425  0.2307E-03  0.6379E+02
     19.527  0.1013E+00  0.6381E+02
     19.629  0.1583E+00  0.6382E+02
     19.731  0.6725E-01  0.6385E+02
     19.834  0.7864E-01  0.6385E+02
     19.936  0.1697E+00  0.6387E+02
     20.038  0.1267E+00  0.6389E+02
     20.141  0.0000E+00  0.6389E+02
     20.243  0.3921E-01  0.6390E+02
     20.345  0.1358E+00  0.6392E+02
     20.447  0.0000E+00  0.6392E+02
     20.550  0.2387E-01  0.6392E+02
     20.652  0.1358E+00  0.6395E+02
     20.754  0.0000E+00  0.6395E+02
     20.856  0.3277E-01  0.6395E+02
     20.959  0.6791E-01  0.6396E+02
     21.061  0.3394E-01  0.6396E+02
     21.163  0.3680E-01  0.6397E+02
     21.266  0.4264E-01  0.6397E+02
     21.368  0.0000E+00  0.6398E+02
     21.470  0.4572E-03  0.6398E+02
     21.572  0.6790E-01  0.6399E+02
     21.675  0.2883E-12  0.6399E+02
     21.777  0.7684E-01  0.6400E+02
     21.879  0.0000E+00  0.6400E+02
     21.981  0.3395E-01  0.6400E+02
     22.084  0.0000E+00  0.6400E+02
     22.186  0.4084E-09  0.6400E+02
     22.288  0.5658E-02  0.6400E+02
     22.391  0.0000E+00  0.6400E+02
     22.493  0.0000E+00  0.6400E+02
     22.595  0.0000E+00  0.6400E+02
     22.697  0.0000E+00  0.6400E+02
     22.800  0.0000E+00  0.6400E+02
     22.902  0.0000E+00  0.6400E+02
     23.004  0.0000E+00  0.6400E+02
     23.107  0.0000E+00  0.6400E+02
     23.209  0.0000E+00  0.6400E+02
     23.311  0.0000E+00  0.6400E+02
     23.413  0.0000E+00  0.6400E+02
     23.516  0.0000E+00  0.6400E+02
     23.618  0.0000E+00  0.6400E+02
