    4    4    1    1
  0.1392114E+02  0.3818665E-09  0.3818665E-09  0.3818665E-09  0.5000000E-15
  1.000000000000000E-004
  CAR 
 unknown system                          
   44  455   32
 
  0.0000000E+00  0.0000000E+00  0.0000000E+00  0.7233796E-04
   1       -5.6701
   2       -1.5242
   3       -1.5242
   4       -1.5242
   5       -1.1685
   6       -1.1685
   7       -1.1685
   8       -0.0942
   9       -0.0942
  10       -0.0942
  11        0.5466
  12        0.5466
  13        0.9736
  14        0.9736
  15        0.9736
  16        1.0930
  17        1.0930
  18        1.0930
  19        1.0930
  20        1.0930
  21        1.0930
  22        4.1278
  23        4.1278
  24        4.1278
  25        8.5329
  26        8.5329
  27        8.5329
  28       14.4210
  29       14.4210
  30       14.4210
  31       14.4210
  32       14.4210
 
  0.4166667E-01  0.0000000E+00  0.0000000E+00  0.4340278E-03
   1       -5.6513
   2       -1.5247
   3       -1.5160
   4       -1.5160
   5       -1.1641
   6       -1.1639
   7       -1.1639
   8       -0.0990
   9       -0.0903
  10       -0.0903
  11        0.5423
  12        0.5484
  13        0.9680
  14        0.9680
  15        0.9718
  16        1.0658
  17        1.0658
  18        1.0863
  19        1.0863
  20        1.0930
  21        1.0930
  22        3.9802
  23        4.1723
  24        4.1723
  25        8.5411
  26        8.5411
  27        8.7195
  28       14.2760
  29       14.2760
  30       14.3220
  31       14.3220
  32       14.4476
 
  0.8333333E-01  0.0000000E+00  0.0000000E+00  0.4340278E-03
   1       -5.5950
   2       -1.5273
   3       -1.4919
   4       -1.4919
   5       -1.1509
   6       -1.1498
   7       -1.1498
   8       -0.1132
   9       -0.0785
  10       -0.0785
  11        0.5294
  12        0.5537
  13        0.9514
  14        0.9514
  15        0.9662
  16        0.9887
  17        0.9887
  18        1.0666
  19        1.0666
  20        1.0930
  21        1.0930
  22        3.5984
  23        4.3014
  24        4.3014
  25        8.5657
  26        8.5657
  27        9.2191
  28       13.8969
  29       13.8969
  30       14.0512
  31       14.0512
  32       14.5273
 
  0.1250000E+00  0.0000000E+00  0.0000000E+00  0.4340278E-03
   1       -5.5013
   2       -1.5345
   3       -1.4527
   4       -1.4527
   5       -1.1291
   6       -1.1263
   7       -1.1263
   8       -0.1366
   9       -0.0590
  10       -0.0590
  11        0.5084
  12        0.5626
  13        0.8729
  14        0.8729
  15        0.9241
  16        0.9241
  17        0.9571
  18        1.0344
  19        1.0344
  20        1.0931
  21        1.0931
  22        3.0919
  23        4.5038
  24        4.5038
  25        8.6074
  26        8.6074
  27        9.9245
  28       13.3826
  29       13.3826
  30       13.6647
  31       13.6647
  32       14.6593
 
  0.1666667E+00  0.0000000E+00  0.0000000E+00  0.4340278E-03
   1       -5.3709
   2       -1.5516
   3       -1.3998
   4       -1.3998
   5       -1.0991
   6       -1.0933
   7       -1.0933
   8       -0.1687
   9       -0.0318
  10       -0.0318
  11        0.4798
  12        0.5747
  13        0.7314
  14        0.7314
  15        0.8868
  16        0.8868
  17        0.9445
  18        0.9909
  19        0.9909
  20        1.0931
  21        1.0931
  22        2.5421
  23        4.7663
  24        4.7663
  25        8.6669
  26        8.6669
  27       10.7589
  28       12.8033
  29       12.8033
  30       13.2162
  31       13.2162
  32       14.8424
 
  0.2083333E+00  0.0000000E+00  0.0000000E+00  0.4340278E-03
   1       -5.2042
   2       -1.5866
   3       -1.3354
   4       -1.3354
   5       -1.0613
   6       -1.0506
   7       -1.0506
   8       -0.2090
   9        0.0029
  10        0.0029
  11        0.4446
  12        0.5753
  13        0.5753
  14        0.5900
  15        0.8406
  16        0.8406
  17        0.9288
  18        0.9374
  19        0.9374
  20        1.0932
  21        1.0932
  22        1.9986
  23        5.0778
  24        5.0778
  25        8.7454
  26        8.7454
  27       11.6797
  28       12.1973
  29       12.1973
  30       12.7439
  31       12.7439
  32       15.0750
 
  0.2500000E+00  0.0000000E+00  0.0000000E+00  0.4340278E-03
   1       -5.0023
   2       -1.6518
   3       -1.2623
   4       -1.2623
   5       -1.0163
   6       -0.9981
   7       -0.9981
   8       -0.2566
   9        0.0447
  10        0.0447
  11        0.4041
  12        0.4129
  13        0.4129
  14        0.6082
  15        0.7870
  16        0.7870
  17        0.8754
  18        0.8754
  19        0.9101
  20        1.0933
  21        1.0933
  22        1.4954
  23        5.4296
  24        5.4296
  25        8.8445
  26        8.8445
  27       11.5845
  28       11.5845
  29       12.2722
  30       12.2722
  31       12.6641
  32       15.3553
 
  0.2916667E+00  0.0000000E+00  0.0000000E+00  0.4340278E-03
   1       -4.7664
   2       -1.7631
   3       -1.1843
   4       -1.1843
   5       -0.9648
   6       -0.9355
   7       -0.9355
   8       -0.3108
   9        0.0935
  10        0.0935
  11        0.2503
  12        0.2503
  13        0.3601
  14        0.6290
  15        0.7287
  16        0.7287
  17        0.8067
  18        0.8067
  19        0.8889
  20        1.0599
  21        1.0933
  22        1.0933
  23        5.8154
  24        5.8154
  25        8.9657
  26        8.9657
  27       10.9757
  28       10.9757
  29       11.8163
  30       11.8163
  31       13.6989
  32       15.6810
 
  0.3333333E+00  0.0000000E+00  0.0000000E+00  0.4340278E-03
   1       -4.4983
   2       -1.9363
   3       -1.1063
   4       -1.1063
   5       -0.9076
   6       -0.8626
   7       -0.8626
   8       -0.3704
   9        0.0913
  10        0.0913
  11        0.1487
  12        0.1487
  13        0.3148
  14        0.6520
  15        0.6689
  16        0.6689
  17        0.7141
  18        0.7330
  19        0.7330
  20        0.8655
  21        1.0934
  22        1.0934
  23        6.2311
  24        6.2311
  25        9.1110
  26        9.1110
  27       10.3770
  28       10.3770
  29       11.3857
  30       11.3857
  31       14.7758
  32       16.0502
 
  0.3750000E+00  0.0000000E+00  0.0000000E+00  0.4340278E-03
   1       -4.2006
   2       -2.1779
   3       -1.0342
   4       -1.0342
   5       -0.8456
   6       -0.7794
   7       -0.7794
   8       -0.4345
   9       -0.0614
  10       -0.0614
  11        0.2098
  12        0.2098
  13        0.2713
  14        0.4682
  15        0.6125
  16        0.6125
  17        0.6561
  18        0.6561
  19        0.6768
  20        0.8402
  21        1.0935
  22        1.0935
  23        6.6734
  24        6.6734
  25        9.2822
  26        9.2822
  27        9.7922
  28        9.7922
  29       10.9859
  30       10.9859
  31       15.8886
  32       16.4605
 
  0.4166667E+00  0.0000000E+00  0.0000000E+00  0.4340278E-03
   1       -3.8770
   2       -2.4789
   3       -0.9748
   4       -0.9748
   5       -0.7799
   6       -0.6856
   7       -0.6856
   8       -0.5018
   9       -0.2059
  10       -0.2059
  11        0.2341
  12        0.2763
  13        0.2763
  14        0.3148
  15        0.5652
  16        0.5652
  17        0.5777
  18        0.5777
  19        0.7031
  20        0.8136
  21        1.0935
  22        1.0935
  23        7.1403
  24        7.1403
  25        9.2235
  26        9.2235
  27        9.4809
  28        9.4809
  29       10.6206
  30       10.6206
  31       16.9098
  32       16.9104
 
  0.4583333E+00  0.0000000E+00  0.0000000E+00  0.4340278E-03
   1       -3.5327
   2       -2.8190
   3       -0.9353
   4       -0.9353
   5       -0.7115
   6       -0.5813
   7       -0.5813
   8       -0.5713
   9       -0.3411
  10       -0.3411
  11        0.2091
  12        0.2344
  13        0.3473
  14        0.3473
  15        0.4991
  16        0.4991
  17        0.5332
  18        0.5332
  19        0.7304
  20        0.7861
  21        1.0935
  22        1.0935
  23        7.6300
  24        7.6300
  25        8.6728
  26        8.6728
  27        9.7060
  28        9.7060
  29       10.2944
  30       10.2944
  31       17.3960
  32       17.3960
 
  0.5000000E+00  0.0000000E+00  0.0000000E+00  0.2170139E-03
   1       -3.1760
   2       -3.1760
   3       -0.9214
   4       -0.9214
   5       -0.6415
   6       -0.6415
   7       -0.4664
   8       -0.4664
   9       -0.4664
  10       -0.4664
  11        0.2050
  12        0.2050
  13        0.4220
  14        0.4220
  15        0.4220
  16        0.4220
  17        0.5219
  18        0.5219
  19        0.7582
  20        0.7582
  21        1.0936
  22        1.0936
  23        8.1412
  24        8.1412
  25        8.1412
  26        8.1412
  27        9.8962
  28        9.8962
  29       10.0702
  30       10.0702
  31       17.9169
  32       17.9169
 
  0.4166667E-01  0.4166667E-01  0.0000000E+00  0.8680556E-03
   1       -5.6325
   2       -1.5166
   3       -1.5166
   4       -1.5080
   5       -1.1595
   6       -1.1595
   7       -1.1592
   8       -0.1017
   9       -0.0884
  10       -0.0865
  11        0.5410
  12        0.5472
  13        0.9625
  14        0.9656
  15        0.9656
  16        1.0436
  17        1.0594
  18        1.0594
  19        1.0863
  20        1.0863
  21        1.0887
  22        4.0242
  23        4.0242
  24        4.2162
  25        8.5493
  26        8.7285
  27        8.7285
  28       13.9232
  29       14.3022
  30       14.3022
  31       14.3483
  32       14.3483
 
  0.8333333E-01  0.4166667E-01  0.0000000E+00  0.1736111E-02
   1       -5.5762
   2       -1.5189
   3       -1.4923
   4       -1.4840
   5       -1.1463
   6       -1.1455
   7       -1.1453
   8       -0.1147
   9       -0.0777
  10       -0.0750
  11        0.5295
  12        0.5515
  13        0.9437
  14        0.9461
  15        0.9579
  16        0.9707
  17        0.9867
  18        1.0406
  19        1.0666
  20        1.0864
  21        1.0864
  22        3.6418
  23        4.1515
  24        4.3434
  25        8.5740
  26        8.7559
  27        9.2299
  28       13.4225
  29       13.9220
  30       14.0764
  31       14.3803
  32       14.4054
 
  0.1250000E+00  0.4166667E-01  0.0000000E+00  0.1736111E-02
   1       -5.4827
   2       -1.5259
   3       -1.4528
   4       -1.4451
   5       -1.1246
   6       -1.1221
   7       -1.1220
   8       -0.1377
   9       -0.0585
  10       -0.0559
  11        0.5088
  12        0.5605
  13        0.8569
  14        0.8581
  15        0.9191
  16        0.9295
  17        0.9435
  18        1.0115
  19        1.0344
  20        1.0858
  21        1.0864
  22        3.1360
  23        4.3501
  24        4.5432
  25        8.6159
  26        8.8020
  27        9.9369
  28       12.8570
  29       13.4067
  30       13.6887
  31       14.1356
  32       14.5096
 
  0.1666667E+00  0.4166667E-01  0.0000000E+00  0.1736111E-02
   1       -5.3524
   2       -1.5425
   3       -1.3995
   4       -1.3925
   5       -1.0948
   6       -1.0893
   7       -1.0892
   8       -0.1696
   9       -0.0314
  10       -0.0295
  11        0.4807
  12        0.5730
  13        0.7173
  14        0.7195
  15        0.8822
  16        0.8897
  17        0.9177
  18        0.9772
  19        0.9908
  20        1.0856
  21        1.0864
  22        2.5890
  23        4.6067
  24        4.8032
  25        8.6757
  26        8.8680
  27       10.7723
  28       12.2647
  29       12.8268
  30       13.2389
  31       13.7397
  32       14.6888
 
  0.2083333E+00  0.4166667E-01  0.0000000E+00  0.1736111E-02
   1       -5.1859
   2       -1.5770
   3       -1.3346
   4       -1.3285
   5       -1.0571
   6       -1.0469
   7       -1.0468
   8       -0.2095
   9        0.0032
  10        0.0041
  11        0.4461
  12        0.5615
  13        0.5659
  14        0.5887
  15        0.8364
  16        0.8430
  17        0.8720
  18        0.9373
  19        0.9463
  20        1.0856
  21        1.0864
  22        2.0519
  23        4.9097
  24        5.1122
  25        8.7547
  26        8.9552
  27       11.6666
  28       11.6938
  29       12.2204
  30       12.7655
  31       13.2813
  32       14.9161
 
  0.2500000E+00  0.4166667E-01  0.0000000E+00  0.1736111E-02
   1       -4.9842
   2       -1.6415
   3       -1.2609
   4       -1.2559
   5       -1.0124
   6       -0.9949
   7       -0.9945
   8       -0.2569
   9        0.0443
  10        0.0449
  11        0.3996
  12        0.4058
  13        0.4066
  14        0.6075
  15        0.7833
  16        0.7893
  17        0.8037
  18        0.8753
  19        0.9195
  20        1.0857
  21        1.0865
  22        1.5624
  23        5.2502
  24        5.4618
  25        8.8542
  26        9.0651
  27       11.0742
  28       11.6074
  29       12.2928
  30       12.6787
  31       12.8013
  32       15.1898
 
  0.2916667E+00  0.4166667E-01  0.0000000E+00  0.1736111E-02
   1       -4.7485
   2       -1.7520
   3       -1.1823
   4       -1.1783
   5       -0.9611
   6       -0.9331
   7       -0.9322
   8       -0.3107
   9        0.0904
  10        0.0936
  11        0.2375
  12        0.2450
  13        0.3646
  14        0.6289
  15        0.7082
  16        0.7255
  17        0.7308
  18        0.8066
  19        0.8913
  20        1.0858
  21        1.0865
  22        1.1601
  23        5.6219
  24        5.8459
  25        8.9760
  26        9.1997
  27       10.4936
  28       10.9986
  29       11.8360
  30       12.3241
  31       13.7138
  32       15.5069
 
  0.3333333E+00  0.4166667E-01  0.0000000E+00  0.1736111E-02
   1       -4.4808
   2       -1.9242
   3       -1.1035
   4       -1.1004
   5       -0.9042
   6       -0.8616
   7       -0.8597
   8       -0.3700
   9        0.0793
  10        0.0876
  11        0.1401
  12        0.1488
  13        0.3241
  14        0.5672
  15        0.6527
  16        0.6664
  17        0.6710
  18        0.7329
  19        0.8373
  20        0.9116
  21        1.0859
  22        1.0865
  23        6.0205
  24        6.2600
  25        9.1220
  26        9.3609
  27        9.9278
  28       10.4000
  29       11.4047
  30       11.8645
  31       14.7909
  32       15.8661
 
  0.3750000E+00  0.4166667E-01  0.0000000E+00  0.1736111E-02
   1       -4.1834
   2       -2.1649
   3       -1.0305
   4       -1.0281
   5       -0.8426
   6       -0.7801
   7       -0.7769
   8       -0.4337
   9       -0.0724
  10       -0.0637
  11        0.1846
  12        0.2099
  13        0.2965
  14        0.4012
  15        0.6105
  16        0.6143
  17        0.6560
  18        0.6784
  19        0.7126
  20        0.8538
  21        1.0860
  22        1.0865
  23        6.4426
  24        6.7010
  25        9.2940
  26        9.3783
  27        9.5508
  28        9.8154
  29       11.0046
  30       11.4319
  31       15.9034
  32       16.2634
 
  0.4166667E+00  0.4166667E-01  0.0000000E+00  0.1736111E-02
   1       -3.8602
   2       -2.4650
   3       -0.9702
   4       -0.9685
   5       -0.7772
   6       -0.6884
   7       -0.6837
   8       -0.5006
   9       -0.2157
  10       -0.2070
  11        0.1966
  12        0.2756
  13        0.2763
  14        0.3129
  15        0.5639
  16        0.5666
  17        0.5776
  18        0.6107
  19        0.7057
  20        0.8224
  21        1.0861
  22        1.0864
  23        6.8860
  24        7.1668
  25        8.8452
  26        9.2472
  27        9.4942
  28        9.7699
  29       10.6405
  30       11.0321
  31       16.6970
  32       16.7633
 
  0.4583333E+00  0.4166667E-01  0.0000000E+00  0.1736111E-02
   1       -3.5166
   2       -2.8042
   3       -0.9299
   4       -0.9289
   5       -0.7091
   6       -0.5862
   7       -0.5799
   8       -0.5697
   9       -0.3496
  10       -0.3413
  11        0.1839
  12        0.2062
  13        0.3473
  14        0.3706
  15        0.4991
  16        0.5229
  17        0.5327
  18        0.5342
  19        0.7341
  20        0.7926
  21        1.0862
  22        1.0864
  23        7.3489
  24        7.6556
  25        8.3292
  26        8.6969
  27        9.7228
  28       10.0063
  29       10.3276
  30       10.6698
  31       17.1642
  32       17.2403
 
  0.5000000E+00  0.4166667E-01  0.0000000E+00  0.8680556E-03
   1       -3.1605
   2       -3.1605
   3       -0.9153
   4       -0.9153
   5       -0.6396
   6       -0.6396
   7       -0.4732
   8       -0.4732
   9       -0.4657
  10       -0.4657
  11        0.1810
  12        0.1810
  13        0.4219
  14        0.4219
  15        0.4429
  16        0.4429
  17        0.5221
  18        0.5221
  19        0.7632
  20        0.7632
  21        1.0863
  22        1.0863
  23        7.8302
  24        7.8302
  25        8.1660
  26        8.1660
  27        9.9720
  28        9.9720
  29       10.3559
  30       10.3559
  31       17.6641
  32       17.7091
 
  0.8333333E-01  0.8333333E-01  0.0000000E+00  0.8680556E-03
   1       -5.5201
   2       -1.4942
   3       -1.4942
   4       -1.4606
   5       -1.1325
   6       -1.1325
   7       -1.1317
   8       -0.1235
   9       -0.0711
  10       -0.0644
  11        0.5248
  12        0.5499
  13        0.9111
  14        0.9206
  15        0.9206
  16        0.9302
  17        0.9806
  18        0.9806
  19        1.0666
  20        1.0666
  21        1.0759
  22        3.7664
  23        3.7664
  24        4.4656
  25        8.5992
  26        9.2625
  27        9.2625
  28       12.8208
  29       13.9969
  30       13.9969
  31       14.1518
  32       14.1518
 
  0.1250000E+00  0.8333333E-01  0.0000000E+00  0.1736111E-02
   1       -5.4268
   2       -1.5003
   3       -1.4538
   4       -1.4225
   5       -1.1112
   6       -1.1095
   7       -1.1089
   8       -0.1434
   9       -0.0546
  10       -0.0468
  11        0.5080
  12        0.5564
  13        0.8109
  14        0.8190
  15        0.8824
  16        0.9040
  17        0.9356
  18        0.9702
  19        1.0343
  20        1.0665
  21        1.0697
  22        3.2609
  23        3.9589
  24        4.6587
  25        8.6418
  26        9.3174
  27        9.9740
  28       12.1951
  29       13.4787
  30       13.7603
  31       14.1207
  32       14.2765
 
  0.1666667E+00  0.8333333E-01  0.0000000E+00  0.1736111E-02
   1       -5.2969
   2       -1.5157
   3       -1.3994
   4       -1.3710
   5       -1.0818
   6       -1.0771
   7       -1.0769
   8       -0.1734
   9       -0.0289
  10       -0.0226
  11        0.4819
  12        0.5691
  13        0.6785
  14        0.6823
  15        0.8288
  16        0.8682
  17        0.8949
  18        0.9553
  19        0.9907
  20        1.0665
  21        1.0668
  22        2.7188
  23        4.2047
  24        4.9115
  25        8.7025
  26        9.3957
  27       10.8126
  28       11.5677
  29       12.8968
  30       13.3069
  31       14.2922
  32       14.3754
 
  0.2083333E+00  0.8333333E-01  0.0000000E+00  0.1736111E-02
   1       -5.1309
   2       -1.5485
   3       -1.3331
   4       -1.3084
   5       -1.0447
   6       -1.0357
   7       -1.0352
   8       -0.2120
   9        0.0049
  10        0.0078
  11        0.4493
  12        0.5226
  13        0.5371
  14        0.5861
  15        0.7582
  16        0.8237
  17        0.8478
  18        0.9358
  19        0.9371
  20        1.0654
  21        1.0664
  22        2.1927
  23        4.4920
  24        5.2138
  25        8.7826
  26        9.4985
  27       10.9507
  28       11.7362
  29       12.2893
  30       12.8301
  31       14.0098
  32       14.5095
 
  0.2500000E+00  0.8333333E-01  0.0000000E+00  0.1736111E-02
   1       -4.9298
   2       -1.6109
   3       -1.2577
   4       -1.2371
   5       -1.0006
   6       -0.9853
   7       -0.9837
   8       -0.2581
   9        0.0435
  10        0.0462
  11        0.3614
  12        0.3839
  13        0.4128
  14        0.6065
  15        0.6674
  16        0.7722
  17        0.7941
  18        0.8750
  19        0.9111
  20        1.0647
  21        1.0663
  22        1.7214
  23        4.8121
  24        5.5574
  25        8.8836
  26        9.6275
  27       10.3507
  28       11.6758
  29       12.3544
  30       12.7223
  31       13.5778
  32       14.7704
 
  0.2916667E+00  0.8333333E-01  0.0000000E+00  0.1736111E-02
   1       -4.6949
   2       -1.7189
   3       -1.1770
   4       -1.1606
   5       -0.9501
   6       -0.9260
   7       -0.9223
   8       -0.3108
   9        0.0824
  10        0.0945
  11        0.2008
  12        0.2290
  13        0.3757
  14        0.5522
  15        0.6301
  16        0.7160
  17        0.7358
  18        0.8062
  19        0.8793
  20        1.0644
  21        1.0661
  22        1.3406
  23        5.1593
  24        5.9362
  25        9.0070
  26        9.7714
  27        9.7840
  28       11.0669
  29       11.8952
  30       13.1217
  31       13.7583
  32       15.0726
 
  0.3333333E+00  0.8333333E-01  0.0000000E+00  0.1736111E-02
   1       -4.4281
   2       -1.8884
   3       -1.0958
   4       -1.0831
   5       -0.8941
   6       -0.8581
   7       -0.8510
   8       -0.3689
   9        0.0447
  10        0.0765
  11        0.1197
  12        0.1494
  13        0.3452
  14        0.4170
  15        0.6563
  16        0.6585
  17        0.6759
  18        0.7325
  19        0.8333
  20        1.0644
  21        1.0660
  22        1.0767
  23        5.5298
  24        6.3458
  25        9.1535
  26        9.2161
  27        9.9695
  28       10.4688
  29       11.4623
  30       12.6661
  31       14.8361
  32       15.4135
 
  0.3750000E+00  0.8333333E-01  0.0000000E+00  0.1736111E-02
   1       -4.1320
   2       -2.1262
   3       -1.0202
   4       -1.0104
   5       -0.8334
   6       -0.7818
   7       -0.7695
   8       -0.4314
   9       -0.1042
  10       -0.0707
  11        0.1444
  12        0.2103
  13        0.2879
  14        0.3347
  15        0.6045
  16        0.6188
  17        0.6557
  18        0.6849
  19        0.7571
  20        0.9317
  21        1.0645
  22        1.0658
  23        5.9211
  24        6.7831
  25        8.6804
  26        9.3297
  27        9.8849
  28       10.1832
  29       11.0634
  30       12.2255
  31       15.7904
  32       15.9372
 
  0.4166667E+00  0.8333333E-01  0.0000000E+00  0.1736111E-02
   1       -3.8102
   2       -2.4235
   3       -0.9571
   4       -0.9498
   5       -0.7691
   6       -0.6965
   7       -0.6778
   8       -0.4972
   9       -0.2443
  10       -0.2106
  11        0.1459
  12        0.1944
  13        0.2765
  14        0.3585
  15        0.5598
  16        0.5702
  17        0.5772
  18        0.6591
  19        0.7154
  20        0.8630
  21        1.0647
  22        1.0656
  23        6.3319
  24        7.2456
  25        8.1691
  26        9.3178
  27        9.5324
  28       10.4053
  29       10.7228
  30       11.8091
  31       16.2005
  32       16.3905
 
  0.4583333E+00  0.8333333E-01  0.0000000E+00  0.1736111E-02
   1       -3.4682
   2       -2.7601
   3       -0.9140
   4       -0.9099
   5       -0.7022
   6       -0.6008
   7       -0.5759
   8       -0.5650
   9       -0.3744
  10       -0.3419
  11        0.1343
  12        0.1441
  13        0.3473
  14        0.4117
  15        0.4988
  16        0.5307
  17        0.5362
  18        0.5654
  19        0.7477
  20        0.8189
  21        1.0649
  22        1.0653
  23        6.7617
  24        7.6796
  25        7.7317
  26        8.7690
  27        9.7651
  28       10.3127
  29       10.7662
  30       11.4227
  31       16.6414
  32       16.8450
 
  0.5000000E+00  0.8333333E-01  0.0000000E+00  0.8680556E-03
   1       -3.1141
   2       -3.1141
   3       -0.8973
   4       -0.8973
   5       -0.6337
   6       -0.6337
   7       -0.4934
   8       -0.4934
   9       -0.4638
  10       -0.4638
  11        0.1286
  12        0.1286
  13        0.4218
  14        0.4218
  15        0.4824
  16        0.4824
  17        0.5223
  18        0.5223
  19        0.7819
  20        0.7819
  21        1.0651
  22        1.0651
  23        7.2107
  24        7.2107
  25        8.2399
  26        8.2399
  27       10.0281
  28       10.0281
  29       11.0711
  30       11.0711
  31       17.1103
  32       17.1103
 
  0.1250000E+00  0.1250000E+00  0.0000000E+00  0.8680556E-03
   1       -5.3340
   2       -1.4585
   3       -1.4585
   4       -1.3857
   5       -1.0887
   6       -1.0887
   7       -1.0870
   8       -0.1580
   9       -0.0428
  10       -0.0319
  11        0.4993
  12        0.5576
  13        0.7290
  14        0.7657
  15        0.7657
  16        0.8792
  17        0.9354
  18        0.9354
  19        1.0342
  20        1.0342
  21        1.0547
  22        3.4505
  23        3.4505
  24        4.8426
  25        8.6854
  26       10.0364
  27       10.0364
  28       11.5299
  29       13.5978
  30       13.5978
  31       13.8788
  32       13.8788
 
  0.1666667E+00  0.1250000E+00  0.0000000E+00  0.1736111E-02
   1       -5.2047
   2       -1.4719
   3       -1.4022
   4       -1.3361
   5       -1.0600
   6       -1.0571
   7       -1.0563
   8       -0.1834
   9       -0.0209
  10       -0.0114
  11        0.4790
  12        0.5681
  13        0.6179
  14        0.6204
  15        0.6975
  16        0.8451
  17        0.8966
  18        0.9277
  19        0.9904
  20        1.0340
  21        1.0445
  22        2.9100
  23        3.6884
  24        5.0853
  25        8.7476
  26       10.1249
  27       10.8767
  28       10.8802
  29       13.0127
  30       13.4194
  31       13.7627
  32       14.0431
 
  0.2083333E+00  0.1250000E+00  0.0000000E+00  0.1736111E-02
   1       -5.0395
   2       -1.5020
   3       -1.3334
   4       -1.2757
   5       -1.0239
   6       -1.0169
   7       -1.0162
   8       -0.2186
   9        0.0105
  10        0.0140
  11        0.4506
  12        0.4630
  13        0.4875
  14        0.5859
  15        0.6131
  16        0.8028
  17        0.8506
  18        0.9125
  19        0.9367
  20        1.0337
  21        1.0383
  22        2.3891
  23        3.9627
  24        5.3778
  25        8.8296
  26       10.2404
  27       10.2432
  28       11.8069
  29       12.4032
  30       12.9372
  31       13.9714
  32       14.2516
 
  0.2500000E+00  0.1250000E+00  0.0000000E+00  0.1736111E-02
   1       -4.8395
   2       -1.5610
   3       -1.2550
   4       -1.2068
   5       -0.9809
   6       -0.9691
   7       -0.9659
   8       -0.2619
   9        0.0427
  10        0.0501
  11        0.3025
  12        0.3465
  13        0.4184
  14        0.5115
  15        0.6090
  16        0.7537
  17        0.7978
  18        0.8745
  19        0.8892
  20        1.0334
  21        1.0347
  22        1.9240
  23        4.2656
  24        5.7124
  25        8.9326
  26        9.6338
  27       10.3837
  28       11.7888
  29       12.4569
  30       12.7950
  31       14.2220
  32       14.3687
 
  0.2916667E+00  0.1250000E+00  0.0000000E+00  0.1736111E-02
   1       -4.6060
   2       -1.6649
   3       -1.1708
   4       -1.1323
   5       -0.9318
   6       -0.9136
   7       -0.9061
   8       -0.3121
   9        0.0720
  10        0.0974
  11        0.1441
  12        0.2016
  13        0.3875
  14        0.3948
  15        0.6361
  16        0.7000
  17        0.7401
  18        0.8057
  19        0.8568
  20        1.0327
  21        1.0331
  22        1.5422
  23        4.5923
  24        6.0834
  25        9.0307
  26        9.0785
  27       10.5553
  28       11.1799
  29       11.9944
  30       13.8323
  31       13.9622
  32       14.5122
 
  0.3333333E+00  0.1250000E+00  0.0000000E+00  0.1736111E-02
   1       -4.3408
   2       -1.8299
   3       -1.0856
   4       -1.0558
   5       -0.8773
   6       -0.8516
   7       -0.8366
   8       -0.3679
   9       -0.0086
  10        0.0574
  11        0.0959
  12        0.1514
  13        0.2748
  14        0.3661
  15        0.6453
  16        0.6668
  17        0.6804
  18        0.7320
  19        0.8122
  20        1.0315
  21        1.0327
  22        1.2589
  23        4.9402
  24        6.4862
  25        8.4923
  26        9.2117
  27       10.5824
  28       10.7529
  29       11.5624
  30       13.5314
  31       14.8395
  32       14.9112
 
  0.3750000E+00  0.1250000E+00  0.0000000E+00  0.1736111E-02
   1       -4.0467
   2       -2.0629
   3       -1.0053
   4       -0.9822
   5       -0.8183
   6       -0.7839
   7       -0.7573
   8       -0.4282
   9       -0.1534
  10       -0.0828
  11        0.1058
  12        0.1727
  13        0.2116
  14        0.3653
  15        0.5941
  16        0.6231
  17        0.6552
  18        0.7007
  19        0.7508
  20        1.0310
  21        1.0323
  22        1.0696
  23        5.3081
  24        6.9176
  25        7.9637
  26        9.3894
  27        9.9998
  28       10.9355
  29       11.2081
  30       13.1009
  31       15.2015
  32       15.4906
 
  0.4166667E+00  0.1250000E+00  0.0000000E+00  0.1736111E-02
   1       -3.7273
   2       -2.3555
   3       -0.9372
   4       -0.9197
   5       -0.7557
   6       -0.7095
   7       -0.6683
   8       -0.4918
   9       -0.2888
  10       -0.2168
  11        0.0983
  12        0.1048
  13        0.2773
  14        0.3922
  15        0.5524
  16        0.5734
  17        0.5769
  18        0.6729
  19        0.7377
  20        0.9527
  21        1.0308
  22        1.0319
  23        5.6957
  24        7.3752
  25        7.4616
  26        9.4344
  27        9.5962
  28       10.7316
  29       11.3068
  30       12.6849
  31       15.5958
  32       15.8917
 
  0.4583333E+00  0.1250000E+00  0.0000000E+00  0.1736111E-02
   1       -3.3882
   2       -2.6876
   3       -0.8891
   4       -0.8789
   5       -0.6907
   6       -0.6244
   7       -0.5694
   8       -0.5576
   9       -0.4134
  10       -0.3431
  11        0.0730