<?xml version="1.0" encoding="ISO-8859-1"?>
<modeling>
 <generator>
  <i name="program" type="string">vasp</i>
  <i name="version" type="string">4.6.28 </i>
  <i name="subversion" type="string">25Jul05 complex  parallel</i>
  <i name="platform" type="string">LinuxIFC</i>
  <i name="date" type="string">2017 01 11</i>
  <i name="time" type="string">19:06:52</i>
 </generator>
 <incar>
  <i type="string" name="PREC">accurate</i>
  <i type="int" name="IALGO">    38</i>
  <i type="logical" name="ADDGRID"> T  </i>
  <i name="EDIFF">      0.00000001</i>
  <i type="int" name="IBRION">    -1</i>
  <i name="ENCUT">    800.00000000</i>
  <i type="logical" name="LREAL"> F  </i>
  <i type="int" name="ISMEAR">     0</i>
  <i name="SIGMA">      0.01000000</i>
  <i type="logical" name="LWAVE"> F  </i>
  <i type="logical" name="LCHARG"> F  </i>
 </incar>
 <kpoints>
  <generation param="Gamma">
   <v type="int" name="divisions">      24      24      24</v>
   <v name="usershift">      0.00000000      0.00000000      0.00000000</v>
   <v name="genvec1">      0.04166667      0.00000000      0.00000000</v>
   <v name="genvec2">      0.00000000      0.04166667      0.00000000</v>
   <v name="genvec3">      0.00000000      0.00000000      0.04166667</v>
   <v name="shift">      0.00000000      0.00000000      0.00000000</v>
  </generation>
  <varray name="kpointlist" >
   <v>       0.00000000      0.00000000      0.00000000</v>
   <v>       0.04166667      0.00000000      0.00000000</v>
   <v>       0.08333333      0.00000000      0.00000000</v>
   <v>       0.12500000      0.00000000      0.00000000</v>
   <v>       0.16666667      0.00000000      0.00000000</v>
   <v>       0.20833333      0.00000000      0.00000000</v>
   <v>       0.25000000      0.00000000      0.00000000</v>
   <v>       0.29166667      0.00000000      0.00000000</v>
   <v>       0.33333333      0.00000000      0.00000000</v>
   <v>       0.37500000      0.00000000      0.00000000</v>
   <v>       0.41666667      0.00000000      0.00000000</v>
   <v>       0.45833333      0.00000000      0.00000000</v>
   <v>       0.50000000      0.00000000      0.00000000</v>
   <v>       0.04166667      0.04166667      0.00000000</v>
   <v>       0.08333333      0.04166667      0.00000000</v>
   <v>       0.12500000      0.04166667      0.00000000</v>
   <v>       0.16666667      0.04166667      0.00000000</v>
   <v>       0.20833333      0.04166667      0.00000000</v>
   <v>       0.25000000      0.04166667      0.00000000</v>
   <v>       0.29166667      0.04166667      0.00000000</v>
   <v>       0.33333333      0.04166667      0.00000000</v>
   <v>       0.37500000      0.04166667      0.00000000</v>
   <v>       0.41666667      0.04166667      0.00000000</v>
   <v>       0.45833333      0.04166667      0.00000000</v>
   <v>       0.50000000      0.04166667      0.00000000</v>
   <v>       0.08333333      0.08333333      0.00000000</v>
   <v>       0.12500000      0.08333333      0.00000000</v>
   <v>       0.16666667      0.08333333      0.00000000</v>
   <v>       0.20833333      0.08333333      0.00000000</v>
   <v>       0.25000000      0.08333333      0.00000000</v>
   <v>       0.29166667      0.08333333      0.00000000</v>
   <v>       0.33333333      0.08333333      0.00000000</v>
   <v>       0.37500000      0.08333333      0.00000000</v>
   <v>       0.41666667      0.08333333      0.00000000</v>
   <v>       0.45833333      0.08333333      0.00000000</v>
   <v>       0.50000000      0.08333333      0.00000000</v>
   <v>       0.12500000      0.12500000      0.00000000</v>
   <v>       0.16666667      0.12500000      0.00000000</v>
   <v>       0.20833333      0.12500000      0.00000000</v>
   <v>       0.25000000      0.12500000      0.00000000</v>
   <v>       0.29166667      0.12500000      0.00000000</v>
   <v>       0.33333333      0.12500000      0.00000000</v>
   <v>       0.37500000      0.12500000      0.00000000</v>
   <v>       0.41666667      0.12500000      0.00000000</v>
   <v>       0.45833333      0.12500000      0.00000000</v>
   <v>       0.50000000      0.12500000      0.00000000</v>
   <v>       0.16666667      0.16666667      0.00000000</v>
   <v>       0.20833333      0.16666667      0.00000000</v>
   <v>       0.25000000      0.16666667      0.00000000</v>
   <v>       0.29166667      0.16666667      0.00000000</v>
   <v>       0.33333333      0.16666667      0.00000000</v>
   <v>       0.37500000      0.16666667      0.00000000</v>
   <v>       0.41666667      0.16666667      0.00000000</v>
   <v>       0.45833333      0.16666667      0.00000000</v>
   <v>       0.50000000      0.16666667      0.00000000</v>
   <v>       0.20833333      0.20833333      0.00000000</v>
   <v>       0.25000000      0.20833333      0.00000000</v>
   <v>       0.29166667      0.20833333      0.00000000</v>
   <v>       0.33333333      0.20833333      0.00000000</v>
   <v>       0.37500000      0.20833333      0.00000000</v>
   <v>       0.41666667      0.20833333      0.00000000</v>
   <v>       0.45833333      0.20833333      0.00000000</v>
   <v>       0.50000000      0.20833333      0.00000000</v>
   <v>       0.25000000      0.25000000      0.00000000</v>
   <v>       0.29166667      0.25000000      0.00000000</v>
   <v>       0.33333333      0.25000000      0.00000000</v>
   <v>       0.37500000      0.25000000      0.00000000</v>
   <v>       0.41666667      0.25000000      0.00000000</v>
   <v>       0.45833333      0.25000000      0.00000000</v>
   <v>       0.50000000      0.25000000      0.00000000</v>
   <v>       0.29166667      0.29166667      0.00000000</v>
   <v>       0.33333333      0.29166667      0.00000000</v>
   <v>       0.37500000      0.29166667      0.00000000</v>
   <v>       0.41666667      0.29166667      0.00000000</v>
   <v>       0.45833333      0.29166667      0.00000000</v>
   <v>       0.50000000      0.29166667      0.00000000</v>
   <v>       0.33333333      0.33333333      0.00000000</v>
   <v>       0.37500000      0.33333333      0.00000000</v>
   <v>       0.41666667      0.33333333      0.00000000</v>
   <v>       0.45833333      0.33333333      0.00000000</v>
   <v>       0.50000000      0.33333333      0.00000000</v>
   <v>       0.37500000      0.37500000      0.00000000</v>
   <v>       0.41666667      0.37500000      0.00000000</v>
   <v>       0.45833333      0.37500000      0.00000000</v>
   <v>       0.50000000      0.37500000      0.00000000</v>
   <v>       0.41666667      0.41666667      0.00000000</v>
   <v>       0.45833333      0.41666667      0.00000000</v>
   <v>       0.50000000      0.41666667      0.00000000</v>
   <v>       0.45833333      0.45833333      0.00000000</v>
   <v>       0.50000000      0.45833333      0.00000000</v>
   <v>       0.50000000      0.50000000      0.00000000</v>
   <v>       0.04166667      0.04166667      0.04166667</v>
   <v>       0.08333333      0.04166667      0.04166667</v>
   <v>       0.12500000      0.04166667      0.04166667</v>
   <v>       0.16666667      0.04166667      0.04166667</v>
   <v>       0.20833333      0.04166667      0.04166667</v>
   <v>       0.25000000      0.04166667      0.04166667</v>
   <v>       0.29166667      0.04166667      0.04166667</v>
   <v>       0.33333333      0.04166667      0.04166667</v>
   <v>       0.37500000      0.04166667      0.04166667</v>
   <v>       0.41666667      0.04166667      0.04166667</v>
   <v>       0.45833333      0.04166667      0.04166667</v>
   <v>       0.50000000      0.04166667      0.04166667</v>
   <v>       0.08333333      0.08333333      0.04166667</v>
   <v>       0.12500000      0.08333333      0.04166667</v>
   <v>       0.16666667      0.08333333      0.04166667</v>
   <v>       0.20833333      0.08333333      0.04166667</v>
   <v>       0.25000000      0.08333333      0.04166667</v>
   <v>       0.29166667      0.08333333      0.04166667</v>
   <v>       0.33333333      0.08333333      0.04166667</v>
   <v>       0.37500000      0.08333333      0.04166667</v>
   <v>       0.41666667      0.08333333      0.04166667</v>
   <v>       0.45833333      0.08333333      0.04166667</v>
   <v>       0.50000000      0.08333333      0.04166667</v>
   <v>       0.12500000      0.12500000      0.04166667</v>
   <v>       0.16666667      0.12500000      0.04166667</v>
   <v>       0.20833333      0.12500000      0.04166667</v>
   <v>       0.25000000      0.12500000      0.04166667</v>
   <v>       0.29166667      0.12500000      0.04166667</v>
   <v>       0.33333333      0.12500000      0.04166667</v>
   <v>       0.37500000      0.12500000      0.04166667</v>
   <v>       0.41666667      0.12500000      0.04166667</v>
   <v>       0.45833333      0.12500000      0.04166667</v>
   <v>       0.50000000      0.12500000      0.04166667</v>
   <v>       0.16666667      0.16666667      0.04166667</v>
   <v>       0.20833333      0.16666667      0.04166667</v>
   <v>       0.25000000      0.16666667      0.04166667</v>
   <v>       0.29166667      0.16666667      0.04166667</v>
   <v>       0.33333333      0.16666667      0.04166667</v>
   <v>       0.37500000      0.16666667      0.04166667</v>
   <v>       0.41666667      0.16666667      0.04166667</v>
   <v>       0.45833333      0.16666667      0.04166667</v>
   <v>       0.50000000      0.16666667      0.04166667</v>
   <v>       0.20833333      0.20833333      0.04166667</v>
   <v>       0.25000000      0.20833333      0.04166667</v>
   <v>       0.29166667      0.20833333      0.04166667</v>
   <v>       0.33333333      0.20833333      0.04166667</v>
   <v>       0.37500000      0.20833333      0.04166667</v>
   <v>       0.41666667      0.20833333      0.04166667</v>
   <v>       0.45833333      0.20833333      0.04166667</v>
   <v>       0.50000000      0.20833333      0.04166667</v>
   <v>       0.25000000      0.25000000      0.04166667</v>
   <v>       0.29166667      0.25000000      0.04166667</v>
   <v>       0.33333333      0.25000000      0.04166667</v>
   <v>       0.37500000      0.25000000      0.04166667</v>
   <v>       0.41666667      0.25000000      0.04166667</v>
   <v>       0.45833333      0.25000000      0.04166667</v>
   <v>       0.50000000      0.25000000      0.04166667</v>
   <v>       0.29166667      0.29166667      0.04166667</v>
   <v>       0.33333333      0.29166667      0.04166667</v>
   <v>       0.37500000      0.29166667      0.04166667</v>
   <v>       0.41666667      0.29166667      0.04166667</v>
   <v>       0.45833333      0.29166667      0.04166667</v>
   <v>       0.50000000      0.29166667      0.04166667</v>
   <v>       0.33333333      0.33333333      0.04166667</v>
   <v>       0.37500000      0.33333333      0.04166667</v>
   <v>       0.41666667      0.33333333      0.04166667</v>
   <v>       0.45833333      0.33333333      0.04166667</v>
   <v>       0.50000000      0.33333333      0.04166667</v>
   <v>       0.37500000      0.37500000      0.04166667</v>
   <v>       0.41666667      0.37500000      0.04166667</v>
   <v>       0.45833333      0.37500000      0.04166667</v>
   <v>       0.50000000      0.37500000      0.04166667</v>
   <v>       0.41666667      0.41666667      0.04166667</v>
   <v>       0.45833333      0.41666667      0.04166667</v>
   <v>       0.50000000      0.41666667      0.04166667</v>
   <v>       0.45833333      0.45833333      0.04166667</v>
   <v>       0.50000000      0.45833333      0.04166667</v>
   <v>       0.50000000      0.50000000      0.04166667</v>
   <v>       0.08333333      0.08333333      0.08333333</v>
   <v>       0.12500000      0.08333333      0.08333333</v>
   <v>       0.16666667      0.08333333      0.08333333</v>
   <v>       0.20833333      0.08333333      0.08333333</v>
   <v>       0.25000000      0.08333333      0.08333333</v>
   <v>       0.29166667      0.08333333      0.08333333</v>
   <v>       0.33333333      0.08333333      0.08333333</v>
   <v>       0.37500000      0.08333333      0.08333333</v>
   <v>       0.41666667      0.08333333      0.08333333</v>
   <v>       0.45833333      0.08333333      0.08333333</v>
   <v>       0.50000000      0.08333333      0.08333333</v>
   <v>       0.12500000      0.12500000      0.08333333</v>
   <v>       0.16666667      0.12500000      0.08333333</v>
   <v>       0.20833333      0.12500000      0.08333333</v>
   <v>       0.25000000      0.12500000      0.08333333</v>
   <v>       0.29166667      0.12500000      0.08333333</v>
   <v>       0.33333333      0.12500000      0.08333333</v>
   <v>       0.37500000      0.12500000      0.08333333</v>
   <v>       0.41666667      0.12500000      0.08333333</v>
   <v>       0.45833333      0.12500000      0.08333333</v>
   <v>       0.50000000      0.12500000      0.08333333</v>
   <v>       0.16666667      0.16666667      0.08333333</v>
   <v>       0.20833333      0.16666667      0.08333333</v>
   <v>       0.25000000      0.16666667      0.08333333</v>
   <v>       0.29166667      0.16666667      0.08333333</v>
   <v>       0.33333333      0.16666667      0.08333333</v>
   <v>       0.37500000      0.16666667      0.08333333</v>
   <v>       0.41666667      0.16666667      0.08333333</v>
   <v>       0.45833333      0.16666667      0.08333333</v>
   <v>       0.50000000      0.16666667      0.08333333</v>
   <v>       0.20833333      0.20833333      0.08333333</v>
   <v>       0.25000000      0.20833333      0.08333333</v>
   <v>       0.29166667      0.20833333      0.08333333</v>
   <v>       0.33333333      0.20833333      0.08333333</v>
   <v>       0.37500000      0.20833333      0.08333333</v>
   <v>       0.41666667      0.20833333      0.08333333</v>
   <v>       0.45833333      0.20833333      0.08333333</v>
   <v>       0.50000000      0.20833333      0.08333333</v>
   <v>       0.25000000      0.25000000      0.08333333</v>
   <v>       0.29166667      0.25000000      0.08333333</v>
   <v>       0.33333333      0.25000000      0.08333333</v>
   <v>       0.37500000      0.25000000      0.08333333</v>
   <v>       0.41666667      0.25000000      0.08333333</v>
   <v>       0.45833333      0.25000000      0.08333333</v>
   <v>       0.50000000      0.25000000      0.08333333</v>
   <v>       0.29166667      0.29166667      0.08333333</v>
   <v>       0.33333333      0.29166667      0.08333333</v>
   <v>       0.37500000      0.29166667      0.08333333</v>
   <v>       0.41666667      0.29166667      0.08333333</v>
   <v>       0.45833333      0.29166667      0.08333333</v>
   <v>       0.50000000      0.29166667      0.08333333</v>
   <v>       0.33333333      0.33333333      0.08333333</v>
   <v>       0.37500000      0.33333333      0.08333333</v>
   <v>       0.41666667      0.33333333      0.08333333</v>
   <v>       0.45833333      0.33333333      0.08333333</v>
   <v>       0.50000000      0.33333333      0.08333333</v>
   <v>       0.37500000      0.37500000      0.08333333</v>
   <v>       0.41666667      0.37500000      0.08333333</v>
   <v>       0.45833333      0.37500000      0.08333333</v>
   <v>       0.50000000      0.37500000      0.08333333</v>
   <v>       0.41666667      0.41666667      0.08333333</v>
   <v>       0.45833333      0.41666667      0.08333333</v>
   <v>       0.50000000      0.41666667      0.08333333</v>
   <v>       0.45833333      0.45833333      0.08333333</v>
   <v>       0.50000000      0.45833333      0.08333333</v>
   <v>       0.50000000      0.50000000      0.08333333</v>
   <v>       0.12500000      0.12500000      0.12500000</v>
   <v>       0.16666667      0.12500000      0.12500000</v>
   <v>       0.20833333      0.12500000      0.12500000</v>
   <v>       0.25000000      0.12500000      0.12500000</v>
   <v>       0.29166667      0.12500000      0.12500000</v>
   <v>       0.33333333      0.12500000      0.12500000</v>
   <v>       0.37500000      0.12500000      0.12500000</v>
   <v>       0.41666667      0.12500000      0.12500000</v>
   <v>       0.45833333      0.12500000      0.12500000</v>
   <v>       0.50000000      0.12500000      0.12500000</v>
   <v>       0.16666667      0.16666667      0.12500000</v>
   <v>       0.20833333      0.16666667      0.12500000</v>
   <v>       0.25000000      0.16666667      0.12500000</v>
   <v>       0.29166667      0.16666667      0.12500000</v>
   <v>       0.33333333      0.16666667      0.12500000</v>
   <v>       0.37500000      0.16666667      0.12500000</v>
   <v>       0.41666667      0.16666667      0.12500000</v>
   <v>       0.45833333      0.16666667      0.12500000</v>
   <v>       0.50000000      0.16666667      0.12500000</v>
   <v>       0.20833333      0.20833333      0.12500000</v>
   <v>       0.25000000      0.20833333      0.12500000</v>
   <v>       0.29166667      0.20833333      0.12500000</v>
   <v>       0.33333333      0.20833333      0.12500000</v>
   <v>       0.37500000      0.20833333      0.12500000</v>
   <v>       0.41666667      0.20833333      0.12500000</v>
   <v>       0.45833333      0.20833333      0.12500000</v>
   <v>       0.50000000      0.20833333      0.12500000</v>
   <v>       0.25000000      0.25000000      0.12500000</v>
   <v>       0.29166667      0.25000000      0.12500000</v>
   <v>       0.33333333      0.25000000      0.12500000</v>
   <v>       0.37500000      0.25000000      0.12500000</v>
   <v>       0.41666667      0.25000000      0.12500000</v>
   <v>       0.45833333      0.25000000      0.12500000</v>
   <v>       0.50000000      0.25000000      0.12500000</v>
   <v>       0.29166667      0.29166667      0.12500000</v>
   <v>       0.33333333      0.29166667      0.12500000</v>
   <v>       0.37500000      0.29166667      0.12500000</v>
   <v>       0.41666667      0.29166667      0.12500000</v>
   <v>       0.45833333      0.29166667      0.12500000</v>
   <v>       0.50000000      0.29166667      0.12500000</v>
   <v>       0.33333333      0.33333333      0.12500000</v>
   <v>       0.37500000      0.33333333      0.12500000</v>
   <v>       0.41666667      0.33333333      0.12500000</v>
   <v>       0.45833333      0.33333333      0.12500000</v>
   <v>       0.50000000      0.33333333      0.12500000</v>
   <v>       0.37500000      0.37500000      0.12500000</v>
   <v>       0.41666667      0.37500000      0.12500000</v>
   <v>       0.45833333      0.37500000      0.12500000</v>
   <v>       0.50000000      0.37500000      0.12500000</v>
   <v>       0.41666667      0.41666667      0.12500000</v>
   <v>       0.45833333      0.41666667      0.12500000</v>
   <v>       0.50000000      0.41666667      0.12500000</v>
   <v>       0.45833333      0.45833333      0.12500000</v>
   <v>       0.50000000      0.45833333      0.12500000</v>
   <v>       0.50000000      0.50000000      0.12500000</v>
   <v>       0.16666667      0.16666667      0.16666667</v>
   <v>       0.20833333      0.16666667      0.16666667</v>
   <v>       0.25000000      0.16666667      0.16666667</v>
   <v>       0.29166667      0.16666667      0.16666667</v>
   <v>       0.33333333      0.16666667      0.16666667</v>
   <v>       0.37500000      0.16666667      0.16666667</v>
   <v>       0.41666667      0.16666667      0.16666667</v>
   <v>       0.45833333      0.16666667      0.16666667</v>
   <v>       0.50000000      0.16666667      0.16666667</v>
   <v>       0.20833333      0.20833333      0.16666667</v>
   <v>       0.25000000      0.20833333      0.16666667</v>
   <v>       0.29166667      0.20833333      0.16666667</v>
   <v>       0.33333333      0.20833333      0.16666667</v>
   <v>       0.37500000      0.20833333      0.16666667</v>
   <v>       0.41666667      0.20833333      0.16666667</v>
   <v>       0.45833333      0.20833333      0.16666667</v>
   <v>       0.50000000      0.20833333      0.16666667</v>
   <v>       0.25000000      0.25000000      0.16666667</v>
   <v>       0.29166667      0.25000000      0.16666667</v>
   <v>       0.33333333      0.25000000      0.16666667</v>
   <v>       0.37500000      0.25000000      0.16666667</v>
   <v>       0.41666667      0.25000000      0.16666667</v>
   <v>       0.45833333      0.25000000      0.16666667</v>
   <v>       0.50000000      0.25000000      0.16666667</v>
   <v>       0.29166667      0.29166667      0.16666667</v>
   <v>       0.33333333      0.29166667      0.16666667</v>
   <v>       0.37500000      0.29166667      0.16666667</v>
   <v>       0.41666667      0.29166667      0.16666667</v>
   <v>       0.45833333      0.29166667      0.16666667</v>
   <v>       0.50000000      0.29166667      0.16666667</v>
   <v>       0.33333333      0.33333333      0.16666667</v>
   <v>       0.37500000      0.33333333      0.16666667</v>
   <v>       0.41666667      0.33333333      0.16666667</v>
   <v>       0.45833333      0.33333333      0.16666667</v>
   <v>       0.50000000      0.33333333      0.16666667</v>
   <v>       0.37500000      0.37500000      0.16666667</v>
   <v>       0.41666667      0.37500000      0.16666667</v>
   <v>       0.45833333      0.37500000      0.16666667</v>
   <v>       0.50000000      0.37500000      0.16666667</v>
   <v>       0.41666667      0.41666667      0.16666667</v>
   <v>       0.45833333      0.41666667      0.16666667</v>
   <v>       0.50000000      0.41666667      0.16666667</v>
   <v>       0.45833333      0.45833333      0.16666667</v>
   <v>       0.50000000      0.45833333      0.16666667</v>
   <v>       0.50000000      0.50000000      0.16666667</v>
   <v>       0.20833333      0.20833333      0.20833333</v>
   <v>       0.25000000      0.20833333      0.20833333</v>
   <v>       0.29166667      0.20833333      0.20833333</v>
   <v>       0.33333333      0.20833333      0.20833333</v>
   <v>       0.37500000      0.20833333      0.20833333</v>
   <v>       0.41666667      0.20833333      0.20833333</v>
   <v>       0.45833333      0.20833333      0.20833333</v>
   <v>       0.50000000      0.20833333      0.20833333</v>
   <v>       0.25000000      0.25000000      0.20833333</v>
   <v>       0.29166667      0.25000000      0.20833333</v>
   <v>       0.33333333      0.25000000      0.20833333</v>
   <v>       0.37500000      0.25000000      0.20833333</v>
   <v>       0.41666667      0.25000000      0.20833333</v>
   <v>       0.45833333      0.25000000      0.20833333</v>
   <v>       0.50000000      0.25000000      0.20833333</v>
   <v>       0.29166667      0.29166667      0.20833333</v>
   <v>       0.33333333      0.29166667      0.20833333</v>
   <v>       0.37500000      0.29166667      0.20833333</v>
   <v>       0.41666667      0.29166667      0.20833333</v>
   <v>       0.45833333      0.29166667      0.20833333</v>
   <v>       0.50000000      0.29166667      0.20833333</v>
   <v>       0.33333333      0.33333333      0.20833333</v>
   <v>       0.37500000      0.33333333      0.20833333</v>
   <v>       0.41666667      0.33333333      0.20833333</v>
   <v>       0.45833333      0.33333333      0.20833333</v>
   <v>       0.50000000      0.33333333      0.20833333</v>
   <v>       0.37500000      0.37500000      0.20833333</v>
   <v>       0.41666667      0.37500000      0.20833333</v>
   <v>       0.45833333      0.37500000      0.20833333</v>
   <v>       0.50000000      0.37500000      0.20833333</v>
   <v>       0.41666667      0.41666667      0.20833333</v>
   <v>       0.45833333      0.41666667      0.20833333</v>
   <v>       0.50000000      0.41666667      0.20833333</v>
   <v>       0.45833333      0.45833333      0.20833333</v>
   <v>       0.50000000      0.45833333      0.20833333</v>
   <v>       0.50000000      0.50000000      0.20833333</v>
   <v>       0.25000000      0.25000000      0.25000000</v>
   <v>       0.29166667      0.25000000      0.25000000</v>
   <v>       0.33333333      0.25000000      0.25000000</v>
   <v>       0.37500000      0.25000000      0.25000000</v>
   <v>       0.41666667      0.25000000      0.25000000</v>
   <v>       0.45833333      0.25000000      0.25000000</v>
   <v>       0.50000000      0.25000000      0.25000000</v>
   <v>       0.29166667      0.29166667      0.25000000</v>
   <v>       0.33333333      0.29166667      0.25000000</v>
   <v>       0.37500000      0.29166667      0.25000000</v>
   <v>       0.41666667      0.29166667      0.25000000</v>
   <v>       0.45833333      0.29166667      0.25000000</v>
   <v>       0.50000000      0.29166667      0.25000000</v>
   <v>       0.33333333      0.33333333      0.25000000</v>
   <v>       0.37500000      0.33333333      0.25000000</v>
   <v>       0.41666667      0.33333333      0.25000000</v>
   <v>       0.45833333      0.33333333      0.25000000</v>
   <v>       0.50000000      0.33333333      0.25000000</v>
   <v>       0.37500000      0.37500000      0.25000000</v>
   <v>       0.41666667      0.37500000      0.25000000</v>
   <v>       0.45833333      0.37500000      0.25000000</v>
   <v>       0.50000000      0.37500000      0.25000000</v>
   <v>       0.41666667      0.41666667      0.25000000</v>
   <v>       0.45833333      0.41666667      0.25000000</v>
   <v>       0.50000000      0.41666667      0.25000000</v>
   <v>       0.45833333      0.45833333      0.25000000</v>
   <v>       0.50000000      0.45833333      0.25000000</v>
   <v>       0.50000000      0.50000000      0.25000000</v>
   <v>       0.29166667      0.29166667      0.29166667</v>
   <v>       0.33333333      0.29166667      0.29166667</v>
   <v>       0.37500000      0.29166667      0.29166667</v>
   <v>       0.41666667      0.29166667      0.29166667</v>
   <v>       0.45833333      0.29166667      0.29166667</v>
   <v>       0.50000000      0.29166667      0.29166667</v>
   <v>       0.33333333      0.33333333      0.29166667</v>
   <v>       0.37500000      0.33333333      0.29166667</v>
   <v>       0.41666667      0.33333333      0.29166667</v>
   <v>       0.45833333      0.33333333      0.29166667</v>
   <v>       0.50000000      0.33333333      0.29166667</v>
   <v>       0.37500000      0.37500000      0.29166667</v>
   <v>       0.41666667      0.37500000      0.29166667</v>
   <v>       0.45833333      0.37500000      0.29166667</v>
   <v>       0.50000000      0.37500000      0.29166667</v>
   <v>       0.41666667      0.41666667      0.29166667</v>
   <v>       0.45833333      0.41666667      0.29166667</v>
   <v>       0.50000000      0.41666667      0.29166667</v>
   <v>       0.45833333      0.45833333      0.29166667</v>
   <v>       0.50000000      0.45833333      0.29166667</v>
   <v>       0.50000000      0.50000000      0.29166667</v>
   <v>       0.33333333      0.33333333      0.33333333</v>
   <v>       0.37500000      0.33333333      0.33333333</v>
   <v>       0.41666667      0.33333333      0.33333333</v>
   <v>       0.45833333      0.33333333      0.33333333</v>
   <v>       0.50000000      0.33333333      0.33333333</v>
   <v>       0.37500000      0.37500000      0.33333333</v>
   <v>       0.41666667      0.37500000      0.33333333</v>
   <v>       0.45833333      0.37500000      0.33333333</v>
   <v>       0.50000000      0.37500000      0.33333333</v>
   <v>       0.41666667      0.41666667      0.33333333</v>
   <v>       0.45833333      0.41666667      0.33333333</v>
   <v>       0.50000000      0.41666667      0.33333333</v>
   <v>       0.45833333      0.45833333      0.33333333</v>
   <v>       0.50000000      0.45833333      0.33333333</v>
   <v>       0.50000000      0.50000000      0.33333333</v>
   <v>       0.37500000      0.37500000      0.37500000</v>
   <v>       0.41666667      0.37500000      0.37500000</v>
   <v>       0.45833333      0.37500000      0.37500000</v>
   <v>       0.50000000      0.37500000      0.37500000</v>
   <v>       0.41666667      0.41666667      0.37500000</v>
   <v>       0.45833333      0.41666667      0.37500000</v>
   <v>       0.50000000      0.41666667      0.37500000</v>
   <v>       0.45833333      0.45833333      0.37500000</v>
   <v>       0.50000000      0.45833333      0.37500000</v>
   <v>       0.50000000      0.50000000      0.37500000</v>
   <v>       0.41666667      0.41666667      0.41666667</v>
   <v>       0.45833333      0.41666667      0.41666667</v>
   <v>       0.50000000      0.41666667      0.41666667</v>
   <v>       0.45833333      0.45833333      0.41666667</v>
   <v>       0.50000000      0.45833333      0.41666667</v>
   <v>       0.50000000      0.50000000      0.41666667</v>
   <v>       0.45833333      0.45833333      0.45833333</v>
   <v>       0.50000000      0.45833333      0.45833333</v>
   <v>       0.50000000      0.50000000      0.45833333</v>
   <v>       0.50000000      0.50000000      0.50000000</v>
  </varray>
  <varray name="weights" >
   <v>       0.00007234</v>
   <v>       0.00043403</v>
   <v>       0.00043403</v>
   <v>       0.00043403</v>
   <v>       0.00043403</v>
   <v>       0.00043403</v>
   <v>       0.00043403</v>
   <v>       0.00043403</v>
   <v>       0.00043403</v>
   <v>       0.00043403</v>
   <v>       0.00043403</v>
   <v>       0.00043403</v>
   <v>       0.00021701</v>
   <v>       0.00086806</v>
   <v>       0.00173611</v>
   <v>       0.00173611</v>
   <v>       0.00173611</v>
   <v>       0.00173611</v>
   <v>       0.00173611</v>
   <v>       0.00173611</v>
   <v>       0.00173611</v>
   <v>       0.00173611</v>
   <v>       0.00173611</v>
   <v>       0.00173611</v>
   <v>       0.00086806</v>
   <v>       0.00086806</v>
   <v>       0.00173611</v>
   <v>       0.00173611</v>
   <v>       0.00173611</v>
   <v>       0.00173611</v>
   <v>       0.00173611</v>
   <v>       0.00173611</v>
   <v>       0.00173611</v>
   <v>       0.00173611</v>
   <v>       0.00173611</v>
   <v>       0.00086806</v>
   <v>       0.00086806</v>
   <v>       0.00173611</v>
   <v>       0.00173611</v>
   <v>       0.00173611</v>
   <v>       0.00173611</v>
   <v>       0.00173611</v>
   <v>       0.00173611</v>
   <v>       0.00173611</v>
   <v>       0.00173611</v>
   <v>       0.00086806</v>
   <v>       0.00086806</v>
   <v>       0.00173611</v>
   <v>       0.00173611</v>
   <v>       0.00173611</v>
   <v>       0.00173611</v>
   <v>       0.00173611</v>
   <v>       0.00173611</v>
   <v>       0.00173611</v>
   <v>       0.00086806</v>
   <v>       0.00086806</v>
   <v>       0.00173611</v>
   <v>       0.00173611</v>
   <v>       0.00173611</v>
   <v>       0.00173611</v>
   <v>       0.00173611</v>
   <v>       0.00173611</v>
   <v>       0.00086806</v>
   <v>       0.00086806</v>
   <v>       0.00173611</v>
   <v>       0.00173611</v>
   <v>       0.00173611</v>
   <v>       0.00173611</v>
   <v>       0.00173611</v>
   <v>       0.00086806</v>
   <v>       0.00086806</v>
   <v>       0.00173611</v>
   <v>       0.00173611</v>
   <v>       0.00173611</v>
   <v>       0.00173611</v>
   <v>       0.00086806</v>
   <v>       0.00086806</v>
   <v>       0.00173611</v>
   <v>       0.00173611</v>
   <v>       0.00173611</v>
   <v>       0.00086806</v>
   <v>       0.00086806</v>
   <v>       0.00173611</v>
   <v>       0.00173611</v>
   <v>       0.00086806</v>
   <v>       0.00086806</v>
   <v>       0.00173611</v>
   <v>       0.00086806</v>
   <v>       0.00086806</v>
   <v>       0.00086806</v>
   <v>       0.00021701</v>
   <v>       0.00057870</v>
   <v>       0.00173611</v>
   <v>       0.00173611</v>
   <v>       0.00173611</v>
   <v>       0.00173611</v>
   <v>       0.00173611</v>
   <v>       0.00173611</v>
   <v>       0.00173611</v>
   <v>       0.00173611</v>
   <v>       0.00173611</v>
   <v>       0.00173611</v>
   <v>       0.00086806</v>
   <v>       0.00173611</v>
   <v>       0.00347222</v>
   <v>       0.00347222</v>
   <v>       0.00347222</v>
   <v>       0.00347222</v>
   <v>       0.00347222</v>
   <v>       0.00347222</v>
   <v>       0.00347222</v>
   <v>       0.00347222</v>
   <v>       0.00347222</v>
   <v>       0.00173611</v>
   <v>       0.00173611</v>
   <v>       0.00347222</v>
   <v>       0.00347222</v>
   <v>       0.00347222</v>
   <v>       0.00347222</v>
   <v>       0.00347222</v>
   <v>       0.00347222</v>
   <v>       0.00347222</v>
   <v>       0.00347222</v>
   <v>       0.00173611</v>
   <v>       0.00173611</v>
   <v>       0.00347222</v>
   <v>       0.00347222</v>
   <v>       0.00347222</v>
   <v>       0.00347222</v>
   <v>       0.00347222</v>
   <v>       0.00347222</v>
   <v>       0.00347222</v>
   <v>       0.00173611</v>
   <v>       0.00173611</v>
   <v>       0.00347222</v>
   <v>       0.00347222</v>
   <v>       0.00347222</v>
   <v>       0.00347222</v>
   <v>       0.00347222</v>
   <v>       0.00347222</v>
   <v>       0.00173611</v>
   <v>       0.00173611</v>
   <v>       0.00347222</v>
   <v>       0.00347222</v>
   <v>       0.00347222</v>
   <v>       0.00347222</v>
   <v>       0.00347222</v>
   <v>       0.00173611</v>
   <v>       0.00173611</v>
   <v>       0.00347222</v>
   <v>       0.00347222</v>
   <v>       0.00347222</v>
   <v>       0.00347222</v>
   <v>       0.00173611</v>
   <v>       0.00173611</v>
   <v>       0.00347222</v>
   <v>       0.00347222</v>
   <v>       0.00347222</v>
   <v>       0.00173611</v>
   <v>       0.00173611</v>
   <v>       0.00347222</v>
   <v>       0.00347222</v>
   <v>       0.00173611</v>
   <v>       0.00173611</v>
   <v>       0.00347222</v>
   <v>       0.00173611</v>
   <v>       0.00173611</v>
   <v>       0.00173611</v>
   <v>       0.00043403</v>
   <v>       0.00057870</v>
   <v>       0.00173611</v>
   <v>       0.00173611</v>
   <v>       0.00173611</v>
   <v>       0.00173611</v>
   <v>       0.00173611</v>
   <v>       0.00173611</v>
   <v>       0.00173611</v>
   <v>       0.00173611</v>
   <v>       0.00173611</v>
   <v>       0.00086806</v>
   <v>       0.00173611</v>
   <v>       0.00347222</v>
   <v>       0.00347222</v>
   <v>       0.00347222</v>
   <v>       0.00347222</v>
   <v>       0.00347222</v>
   <v>       0.00347222</v>
   <v>       0.00347222</v>
   <v>       0.00347222</v>
   <v>       0.00173611</v>
   <v>       0.00173611</v>
   <v>       0.00347222</v>
   <v>       0.00347222</v>
   <v>       0.00347222</v>
   <v>       0.00347222</v>
   <v>       0.00347222</v>
   <v>       0.00347222</v>
   <v>       0.00347222</v>
   <v>       0.00173611</v>
   <v>       0.00173611</v>
   <v>       0.00347222</v>
   <v>       0.00347222</v>
   <v>       0.00347222</v>
   <v>       0.00347222</v>
   <v>       0.00347222</v>
   <v>       0.00347222</v>
   <v>       0.00173611</v>
   <v>       0.00173611</v>
   <v>       0.00347222</v>
   <v>       0.00347222</v>
   <v>       0.00347222</v>
   <v>       0.00347222</v>
   <v>       0.00347222</v>
   <v>       0.00173611</v>
   <v>       0.00173611</v>
   <v>       0.00347222</v>
   <v>       0.00347222</v>
   <v>       0.00347222</v>
   <v>       0.00347222</v>
   <v>       0.00173611</v>
   <v>       0.00173611</v>
   <v>       0.00347222</v>
   <v>       0.00347222</v>
   <v>       0.00347222</v>
   <v>       0.00173611</v>
   <v>       0.00173611</v>
   <v>       0.00347222</v>
   <v>       0.00347222</v>
   <v>       0.00173611</v>
   <v>       0.00173611</v>
   <v>       0.00347222</v>
   <v>       0.00173611</v>
   <v>       0.00173611</v>
   <v>       0.00173611</v>
   <v>       0.00043403</v>
   <v>       0.00057870</v>
   <v>       0.00173611</v>
   <v>       0.00173611</v>
   <v>       0.00173611</v>
   <v>       0.00173611</v>
   <v>       0.00173611</v>
   <v>       0.00173611</v>
   <v>       0.00173611</v>
   <v>       0.00173611</v>
   <v>       0.00086806</v>
   <v>       0.00173611</v>
   <v>       0.00347222</v>
   <v>       0.00347222</v>
   <v>       0.00347222</v>
   <v>       0.00347222</v>
   <v>       0.00347222</v>
   <v>       0.00347222</v>
   <v>       0.00347222</v>
   <v>       0.00173611</v>
   <v>       0.00173611</v>
   <v>       0.00347222</v>
   <v>       0.00347222</v>
   <v>       0.00347222</v>
   <v>       0.00347222</v>
   <v>       0.00347222</v>
   <v>       0.00347222</v>
   <v>       0.00173611</v>
   <v>       0.00173611</v>
   <v>       0.00347222</v>
   <v>       0.00347222</v>
   <v>       0.00347222</v>
   <v>       0.00347222</v>
   <v>       0.00347222</v>
   <v>       0.00173611</v>
   <v>       0.00173611</v>
   <v>       0.00347222</v>
   <v>       0.00347222</v>
   <v>       0.00347222</v>
   <v>       0.00347222</v>
   <v>       0.00173611</v>
   <v>       0.00173611</v>
   <v>       0.00347222</v>
   <v>       0.00347222</v>
   <v>       0.00347222</v>
   <v>       0.00173611</v>
   <v>       0.00173611</v>
   <v>       0.00347222</v>
   <v>       0.00347222</v>
   <v>       0.00173611</v>
   <v>       0.00173611</v>
   <v>       0.00347222</v>
   <v>       0.00173611</v>
   <v>       0.00173611</v>
   <v>       0.00173611</v>
   <v>       0.00043403</v>
   <v>       0.00057870</v>
   <v>       0.00173611</v>
   <v>       0.00173611</v>
   <v>       0.00173611</v>
   <v>       0.00173611</v>
   <v>       0.00173611</v>
   <v>       0.00173611</v>
   <v>       0.00173611</v>
   <v>       0.00086806</v>
   <v>       0.00173611</v>
   <v>       0.00347222</v>
   <v>       0.00347222</v>
   <v>       0.00347222</v>
   <v>       0.00347222</v>
   <v>       0.00347222</v>
   <v>       0.00347222</v>
   <v>       0.00173611</v>
   <v>       0.00173611</v>
   <v>       0.00347222</v>
   <v>       0.00347222</v>
   <v>       0.00347222</v>
   <v>       0.00347222</v>
   <v>       0.00347222</v>
   <v>       0.00173611</v>
   <v>       0.00173611</v>
   <v>       0.00347222</v>
   <v>       0.00347222</v>
   <v>       0.00347222</v>
   <v>       0.00347222</v>
   <v>       0.00173611</v>
   <v>       0.00173611</v>
   <v>       0.00347222</v>
   <v>       0.00347222</v>
   <v>       0.00347222</v>
   <v>       0.00173611</v>
   <v>       0.00173611</v>
   <v>       0.00347222</v>
   <v>       0.00347222</v>
   <v>       0.00173611</v>
   <v>       0.00173611</v>
   <v>       0.00347222</v>
   <v>       0.00173611</v>
   <v>       0.00173611</v>
   <v>       0.00173611</v>
   <v>       0.00043403</v>
   <v>       0.00057870</v>
   <v>       0.00173611</v>
   <v>       0.00173611</v>
   <v>       0.00173611</v>
   <v>       0.00173611</v>
   <v>       0.00173611</v>
   <v>       0.00173611</v>
   <v>       0.00086806</v>
   <v>       0.00173611</v>
   <v>       0.00347222</v>
   <v>       0.00347222</v>
   <v>       0.00347222</v>
   <v>       0.00347222</v>
   <v>       0.00347222</v>
   <v>       0.00173611</v>
   <v>       0.00173611</v>
   <v>       0.00347222</v>
   <v>       0.00347222</v>
   <v>       0.00347222</v>
   <v>       0.00347222</v>
   <v>       0.00173611</v>
   <v>       0.00173611</v>
   <v>       0.00347222</v>
   <v>       0.00347222</v>
   <v>       0.00347222</v>
   <v>       0.00173611</v>
   <v>       0.00173611</v>
   <v>       0.00347222</v>
   <v>       0.00347222</v>
   <v>       0.00173611</v>
   <v>       0.00173611</v>
   <v>       0.00347222</v>
   <v>       0.00173611</v>
   <v>       0.00173611</v>
   <v>       0.00173611</v>
   <v>       0.00043403</v>
   <v>       0.00057870</v>
   <v>       0.00173611</v>
   <v>       0.00173611</v>
   <v>       0.00173611</v>
   <v>       0.00173611</v>
   <v>       0.00173611</v>
   <v>       0.00086806</v>
   <v>       0.00173611</v>
   <v>       0.00347222</v>
   <v>       0.00347222</v>
   <v>       0.00347222</v>
   <v>       0.00347222</v>
   <v>       0.00173611</v>
   <v>       0.00173611</v>
   <v>       0.00347222</v>
   <v>       0.00347222</v>
   <v>       0.00347222</v>
   <v>       0.00173611</v>
   <v>       0.00173611</v>
   <v>       0.00347222</v>
   <v>       0.00347222</v>
   <v>       0.00173611</v>
   <v>       0.00173611</v>
   <v>       0.00347222</v>
   <v>       0.00173611</v>
   <v>       0.00173611</v>
   <v>       0.00173611</v>
   <v>       0.00043403</v>
   <v>       0.00057870</v>
   <v>       0.00173611</v>
   <v>       0.00173611</v>
   <v>       0.00173611</v>
   <v>       0.00173611</v>
   <v>       0.00086806</v>
   <v>       0.00173611</v>
   <v>       0.00347222</v>
   <v>       0.00347222</v>
   <v>       0.00347222</v>
   <v>       0.00173611</v>
   <v>       0.00173611</v>
   <v>       0.00347222</v>
   <v>       0.00347222</v>
   <v>       0.00173611</v>
   <v>       0.00173611</v>
   <v>       0.00347222</v>
   <v>       0.00173611</v>
   <v>       0.00173611</v>
   <v>       0.00173611</v>
   <v>       0.00043403</v>
   <v>       0.00057870</v>
   <v>       0.00173611</v>
   <v>       0.00173611</v>
   <v>       0.00173611</v>
   <v>       0.00086806</v>
   <v>       0.00173611</v>
   <v>       0.00347222</v>
   <v>       0.00347222</v>
   <v>       0.00173611</v>
   <v>       0.00173611</v>
   <v>       0.00347222</v>
   <v>       0.00173611</v>
   <v>       0.00173611</v>
   <v>       0.00173611</v>
   <v>       0.00043403</v>
   <v>       0.00057870</v>
   <v>       0.00173611</v>
   <v>       0.00173611</v>
   <v>       0.00086806</v>
   <v>       0.00173611</v>
   <v>       0.00347222</v>
   <v>       0.00173611</v>
   <v>       0.00173611</v>
   <v>       0.00173611</v>
   <v>       0.00043403</v>
   <v>       0.00057870</v>
   <v>       0.00173611</v>
   <v>       0.00086806</v>
   <v>       0.00173611</v>
   <v>       0.00173611</v>
   <v>       0.00043403</v>
   <v>       0.00057870</v>
   <v>       0.00086806</v>
   <v>       0.00043403</v>
   <v>       0.00007234</v>
  </varray>
 </kpoints>
 <parameters>
  <separator name="general" >
   <i type="string" name="SYSTEM">unknown system</i>
   <i type="logical" name="LCOMPAT"> F  </i>
  </separator>
  <separator name="electronic" >
   <i type="string" name="PREC">accura</i>
   <i name="ENMAX">    800.00000000</i>
   <i name="ENAUG">    516.45600000</i>
   <i name="EDIFF">      0.00000001</i>
   <i type="int" name="IALGO">    38</i>
   <i type="int" name="IWAVPR">    10</i>
   <i type="int" name="NBANDS">    26</i>
   <i name="NELECT">     44.00000000</i>
   <separator name="electronic smearing" >
    <i type="int" name="ISMEAR">     0</i>
    <i name="SIGMA">      0.01000000</i>
   </separator>
   <separator name="electronic projectors" >
    <i type="logical" name="LREAL"> F  </i>
    <v name="ROPT">      0.00000000</v>
    <i type="int" name="LMAXPAW">  -100</i>
    <i type="int" name="LMAXMIX">     2</i>
   </separator>
   <separator name="electronic startup" >
    <i type="int" name="ISTART">     0</i>
    <i type="int" name="ICHARG">     2</i>
    <i type="int" name="INIWAV">     1</i>
   </separator>
   <separator name="electronic spin" >
    <i type="int" name="ISPIN">     1</i>
    <i type="logical" name="LNONCOLLINEAR"> F  </i>
    <v name="MAGMOM">      1.00000000      1.00000000      1.00000000      1.00000000</v>
    <i name="NUPDOWN">     -1.00000000</i>
    <i type="logical" name="LSORBIT"> F  </i>
    <v name="SAXIS">      0.00000000      0.00000000      1.00000000</v>
    <i type="logical" name="LSPIRAL"> F  </i>
    <v name="QSPIRAL">      0.00000000      0.00000000      0.00000000</v>
    <i type="logical" name="LZEROZ"> F  </i>
   </separator>
   <separator name="electronic exchange-correlation" >
    <i type="string" name="GGA">--</i>
    <i type="int" name="VOSKOWN">     0</i>
    <i type="logical" name="LASPH"> F  </i>
    <i type="logical" name="LMETAGGA"> F  </i>
    <i type="string" name="GGA2">--</i>
   </separator>
   <separator name="electronic convergence" >
    <i type="int" name="NELM">    60</i>
    <i type="int" name="NELMDL">     0</i>
    <i type="int" name="NELMIN">     2</i>
    <i name="ENINI">    800.00000000</i>
    <separator name="electronic convergence detail" >
     <i type="logical" name="LDIAG"> T  </i>
     <i name="WEIMIN">      0.00000000</i>
     <i name="EBREAK">      0.00000000</i>
     <i name="DEPER">      0.30000000</i>
     <i type="int" name="NRMM">     4</i>
     <i name="TIME">      0.10000000</i>
    </separator>
   </separator>
   <separator name="electronic mixer" >
    <i name="AMIX">      0.40000000</i>
    <i name="BMIX">      1.00000000</i>
    <i name="AMIN">      0.10000000</i>
    <i name="AMIX_MAG">      1.60000000</i>
    <i name="BMIX_MAG">      1.00000000</i>
    <separator name="electronic mixer details" >
     <i type="int" name="IMIX">     4</i>
     <i type="int" name="MAXMIX">   -45</i>
     <i name="WC">    100.00000000</i>
     <i type="int" name="INIMIX">     1</i>
     <i type="int" name="MIXPRE">     1</i>
     <i type="int" name="MREMOVE">     5</i>
    </separator>
   </separator>
   <separator name="electronic dipolcorrection" >
    <i type="int" name="IDIPOL">     0</i>
    <i type="logical" name="LDIPOL"> F  </i>
    <v name="DIPOL">   -100.00000000</v>
    <i name="EFIELD">      0.00000000</i>
   </separator>
  </separator>
  <separator name="grids" >
   <i type="int" name="NGX">    36</i>
   <i type="int" name="NGY">    36</i>
   <i type="int" name="NGZ">    36</i>
   <i type="int" name="NGXF">    72</i>
   <i type="int" name="NGYF">    72</i>
   <i type="int" name="NGZF">    72</i>
   <i type="logical" name="ADDGRID"> T  </i>
  </separator>
  <separator name="ionic" >
   <i type="int" name="NSW">     0</i>
   <i type="int" name="IBRION">    -1</i>
   <i type="int" name="ISIF">     2</i>
   <i name="PSTRESS">      0.00000000</i>
   <i name="EDIFFG">      0.00000010</i>
   <i type="int" name="NFREE">     0</i>
   <i name="POTIM">      0.50000000</i>
   <i name="SMASS">     -3.00000000</i>
  </separator>
  <separator name="ionic md" >
   <i name="TEBEG">      0.00010000</i>
   <i name="TEEND">      0.00010000</i>
   <i type="int" name="NBLOCK">     1</i>
   <i type="int" name="KBLOCK">     1</i>
   <i type="int" name="NPACO">   256</i>
   <i name="APACO">     16.00000000</i>
  </separator>
  <separator name="symmetry" >
   <i type="int" name="ISYM">     2</i>
   <i name="SYMPREC">      0.00001000</i>
  </separator>
  <separator name="dos" >
   <i type="logical" name="LORBIT"> F  </i>
   <v name="RWIGS">     -1.00000000</v>
   <i type="int" name="NEDOS">   301</i>
   <i name="EMIN">     10.00000000</i>
   <i name="EMAX">    -10.00000000</i>
  </separator>
  <separator name="writing" >
   <i type="int" name="NWRITE">     2</i>
   <i type="logical" name="LWAVE"> F  </i>
   <i type="logical" name="LCHARG"> F  </i>
   <i type="logical" name="LPARD"> F  </i>
   <i type="logical" name="LVTOT"> F  </i>
   <i type="logical" name="LELF"> F  </i>
   <i type="logical" name="LOPTICS"> F  </i>
   <i name="STM">      0.00000000</i>
  </separator>
  <separator name="performance" >
   <i type="int" name="NPAR">     8</i>
   <i type="int" name="NSIM">     4</i>
   <i type="int" name="NBLK">   256</i>
   <i type="logical" name="LPLANE"> T  </i>
   <i type="logical" name="LCRITICAL_MEM"> F  </i>
   <i type="logical" name="LSCALAPACK"> F  </i>
   <i type="logical" name="LSCALU"> F  </i>
   <i type="logical" name="LASYNC"> F  </i>
  </separator>
  <separator name="miscellaneous" >
   <i type="int" name="IDIOT">     3</i>
   <i type="logical" name="LMUSIC"> F  </i>
   <v name="POMASS">     63.54600000</v>
   <i type="logical" name="LCORR"> T  </i>
  </separator>
  <i type="logical" name="LREAL_COMPAT"> F  </i>
  <i type="logical" name="GGA_COMPAT"> T  </i>
  <i type="logical" name="LBERRY"> F  </i>
  <i type="int" name="ICORELEVEL">     0</i>
  <i type="logical" name="LDAU"> F  </i>
  <i type="int" name="I_CONSTRAINED_M">     0</i>
 </parameters>
 <atominfo>
  <atoms>       4</atoms>
  <types>       1</types>
  <array name="atoms" >
   <dimension dim="1">ion</dimension>
   <field type="string">element</field>
   <field type="int">atomtype</field>
   <set>
    <rc><c>Cu</c><c>   1</c></rc>
    <rc><c>Cu</c><c>   1</c></rc>
    <rc><c>Cu</c><c>   1</c></rc>
    <rc><c>Cu</c><c>   1</c></rc>
   </set>
  </array>
  <array name="atomtypes" >
   <dimension dim="1">type</dimension>
   <field type="int">atomspertype</field>
   <field type="string">element</field>
   <field>mass</field>
   <field>valence</field>
   <field type="string">pseudopotential</field>
   <set>
    <rc><c>   4</c><c>Cu</c><c>     63.54600000</c><c>     11.00000000</c><c> PAW_PBE Cu 05Jan2001                   </c></rc>
   </set>
  </array>
 </atominfo>
 <structure name="initialpos" >
  <crystal>
   <varray name="basis" >
    <v>       3.81866544      0.00000000      0.00000000</v>
    <v>       0.00000000      3.81866544      0.00000000</v>
    <v>       0.00000000      0.00000000      3.81866544</v>
   </varray>
   <i name="volume">     55.68456495</i>
   <varray name="rec_basis" >
    <v>       0.26187159      0.00000000      0.00000000</v>
    <v>       0.00000000      0.26187159      0.00000000</v>
    <v>       0.00000000      0.00000000      0.26187159</v>
   </varray>
  </crystal>
  <varray name="positions" >
   <v>       0.00000000      0.00000000      0.00000000</v>
   <v>       0.50000000      0.50000000      0.00000000</v>
   <v>       0.50000000      0.00000000      0.50000000</v>
   <v>       0.00000000      0.50000000      0.50000000</v>
  </varray>
 </structure>
 <calculation>
  <scstep>
   <time name="dav">   63.49   63.52</time>
   <time name="total">   64.07   64.10</time>
   <energy>
    <i name="alphaZ">    367.10353215</i>
    <i name="ewald">  -4183.94636692</i>
    <i name="hartreedc">  -1432.54623616</i>
    <i name="XCdc">    173.91549146</i>
    <i name="pawpsdc">   4328.20916945</i>
    <i name="pawaedc">  -4904.30802700</i>
    <i name="eentropy">     -0.00010629</i>
    <i name="bandstr">    417.56671391</i>
    <i name="atom">   5563.91759264</i>
    <i name="e_fr_energy">    329.91176323</i>
    <i name="e_wo_entrp">    329.91186952</i>
    <i name="e_0_energy">    329.91181637</i>
   </energy>
  </scstep>
  <scstep>
   <time name="dav">   62.78   62.80</time>
   <time name="total">   62.81   62.83</time>
   <energy>
    <i name="e_fr_energy">      6.24041732</i>
    <i name="e_wo_entrp">      6.24060779</i>
    <i name="e_0_energy">      6.24051256</i>
   </energy>
  </scstep>
  <scstep>
   <time name="dav">   67.95   67.97</time>
   <time name="total">   67.98   68.00</time>
   <energy>
    <i name="e_fr_energy">    -17.35137613</i>
    <i name="e_wo_entrp">    -17.35121923</i>
    <i name="e_0_energy">    -17.35129768</i>
   </energy>
  </scstep>
  <scstep>
   <time name="dav">   67.74   67.90</time>
   <time name="total">   67.77   67.94</time>
   <energy>
    <i name="e_fr_energy">    -17.66151181</i>
    <i name="e_wo_entrp">    -17.66135198</i>
    <i name="e_0_energy">    -17.66143190</i>
   </energy>
  </scstep>
  <scstep>
   <time name="dav">   68.54   68.62</time>
   <time name="total">   70.43   70.54</time>
   <energy>
    <i name="e_fr_energy">    -17.66211205</i>
    <i name="e_wo_entrp">    -17.66195225</i>
    <i name="e_0_energy">    -17.66203215</i>
   </energy>
  </scstep>
  <scstep>
   <time name="dav">   67.04   67.07</time>
   <time name="total">   69.55   69.64</time>
   <energy>
    <i name="e_fr_energy">    -16.18550848</i>
    <i name="e_wo_entrp">    -16.18542932</i>
    <i name="e_0_energy">    -16.18546890</i>
   </energy>
  </scstep>
  <scstep>
   <time name="dav">   68.85   68.87</time>
   <time name="total">   71.26   71.28</time>
   <energy>
    <i name="e_fr_energy">    -14.52122229</i>
    <i name="e_wo_entrp">    -14.52111385</i>
    <i name="e_0_energy">    -14.52116807</i>
   </energy>
  </scstep>
  <scstep>
   <time name="dav">   69.42   69.45</time>
   <time name="total">   71.91   71.95</time>
   <energy>
    <i name="e_fr_energy">    -14.50424865</i>
    <i name="e_wo_entrp">    -14.50413290</i>
    <i name="e_0_energy">    -14.50419077</i>
   </energy>
  </scstep>
  <scstep>
   <time name="dav">   69.56   69.60</time>
   <time name="total">   71.99   72.04</time>
   <energy>
    <i name="e_fr_energy">    -14.49203227</i>
    <i name="e_wo_entrp">    -14.49191368</i>
    <i name="e_0_energy">    -14.49197297</i>
   </energy>
  </scstep>
  <scstep>
   <time name="dav">   68.52   68.55</time>
   <time name="total">   70.97   71.01</time>
   <energy>
    <i name="e_fr_energy">    -14.49205095</i>
    <i name="e_wo_entrp">    -14.49192967</i>
    <i name="e_0_energy">    -14.49199031</i>
   </energy>
  </scstep>
  <scstep>
   <time name="dav">   69.55   69.58</time>
   <time name="total">   71.93   71.98</time>
   <energy>
    <i name="e_fr_energy">    -14.49205215</i>
    <i name="e_wo_entrp">    -14.49193084</i>
    <i name="e_0_energy">    -14.49199150</i>
   </energy>
  </scstep>
  <scstep>
   <time name="dav">   69.82   69.85</time>
   <time name="total">   72.25   72.29</time>
   <energy>
    <i name="e_fr_energy">    -14.49205530</i>
    <i name="e_wo_entrp">    -14.49193401</i>
    <i name="e_0_energy">    -14.49199465</i>
   </energy>
  </scstep>
  <scstep>
   <time name="dav">   67.54   67.56</time>
   <time name="total">   69.93   69.97</time>
   <energy>
    <i name="e_fr_energy">    -14.49205609</i>
    <i name="e_wo_entrp">    -14.49193484</i>
    <i name="e_0_energy">    -14.49199547</i>
   </energy>
  </scstep>
  <scstep>
   <time name="dav">   48.06   48.09</time>
   <time name="total">   48.64   48.67</time>
   <energy>
    <i name="alphaZ">    367.10353215</i>
    <i name="ewald">  -4183.94636692</i>
    <i name="hartreedc">  -1350.28170564</i>
    <i name="XCdc">    169.98586014</i>
    <i name="pawpsdc">   4313.70616374</i>
    <i name="pawaedc">  -4890.38223361</i>
    <i name="eentropy">     -0.00012126</i>
    <i name="bandstr">     -4.59477734</i>
    <i name="atom">   5563.91759264</i>
    <i name="e_fr_energy">    -14.49205610</i>
    <i name="e_wo_entrp">    -14.49193483</i>
    <i name="e_0_energy">    -14.49199546</i>
   </energy>
  </scstep>
  <structure>
   <crystal>
    <varray name="basis" >
     <v>       3.81866544      0.00000000      0.00000000</v>
     <v>       0.00000000      3.81866544      0.00000000</v>
     <v>       0.00000000      0.00000000      3.81866544</v>
    </varray>
    <i name="volume">     55.68456495</i>
    <varray name="rec_basis" >
     <v>       0.26187159      0.00000000      0.00000000</v>
     <v>       0.00000000      0.26187159      0.00000000</v>
     <v>       0.00000000      0.00000000      0.26187159</v>
    </varray>
   </crystal>
   <varray name="positions" >
    <v>       0.00000000      0.00000000      0.00000000</v>
    <v>       0.50000000      0.50000000      0.00000000</v>
    <v>       0.50000000      0.00000000      0.50000000</v>
    <v>       0.00000000      0.50000000      0.50000000</v>
   </varray>
  </structure>
  <varray name="forces" >
   <v>       0.00000000     -0.00000000      0.00000000</v>
   <v>       0.00000000     -0.00000000      0.00000000</v>
   <v>      -0.00000000      0.00000000      0.00000000</v>
   <v>      -0.00000000     -0.00000000      0.00000000</v>
  </varray>
  <varray name="stress" >
   <v>    -138.31729228      0.00000000      0.00000000</v>
   <v>       0.00000000   -138.31729228     -0.00000000</v>
   <v>       0.00000000     -0.00000000   -138.31729228</v>
  </varray>
  <energy>
   <i name="e_fr_energy">    -14.49205610</i>
   <i name="e_wo_entrp">    -14.49199546</i>
   <i name="e_0_energy">     -0.00012126</i>
  </energy>
  <eigenvalues>
   <array>
    <dimension dim="1">band</dimension>
    <dimension dim="2">kpoint</dimension>
    <dimension dim="3">spin</dimension>
    <field>eigene</field>
    <field>occ</field>
    <set>
     <set comment="spin 1">
      <set comment="kpoint 1">
       <r>  -5.6701  1.0000</r>
       <r>  -1.5242  1.0000</r>
       <r>  -1.5242  1.0000</r>
       <r>  -1.5242  1.0000</r>
       <r>  -1.1685  1.0000</r>
       <r>  -1.1685  1.0000</r>
       <r>  -1.1685  1.0000</r>
       <r>  -0.0942  1.0000</r>
       <r>  -0.0942  1.0000</r>
       <r>  -0.0942  1.0000</r>
       <r>   0.5466  1.0000</r>
       <r>   0.5466  1.0000</r>
       <r>   0.9736  1.0000</r>
       <r>   0.9736  1.0000</r>
       <r>   0.9736  1.0000</r>
       <r>   1.0930  1.0000</r>
       <r>   1.0930  1.0000</r>
       <r>   1.0930  1.0000</r>
       <r>   1.0930  1.0000</r>
       <r>   1.0930  1.0000</r>
       <r>   1.0930  1.0000</r>
       <r>   4.1278  0.0000</r>
       <r>   4.1278  0.0000</r>
       <r>   4.1278  0.0000</r>
       <r>   8.5329  0.0000</r>
       <r>   8.5329  0.0000</r>
       <r>   8.5329  0.0000</r>
       <r>  14.4210  0.0000</r>
       <r>  14.4210  0.0000</r>
       <r>  14.4210  0.0000</r>
       <r>  14.4210  0.0000</r>
       <r>  14.4210  0.0000</r>
      </set>
      <set comment="kpoint 2">
       <r>  -5.6513  1.0000</r>
       <r>  -1.5247  1.0000</r>
       <r>  -1.5160  1.0000</r>
       <r>  -1.5160  1.0000</r>
       <r>  -1.1641  1.0000</r>
       <r>  -1.1639  1.0000</r>
       <r>  -1.1639  1.0000</r>
       <r>  -0.0990  1.0000</r>
       <r>  -0.0903  1.0000</r>
       <r>  -0.0903  1.0000</r>
       <r>   0.5423  1.0000</r>
       <r>   0.5484  1.0000</r>
       <r>   0.9680  1.0000</r>
       <r>   0.9680  1.0000</r>
       <r>   0.9718  1.0000</r>
       <r>   1.0658  1.0000</r>
       <r>   1.0658  1.0000</r>
       <r>   1.0863  1.0000</r>
       <r>   1.0863  1.0000</r>
       <r>   1.0930  1.0000</r>
       <r>   1.0930  1.0000</r>
       <r>   3.9802  0.0000</r>
       <r>   4.1723  0.0000</r>
       <r>   4.1723  0.0000</r>
       <r>   8.5411  0.0000</r>
       <r>   8.5411  0.0000</r>
       <r>   8.7195  0.0000</r>
       <r>  14.2760  0.0000</r>
       <r>  14.2760  0.0000</r>
       <r>  14.3220  0.0000</r>
       <r>  14.3220  0.0000</r>
       <r>  14.4476  0.0000</r>
      </set>
      <set comment="kpoint 3">
       <r>  -5.5950  1.0000</r>
       <r>  -1.5273  1.0000</r>
       <r>  -1.4919  1.0000</r>
       <r>  -1.4919  1.0000</r>
       <r>  -1.1509  1.0000</r>
       <r>  -1.1498  1.0000</r>
       <r>  -1.1498  1.0000</r>
       <r>  -0.1132  1.0000</r>
       <r>  -0.0785  1.0000</r>
       <r>  -0.0785  1.0000</r>
       <r>   0.5294  1.0000</r>
       <r>   0.5537  1.0000</r>
       <r>   0.9514  1.0000</r>
       <r>   0.9514  1.0000</r>
       <r>   0.9662  1.0000</r>
       <r>   0.9887  1.0000</r>
       <r>   0.9887  1.0000</r>
       <r>   1.0666  1.0000</r>
       <r>   1.0666  1.0000</r>
       <r>   1.0930  1.0000</r>
       <r>   1.0930  1.0000</r>
       <r>   3.5984  0.0000</r>
       <r>   4.3014  0.0000</r>
       <r>   4.3014  0.0000</r>
       <r>   8.5657  0.0000</r>
       <r>   8.5657  0.0000</r>
       <r>   9.2191  0.0000</r>
       <r>  13.8969  0.0000</r>
       <r>  13.8969  0.0000</r>
       <r>  14.0512  0.0000</r>
       <r>  14.0512  0.0000</r>
       <r>  14.5273  0.0000</r>
      </set>
      <set comment="kpoint 4">
       <r>  -5.5013  1.0000</r>
       <r>  -1.5345  1.0000</r>
       <r>  -1.4527  1.0000</r>
       <r>  -1.4527  1.0000</r>
       <r>  -1.1291  1.0000</r>
       <r>  -1.1263  1.0000</r>
       <r>  -1.1263  1.0000</r>
       <r>  -0.1366  1.0000</r>
       <r>  -0.0590  1.0000</r>
       <r>  -0.0590  1.0000</r>
       <r>   0.5084  1.0000</r>
       <r>   0.5626  1.0000</r>
       <r>   0.8729  1.0000</r>
       <r>   0.8729  1.0000</r>
       <r>   0.9241  1.0000</r>
       <r>   0.9241  1.0000</r>
       <r>   0.9571  1.0000</r>
       <r>   1.0344  1.0000</r>
       <r>   1.0344  1.0000</r>
       <r>   1.0931  1.0000</r>
       <r>   1.0931  1.0000</r>
       <r>   3.0919  0.0000</r>
       <r>   4.5038  0.0000</r>
       <r>   4.5038  0.0000</r>
       <r>   8.6074  0.0000</r>
       <r>   8.6074  0.0000</r>
       <r>   9.9245  0.0000</r>
       <r>  13.3826  0.0000</r>
       <r>  13.3826  0.0000</r>
       <r>  13.6647  0.0000</r>
       <r>  13.6647  0.0000</r>
       <r>  14.6593  0.0000</r>
      </set>
      <set comment="kpoint 5">
       <r>  -5.3709  1.0000</r>
       <r>  -1.5516  1.0000</r>
       <r>  -1.3998  1.0000</r>
       <r>  -1.3998  1.0000</r>
       <r>  -1.0991  1.0000</r>
       <r>  -1.0933  1.0000</r>
       <r>  -1.0933  1.0000</r>
       <r>  -0.1687  1.0000</r>
       <r>  -0.0318  1.0000</r>
       <r>  -0.0318  1.0000</r>
       <r>   0.4798  1.0000</r>
       <r>   0.5747  1.0000</r>
       <r>   0.7314  1.0000</r>
       <r>   0.7314  1.0000</r>
       <r>   0.8868  1.0000</r>
       <r>   0.8868  1.0000</r>
       <r>   0.9445  1.0000</r>
       <r>   0.9909  1.0000</r>
       <r>   0.9909  1.0000</r>
       <r>   1.0931  1.0000</r>
       <r>   1.0931  1.0000</r>
       <r>   2.5421  0.0000</r>
       <r>   4.7663  0.0000</r>
       <r>   4.7663  0.0000</r>
       <r>   8.6669  0.0000</r>
       <r>   8.6669  0.0000</r>
       <r>  10.7589  0.0000</r>
       <r>  12.8033  0.0000</r>
       <r>  12.8033  0.0000</r>
       <r>  13.2162  0.0000</r>
       <r>  13.2162  0.0000</r>
       <r>  14.8424  0.0000</r>
      </set>
      <set comment="kpoint 6">
       <r>  -5.2042  1.0000</r>
       <r>  -1.5866  1.0000</r>
       <r>  -1.3354  1.0000</r>
       <r>  -1.3354  1.0000</r>
       <r>  -1.0613  1.0000</r>
       <r>  -1.0506  1.0000</r>
       <r>  -1.0506  1.0000</r>
       <r>  -0.2090  1.0000</r>
       <r>   0.0029  1.0000</r>
       <r>   0.0029  1.0000</r>
       <r>   0.4446  1.0000</r>
       <r>   0.5753  1.0000</r>
       <r>   0.5753  1.0000</r>
       <r>   0.5900  1.0000</r>
       <r>   0.8406  1.0000</r>
       <r>   0.8406  1.0000</r>
       <r>   0.9288  1.0000</r>
       <r>   0.9374  1.0000</r>
       <r>   0.9374  1.0000</r>
       <r>   1.0932  1.0000</r>
       <r>   1.0932  1.0000</r>
       <r>   1.9986  1.0000</r>
       <r>   5.0778  0.0000</r>
       <r>   5.0778  0.0000</r>
       <r>   8.7454  0.0000</r>
       <r>   8.7454  0.0000</r>
       <r>  11.6797  0.0000</r>
       <r>  12.1973  0.0000</r>
       <r>  12.1973  0.0000</r>
       <r>  12.7439  0.0000</r>
       <r>  12.7439  0.0000</r>
       <r>  15.0750  0.0000</r>
      </set>
      <set comment="kpoint 7">
       <r>  -5.0023  1.0000</r>
       <r>  -1.6518  1.0000</r>
       <r>  -1.2623  1.0000</r>
       <r>  -1.2623  1.0000</r>
       <r>  -1.0163  1.0000</r>
       <r>  -0.9981  1.0000</r>
       <r>  -0.9981  1.0000</r>
       <r>  -0.2566  1.0000</r>
       <r>   0.0447  1.0000</r>
       <r>   0.0447  1.0000</r>
       <r>   0.4041  1.0000</r>
       <r>   0.4129  1.0000</r>
       <r>   0.4129  1.0000</r>
       <r>   0.6082  1.0000</r>
       <r>   0.7870  1.0000</r>
       <r>   0.7870  1.0000</r>
       <r>   0.8754  1.0000</r>
       <r>   0.8754  1.0000</r>
       <r>   0.9101  1.0000</r>
       <r>   1.0933  1.0000</r>
       <r>   1.0933  1.0000</r>
       <r>   1.4954  1.0000</r>
       <r>   5.4296  0.0000</r>
       <r>   5.4296  0.0000</r>
       <r>   8.8445  0.0000</r>
       <r>   8.8445  0.0000</r>
       <r>  11.5845  0.0000</r>
       <r>  11.5845  0.0000</r>
       <r>  12.2722  0.0000</r>
       <r>  12.2722  0.0000</r>
       <r>  12.6641  0.0000</r>
       <r>  15.3553  0.0000</r>
      </set>
      <set comment="kpoint 8">
       <r>  -4.7664  1.0000</r>
       <r>  -1.7631  1.0000</r>
       <r>  -1.1843  1.0000</r>
       <r>  -1.1843  1.0000</r>
       <r>  -0.9648  1.0000</r>
       <r>  -0.9355  1.0000</r>
       <r>  -0.9355  1.0000</r>
       <r>  -0.3108  1.0000</r>
       <r>   0.0935  1.0000</r>
       <r>   0.0935  1.0000</r>
       <r>   0.2503  1.0000</r>
       <r>   0.2503  1.0000</r>
       <r>   0.3601  1.0000</r>
       <r>   0.6290  1.0000</r>
       <r>   0.7287  1.0000</r>
       <r>   0.7287  1.0000</r>
       <r>   0.8067  1.0000</r>
       <r>   0.8067  1.0000</r>
       <r>   0.8889  1.0000</r>
       <r>   1.0599  1.0000</r>
       <r>   1.0933  1.0000</r>
       <r>   1.0933  1.0000</r>
       <r>   5.8154  0.0000</r>
       <r>   5.8154  0.0000</r>
       <r>   8.9657  0.0000</r>
       <r>   8.9657  0.0000</r>
       <r>  10.9757  0.0000</r>
       <r>  10.9757  0.0000</r>
       <r>  11.8163  0.0000</r>
       <r>  11.8163  0.0000</r>
       <r>  13.6989  0.0000</r>
       <r>  15.6810  0.0000</r>
      </set>
      <set comment="kpoint 9">
       <r>  -4.4983  1.0000</r>
       <r>  -1.9363  1.0000</r>
       <r>  -1.1063  1.0000</r>
       <r>  -1.1063  1.0000</r>
       <r>  -0.9076  1.0000</r>
       <r>  -0.8626  1.0000</r>
       <r>  -0.8626  1.0000</r>
       <r>  -0.3704  1.0000</r>
       <r>   0.0913  1.0000</r>
       <r>   0.0913  1.0000</r>
       <r>   0.1487  1.0000</r>
       <r>   0.1487  1.0000</r>
       <r>   0.3148  1.0000</r>
       <r>   0.6520  1.0000</r>
       <r>   0.6689  1.0000</r>
       <r>   0.6689  1.0000</r>
       <r>   0.7141  1.0000</r>
       <r>   0.7330  1.0000</r>
       <r>   0.7330  1.0000</r>
       <r>   0.8655  1.0000</r>
       <r>   1.0934  1.0000</r>
       <r>   1.0934  1.0000</r>
       <r>   6.2311  0.0000</r>
       <r>   6.2311  0.0000</r>
       <r>   9.1110  0.0000</r>
       <r>   9.1110  0.0000</r>
       <r>  10.3770  0.0000</r>
       <r>  10.3770  0.0000</r>
       <r>  11.3857  0.0000</r>
       <r>  11.3857  0.0000</r>
       <r>  14.7758  0.0000</r>
       <r>  16.0502  0.0000</r>
      </set>
      <set comment="kpoint 10">
       <r>  -4.2006  1.0000</r>
       <r>  -2.1779  1.0000</r>
       <r>  -1.0342  1.0000</r>
       <r>  -1.0342  1.0000</r>
       <r>  -0.8456  1.0000</r>
       <r>  -0.7794  1.0000</r>
       <r>  -0.7794  1.0000</r>
       <r>  -0.4345  1.0000</r>
       <r>  -0.0614  1.0000</r>
       <r>  -0.0614  1.0000</r>
       <r>   0.2098  1.0000</r>
       <r>   0.2098  1.0000</r>
       <r>   0.2713  1.0000</r>
       <r>   0.4682  1.0000</r>
       <r>   0.6125  1.0000</r>
       <r>   0.6125  1.0000</r>
       <r>   0.6561  1.0000</r>
       <r>   0.6561  1.0000</r>
       <r>   0.6768  1.0000</r>
       <r>   0.8402  1.0000</r>
       <r>   1.0935  1.0000</r>
       <r>   1.0935  1.0000</r>
       <r>   6.6734  0.0000</r>
       <r>   6.6734  0.0000</r>
       <r>   9.2822  0.0000</r>
       <r>   9.2822  0.0000</r>
       <r>   9.7922  0.0000</r>
       <r>   9.7922  0.0000</r>
       <r>  10.9859  0.0000</r>
       <r>  10.9859  0.0000</r>
       <r>  15.8886  0.0000</r>
       <r>  16.4605  0.0000</r>
      </set>
      <set comment="kpoint 11">
       <r>  -3.8770  1.0000</r>
       <r>  -2.4789  1.0000</r>
       <r>  -0.9748  1.0000</r>
       <r>  -0.9748  1.0000</r>
       <r>  -0.7799  1.0000</r>
       <r>  -0.6856  1.0000</r>
       <r>  -0.6856  1.0000</r>
       <r>  -0.5018  1.0000</r>
       <r>  -0.2059  1.0000</r>
       <r>  -0.2059  1.0000</r>
       <r>   0.2341  1.0000</r>
       <r>   0.2763  1.0000</r>
       <r>   0.2763  1.0000</r>
       <r>   0.3148  1.0000</r>
       <r>   0.5652  1.0000</r>
       <r>   0.5652  1.0000</r>
       <r>   0.5777  1.0000</r>
       <r>   0.5777  1.0000</r>
       <r>   0.7031  1.0000</r>
       <r>   0.8136  1.0000</r>
       <r>   1.0935  1.0000</r>
       <r>   1.0935  1.0000</r>
       <r>   7.1403  0.0000</r>
       <r>   7.1403  0.0000</r>
       <r>   9.2235  0.0000</r>
       <r>   9.2235  0.0000</r>
       <r>   9.4809  0.0000</r>
       <r>   9.4809  0.0000</r>
       <r>  10.6206  0.0000</r>
       <r>  10.6206  0.0000</r>
       <r>  16.9098  0.0000</r>
       <r>  16.9104  0.0000</r>
      </set>
      <set comment="kpoint 12">
       <r>  -3.5327  1.0000</r>
       <r>  -2.8190  1.0000</r>
       <r>  -0.9353  1.0000</r>
       <r>  -0.9353  1.0000</r>
       <r>  -0.7115  1.0000</r>
       <r>  -0.5813  1.0000</r>
       <r>  -0.5813  1.0000</r>
       <r>  -0.5713  1.0000</r>
       <r>  -0.3411  1.0000</r>
       <r>  -0.3411  1.0000</r>
       <r>   0.2091  1.0000</r>
       <r>   0.2344  1.0000</r>
       <r>   0.3473  1.0000</r>
       <r>   0.3473  1.0000</r>
       <r>   0.4991  1.0000</r>
       <r>   0.4991  1.0000</r>
       <r>   0.5332  1.0000</r>
       <r>   0.5332  1.0000</r>
       <r>   0.7304  1.0000</r>
       <r>   0.7861  1.0000</r>
       <r>   1.0935  1.0000</r>
       <r>   1.0935  1.0000</r>
       <r>   7.6300  0.0000</r>
       <r>   7.6300  0.0000</r>
       <r>   8.6728  0.0000</r>
       <r>   8.6728  0.0000</r>
       <r>   9.7060  0.0000</r>
       <r>   9.7060  0.0000</r>
       <r>  10.2944  0.0000</r>
       <r>  10.2944  0.0000</r>
       <r>  17.3960  0.0000</r>
       <r>  17.3960  0.0000</r>
      </set>
      <set comment="kpoint 13">
       <r>  -3.1760  1.0000</r>
       <r>  -3.1760  1.0000</r>
       <r>  -0.9214  1.0000</r>
       <r>  -0.9214  1.0000</r>
       <r>  -0.6415  1.0000</r>
       <r>  -0.6415  1.0000</r>
       <r>  -0.4664  1.0000</r>
       <r>  -0.4664  1.0000</r>
       <r>  -0.4664  1.0000</r>
       <r>  -0.4664  1.0000</r>
       <r>   0.2050  1.0000</r>
       <r>   0.2050  1.0000</r>
       <r>   0.4220  1.0000</r>
       <r>   0.4220  1.0000</r>
       <r>   0.4220  1.0000</r>
       <r>   0.4220  1.0000</r>
       <r>   0.5219  1.0000</r>
       <r>   0.5219  1.0000</r>
       <r>   0.7582  1.0000</r>
       <r>   0.7582  1.0000</r>
       <r>   1.0936  1.0000</r>
       <r>   1.0936  1.0000</r>
       <r>   8.1412  0.0000</r>
       <r>   8.1412  0.0000</r>
       <r>   8.1412  0.0000</r>
       <r>   8.1412  0.0000</r>
       <r>   9.8962  0.0000</r>
       <r>   9.8962  0.0000</r>
       <r>  10.0702  0.0000</r>
       <r>  10.0702  0.0000</r>
       <r>  17.9169  0.0000</r>
       <r>  17.9169  0.0000</r>
      </set>
      <set comment="kpoint 14">
       <r>  -5.6325  1.0000</r>
       <r>  -1.5166  1.0000</r>
       <r>  -1.5166  1.0000</r>
       <r>  -1.5080  1.0000</r>
       <r>  -1.1595  1.0000</r>
       <r>  -1.1595  1.0000</r>
       <r>  -1.1592  1.0000</r>
       <r>  -0.1017  1.0000</r>
       <r>  -0.0884  1.0000</r>
       <r>  -0.0865  1.0000</r>
       <r>   0.5410  1.0000</r>
       <r>   0.5472  1.0000</r>
       <r>   0.9625  1.0000</r>
       <r>   0.9656  1.0000</r>
       <r>   0.9656  1.0000</r>
       <r>   1.0436  1.0000</r>
       <r>   1.0594  1.0000</r>
       <r>   1.0594  1.0000</r>
       <r>   1.0863  1.0000</r>
       <r>   1.0863  1.0000</r>
       <r>   1.0887  1.0000</r>
       <r>   4.0242  0.0000</r>
       <r>   4.0242  0.0000</r>
       <r>   4.2162  0.0000</r>
       <r>   8.5493  0.0000</r>
       <r>   8.7285  0.0000</r>
       <r>   8.7285  0.0000</r>
       <r>  13.9232  0.0000</r>
       <r>  14.3022  0.0000</r>
       <r>  14.3022  0.0000</r>
       <r>  14.3483  0.0000</r>
       <r>  14.3483  0.0000</r>
      </set>
      <set comment="kpoint 15">
       <r>  -5.5762  1.0000</r>
       <r>  -1.5189  1.0000</r>
       <r>  -1.4923  1.0000</r>
       <r>  -1.4840  1.0000</r>
       <r>  -1.1463  1.0000</r>
       <r>  -1.1455  1.0000</r>
       <r>  -1.1453  1.0000</r>
       <r>  -0.1147  1.0000</r>
       <r>  -0.0777  1.0000</r>
       <r>  -0.0750  1.0000</r>
       <r>   0.5295  1.0000</r>
       <r>   0.5515  1.0000</r>
       <r>   0.9437  1.0000</r>
       <r>   0.9461  1.0000</r>
       <r>   0.9579  1.0000</r>
       <r>   0.9707  1.0000</r>
       <r>   0.9867  1.0000</r>
       <r>   1.0406  1.0000</r>
       <r>   1.0666  1.0000</r>
       <r>   1.0864  1.0000</r>
       <r>   1.0864  1.0000</r>
       <r>   3.6418  0.0000</r>
       <r>   4.1515  0.0000</r>
       <r>   4.3434  0.0000</r>
       <r>   8.5740  0.0000</r>
       <r>   8.7559  0.0000</r>
       <r>   9.2299  0.0000</r>
       <r>  13.4225  0.0000</r>
       <r>  13.9220  0.0000</r>
       <r>  14.0764  0.0000</r>
       <r>  14.3803  0.0000</r>
       <r>  14.4054  0.0000</r>
      </set>
      <set comment="kpoint 16">
       <r>  -5.4827  1.0000</r>
       <r>  -1.5259  1.0000</r>
       <r>  -1.4528  1.0000</r>
       <r>  -1.4451  1.0000</r>
       <r>  -1.1246  1.0000</r>
       <r>  -1.1221  1.0000</r>
       <r>  -1.1220  1.0000</r>
       <r>  -0.1377  1.0000</r>
       <r>  -0.0585  1.0000</r>
       <r>  -0.0559  1.0000</r>
       <r>   0.5088  1.0000</r>
       <r>   0.5605  1.0000</r>
       <r>   0.8569  1.0000</r>
       <r>   0.8581  1.0000</r>
       <r>   0.9191  1.0000</r>
       <r>   0.9295  1.0000</r>
       <r>   0.9435  1.0000</r>
       <r>   1.0115  1.0000</r>
       <r>   1.0344  1.0000</r>
       <r>   1.0858  1.0000</r>
       <r>   1.0864  1.0000</r>
       <r>   3.1360  0.0000</r>
       <r>   4.3501  0.0000</r>
       <r>   4.5432  0.0000</r>
       <r>   8.6159  0.0000</r>
       <r>   8.8020  0.0000</r>
       <r>   9.9369  0.0000</r>
       <r>  12.8570  0.0000</r>
       <r>  13.4067  0.0000</r>
       <r>  13.6887  0.0000</r>
       <r>  14.1356  0.0000</r>
       <r>  14.5096  0.0000</r>
      </set>
      <set comment="kpoint 17">
       <r>  -5.3524  1.0000</r>
       <r>  -1.5425  1.0000</r>
       <r>  -1.3995  1.0000</r>
       <r>  -1.3925  1.0000</r>
       <r>  -1.0948  1.0000</r>
       <r>  -1.0893  1.0000</r>
       <r>  -1.0892  1.0000</r>
       <r>  -0.1696  1.0000</r>
       <r>  -0.0314  1.0000</r>
       <r>  -0.0295  1.0000</r>
       <r>   0.4807  1.0000</r>
       <r>   0.5730  1.0000</r>
       <r>   0.7173  1.0000</r>
       <r>   0.7195  1.0000</r>
       <r>   0.8822  1.0000</r>
       <r>   0.8897  1.0000</r>
       <r>   0.9177  1.0000</r>
       <r>   0.9772  1.0000</r>
       <r>   0.9908  1.0000</r>
       <r>   1.0856  1.0000</r>
       <r>   1.0864  1.0000</r>
       <r>   2.5890  0.0000</r>
       <r>   4.6067  0.0000</r>
       <r>   4.8032  0.0000</r>
       <r>   8.6757  0.0000</r>
       <r>   8.8680  0.0000</r>
       <r>  10.7723  0.0000</r>
       <r>  12.2647  0.0000</r>
       <r>  12.8268  0.0000</r>
       <r>  13.2389  0.0000</r>
       <r>  13.7397  0.0000</r>
       <r>  14.6888  0.0000</r>
      </set>
      <set comment="kpoint 18">
       <r>  -5.1859  1.0000</r>
       <r>  -1.5770  1.0000</r>
       <r>  -1.3346  1.0000</r>
       <r>  -1.3285  1.0000</r>
       <r>  -1.0571  1.0000</r>
       <r>  -1.0469  1.0000</r>
       <r>  -1.0468  1.0000</r>
       <r>  -0.2095  1.0000</r>
       <r>   0.0032  1.0000</r>
       <r>   0.0041  1.0000</r>
       <r>   0.4461  1.0000</r>
       <r>   0.5615  1.0000</r>
       <r>   0.5659  1.0000</r>
       <r>   0.5887  1.0000</r>
       <r>   0.8364  1.0000</r>
       <r>   0.8430  1.0000</r>
       <r>   0.8720  1.0000</r>
       <r>   0.9373  1.0000</r>
       <r>   0.9463  1.0000</r>
       <r>   1.0856  1.0000</r>
       <r>   1.0864  1.0000</r>
       <r>   2.0519  1.0000</r>
       <r>   4.9097  0.0000</r>
       <r>   5.1122  0.0000</r>
       <r>   8.7547  0.0000</r>
       <r>   8.9552  0.0000</r>
       <r>  11.6666  0.0000</r>
       <r>  11.6938  0.0000</r>
       <r>  12.2204  0.0000</r>
       <r>  12.7655  0.0000</r>
       <r>  13.2813  0.0000</r>
       <r>  14.9161  0.0000</r>
      </set>
      <set comment="kpoint 19">
       <r>  -4.9842  1.0000</r>
       <r>  -1.6415  1.0000</r>
       <r>  -1.2609  1.0000</r>
       <r>  -1.2559  1.0000</r>
       <r>  -1.0124  1.0000</r>
       <r>  -0.9949  1.0000</r>
       <r>  -0.9945  1.0000</r>
       <r>  -0.2569  1.0000</r>
       <r>   0.0443  1.0000</r>
       <r>   0.0449  1.0000</r>
       <r>   0.3996  1.0000</r>
       <r>   0.4058  1.0000</r>
       <r>   0.4066  1.0000</r>
       <r>   0.6075  1.0000</r>
       <r>   0.7833  1.0000</r>
       <r>   0.7893  1.0000</r>
       <r>   0.8037  1.0000</r>
       <r>   0.8753  1.0000</r>
       <r>   0.9195  1.0000</r>
       <r>   1.0857  1.0000</r>
       <r>   1.0865  1.0000</r>
       <r>   1.5624  1.0000</r>
       <r>   5.2502  0.0000</r>
       <r>   5.4618  0.0000</r>
       <r>   8.8542  0.0000</r>
       <r>   9.0651  0.0000</r>
       <r>  11.0742  0.0000</r>
       <r>  11.6074  0.0000</r>
       <r>  12.2928  0.0000</r>
       <r>  12.6787  0.0000</r>
       <r>  12.8013  0.0000</r>
       <r>  15.1898  0.0000</r>
      </set>
      <set comment="kpoint 20">
       <r>  -4.7485  1.0000</r>
       <r>  -1.7520  1.0000</r>
       <r>  -1.1823  1.0000</r>
       <r>  -1.1783  1.0000</r>
       <r>  -0.9611  1.0000</r>
       <r>  -0.9331  1.0000</r>
       <r>  -0.9322  1.0000</r>
       <r>  -0.3107  1.0000</r>
       <r>   0.0904  1.0000</r>
       <r>   0.0936  1.0000</r>
       <r>   0.2375  1.0000</r>
       <r>   0.2450  1.0000</r>
       <r>   0.3646  1.0000</r>
       <r>   0.6289  1.0000</r>
       <r>   0.7082  1.0000</r>
       <r>   0.7255  1.0000</r>
       <r>   0.7308  1.0000</r>
       <r>   0.8066  1.0000</r>
       <r>   0.8913  1.0000</r>
       <r>   1.0858  1.0000</r>
       <r>   1.0865  1.0000</r>
       <r>   1.1601  1.0000</r>
       <r>   5.6219  0.0000</r>
       <r>   5.8459  0.0000</r>
       <r>   8.9760  0.0000</r>
       <r>   9.1997  0.0000</r>
       <r>  10.4936  0.0000</r>
       <r>  10.9986  0.0000</r>
       <r>  11.8360  0.0000</r>
       <r>  12.3241  0.0000</r>
       <r>  13.7138  0.0000</r>
       <r>  15.5069  0.0000</r>
      </set>
      <set comment="kpoint 21">
       <r>  -4.4808  1.0000</r>
       <r>  -1.9242  1.0000</r>
       <r>  -1.1035  1.0000</r>
       <r>  -1.1004  1.0000</r>
       <r>  -0.9042  1.0000</r>
       <r>  -0.8616  1.0000</r>
       <r>  -0.8597  1.0000</r>
       <r>  -0.3700  1.0000</r>
       <r>   0.0793  1.0000</r>
       <r>   0.0876  1.0000</r>
       <r>   0.1401  1.0000</r>
       <r>   0.1488  1.0000</r>
       <r>   0.3241  1.0000</r>
       <r>   0.5672  1.0000</r>
       <r>   0.6527  1.0000</r>
       <r>   0.6664  1.0000</r>
       <r>   0.6710  1.0000</r>
       <r>   0.7329  1.0000</r>
       <r>   0.8373  1.0000</r>
       <r>   0.9116  1.0000</r>
       <r>   1.0859  1.0000</r>
       <r>   1.0865  1.0000</r>
       <r>   6.0205  0.0000</r>
       <r>   6.2600  0.0000</r>
       <r>   9.1220  0.0000</r>
       <r>   9.3609  0.0000</r>
       <r>   9.9278  0.0000</r>
       <r>  10.4000  0.0000</r>
       <r>  11.4047  0.0000</r>
       <r>  11.8645  0.0000</r>
       <r>  14.7909  0.0000</r>
       <r>  15.8661  0.0000</r>
      </set>
      <set comment="kpoint 22">
       <r>  -4.1834  1.0000</r>
       <r>  -2.1649  1.0000</r>
       <r>  -1.0305  1.0000</r>
       <r>  -1.0281  1.0000</r>
       <r>  -0.8426  1.0000</r>
       <r>  -0.7801  1.0000</r>
       <r>  -0.7769  1.0000</r>
       <r>  -0.4337  1.0000</r>
       <r>  -0.0724  1.0000</r>
       <r>  -0.0637  1.0000</r>
       <r>   0.1846  1.0000</r>
       <r>   0.2099  1.0000</r>
       <r>   0.2965  1.0000</r>
       <r>   0.4012  1.0000</r>
       <r>   0.6105  1.0000</r>
       <r>   0.6143  1.0000</r>
       <r>   0.6560  1.0000</r>
       <r>   0.6784  1.0000</r>
       <r>   0.7126  1.0000</r>
       <r>   0.8538  1.0000</r>
       <r>   1.0860  1.0000</r>
       <r>   1.0865  1.0000</r>
       <r>   6.4426  0.0000</r>
       <r>   6.7010  0.0000</r>
       <r>   9.2940  0.0000</r>
       <r>   9.3783  0.0000</r>
       <r>   9.5508  0.0000</r>
       <r>   9.8154  0.0000</r>
       <r>  11.0046  0.0000</r>
       <r>  11.4319  0.0000</r>
       <r>  15.9034  0.0000</r>
       <r>  16.2634  0.0000</r>
      </set>
      <set comment="kpoint 23">
       <r>  -3.8602  1.0000</r>
       <r>  -2.4650  1.0000</r>
       <r>  -0.9702  1.0000</r>
       <r>  -0.9685  1.0000</r>
       <r>  -0.7772  1.0000</r>
       <r>  -0.6884  1.0000</r>
       <r>  -0.6837  1.0000</r>
       <r>  -0.5006  1.0000</r>
       <r>  -0.2157  1.0000</r>
       <r>  -0.2070  1.0000</r>
       <r>   0.1966  1.0000</r>
       <r>   0.2756  1.0000</r>
       <r>   0.2763  1.0000</r>
       <r>   0.3129  1.0000</r>
       <r>   0.5639  1.0000</r>
       <r>   0.5666  1.0000</r>
       <r>   0.5776  1.0000</r>
       <r>   0.6107  1.0000</r>
       <r>   0.7057  1.0000</r>
       <r>   0.8224  1.0000</r>
       <r>   1.0861  1.0000</r>
       <r>   1.0864  1.0000</r>
       <r>   6.8860  0.0000</r>
       <r>   7.1668  0.0000</r>
       <r>   8.8452  0.0000</r>
       <r>   9.2472  0.0000</r>
       <r>   9.4942  0.0000</r>
       <r>   9.7699  0.0000</r>
       <r>  10.6405  0.0000</r>
       <r>  11.0321  0.0000</r>
[...]
       <r>  -0.2222  1.0000</r>
       <r>  -0.1604  1.0000</r>
       <r>  -0.0969  1.0000</r>
       <r>  -0.0612  1.0000</r>
       <r>  -0.0295  1.0000</r>
       <r>  -0.0057  1.0000</r>
       <r>  -0.0057  1.0000</r>
       <r>   0.3865  1.0000</r>
       <r>   0.3907  1.0000</r>
       <r>   0.3907  1.0000</r>
       <r>   0.4967  1.0000</r>
       <r>   0.9374  1.0000</r>
       <r>   0.9752  1.0000</r>
       <r>   0.9752  1.0000</r>
       <r>   0.9827  1.0000</r>
       <r>   1.1342  1.0000</r>
       <r>   1.8276  1.0000</r>
       <r>   2.8584  0.0000</r>
       <r>   2.8584  0.0000</r>
       <r>   5.6793  0.0000</r>
       <r>   5.6793  0.0000</r>
       <r>   6.8116  0.0000</r>
       <r>   7.5899  0.0000</r>
       <r>  18.9554  0.0000</r>
       <r>  18.9554  0.0000</r>
       <r>  19.6229  0.0000</r>
       <r>  19.6229  0.0000</r>
      </set>
      <set comment="kpoint 439">
       <r>  -1.8377  1.0000</r>
       <r>  -1.8377  1.0000</r>
       <r>  -1.5620  1.0000</r>
       <r>  -1.5620  1.0000</r>
       <r>  -0.2185  1.0000</r>
       <r>  -0.2185  1.0000</r>
       <r>  -0.1251  1.0000</r>
       <r>  -0.1251  1.0000</r>
       <r>  -0.0494  1.0000</r>
       <r>  -0.0494  1.0000</r>
       <r>  -0.0107  1.0000</r>
       <r>  -0.0107  1.0000</r>
       <r>   0.4134  1.0000</r>
       <r>   0.4134  1.0000</r>
       <r>   0.4525  1.0000</r>
       <r>   0.4525  1.0000</r>
       <r>   0.9643  1.0000</r>
       <r>   0.9643  1.0000</r>
       <r>   0.9704  1.0000</r>
       <r>   0.9704  1.0000</r>
       <r>   1.4504  1.0000</r>
       <r>   1.4504  1.0000</r>
       <r>   2.8836  0.0000</r>
       <r>   2.8836  0.0000</r>
       <r>   5.6065  0.0000</r>
       <r>   5.6065  0.0000</r>
       <r>   7.1803  0.0000</r>
       <r>   7.1803  0.0000</r>
       <r>  19.2464  0.0000</r>
       <r>  19.2464  0.0000</r>
       <r>  19.3344  0.0000</r>
       <r>  19.3344  0.0000</r>
      </set>
      <set comment="kpoint 440">
       <r>  -1.9711  1.0000</r>
       <r>  -1.6339  1.0000</r>
       <r>  -1.6339  1.0000</r>
       <r>  -1.5792  1.0000</r>
       <r>  -0.2106  1.0000</r>
       <r>  -0.1907  1.0000</r>
       <r>  -0.1907  1.0000</r>
       <r>  -0.0816  1.0000</r>
       <r>  -0.0778  1.0000</r>
       <r>  -0.0237  1.0000</r>
       <r>  -0.0237  1.0000</r>
       <r>  -0.0168  1.0000</r>
       <r>   0.4212  1.0000</r>
       <r>   0.4212  1.0000</r>
       <r>   0.4256  1.0000</r>
       <r>   0.6471  1.0000</r>
       <r>   0.8904  1.0000</r>
       <r>   0.9818  1.0000</r>
       <r>   0.9866  1.0000</r>
       <r>   0.9866  1.0000</r>
       <r>   1.0126  1.0000</r>
       <r>   2.3647  1.0000</r>
       <r>   2.3647  1.0000</r>
       <r>   2.7804  0.0000</r>
       <r>   5.6645  0.0000</r>
       <r>   6.1108  0.0000</r>
       <r>   6.1108  0.0000</r>
       <r>   7.5633  0.0000</r>
       <r>  18.9327  0.0000</r>
       <r>  19.7149  0.0000</r>
       <r>  19.7149  0.0000</r>
       <r>  20.2081  0.0000</r>
      </set>
      <set comment="kpoint 441">
       <r>  -1.8854  1.0000</r>
       <r>  -1.7175  1.0000</r>
       <r>  -1.6296  1.0000</r>
       <r>  -1.6024  1.0000</r>
       <r>  -0.1945  1.0000</r>
       <r>  -0.1848  1.0000</r>
       <r>  -0.1539  1.0000</r>
       <r>  -0.0993  1.0000</r>
       <r>  -0.0766  1.0000</r>
       <r>  -0.0492  1.0000</r>
       <r>  -0.0370  1.0000</r>
       <r>  -0.0337  1.0000</r>
       <r>   0.4950  1.0000</r>
       <r>   0.4953  1.0000</r>
       <r>   0.5116  1.0000</r>
       <r>   0.6601  1.0000</r>
       <r>   0.9257  1.0000</r>
       <r>   0.9735  1.0000</r>
       <r>   0.9755  1.0000</r>
       <r>   0.9778  1.0000</r>
       <r>   1.2386  1.0000</r>
       <r>   1.9514  1.0000</r>
       <r>   2.4942  0.2853</r>
       <r>   2.7222  0.0000</r>
       <r>   5.5804  0.0000</r>
       <r>   5.8214  0.0000</r>
       <r>   6.3989  0.0000</r>
       <r>   7.1298  0.0000</r>
       <r>  19.2486  0.0000</r>
       <r>  19.9067  0.0000</r>
       <r>  20.0319  0.0000</r>
       <r>  20.5549  0.0000</r>
      </set>
      <set comment="kpoint 442">
       <r>  -1.8011  1.0000</r>
       <r>  -1.8011  1.0000</r>
       <r>  -1.6192  1.0000</r>
       <r>  -1.6192  1.0000</r>
       <r>  -0.1858  1.0000</r>
       <r>  -0.1858  1.0000</r>
       <r>  -0.1235  1.0000</r>
       <r>  -0.1235  1.0000</r>
       <r>  -0.0668  1.0000</r>
       <r>  -0.0668  1.0000</r>
       <r>  -0.0405  1.0000</r>
       <r>  -0.0405  1.0000</r>
       <r>   0.5215  1.0000</r>
       <r>   0.5215  1.0000</r>
       <r>   0.5952  1.0000</r>
       <r>   0.5952  1.0000</r>
       <r>   0.9582  1.0000</r>
       <r>   0.9582  1.0000</r>
       <r>   0.9695  1.0000</r>
       <r>   0.9695  1.0000</r>
       <r>   1.5692  1.0000</r>
       <r>   1.5692  1.0000</r>
       <r>   2.6208  0.0000</r>
       <r>   2.6208  0.0000</r>
       <r>   5.6375  0.0000</r>
       <r>   5.6375  0.0000</r>
       <r>   6.7406  0.0000</r>
       <r>   6.7406  0.0000</r>
       <r>  19.5836  0.0000</r>
       <r>  19.5836  0.0000</r>
       <r>  20.3167  0.0000</r>
       <r>  20.3167  0.0000</r>
      </set>
      <set comment="kpoint 443">
       <r>  -1.8242  1.0000</r>
       <r>  -1.6971  1.0000</r>
       <r>  -1.6971  1.0000</r>
       <r>  -1.6399  1.0000</r>
       <r>  -0.1729  1.0000</r>
       <r>  -0.1527  1.0000</r>
       <r>  -0.1527  1.0000</r>
       <r>  -0.1076  1.0000</r>
       <r>  -0.0832  1.0000</r>
       <r>  -0.0608  1.0000</r>
       <r>  -0.0608  1.0000</r>
       <r>  -0.0530  1.0000</r>
       <r>   0.5755  1.0000</r>
       <r>   0.5931  1.0000</r>
       <r>   0.5931  1.0000</r>
       <r>   0.7198  1.0000</r>
       <r>   0.9183  1.0000</r>
       <r>   0.9645  1.0000</r>
       <r>   0.9645  1.0000</r>
       <r>   0.9648  1.0000</r>
       <r>   1.4602  1.0000</r>
       <r>   2.1207  1.0000</r>
       <r>   2.1207  1.0000</r>
       <r>   2.5342  0.0000</r>
       <r>   5.6240  0.0000</r>
       <r>   6.0540  0.0000</r>
       <r>   6.0540  0.0000</r>
       <r>   6.7173  0.0000</r>
       <r>  19.5676  0.0000</r>
       <r>  20.2547  0.0000</r>
       <r>  20.2547  0.0000</r>
       <r>  20.9826  0.0000</r>
      </set>
      <set comment="kpoint 444">
       <r>  -1.7617  1.0000</r>
       <r>  -1.7617  1.0000</r>
       <r>  -1.6714  1.0000</r>
       <r>  -1.6714  1.0000</r>
       <r>  -0.1586  1.0000</r>
       <r>  -0.1586  1.0000</r>
       <r>  -0.1265  1.0000</r>
       <r>  -0.1265  1.0000</r>
       <r>  -0.0766  1.0000</r>
       <r>  -0.0766  1.0000</r>
       <r>  -0.0624  1.0000</r>
       <r>  -0.0624  1.0000</r>
       <r>   0.6144  1.0000</r>
       <r>   0.6144  1.0000</r>
       <r>   0.6765  1.0000</r>
       <r>   0.6765  1.0000</r>
       <r>   0.9422  1.0000</r>
       <r>   0.9422  1.0000</r>
       <r>   0.9584  1.0000</r>
       <r>   0.9584  1.0000</r>
       <r>   1.7667  1.0000</r>
       <r>   1.7667  1.0000</r>
       <r>   2.3231  1.0000</r>
       <r>   2.3231  1.0000</r>
       <r>   5.7896  0.0000</r>
       <r>   5.7896  0.0000</r>
       <r>   6.3565  0.0000</r>
       <r>   6.3565  0.0000</r>
       <r>  19.9078  0.0000</r>
       <r>  19.9078  0.0000</r>
       <r>  20.6104  0.0000</r>
       <r>  20.6104  0.0000</r>
      </set>
      <set comment="kpoint 445">
       <r>  -1.7187  1.0000</r>
       <r>  -1.7187  1.0000</r>
       <r>  -1.7187  1.0000</r>
       <r>  -1.7187  1.0000</r>
       <r>  -0.1382  1.0000</r>
       <r>  -0.1382  1.0000</r>
       <r>  -0.1382  1.0000</r>
       <r>  -0.1382  1.0000</r>
       <r>  -0.0752  1.0000</r>
       <r>  -0.0752  1.0000</r>
       <r>  -0.0752  1.0000</r>
       <r>  -0.0752  1.0000</r>
       <r>   0.6765  1.0000</r>
       <r>   0.6765  1.0000</r>
       <r>   0.6765  1.0000</r>
       <r>   0.6765  1.0000</r>
       <r>   0.9434  1.0000</r>
       <r>   0.9434  1.0000</r>
       <r>   0.9434  1.0000</r>
       <r>   0.9434  1.0000</r>
       <r>   2.0274  1.0000</r>
       <r>   2.0274  1.0000</r>
       <r>   2.0274  1.0000</r>
       <r>   2.0274  1.0000</r>
       <r>   6.0356  0.0000</r>
       <r>   6.0356  0.0000</r>
       <r>   6.0356  0.0000</r>
       <r>   6.0356  0.0000</r>
       <r>  20.2536  0.0000</r>
       <r>  20.2536  0.0000</r>
       <r>  20.2536  0.0000</r>
       <r>  20.2536  0.0000</r>
      </set>
      <set comment="kpoint 446">
       <r>  -1.9098  1.0000</r>
       <r>  -1.6508  1.0000</r>
       <r>  -1.6508  1.0000</r>
       <r>  -1.6508  1.0000</r>
       <r>  -0.1745  1.0000</r>
       <r>  -0.1745  1.0000</r>
       <r>  -0.1745  1.0000</r>
       <r>  -0.0883  1.0000</r>
       <r>  -0.0883  1.0000</r>
       <r>  -0.0471  1.0000</r>
       <r>  -0.0471  1.0000</r>
       <r>  -0.0471  1.0000</r>
       <r>   0.5366  1.0000</r>
       <r>   0.5366  1.0000</r>
       <r>   0.5366  1.0000</r>
       <r>   0.9270  1.0000</r>
       <r>   0.9270  1.0000</r>
       <r>   0.9498  1.0000</r>
       <r>   0.9888  1.0000</r>
       <r>   0.9888  1.0000</r>
       <r>   0.9888  1.0000</r>
       <r>   2.4064  1.0000</r>
       <r>   2.4064  1.0000</r>
       <r>   2.4064  1.0000</r>
       <r>   5.8045  0.0000</r>
       <r>   5.8045  0.0000</r>
       <r>   5.8045  0.0000</r>
       <r>   7.1044  0.0000</r>
       <r>  19.9898  0.0000</r>
       <r>  19.9898  0.0000</r>
       <r>  19.9898  0.0000</r>
       <r>  20.8436  0.0000</r>
      </set>
      <set comment="kpoint 447">
       <r>  -1.8479  1.0000</r>
       <r>  -1.7191  1.0000</r>
       <r>  -1.6611  1.0000</r>
       <r>  -1.6611  1.0000</r>
       <r>  -0.1638  1.0000</r>
       <r>  -0.1638  1.0000</r>
       <r>  -0.1438  1.0000</r>
       <r>  -0.1007  1.0000</r>
       <r>  -0.0905  1.0000</r>
       <r>  -0.0697  1.0000</r>
       <r>  -0.0619  1.0000</r>
       <r>  -0.0619  1.0000</r>
       <r>   0.6181  1.0000</r>
       <r>   0.6181  1.0000</r>
       <r>   0.6443  1.0000</r>
       <r>   0.8432  1.0000</r>
       <r>   0.9556  1.0000</r>
       <r>   0.9827  1.0000</r>
       <r>   0.9827  1.0000</r>
       <r>   0.9868  1.0000</r>
       <r>   1.2763  1.0000</r>
       <r>   2.0177  1.0000</r>
       <r>   2.4379  1.0000</r>
       <r>   2.4379  1.0000</r>
       <r>   5.6097  0.0000</r>
       <r>   5.6097  0.0000</r>
       <r>   6.0345  0.0000</r>
       <r>   6.6935  0.0000</r>
       <r>  20.2836  0.0000</r>
       <r>  20.2836  0.0000</r>
       <r>  20.8571  0.0000</r>
       <r>  20.8629  0.0000</r>
      </set>
      <set comment="kpoint 448">
       <r>  -1.7846  1.0000</r>
       <r>  -1.7846  1.0000</r>
       <r>  -1.6646  1.0000</r>
       <r>  -1.6646  1.0000</r>
       <r>  -0.1600  1.0000</r>
       <r>  -0.1600  1.0000</r>
       <r>  -0.1191  1.0000</r>
       <r>  -0.1191  1.0000</r>
       <r>  -0.0843  1.0000</r>
       <r>  -0.0843  1.0000</r>
       <r>  -0.0671  1.0000</r>
       <r>  -0.0671  1.0000</r>
       <r>   0.6485  1.0000</r>
       <r>   0.6485  1.0000</r>
       <r>   0.7470  1.0000</r>
       <r>   0.7470  1.0000</r>
       <r>   0.9757  1.0000</r>
       <r>   0.9757  1.0000</r>
       <r>   0.9783  1.0000</r>
       <r>   0.9783  1.0000</r>
       <r>   1.6365  1.0000</r>
       <r>   1.6365  1.0000</r>
       <r>   2.4497  1.0000</r>
       <r>   2.4497  1.0000</r>
       <r>   5.5425  0.0000</r>
       <r>   5.5425  0.0000</r>
       <r>   6.3347  0.0000</r>
       <r>   6.3347  0.0000</r>
       <r>  20.5545  0.0000</r>
       <r>  20.5545  0.0000</r>
       <r>  20.6237  0.0000</r>
       <r>  20.6237  0.0000</r>
      </set>
      <set comment="kpoint 449">
       <r>  -1.8075  1.0000</r>
       <r>  -1.7147  1.0000</r>
       <r>  -1.7147  1.0000</r>
       <r>  -1.6859  1.0000</r>
       <r>  -0.1482  1.0000</r>
       <r>  -0.1383  1.0000</r>
       <r>  -0.1383  1.0000</r>
       <r>  -0.1045  1.0000</r>
       <r>  -0.0992  1.0000</r>
       <r>  -0.0825  1.0000</r>
       <r>  -0.0825  1.0000</r>
       <r>  -0.0787  1.0000</r>
       <r>   0.7124  1.0000</r>
       <r>   0.7330  1.0000</r>
       <r>   0.7330  1.0000</r>
       <r>   0.9025  1.0000</r>
       <r>   0.9484  1.0000</r>
       <r>   0.9799  1.0000</r>
       <r>   0.9817  1.0000</r>
       <r>   0.9817  1.0000</r>
       <r>   1.4812  1.0000</r>
       <r>   2.1144  1.0000</r>
       <r>   2.1144  1.0000</r>
       <r>   2.3464  1.0000</r>
       <r>   5.5303  0.0000</r>
       <r>   5.7572  0.0000</r>
       <r>   5.7572  0.0000</r>
       <r>   6.3137  0.0000</r>
       <r>  20.5788  0.0000</r>
       <r>  21.1615  0.0000</r>
       <r>  21.1636  0.0000</r>
       <r>  21.2702  0.0000</r>
      </set>
      <set comment="kpoint 450">
       <r>  -1.7633  1.0000</r>
       <r>  -1.7633  1.0000</r>
       <r>  -1.7037  1.0000</r>
       <r>  -1.7037  1.0000</r>
       <r>  -0.1393  1.0000</r>
       <r>  -0.1393  1.0000</r>
       <r>  -0.1183  1.0000</r>
       <r>  -0.1183  1.0000</r>
       <r>  -0.0951  1.0000</r>
       <r>  -0.0951  1.0000</r>
       <r>  -0.0860  1.0000</r>
       <r>  -0.0860  1.0000</r>
       <r>   0.7577  1.0000</r>
       <r>   0.7577  1.0000</r>
       <r>   0.8342  1.0000</r>
       <r>   0.8342  1.0000</r>
       <r>   0.9693  1.0000</r>
       <r>   0.9693  1.0000</r>
       <r>   0.9760  1.0000</r>
       <r>   0.9760  1.0000</r>
       <r>   1.7839  1.0000</r>
       <r>   1.7839  1.0000</r>
       <r>   2.2312  1.0000</r>
       <r>   2.2312  1.0000</r>
       <r>   5.5834  0.0000</r>
       <r>   5.5834  0.0000</r>
       <r>   5.9978  0.0000</r>
       <r>   5.9978  0.0000</r>
       <r>  20.8841  0.0000</r>
       <r>  20.8841  0.0000</r>
       <r>  21.4858  0.0000</r>
       <r>  21.4960  0.0000</r>
      </set>
      <set comment="kpoint 451">
       <r>  -1.7365  1.0000</r>
       <r>  -1.7365  1.0000</r>
       <r>  -1.7365  1.0000</r>
       <r>  -1.7365  1.0000</r>
       <r>  -0.1245  1.0000</r>
       <r>  -0.1245  1.0000</r>
       <r>  -0.1245  1.0000</r>
       <r>  -0.1245  1.0000</r>
       <r>  -0.0961  1.0000</r>
       <r>  -0.0961  1.0000</r>
       <r>  -0.0961  1.0000</r>
       <r>  -0.0961  1.0000</r>
       <r>   0.8328  1.0000</r>
       <r>   0.8328  1.0000</r>
       <r>   0.8328  1.0000</r>
       <r>   0.8328  1.0000</r>
       <r>   0.9663  1.0000</r>
       <r>   0.9663  1.0000</r>
       <r>   0.9663  1.0000</r>
       <r>   0.9663  1.0000</r>
       <r>   1.9959  1.0000</r>
       <r>   1.9959  1.0000</r>
       <r>   1.9959  1.0000</r>
       <r>   1.9959  1.0000</r>
       <r>   5.7419  0.0000</r>
       <r>   5.7419  0.0000</r>
       <r>   5.7419  0.0000</r>
       <r>   5.7419  0.0000</r>
       <r>  21.1922  0.0000</r>
       <r>  21.1922  0.0000</r>
       <r>  21.1922  0.0000</r>
       <r>  21.1922  0.0000</r>
      </set>
      <set comment="kpoint 452">
       <r>  -1.7859  1.0000</r>
       <r>  -1.7254  1.0000</r>
       <r>  -1.7254  1.0000</r>
       <r>  -1.7254  1.0000</r>
       <r>  -0.1286  1.0000</r>
       <r>  -0.1286  1.0000</r>
       <r>  -0.1286  1.0000</r>
       <r>  -0.1068  1.0000</r>
       <r>  -0.1068  1.0000</r>
       <r>  -0.0965  1.0000</r>
       <r>  -0.0965  1.0000</r>
       <r>  -0.0965  1.0000</r>
       <r>   0.8338  1.0000</r>
       <r>   0.8338  1.0000</r>
       <r>   0.8338  1.0000</r>
       <r>   0.9700  1.0000</r>
       <r>   0.9700  1.0000</r>
       <r>   0.9859  1.0000</r>
       <r>   0.9859  1.0000</r>
       <r>   0.9859  1.0000</r>
       <r>   1.6172  1.0000</r>
       <r>   2.1088  1.0000</r>
       <r>   2.1088  1.0000</r>
       <r>   2.1088  1.0000</r>
       <r>   5.5702  0.0000</r>
       <r>   5.5702  0.0000</r>
       <r>   5.5702  0.0000</r>
       <r>   5.9795  0.0000</r>
       <r>  21.5089  0.0000</r>
       <r>  21.5093  0.0000</r>
       <r>  21.5104  0.0000</r>
       <r>  21.7712  0.0000</r>
      </set>
      <set comment="kpoint 453">
       <r>  -1.7587  1.0000</r>
       <r>  -1.7587  1.0000</r>
       <r>  -1.7291  1.0000</r>
       <r>  -1.7291  1.0000</r>
       <r>  -0.1249  1.0000</r>
       <r>  -0.1249  1.0000</r>
       <r>  -0.1148  1.0000</r>
       <r>  -0.1148  1.0000</r>
       <r>  -0.1059  1.0000</r>
       <r>  -0.1059  1.0000</r>
       <r>  -0.1016  1.0000</r>
       <r>  -0.1016  1.0000</r>
       <r>   0.8737  1.0000</r>
       <r>   0.8737  1.0000</r>
       <r>   0.9286  1.0000</r>
       <r>   0.9286  1.0000</r>
       <r>   0.9826  1.0000</r>
       <r>   0.9826  1.0000</r>
       <r>   0.9832  1.0000</r>
       <r>   0.9832  1.0000</r>
       <r>   1.8503  1.0000</r>
       <r>   1.8503  1.0000</r>
       <r>   2.1065  1.0000</r>
       <r>   2.1065  1.0000</r>
       <r>   5.5062  0.0000</r>
       <r>   5.5062  0.0000</r>
       <r>   5.7264  0.0000</r>
       <r>   5.7264  0.0000</r>
       <r>  21.7221  0.0000</r>
       <r>  21.7224  0.0000</r>
       <r>  21.7444  0.0000</r>
       <r>  21.7445  0.0000</r>
      </set>
      <set comment="kpoint 454">
       <r>  -1.7474  1.0000</r>
       <r>  -1.7474  1.0000</r>
       <r>  -1.7474  1.0000</r>
       <r>  -1.7474  1.0000</r>
       <r>  -0.1160  1.0000</r>
       <r>  -0.1160  1.0000</r>
       <r>  -0.1160  1.0000</r>
       <r>  -0.1160  1.0000</r>
       <r>  -0.1089  1.0000</r>
       <r>  -0.1089  1.0000</r>
       <r>  -0.1089  1.0000</r>
       <r>  -0.1089  1.0000</r>
       <r>   0.9439  1.0000</r>
       <r>   0.9439  1.0000</r>
       <r>   0.9439  1.0000</r>
       <r>   0.9439  1.0000</r>
       <r>   0.9802  1.0000</r>
       <r>   0.9802  1.0000</r>
       <r>   0.9802  1.0000</r>
       <r>   0.9802  1.0000</r>
       <r>   1.9679  1.0000</r>
       <r>   1.9679  1.0000</r>
       <r>   1.9679  1.0000</r>
       <r>   1.9679  1.0000</r>
       <r>   5.5574  0.0000</r>
       <r>   5.5574  0.0000</r>
       <r>   5.5574  0.0000</r>
       <r>   5.5574  0.0000</r>
       <r>  21.9461  0.0000</r>
       <r>  21.9461  0.0000</r>
       <r>  21.9463  0.0000</r>
       <r>  21.9464  0.0000</r>
      </set>
      <set comment="kpoint 455">
       <r>  -1.7510  1.0000</r>
       <r>  -1.7510  1.0000</r>
       <r>  -1.7510  1.0000</r>
       <r>  -1.7510  1.0000</r>
       <r>  -0.1132  1.0000</r>
       <r>  -0.1132  1.0000</r>
       <r>  -0.1132  1.0000</r>
       <r>  -0.1132  1.0000</r>
       <r>  -0.1132  1.0000</r>
       <r>  -0.1132  1.0000</r>
       <r>  -0.1132  1.0000</r>
       <r>  -0.1132  1.0000</r>
       <r>   0.9849  1.0000</r>
       <r>   0.9849  1.0000</r>
       <r>   0.9849  1.0000</r>
       <r>   0.9849  1.0000</r>
       <r>   0.9849  1.0000</r>
       <r>   0.9849  1.0000</r>
       <r>   0.9849  1.0000</r>
       <r>   0.9849  1.0000</r>
       <r>   1.9561  1.0000</r>
       <r>   1.9561  1.0000</r>
       <r>   1.9561  1.0000</r>
       <r>   1.9561  1.0000</r>
       <r>   5.4944  0.0000</r>
       <r>   5.4944  0.0000</r>
       <r>   5.4944  0.0000</r>
       <r>   5.4944  0.0000</r>
       <r>  22.2232  0.0000</r>
       <r>  22.2232  0.0000</r>
       <r>  22.2232  0.0000</r>
       <r>  22.2232  0.0000</r>
      </set>
     </set>
    </set>
   </array>
  </eigenvalues>
 </calculation>
 <structure name="finalpos" >
  <crystal>
   <varray name="basis" >
    <v>       3.81866544      0.00000000      0.00000000</v>
    <v>       0.00000000      3.81866544      0.00000000</v>
    <v>       0.00000000      0.00000000      3.81866544</v>
   </varray>
   <i name="volume">     55.68456495</i>
   <varray name="rec_basis" >
    <v>       0.26187159      0.00000000      0.00000000</v>
    <v>       0.00000000      0.26187159      0.00000000</v>
    <v>       0.00000000      0.00000000      0.26187159</v>
   </varray>
  </crystal>
  <varray name="positions" >
   <v>       0.00000000      0.00000000      0.00000000</v>
   <v>       0.50000000      0.50000000      0.00000000</v>
   <v>       0.50000000      0.00000000      0.50000000</v>
   <v>       0.00000000      0.50000000      0.50000000</v>
  </varray>
 </structure>
</modeling>
