 vasp.4.6.28 25Jul05 complex 
 executed on             LinuxIFC date 2017.01.25  21:57:57
 running on    4 nodes
 distr:  one band on    1 nodes,    4 groups


--------------------------------------------------------------------------------------------------------


 INCAR:
 POTCAR:   PAW_PBE Cu 05Jan2001                   
 POTCAR:   PAW_PBE Cu 05Jan2001                   
   VRHFIN =Cu: d10 p1                                                           
   LEXCH  = PE                                                                  
   EATOM  =  1390.9800 eV,  102.2341 Ry                                         
                                                                                
   TITEL  = PAW_PBE Cu 05Jan2001                                                
   LULTRA =        F    use ultrasoft PP ?                                      
   IUNSCR =        1    unscreen: 0-lin 1-nonlin 2-no                           
   RPACOR =    2.000    partial core radius                                     
   POMASS =   63.546; ZVAL   =   11.000    mass and valenz                      
   RCORE  =    2.300    outmost cutoff radius                                   
   RWIGS  =    2.480; RWIGS  =    1.312    wigner-seitz radius (au A)           
   ENMAX  =  273.214; ENMIN  =  204.910 eV                                      
   RCLOC  =    1.712    cutoff for local pot                                    
   LCOR   =        T    correct aug charges                                     
   LPAW   =        T    paw PP                                                  
   EAUG   =  516.456                                                            
   DEXC   =    -.008                                                            
   RMAX   =    2.789    core radius for proj-oper                               
   RAUG   =    1.300    factor for augmentation sphere                          
   RDEP   =    2.302    radius for radial grids                                 
   QCUT   =   -4.481; QGAM   =    8.962    optimization parameters              
                                                                                
   Description                                                                  
     l     E      TYP  RCUT    TYP  RCUT                                        
     2   .000     23  2.300                                                     
     2   .000     23  2.300                                                     
     0   .000     23  2.300                                                     
     0   .000     23  2.300                                                     
     1  -.200     23  2.300                                                     
     1   .000     23  2.300                                                     
     3   .000      7   .000                                                     
  local pseudopotential read in
  partial core-charges read in
  atomic valenz-charges read in
  non local Contribution for L=           2  read in
    real space projection operators read in
  non local Contribution for L=           2  read in
    real space projection operators read in
  non local Contribution for L=           0  read in
    real space projection operators read in
  non local Contribution for L=           0  read in
    real space projection operators read in
  non local Contribution for L=           1  read in
    real space projection operators read in
  non local Contribution for L=           1  read in
    real space projection operators read in
    PAW grid and wavefunctions read in
 
   number of l-projection  operators is LMAX  =           6
   number of lm-projection operators is LMMAX =          18
 

 ----------------------------------------------------------------------------- 
|                                                                             |
|  ADVICE TO THIS USER RUNNING 'VASP/VAMP'   (HEAR YOUR MASTER'S VOICE ...):  |
|                                                                             |
|      You have a (more or less) 'large supercell' and for larger cells       |
|      it might be more efficient to use real space projection operators      |
|      So try LREAL= Auto  in the INCAR   file.                               |
|      Mind: If you want to do an extremely accurate calculations keep the    |
|      reciprocal projection scheme          (i.e. LREAL=.FALSE.)             |
|                                                                             |
 ----------------------------------------------------------------------------- 

 PAW_PBE Cu 05Jan2001                   :
 energy of atom  1       EATOM=-1390.9800
 kinetic energy error for atom=    0.0032 (will be added to EATOM!!)
 
 EXHCAR: internal setup
 exchange correlation table for  LEXCH =        8
   RHO(1)=    0.500       N(1)  =     2000
   RHO(2)=  100.500       N(2)  =     4000
 
 POSCAR: No title                                
  positions in direct lattice
  No initial velocities read in
 


--------------------------------------------------------------------------------------------------------


 ion  position               nearest neighbor table
   1  0.667  0.667  0.333-   5 2.75   8 2.75   9 2.75  43 2.75  60 2.75   3 2.75  59 2.75  38 2.75
                             2 2.75  19 2.75  34 2.75 101 2.75
   2  0.667  0.833  0.500-   3 2.75   9 2.75  14 2.75  10 2.75  34 2.75  39 2.75   1 2.75   6 2.75
                            61 2.75  97 2.75  60 2.75  35 2.75
   3  0.833  0.667  0.500-   2 2.75   9 2.75  14 2.75  12 2.75   1 2.75  19 2.75  39 2.75  11 2.75
                            49 2.75  87 2.75  44 2.75  43 2.75
   4  0.667  0.667  0.000-  21 2.75  20 2.75  15 2.75  66 2.75  83 2.75   8 2.75   5 2.75  38 2.75
                            59 2.75  82 2.75 107 2.75  63 2.75
   5  0.667  0.833  0.167-   1 2.75   8 2.75   9 2.75  21 2.75  60 2.75  59 2.75  22 2.75   4 2.75
                             6 2.75  16 2.75  84 2.75  83 2.75
   6  0.667  0.000  0.333-  22 2.75  17 2.75   9 2.75  10 2.75  23 2.75  84 2.75   5 2.75  61 2.75
                             2 2.75  85 2.75  60 2.75   7 2.75
   7  0.667  0.167  0.500-  24 2.75  18 2.75  23 2.75  10 2.75  86 2.75  64 2.75  62 2.75  35 2.75
                           105 2.75  61 2.75  85 2.75   6 2.75
   8  0.833  0.667  0.167-   5 2.75   1 2.75   9 2.75  21 2.75  43 2.75  26 2.75  38 2.75   4 2.75
                            11 2.75  25 2.75  70 2.75  66 2.75
   9  0.833  0.833  0.333-   1 2.75   5 2.75   8 2.75   2 2.75   6 2.75   3 2.75  11 2.75  22 2.75
                            26 2.75  12 2.75  27 2.75  10 2.75
  10  0.833  0.000  0.500-   7 2.75  35 2.75   2 2.75   6 2.75  23 2.75  27 2.75  12 2.75  39 2.75
                            28 2.75  67 2.75  64 2.75   9 2.75
  11  0.000  0.667  0.333-  26 2.75   9 2.75  29 2.75  30 2.75   8 2.75  12 2.75  70 2.75  49 2.75
                             3 2.75  75 2.75  43 2.75  13 2.75
  12  0.000  0.833  0.500-  13 2.75  44 2.75   3 2.75  11 2.75  27 2.75  30 2.75  39 2.75  10 2.75
                             9 2.75  31 2.75  71 2.75  67 2.75
  13  0.167  0.667  0.500-  33 2.75  30 2.75  32 2.75  12 2.75  81 2.75  76 2.75  71 2.75  44 2.75
                           102 2.75  11 2.75  49 2.75  75 2.75
  14  0.667  0.667  0.667-  39 2.75  20 2.75  15 2.75   3 2.75   2 2.75  63 2.75  82 2.75  87 2.75
                            97 2.75  34 2.75 108 2.75  19 2.75
  15  0.667  0.833  0.833-  20 2.75  39 2.75  14 2.75  35 2.75   4 2.75  21 2.75  40 2.75  82 2.75
                            97 2.75  83 2.75  98 2.75  16 2.75
  16  0.667  0.000  0.000-  21 2.75  40 2.75  22 2.75  41 2.75   5 2.75  36 2.75  84 2.75  99 2.75
                            98 2.75  83 2.75  17 2.75  15 2.75
  17  0.667  0.167  0.167-  42 2.75  23 2.75  18 2.75   6 2.75  37 2.75  41 2.75  22 2.75  85 2.75
                           100 2.75  99 2.75  84 2.75  16 2.75
  18  0.667  0.333  0.333-  23 2.75  42 2.75  17 2.75  38 2.75   7 2.75  24 2.75  43 2.75  85 2.75
                           100 2.75  86 2.75 101 2.75  19 2.75
  19  0.667  0.500  0.500-  24 2.75  43 2.75   3 2.75  87 2.75   1 2.75  62 2.75  34 2.75 108 2.75
                           101 2.75  86 2.75  14 2.75  18 2.75
  20  0.833  0.667  0.833-  15 2.75  39 2.75  14 2.75   4 2.75  44 2.75  45 2.75  63 2.75  21 2.75
                            87 2.75  66 2.75  89 2.75  25 2.75
  21  0.833  0.833  0.000-   4 2.75   5 2.75   8 2.75  16 2.75  25 2.75  15 2.75  20 2.75  40 2.75
                            45 2.75  26 2.75  22 2.75  46 2.77
  22  0.833  0.000  0.167-   6 2.75   9 2.75  17 2.75  16 2.75   5 2.75  27 2.75  23 2.75  26 2.75
                            41 2.75  47 2.75  21 2.75  46 2.77
  23  0.833  0.167  0.333-  18 2.75  42 2.75  17 2.75   7 2.75  47 2.75   6 2.75  48 2.75  24 2.75
                            22 2.75  27 2.75  10 2.75  28 2.75
  24  0.833  0.333  0.500-   7 2.75  19 2.75  28 2.75  62 2.75  64 2.75  18 2.75  23 2.75  43 2.75
                            48 2.75  49 2.75  88 2.75  87 2.75
  25  0.000  0.667  0.000-  21 2.75  45 2.75  51 2.75  26 2.75  50 2.75   8 2.75  70 2.75  92 2.75
                            66 2.75  29 2.75  20 2.75  89 2.75
  26  0.000  0.833  0.167-  11 2.75   9 2.75  29 2.75   8 2.75  30 2.75  25 2.75  27 2.75  22 2.75
                            51 2.75  21 2.75  52 2.75  46 2.75
  27  0.000  0.000  0.333-  47 2.75  52 2.75  22 2.75  26 2.75  12 2.75  30 2.75  10 2.75  23 2.75
                             9 2.75  31 2.75  53 2.75  28 2.75
  28  0.000  0.167  0.500-  24 2.75  48 2.75  54 2.75  88 2.75  31 2.75  64 2.75  67 2.75  53 2.75
                            10 2.75  23 2.75  90 2.75  27 2.75
  29  0.167  0.667  0.167-  56 2.75  32 2.75  30 2.75  26 2.75  51 2.75  55 2.75  11 2.75  75 2.75
                            96 2.75  25 2.75  70 2.75  92 2.75
  30  0.167  0.833  0.333-  32 2.75  56 2.75  29 2.75  52 2.75  13 2.75  11 2.75  33 2.75  57 2.75
                            26 2.75  12 2.75  27 2.75  31 2.75
  31  0.167  0.000  0.500-  33 2.75  57 2.75  58 2.75  93 2.75  53 2.75  67 2.75  71 2.75  28 2.75
                            12 2.75  27 2.75  90 2.75  30 2.75
  32  0.333  0.667  0.333-  30 2.75  56 2.75  29 2.75  13 2.75  59 2.75  60 2.75  75 2.75  33 2.75
                            96 2.75  81 2.75 101 2.75  34 2.75
  33  0.333  0.833  0.500-  13 2.75  31 2.75  34 2.75  71 2.75  76 2.75  30 2.75  32 2.75  57 2.75
                            60 2.75  61 2.75  97 2.75  93 2.75
  34  0.500  0.667  0.500-  33 2.75  60 2.75   2 2.75  97 2.75  19 2.75  76 2.75   1 2.75 108 2.75
                            81 2.75  32 2.75  14 2.75 101 2.75
  35  0.667  0.000  0.667-  40 2.75  15 2.75  39 2.75  10 2.75  98 2.75  64 2.75  36 2.75   7 2.75
                           105 2.75  61 2.75  97 2.75   2 2.75
  36  0.667  0.167  0.833-  62 2.75  64 2.75  65 2.75  40 2.75 106 2.75  41 2.75 105 2.75  37 2.75
                            35 2.75  16 2.75  99 2.75  98 2.75
  37  0.667  0.333  0.000-  41 2.75  17 2.75  65 2.75  42 2.75  66 2.75  99 2.75  36 2.75  63 2.75
                           100 2.75 107 2.75 106 2.75  38 2.75
  38  0.667  0.500  0.167-  43 2.75  42 2.75  18 2.75  66 2.75 101 2.75   8 2.75   1 2.75   4 2.75
                            59 2.75 100 2.75 107 2.75  37 2.75
  39  0.833  0.833  0.667-  20 2.75  15 2.75  14 2.75  35 2.75  44 2.75   2 2.75  45 2.75   3 2.75
                            40 2.75  12 2.75  10 2.75  67 2.75
  40  0.833  0.000  0.833-  35 2.75  16 2.75  36 2.75  64 2.75  67 2.75  15 2.75  39 2.75  21 2.75
                            45 2.75  68 2.75  41 2.75  46 2.77
  41  0.833  0.167  0.000-  37 2.75  17 2.75  65 2.75  16 2.75  36 2.75  69 2.75  42 2.75  68 2.75
                            22 2.75  47 2.75  40 2.75  46 2.77
  42  0.833  0.333  0.167-  23 2.75  18 2.75  17 2.75  38 2.75  47 2.75  37 2.75  48 2.75  41 2.75
                            43 2.75  66 2.75  69 2.75  70 2.75
  43  0.833  0.500  0.333-  38 2.75   8 2.75  19 2.75   1 2.75  70 2.75  18 2.75  42 2.75  48 2.75
                            24 2.75  49 2.75  11 2.75   3 2.75
  44  0.000  0.667  0.667-  45 2.75  20 2.75  39 2.75  12 2.75  89 2.75  71 2.75  50 2.75  13 2.75
                           102 2.75   3 2.75  87 2.75  49 2.75
  45  0.000  0.833  0.833-  44 2.75  25 2.75  50 2.75  67 2.75  71 2.75  20 2.75  39 2.75  21 2.75
                            40 2.75  51 2.75  72 2.75  46 2.75
  46  0.002  0.000  0.000-  51 2.74  72 2.74  52 2.74  73 2.74  26 2.75  68 2.75  47 2.75  45 2.75
                            41 2.77  22 2.77  21 2.77  40 2.77
  47  0.000  0.167  0.167-  48 2.75  27 2.75  42 2.75  23 2.75  69 2.75  74 2.75  53 2.75  73 2.75
                            52 2.75  41 2.75  22 2.75  46 2.75
  48  0.000  0.333  0.333-  47 2.75  28 2.75  53 2.75  70 2.75  74 2.75  23 2.75  42 2.75  24 2.75
                            43 2.75  54 2.75  75 2.75  49 2.75
  49  0.000  0.500  0.500-   3 2.75  11 2.75  54 2.75  75 2.75  87 2.75  88 2.75  24 2.75  43 2.75
                            13 2.75 102 2.75  48 2.75  44 2.75
  50  0.167  0.667  0.833-  71 2.75  76 2.75  77 2.75  45 2.75 104 2.75  55 2.75  44 2.75 102 2.75
                            51 2.75  25 2.75  92 2.75  89 2.75
  51  0.167  0.833  0.000-  46 2.74  55 2.75  29 2.75  77 2.75  56 2.75  25 2.75  78 2.75  50 2.75
                            26 2.75  72 2.75  45 2.75  52 2.75
  52  0.167  0.000  0.167-  46 2.74  57 2.75  27 2.75  56 2.75  30 2.75  78 2.75  79 2.75  53 2.75
                            47 2.75  73 2.75  26 2.75  51 2.75
  53  0.167  0.167  0.333-  74 2.75  79 2.75  80 2.75  57 2.75  48 2.75  58 2.75  47 2.75  54 2.75
                            52 2.75  31 2.75  28 2.75  27 2.75
  54  0.167  0.333  0.500-  58 2.75  80 2.75  90 2.75  81 2.75  28 2.75 103 2.75  53 2.75  88 2.75
                            49 2.75  75 2.75  48 2.75 102 2.75
  55  0.333  0.667  0.000-  51 2.75  29 2.75  77 2.75  50 2.75  83 2.75  92 2.75  56 2.75  82 2.75
                            96 2.75 107 2.75  59 2.75 104 2.75
  56  0.333  0.833  0.167-  32 2.75  30 2.75  29 2.75  52 2.75  59 2.75  51 2.75  60 2.75  55 2.75
                            57 2.75  78 2.75  83 2.75  84 2.75
  57  0.333  0.000  0.333-  52 2.75  31 2.75  53 2.75  79 2.75  84 2.75  30 2.75  56 2.75  33 2.75
                            60 2.75  61 2.75  85 2.75  58 2.75
  58  0.333  0.167  0.500-  54 2.75  80 2.75  90 2.75  53 2.75  86 2.75  31 2.75 103 2.75  85 2.75
                            93 2.75  61 2.75 105 2.75  57 2.75
  59  0.500  0.667  0.167-  60 2.75  56 2.75  32 2.75  83 2.75 101 2.75   5 2.75   1 2.75   4 2.75
                            38 2.75  96 2.75  55 2.75 107 2.75
  60  0.500  0.833  0.333-  59 2.75   5 2.75  34 2.75   1 2.75  84 2.75  32 2.75  56 2.75  33 2.75
                            57 2.75   6 2.75   2 2.75  61 2.75
  61  0.500  0.000  0.500-   2 2.75   6 2.75  58 2.75  85 2.75  93 2.75  97 2.75   7 2.75  33 2.75
                            35 2.75  57 2.75  60 2.75 105 2.75
  62  0.667  0.333  0.667-  36 2.75  64 2.75  65 2.75  24 2.75 106 2.75 105 2.75  87 2.75  63 2.75
                             7 2.75  19 2.75 108 2.75  86 2.75
  63  0.667  0.500  0.833-  87 2.75  65 2.75  14 2.75  66 2.75  20 2.75 108 2.75  62 2.75  37 2.75
                           107 2.75  82 2.75 106 2.75   4 2.75
  64  0.833  0.167  0.667-  62 2.75  36 2.75  65 2.75  24 2.75  40 2.75   7 2.75  35 2.75  88 2.75
                            68 2.75  28 2.75  67 2.75  10 2.75
  65  0.833  0.333  0.833-  36 2.75  62 2.75  64 2.75  37 2.75  63 2.75  41 2.75  68 2.75  87 2.75
                            88 2.75  69 2.75  89 2.75  66 2.75
  66  0.833  0.500  0.000-   4 2.75  38 2.75  37 2.75  63 2.75  42 2.75  20 2.75  69 2.75  89 2.75
                            70 2.75  25 2.75  65 2.75   8 2.75
  67  0.000  0.000  0.667-  40 2.75  45 2.75  72 2.75  68 2.75  64 2.75  28 2.75  71 2.75  31 2.75
                            10 2.75  39 2.75  90 2.75  12 2.75
  68  0.000  0.167  0.833-  88 2.75  65 2.75  90 2.75  91 2.75  64 2.75  69 2.75  67 2.75  72 2.75
                            41 2.75  73 2.75  40 2.75  46 2.75
  69  0.000  0.333  0.000-  47 2.75  73 2.75  41 2.75  68 2.75  42 2.75  66 2.75  89 2.75  91 2.75
                            65 2.75  74 2.75  92 2.75  70 2.75
  70  0.000  0.500  0.167-  43 2.75  48 2.75  75 2.75  11 2.75  25 2.75  74 2.75   8 2.75  92 2.75
                            29 2.75  42 2.75  66 2.75  69 2.75
  71  0.167  0.833  0.667-  50 2.75  76 2.75  77 2.75  45 2.75  33 2.75  44 2.75  93 2.75  72 2.75
                            13 2.75  31 2.75  67 2.75  12 2.75
  72  0.167  0.000  0.833-  46 2.74  93 2.75  90 2.75  77 2.75  78 2.75  94 2.75  67 2.75  71 2.75
                            51 2.75  68 2.75  45 2.75  73 2.75
  73  0.167  0.167  0.000-  46 2.74  95 2.75  78 2.75  91 2.75  94 2.75  69 2.75  79 2.75  74 2.75
                            52 2.75  47 2.75  68 2.75  72 2.75
  74  0.167  0.333  0.167-  53 2.75  79 2.75  80 2.75  48 2.75  95 2.75  47 2.75  96 2.75  73 2.75
                            75 2.75  70 2.75  92 2.75  69 2.75
  75  0.167  0.500  0.333-  96 2.75  80 2.75  29 2.75  81 2.75  32 2.75  70 2.75  74 2.75  54 2.75
                            11 2.75  49 2.75  48 2.75  13 2.75
  76  0.333  0.667  0.667-  71 2.75  50 2.75  77 2.75  33 2.75 104 2.75  97 2.75 102 2.75  13 2.75
                            82 2.75  34 2.75 108 2.75  81 2.75
  77  0.333  0.833  0.833-  50 2.75  71 2.75  76 2.75  51 2.75  72 2.75  55 2.75  82 2.75  93 2.75
                            97 2.75  83 2.75  98 2.75  78 2.75
  78  0.333  0.000  0.000-  52 2.75  73 2.75  72 2.75  51 2.75  56 2.75  83 2.75  94 2.75  98 2.75
                            84 2.75  99 2.75  79 2.75  77 2.75
  79  0.333  0.167  0.167-  74 2.75  53 2.75  80 2.75  57 2.75  95 2.75  73 2.75  52 2.75 100 2.75
                            85 2.75  99 2.75  84 2.75  78 2.75
  80  0.333  0.333  0.333-  53 2.75  74 2.75  79 2.75  54 2.75  75 2.75  58 2.75  85 2.75  96 2.75
                           100 2.75  86 2.75 101 2.75  81 2.75
  81  0.333  0.500  0.500-  13 2.75 102 2.75  75 2.75  54 2.75  86 2.75 101 2.75  32 2.75 103 2.75
                            34 2.75 108 2.75  80 2.75  76 2.75
  82  0.500  0.667  0.833-  97 2.75  77 2.75  14 2.75  15 2.75  76 2.75  83 2.75 108 2.75  63 2.75
                           107 2.75  55 2.75   4 2.75 104 2.75
  83  0.500  0.833  0.000-   4 2.75  59 2.75  55 2.75  82 2.75  15 2.75  78 2.75  56 2.75  98 2.75
                            16 2.75   5 2.75  77 2.75  84 2.75
  84  0.500  0.000  0.167-  57 2.75  60 2.75   6 2.75  85 2.75  16 2.75  79 2.75   5 2.75  99 2.75
                            17 2.75  56 2.75  78 2.75  83 2.75
  85  0.500  0.167  0.333- 100 2.75  80 2.75  17 2.75  18 2.75  79 2.75  86 2.75  84 2.75  61 2.75
                             6 2.75  58 2.75  57 2.75   7 2.75
  86  0.500  0.333  0.500-   7 2.75 105 2.75  58 2.75  85 2.75  18 2.75 101 2.75 103 2.75  81 2.75
                            80 2.75  19 2.75  62 2.75 108 2.75
  87  0.833  0.500  0.667-  63 2.75  14 2.75  65 2.75  19 2.75  62 2.75  89 2.75  20 2.75   3 2.75
                            88 2.75  49 2.75  44 2.75  24 2.75
  88  0.000  0.333  0.667-  68 2.75  65 2.75  90 2.75  64 2.75  91 2.75  28 2.75  89 2.75  54 2.75
                            49 2.75  87 2.75  24 2.75 102 2.75
  89  0.000  0.500  0.833-  44 2.75 102 2.75  87 2.75  88 2.75  20 2.75  66 2.75  91 2.75  69 2.75
                            50 2.75  92 2.75  65 2.75  25 2.75
  90  0.167  0.167  0.667- 103 2.75  94 2.75  91 2.75  72 2.75  88 2.75  54 2.75  93 2.75  58 2.75
                            68 2.75  67 2.75  28 2.75  31 2.75
  91  0.167  0.333  0.833-  94 2.75 103 2.75  90 2.75 102 2.75  73 2.75  68 2.75  95 2.75 104 2.75
                            88 2.75  69 2.75  89 2.75  92 2.75
  92  0.167  0.500  0.000-  95 2.75 104 2.75  96 2.75  55 2.75  74 2.75  50 2.75  25 2.75  70 2.75
                            89 2.75  69 2.75  91 2.75  29 2.75
  93  0.333  0.000  0.667-  72 2.75  77 2.75  90 2.75  71 2.75  31 2.75  98 2.75  94 2.75  58 2.75
                            97 2.75  61 2.75 105 2.75  33 2.75
  94  0.333  0.167  0.833-  91 2.75 103 2.75  90 2.75  73 2.75 105 2.75  72 2.75 106 2.75  95 2.75
                            93 2.75  98 2.75  78 2.75  99 2.75
  95  0.333  0.333  0.000-  73 2.75  74 2.75  79 2.75  92 2.75  99 2.75  91 2.75  94 2.75 104 2.75
                           106 2.75 100 2.75 107 2.75  96 2.75
  96  0.333  0.500  0.167-  75 2.75  29 2.75  80 2.75  74 2.75  92 2.75 101 2.75  32 2.75 100 2.75
                            55 2.75 107 2.75  59 2.75  95 2.75
  97  0.500  0.833  0.667-  82 2.75  77 2.75  14 2.75  76 2.75  15 2.75  34 2.75  98 2.75   2 2.75
                            93 2.75  61 2.75  33 2.75  35 2.75
  98  0.500  0.000  0.833-  35 2.75 105 2.75  93 2.75  97 2.75  15 2.75  94 2.75  78 2.75  83 2.75
                            16 2.75  36 2.75  77 2.75  99 2.75
  99  0.500  0.167  0.000-  95 2.75 106 2.75  37 2.75 100 2.75  84 2.75  36 2.75  16 2.75  79 2.75
                            17 2.75  78 2.75  94 2.75  98 2.75
 100  0.500  0.333  0.167-  85 2.75  80 2.75  17 2.75  79 2.75  18 2.75  99 2.75 101 2.75  37 2.75
                            96 2.75 107 2.75  38 2.75  95 2.75
 101  0.500  0.500  0.333-  38 2.75  59 2.75  96 2.75 100 2.75  81 2.75  86 2.75  18 2.75  32 2.75
                             1 2.75  80 2.75  19 2.75  34 2.75
 102  0.167  0.500  0.667- 104 2.75  89 2.75  91 2.75 103 2.75  81 2.75  76 2.75  50 2.75  44 2.75
                            13 2.75  49 2.75  88 2.75  54 2.75
 103  0.333  0.333  0.667-  94 2.75  91 2.75  90 2.75 102 2.75 105 2.75  54 2.75 106 2.75  58 2.75
                           104 2.75  86 2.75  81 2.75 108 2.75
 104  0.333  0.500  0.833- 102 2.75  76 2.75  92 2.75  50 2.75 108 2.75  91 2.75 103 2.75 106 2.75
                            95 2.75 107 2.75  82 2.75  55 2.75
 105  0.500  0.167  0.667- 106 2.75  94 2.75  98 2.75 103 2.75  86 2.75  62 2.75  36 2.75  35 2.75
                             7 2.75  58 2.75  93 2.75  61 2.75
 106  0.500  0.333  0.833- 105 2.75  62 2.75  99 2.75  36 2.75 108 2.75  94 2.75 103 2.75  95 2.75
                           104 2.75  63 2.75  37 2.75 107 2.75
 107  0.500  0.500  0.000-  37 2.75  55 2.75  63 2.75  82 2.75  96 2.75 100 2.75  95 2.75  38 2.75
                             4 2.75 104 2.75  59 2.75 106 2.75
 108  0.500  0.500  0.667- 104 2.75 106 2.75  63 2.75  82 2.75  76 2.75  34 2.75  62 2.75  19 2.75
                           103 2.75  81 2.75  14 2.75  86 2.75
 
  LATTYP: Found a simple cubic cell.
 ALAT       =    11.6718076500
  
  Lattice vectors:
  
 A1 = (  11.6718076500,   0.0000000000,   0.0000000000)
 A2 = (   0.0000002100,  11.6718076500,   0.0000000000)
 A3 = (   0.0000002100,   0.0000002100,  11.6718076500)
 Subroutine PRICEL returns:
 Original cell was already a primitive cell.
 

Analysis of symmetry for initial positions (statically):

 Routine SETGRP: Setting up the symmetry group for a 
 simple cubic supercell.


 Subroutine GETGRP returns: Found  8 space group operations
 (whereof  8 operations were pure point group operations)
 out of a pool of 48 trial point group operations.


The static configuration has the point symmetry C_4v.

Analysis of symmetry for dynamics (positions and initial velocities):

 Subroutine DYNSYM returns: Found  8 space group operations
 (whereof  8 operations were pure point group operations)
 out of a pool of  8 trial space group operations
 (whereof  8 operations were pure point group operations)
 and found also     1 'primitive' translations


The dynamic configuration has the point symmetry C_4v.
 
 
 KPOINTS: Automatic mesh                          

Automatic generation of k-mesh.
 
 Subroutine IBZKPT returns following result:
 ===========================================
 
 Found     18 irreducible k-points:
 
 Following reciprocal coordinates:
            Coordinates               Weight
  0.083333  0.083333  0.083333      8.000000
  0.250000  0.083333  0.083333      8.000000
  0.416667  0.083333  0.083333      8.000000
  0.083333  0.250000  0.083333     16.000000
  0.250000  0.250000  0.083333     16.000000
  0.416667  0.250000  0.083333     16.000000
  0.083333  0.416667  0.083333     16.000000
  0.250000  0.416667  0.083333     16.000000
  0.416667  0.416667  0.083333     16.000000
  0.083333  0.250000  0.250000      8.000000
  0.250000  0.250000  0.250000      8.000000
  0.416667  0.250000  0.250000      8.000000
  0.083333  0.416667  0.250000     16.000000
  0.250000  0.416667  0.250000     16.000000
  0.416667  0.416667  0.250000     16.000000
  0.083333  0.416667  0.416667      8.000000
  0.250000  0.416667  0.416667      8.000000
  0.416667  0.416667  0.416667      8.000000
 
 Following cartesian coordinates:
            Coordinates               Weight
  0.007140  0.007140  0.007140      8.000000
  0.021419  0.007140  0.007140      8.000000
  0.035699  0.007140  0.007140      8.000000
  0.007140  0.021419  0.007140     16.000000
  0.021419  0.021419  0.007140     16.000000
  0.035699  0.021419  0.007140     16.000000
  0.007140  0.035699  0.007140     16.000000
  0.021419  0.035699  0.007140     16.000000
  0.035699  0.035699  0.007140     16.000000
  0.007140  0.021419  0.021419      8.000000
  0.021419  0.021419  0.021419      8.000000
  0.035699  0.021419  0.021419      8.000000
  0.007140  0.035699  0.021419     16.000000
  0.021419  0.035699  0.021419     16.000000
  0.035699  0.035699  0.021419     16.000000
  0.007140  0.035699  0.035699      8.000000
  0.021419  0.035699  0.035699      8.000000
  0.035699  0.035699  0.035699      8.000000
 


--------------------------------------------------------------------------------------------------------




 Dimension of arrays:
   k-Points           NKPTS =     18   number of bands    NBANDS=    712
   number of dos      NEDOS =    301   number of ions     NIONS =    108
   non local maximal  LDIM  =      6   non local SUM 2l+1 LMDIM =     18
   total plane-waves  NPLWV = 729000
   max r-space proj   IRMAX =      1   max aug-charges    IRDMAX= 128912
   dimension x,y,z NGX =    90 NGY =   90 NGZ =   90
   dimension x,y,z NGXF=   180 NGYF=  180 NGZF=  180
   support grid    NGXF=   360 NGYF=  360 NGZF=  360
   ions per type =             108
 NGX,Y,Z   is equivalent  to a cutoff of  12.82, 12.82, 12.82 a.u.
 NGXF,Y,Z  is equivalent  to a cutoff of  25.64, 25.64, 25.64 a.u.


 I would recommend the setting:
   dimension x,y,z NGX =    85 NGY =   85 NGZ =   85
 SYSTEM =  No title                                
 POSCAR =  No title                                

 Startparameter for this run:
   NWRITE =      2    write-flag & timer
   PREC   = accura    medium, high low
   ISTART =      1    job   : 0-new  1-cont  2-samecut
   ICHARG =      0    charge: 1-file 2-atom 10-const
   ISPIN  =      1    spin polarized calculation?
   LNONCOLLINEAR =      F non collinear calculations
   LSORBIT =      F    spin-orbit coupling
   INIWAV =      1    electr: 0-lowe 1-rand  2-diag
   LASPH  =      F    aspherical Exc in radial PAW
   METAGGA=      F    non-selfconsistent MetaGGA calc.

 Electronic Relaxation 1
   ENCUT  =  500.0 eV  36.75 Ry    6.06 a.u.  21.28 21.28 21.28*2*pi/ulx,y,z
   ENINI  =  500.0     initial cutoff
   ENAUG  =  516.5 eV  augmentation charge cutoff
   NELM   =     60;   NELMIN=  2; NELMDL=  0     # of ELM steps 
   EDIFF  = 0.1E-04   stopping-criterion for ELM
   LREAL  =      F    real-space projection
   LCOMPAT=      F    compatible to vasp.4.4
   LREAL_COMPAT= F    compatible to vasp.4.5.1-3
   GGA_COMPAT  = T    GGA compatible to vasp.4.4-vasp.4.6
   LMAXPAW     = -100 max onsite density
   LMAXMIX     =    2 max onsite mixed and CHGCAR
   VOSKOWN=      1    Vosko Wilk Nusair interpolation
   ROPT   =    0.00000
 Ionic relaxation
   EDIFFG = -.2E-01   stopping-criterion for IOM
   NSW    =      0    number of steps for IOM
   NBLOCK =      1;   KBLOCK =      1    inner block; outer block 
   IBRION =     -1    ionic relax: 0-MD 1-quasi-New 2-CG
   NFREE  =      0    steps in history (QN), initial steepest desc. (CG)
   ISIF   =      2    stress and relaxation
   IWAVPR =     10    prediction:  0-non 1-charg 2-wave 3-comb
   ISYM   =      2    0-nonsym 1-usesym 2-fastsym
   LCORR  =      T    Harris-Foulkes like correction to forces

   POTIM  =   0.50    time-step for ionic-motion
   TEIN   =    0.0    initial temperature
   TEBEG  =    0.0;   TEEND  =   0.0 temperature during run
   SMASS  =  -3.00    Nose mass-parameter (am)
   estimated Nose-frequenzy (Omega)   =  0.10E-29 period in steps =****** mass=  -0.311E-26a.u.
   NPACO  =    256;   APACO  = 16.0  distance and # of slots for P.C.
   PSTRESS=    0.0 pullay stress

  Mass of Ions in am
   POMASS =  63.55
  Ionic Valenz
   ZVAL   =  11.00
  Atomic Wigner-Seitz radii
   RWIGS  =   1.17
   NELECT =    1188.0000    total number of electrons
   NUPDOWN=      -1.0000    fix difference up-down

 DOS related values:
   EMIN   =  10.00;   EMAX   =-10.00  energy-range for DOS
   ISMEAR =     1;   SIGMA  =   0.20  broadening in eV -4-tet -1-fermi 0-gaus

 Electronic relaxation 2 (details)
   IALGO  =     48    algorithm
   LDIAG  =      T    sub-space diagonalisation
   IMIX   =      4    mixing-type and parameters
     AMIX     =   0.40;   BMIX     =  1.00
     AMIX_MAG =   1.60;   BMIX_MAG =  1.00
     AMIN     =   0.10
     WC   =   100.;   INIMIX=   1;  MIXPRE=   1

 Intra band minimization:
   WEIMIN = 0.0000     energy-eigenvalue tresh-hold
   EBREAK =  0.35E-08  absolut break condition
   DEPER  =   0.30     relativ break condition  

   TIME   =   0.10     timestep for ELM

  volume/ion in A,a.u.               =      14.72        99.35
  Fermi-wavevector in a.u.,eV,Ry     =   1.485510 30.024512  2.206739

 Second variation
   LSECVAR=     F    do a second variation
 
 Write flags
   LWAVE  =      F    write WAVECAR
   LCHARG =      F    write CHGCAR
   LVTOT  =      F    write LOCPOT, local potential
   LELF   =      F    write electronic localiz. function (ELF)
   LORBIT =      0    0 simple, 1 ext, 2 COOP (PROOUT)


 Dipole corrections
   IDIPOL =      0    1-x, 2-y, 3-z
   LDIPOL =      F    correct potential



--------------------------------------------------------------------------------------------------------


 Static calculation
 charge density will be updated during run
 non-spin polarized calculation
 RMM-DIIS sequential band-by-band
 performe sub-space diagonalisation
    before iterative eigenvector-optimisation
 modified Broyden-mixing scheme, WC =      100.0
 initial mixing is a Kerker type mixing with AMIX =  0.4000 and BMIX =      1.0000
 Hartree-type preconditioning will be used
 using additional bands          118
 reciprocal scheme for non local part
 use partial core corrections
 calculate Harris-corrections to forces 
   (improved forces if not selfconsistent)
 use gradient corrections 
 use of overlap-Matrix (Vanderbilt PP)
 Methfessel and Paxton  Order N= 1 SIGMA  =   0.20


--------------------------------------------------------------------------------------------------------


  energy-cutoff  :      500.00
  volume of cell :     1590.06
      direct lattice vectors                 reciprocal lattice vectors
    11.671807650  0.000000000  0.000000000     0.085676532 -0.000000002 -0.000000002
     0.000000210 11.671807650  0.000000000     0.000000000  0.085676532 -0.000000002
     0.000000210  0.000000210 11.671807650     0.000000000  0.000000000  0.085676532

  length of vectors
    11.671807650 11.671807650 11.671807650     0.085676532  0.085676532  0.085676532


 
 old parameters found on file WAVECAR:
  energy-cutoff  :      500.00
  volume of cell :     1590.06
      direct lattice vectors                 reciprocal lattice vectors
    11.671807650  0.000000000  0.000000000     0.085676532 -0.000000002 -0.000000002
     0.000000210 11.671807650  0.000000000     0.000000000  0.085676532 -0.000000002
     0.000000210  0.000000210 11.671807650     0.000000000  0.000000000  0.085676532

  length of vectors

 
 k-points in units of 2pi/SCALE and weight: Automatic mesh                          
   0.00713971  0.00713971  0.00713971       0.037
   0.02141913  0.00713971  0.00713971       0.037
   0.03569855  0.00713971  0.00713971       0.037
   0.00713971  0.02141913  0.00713971       0.074
   0.02141913  0.02141913  0.00713971       0.074
   0.03569855  0.02141913  0.00713971       0.074
   0.00713971  0.03569855  0.00713971       0.074
   0.02141913  0.03569855  0.00713971       0.074
   0.03569855  0.03569855  0.00713971       0.074
   0.00713971  0.02141913  0.02141913       0.037
   0.02141913  0.02141913  0.02141913       0.037
   0.03569855  0.02141913  0.02141913       0.037
   0.00713971  0.03569855  0.02141913       0.074
   0.02141913  0.03569855  0.02141913       0.074
   0.03569855  0.03569855  0.02141913       0.074
   0.00713971  0.03569855  0.03569855       0.037
   0.02141913  0.03569855  0.03569855       0.037
   0.03569855  0.03569855  0.03569855       0.037
 
 k-points in reciprocal lattice and weights: Automatic mesh                          
   0.08333333  0.08333333  0.08333333       0.037
   0.25000000  0.08333333  0.08333333       0.037
   0.41666667  0.08333333  0.08333333       0.037
   0.08333333  0.25000000  0.08333333       0.074
   0.25000000  0.25000000  0.08333333       0.074
   0.41666667  0.25000000  0.08333333       0.074
   0.08333333  0.41666667  0.08333333       0.074
   0.25000000  0.41666667  0.08333333       0.074
   0.41666667  0.41666667  0.08333333       0.074
   0.08333333  0.25000000  0.25000000       0.037
   0.25000000  0.25000000  0.25000000       0.037
   0.41666667  0.25000000  0.25000000       0.037
   0.08333333  0.41666667  0.25000000       0.074
   0.25000000  0.41666667  0.25000000       0.074
   0.41666667  0.41666667  0.25000000       0.074
   0.08333333  0.41666667  0.41666667       0.037
   0.25000000  0.41666667  0.41666667       0.037
   0.41666667  0.41666667  0.41666667       0.037
 
 position of ions in fractional coordinates (direct lattice) 
   0.66666667  0.66666667  0.33333333
   0.66666667  0.83333333  0.50000000
   0.83333333  0.66666667  0.50000000
   0.66666667  0.66666667  0.00000000
   0.66666667  0.83333333  0.16666667
   0.66666667  0.00000000  0.33333333
   0.66666667  0.16666667  0.50000000
   0.83333333  0.66666667  0.16666667
   0.83333333  0.83333333  0.33333333
   0.83333333  0.00000000  0.50000000
   0.00000000  0.66666667  0.33333333
   0.00000000  0.83333333  0.50000000
   0.16666667  0.66666667  0.50000000
   0.66666667  0.66666667  0.66666667
   0.66666667  0.83333333  0.83333333
   0.66666667  0.00000000  0.00000000
   0.66666667  0.16666667  0.16666667
   0.66666667  0.33333333  0.33333333
   0.66666667  0.50000000  0.50000000
   0.83333333  0.66666667  0.83333333
   0.83333333  0.83333333  0.00000000
   0.83333333  0.00000000  0.16666667
   0.83333333  0.16666667  0.33333333
   0.83333333  0.33333333  0.50000000
   0.00000000  0.66666667  0.00000000
   0.00000000  0.83333333  0.16666667
   0.00000000  0.00000000  0.33333333
   0.00000000  0.16666667  0.50000000
   0.16666667  0.66666667  0.16666667
   0.16666667  0.83333333  0.33333333
   0.16666667  0.00000000  0.50000000
   0.33333333  0.66666667  0.33333333
   0.33333333  0.83333333  0.50000000
   0.50000000  0.66666667  0.50000000
   0.66666667  0.00000000  0.66666667
   0.66666667  0.16666667  0.83333333
   0.66666667  0.33333333  0.00000000
   0.66666667  0.50000000  0.16666667
   0.83333333  0.83333333  0.66666667
   0.83333333  0.00000000  0.83333333
   0.83333333  0.16666667  0.00000000
   0.83333333  0.33333333  0.16666667
   0.83333333  0.50000000  0.33333333
   0.00000000  0.66666667  0.66666667
   0.00000000  0.83333333  0.83333333
   0.00171400  0.00000000  0.00000000
   0.00000000  0.16666667  0.16666667
   0.00000000  0.33333333  0.33333333
   0.00000000  0.50000000  0.50000000
   0.16666667  0.66666667  0.83333333
   0.16666667  0.83333333  0.00000000
   0.16666667  0.00000000  0.16666667
   0.16666667  0.16666667  0.33333333
   0.16666667  0.33333333  0.50000000
   0.33333333  0.66666667  0.00000000
   0.33333333  0.83333333  0.16666667
   0.33333333  0.00000000  0.33333333
   0.33333333  0.16666667  0.50000000
   0.50000000  0.66666667  0.16666667
   0.50000000  0.83333333  0.33333333
   0.50000000  0.00000000  0.50000000
   0.66666667  0.33333333  0.66666667
   0.66666667  0.50000000  0.83333333
   0.83333333  0.16666667  0.66666667
   0.83333333  0.33333333  0.83333333
   0.83333333  0.50000000  0.00000000
   0.00000000  0.00000000  0.66666667
   0.00000000  0.16666667  0.83333333
   0.00000000  0.33333333  0.00000000
   0.00000000  0.50000000  0.16666667
   0.16666667  0.83333333  0.66666667
   0.16666667  0.00000000  0.83333333
   0.16666667  0.16666667  0.00000000
   0.16666667  0.33333333  0.16666667
   0.16666667  0.50000000  0.33333333
   0.33333333  0.66666667  0.66666667
   0.33333333  0.83333333  0.83333333
   0.33333333  0.00000000  0.00000000
   0.33333333  0.16666667  0.16666667
   0.33333333  0.33333333  0.33333333
   0.33333333  0.50000000  0.50000000
   0.50000000  0.66666667  0.83333333
   0.50000000  0.83333333  0.00000000
   0.50000000  0.00000000  0.16666667
   0.50000000  0.16666667  0.33333333
   0.50000000  0.33333333  0.50000000
   0.83333333  0.50000000  0.66666667
   0.00000000  0.33333333  0.66666667
   0.00000000  0.50000000  0.83333333
   0.16666667  0.16666667  0.66666667
   0.16666667  0.33333333  0.83333333
   0.16666667  0.50000000  0.00000000
   0.33333333  0.00000000  0.66666667
   0.33333333  0.16666667  0.83333333
   0.33333333  0.33333333  0.00000000
   0.33333333  0.50000000  0.16666667
   0.50000000  0.83333333  0.66666667
   0.50000000  0.00000000  0.83333333
   0.50000000  0.16666667  0.00000000
   0.50000000  0.33333333  0.16666667
   0.50000000  0.50000000  0.33333333
   0.16666667  0.50000000  0.66666667
   0.33333333  0.33333333  0.66666667
   0.33333333  0.50000000  0.83333333
   0.50000000  0.16666667  0.66666667
   0.50000000  0.33333333  0.83333333
   0.50000000  0.50000000  0.00000000
   0.50000000  0.50000000  0.66666667
 
 position of ions in cartesian coordinates  (Angst):
   7.78120535  7.78120521  3.89060251
   7.78120542  9.72650644  5.83590382
   9.72650658  7.78120524  5.83590382
   7.78120528  7.78120514  0.00000000
   7.78120535  9.72650637  1.94530131
   7.78120521  0.00000007  3.89060251
   7.78120528  1.94530142  5.83590382
   9.72650651  7.78120517  1.94530131
   9.72650658  9.72650641  3.89060251
   9.72650644  0.00000011  5.83590382
   0.00000021  7.78120521  3.89060251
   0.00000028  9.72650644  5.83590382
   1.94530156  7.78120524  5.83590382
   7.78120542  7.78120528  7.78120514
   7.78120549  9.72650651  9.72650634
   7.78120514  0.00000000  0.00000000
   7.78120521  1.94530135  1.94530131
   7.78120528  3.89060258  3.89060251
   7.78120535  5.83590393  5.83590382
   9.72650665  7.78120531  9.72650634
   9.72650651  9.72650634  0.00000000
   9.72650637  0.00000004  1.94530131
   9.72650644  1.94530138  3.89060251
   9.72650651  3.89060262  5.83590382
   0.00000014  7.78120514  0.00000000
   0.00000021  9.72650637  1.94530131
   0.00000007  0.00000007  3.89060251
   0.00000014  1.94530142  5.83590382
   1.94530149  7.78120517  1.94530131
   1.94530156  9.72650641  3.89060251
   1.94530142  0.00000011  5.83590382
   3.89060272  7.78120521  3.89060251
   3.89060279  9.72650644  5.83590382
   5.83590407  7.78120524  5.83590382
   7.78120528  0.00000014  7.78120514
   7.78120535  1.94530149  9.72650634
   7.78120521  3.89060251  0.00000000
   7.78120528  5.83590386  1.94530131
   9.72650665  9.72650648  7.78120514
   9.72650651  0.00000017  9.72650634
   9.72650637  1.94530131  0.00000000
   9.72650644  3.89060255  1.94530131
   9.72650651  5.83590389  3.89060251
   0.00000028  7.78120528  7.78120514
   0.00000035  9.72650651  9.72650634
   0.02000548  0.00000000  0.00000000
   0.00000007  1.94530135  1.94530131
   0.00000014  3.89060258  3.89060251
   0.00000021  5.83590393  5.83590382
   1.94530163  7.78120531  9.72650634
   1.94530149  9.72650634  0.00000000
   1.94530135  0.00000004  1.94530131
   1.94530142  1.94530138  3.89060251
   1.94530149  3.89060262  5.83590382
   3.89060265  7.78120514  0.00000000
   3.89060272  9.72650637  1.94530131
   3.89060258  0.00000007  3.89060251
   3.89060265  1.94530142  5.83590382
   5.83590400  7.78120517  1.94530131
   5.83590407  9.72650641  3.89060251
   5.83590393  0.00000011  5.83590382
   7.78120535  3.89060265  7.78120514
   7.78120542  5.83590400  9.72650634
   9.72650651  1.94530145  7.78120514
   9.72650658  3.89060269  9.72650634
   9.72650644  5.83590382  0.00000000
   0.00000014  0.00000014  7.78120514
   0.00000021  1.94530149  9.72650634
   0.00000007  3.89060251  0.00000000
   0.00000014  5.83590386  1.94530131
   1.94530163  9.72650648  7.78120514
   1.94530149  0.00000017  9.72650634
   1.94530135  1.94530131  0.00000000
   1.94530142  3.89060255  1.94530131
   1.94530149  5.83590389  3.89060251
   3.89060279  7.78120528  7.78120514
   3.89060286  9.72650651  9.72650634
   3.89060251  0.00000000  0.00000000
   3.89060258  1.94530135  1.94530131
   3.89060265  3.89060258  3.89060251
   3.89060272  5.83590393  5.83590382
   5.83590414  7.78120531  9.72650634
   5.83590400  9.72650634  0.00000000
   5.83590386  0.00000004  1.94530131
   5.83590393  1.94530138  3.89060251
   5.83590400  3.89060262  5.83590382
   9.72650658  5.83590397  7.78120514
   0.00000021  3.89060265  7.78120514
   0.00000028  5.83590400  9.72650634
   1.94530149  1.94530145  7.78120514
   1.94530156  3.89060269  9.72650634
   1.94530142  5.83590382  0.00000000
   3.89060265  0.00000014  7.78120514
   3.89060272  1.94530149  9.72650634
   3.89060258  3.89060251  0.00000000
   3.89060265  5.83590386  1.94530131
   5.83590414  9.72650648  7.78120514
   5.83590400  0.00000017  9.72650634
   5.83590386  1.94530131  0.00000000
   5.83590393  3.89060255  1.94530131
   5.83590400  5.83590389  3.89060251
   1.94530156  5.83590397  7.78120514
   3.89060272  3.89060265  7.78120514
   3.89060279  5.83590400  9.72650634
   5.83590400  1.94530145  7.78120514
   5.83590407  3.89060269  9.72650634
   5.83590393  5.83590382  0.00000000
   5.83590407  5.83590397  7.78120514
 


--------------------------------------------------------------------------------------------------------


 k-point  1 :  0.08330.08330.0833  plane waves:  40327
 k-point  2 :  0.25000.08330.0833  plane waves:  40356
 k-point  3 :  0.41670.08330.0833  plane waves:  40410
 k-point  4 :  0.08330.25000.0833  plane waves:  40356
 k-point  5 :  0.25000.25000.0833  plane waves:  40350
 k-point  6 :  0.41670.25000.0833  plane waves:  40360
 k-point  7 :  0.08330.41670.0833  plane waves:  40410
 k-point  8 :  0.25000.41670.0833  plane waves:  40360
 k-point  9 :  0.41670.41670.0833  plane waves:  40389
 k-point 10 :  0.08330.25000.2500  plane waves:  40350
 k-point 11 :  0.25000.25000.2500  plane waves:  40339
 k-point 12 :  0.41670.25000.2500  plane waves:  40385
 k-point 13 :  0.08330.41670.2500  plane waves:  40360
 k-point 14 :  0.25000.41670.2500  plane waves:  40385
 k-point 15 :  0.41670.41670.2500  plane waves:  40350
 k-point 16 :  0.08330.41670.4167  plane waves:  40389
 k-point 17 :  0.25000.41670.4167  plane waves:  40350
 k-point 18 :  0.41670.41670.4167  plane waves:  40338

 maximum and minimum number of plane-waves per node :  40410 40327

 maximum number of plane-waves:  40410
 maximal index in each direction: 
   IXMAX= 21   IYMAX= 21   IZMAX= 21
   IXMIN=-21   IYMIN=-21   IZMIN=-21

 NGX is ok and might be reduce to  86
 NGY is ok and might be reduce to  86
 NGZ is ok and might be reduce to  86

 parallel 3dFFT wavefunction:
    minimum data exchange during FFTs selected (reduces bandwidth)
 parallel 3dFFT charge:
    minimum data exchange during FFTs selected (reduces bandwidth)

 For storing wavefunctions 8277.02 MBYTES are necessary
 For predicting wavefunctions  979.53 MBYTES are necessary
Broyden mixing: mesh for mixing (old mesh)
   NGX = 43   NGY = 43   NGZ = 43
  (NGX  =180   NGY  =180   NGZ  =180)
 gives a total of  79507 points
 charge density for first step will be calculated from the start-wavefunctions


--------------------------------------------------------------------------------------------------------


 Maximum index for augmentation-charges        31199 (set IRDMAX)


--------------------------------------------------------------------------------------------------------


 initial charge from wavefunction
 First call to EWALD:  gamma=   0.152
 Maximum number of real-space cells 3x 3x 3
 Maximum number of reciprocal cells 3x 3x 3

    FEWALD:  VPU time    0.10: CPU time    0.10


----------------------------------------- Iteration    1(   1)  ---------------------------------------


    POTLOK:  VPU time    3.40: CPU time    3.40
    SETDIJ:  VPU time    4.22: CPU time    4.23
    EDDIAG:  VPU time  549.69: CPU time  550.88
  RMM-DIIS:  VPU time12343.73: CPU time12373.38
    ORTHCH:  VPU time  118.82: CPU time  119.03
    DOS   :  VPU time    0.00: CPU time   -0.00
    CHARGE:  VPU time  205.63: CPU time  206.10
    MIXING:  VPU time    0.08: CPU time    0.08
    ------------------------------------------
      LOOP:  VPU time13226.15: CPU time13257.71

 eigenvalue-minimisations  : 26276
 total energy-change (2. order) :-0.3832742E+03  (-0.3655901E+02)
 number of electron 1188.0000024 magnetization 
 augmentation part   778.7098673 magnetization 

 Broyden mixing:
  rms(total) = 0.39074E+00    rms(broyden)= 0.38323E+00
  rms(prec ) = 0.48105E+00
  weight for this iteration     100.00

 Free energy of the ion-electron system (eV)
  ---------------------------------------------------
  alpha Z        PSCENC =      9372.09229896
  Ewald energy   TEWEN  =   -110877.72867572
  -1/2 Hartree   DENC   =    -37779.11967499
  -V(xc)+E(xc)   XCENC  =      4594.96065927
  PAW double counting   =    116251.52315102  -131877.59306424
  entropy T*S    EENTRO =        -0.04189045
  eigenvalues    EBANDS =      -292.86469254
  atomic energy  EATOM  =    150225.49765690
  ---------------------------------------------------
  free energy    TOTEN  =      -383.27423178 eV

  energy without entropy =     -383.23234133  energy(sigma->0) =     -383.26026830


--------------------------------------------------------------------------------------------------------




----------------------------------------- Iteration    1(   2)  ---------------------------------------


    POTLOK:  VPU time    3.39: CPU time    3.40
    SETDIJ:  VPU time    4.30: CPU time    4.31
    EDDIAG:  VPU time  546.56: CPU time  547.79
  RMM-DIIS:  VPU time12612.78: CPU time12643.33
    ORTHCH:  VPU time  118.81: CPU time  119.03
    DOS   :  VPU time    0.00: CPU time   -0.00
    CHARGE:  VPU time  204.74: CPU time  205.22
    MIXING:  VPU time    0.08: CPU time    0.08
    ------------------------------------------
      LOOP:  VPU time13491.29: CPU time13523.77

 eigenvalue-minimisations  : 26865
 total energy-change (2. order) : 0.8382293E-01  (-0.5558991E+00)
 number of electron 1188.0000024 magnetization 
 augmentation part   783.5449599 magnetization 

 Broyden mixing:
  rms(total) = 0.24291E+00    rms(broyden)= 0.24291E+00
  rms(prec ) = 0.30911E+00
  weight for this iteration     100.00

 eigenvalues of (default mixing * dielectric matrix)
  average eigenvalue GAMMA=   0.6166
  0.6166

 Free energy of the ion-electron system (eV)
  ---------------------------------------------------
  alpha Z        PSCENC =      9372.09229896
  Ewald energy   TEWEN  =   -110877.72867572
  -1/2 Hartree   DENC   =    -37629.26579555
  -V(xc)+E(xc)   XCENC  =      4576.70684833
  PAW double counting   =    115871.69435942  -131424.59734712
  entropy T*S    EENTRO =        -0.05551333
  eigenvalues    EBANDS =      -497.53424075
  atomic energy  EATOM  =    150225.49765690
  ---------------------------------------------------
  free energy    TOTEN  =      -383.19040886 eV

  energy without entropy =     -383.13489553  energy(sigma->0) =     -383.17190441


--------------------------------------------------------------------------------------------------------




----------------------------------------- Iteration    1(   3)  ---------------------------------------


    POTLOK:  VPU time    3.35: CPU time    3.36
    SETDIJ:  VPU time    4.22: CPU time    4.23
    EDDIAG:  VPU time  546.54: CPU time  547.73
  RMM-DIIS:  VPU time12626.01: CPU time12656.50
    ORTHCH:  VPU time  118.57: CPU time  118.79
    DOS   :  VPU time    0.00: CPU time   -0.00
    CHARGE:  VPU time  205.31: CPU time  205.78
    MIXING:  VPU time    0.08: CPU time    0.09
    ------------------------------------------
      LOOP:  VPU time13504.69: CPU time13537.10

 eigenvalue-minimisations  : 26889
 total energy-change (2. order) : 0.1118597E+00  (-0.4890084E-01)
 number of electron 1188.0000024 magnetization 
 augmentation part   781.8464940 magnetization 

 Broyden mixing:
  rms(total) = 0.69572E-01    rms(broyden)= 0.69568E-01
  rms(prec ) = 0.10342E+00
  weight for this iteration     100.00

 eigenvalues of (default mixing * dielectric matrix)
  average eigenvalue GAMMA=   0.5435
  0.6400  0.4471

 Free energy of the ion-electron system (eV)
  ---------------------------------------------------
  alpha Z        PSCENC =      9372.09229896
  Ewald energy   TEWEN  =   -110877.72867572
  -1/2 Hartree   DENC   =    -37680.82339319
  -V(xc)+E(xc)   XCENC  =      4579.28764131
  PAW double counting   =    115953.37828385  -131525.93102474
  entropy T*S    EENTRO =        -0.05378541
  eigenvalues    EBANDS =      -428.79755108
  atomic energy  EATOM  =    150225.49765690
  ---------------------------------------------------
  free energy    TOTEN  =      -383.07854913 eV

  energy without entropy =     -383.02476371  energy(sigma->0) =     -383.06062065


--------------------------------------------------------------------------------------------------------




----------------------------------------- Iteration    1(   4)  ---------------------------------------


    POTLOK:  VPU time    3.38: CPU time    3.39
    SETDIJ:  VPU time    4.28: CPU time    4.29
    EDDIAG:  VPU time  546.13: CPU time  547.31
  RMM-DIIS:  VPU time12679.27: CPU time12709.88
    ORTHCH:  VPU time  118.25: CPU time  118.46
    DOS   :  VPU time    0.00: CPU time   -0.00
    CHARGE:  VPU time  204.99: CPU time  205.47
    MIXING:  VPU time    0.09: CPU time    0.09
    ------------------------------------------
      LOOP:  VPU time13556.98: CPU time13589.49

 eigenvalue-minimisations  : 26995
 total energy-change (2. order) : 0.9691566E-02  (-0.2172243E-02)
 number of electron 1188.0000024 magnetization 
 augmentation part   781.8450136 magnetization 

 Broyden mixing:
  rms(total) = 0.20601E-01    rms(broyden)= 0.20601E-01
  rms(prec ) = 0.25521E-01
  weight for this iteration     100.00

 eigenvalues of (default mixing * dielectric matrix)
  average eigenvalue GAMMA=   0.7658
  1.2256  0.6835  0.3881

 Free energy of the ion-electron system (eV)
  ---------------------------------------------------
  alpha Z        PSCENC =      9372.09229896
  Ewald energy   TEWEN  =   -110877.72867572
  -1/2 Hartree   DENC   =    -37684.31250910
  -V(xc)+E(xc)   XCENC  =      4579.44620736
  PAW double counting   =    115952.68737621  -131523.09530140
  entropy T*S    EENTRO =        -0.05391449
  eigenvalues    EBANDS =      -427.60199629
  atomic energy  EATOM  =    150225.49765690
  ---------------------------------------------------
  free energy    TOTEN  =      -383.06885756 eV

  energy without entropy =     -383.01494307  energy(sigma->0) =     -383.05088606


--------------------------------------------------------------------------------------------------------




----------------------------------------- Iteration    1(   5)  ---------------------------------------


    POTLOK:  VPU time    3.38: CPU time    3.39
    SETDIJ:  VPU time    4.24: CPU time    4.25
    EDDIAG:  VPU time  546.38: CPU time  547.59
  RMM-DIIS:  VPU time23719.16: CPU time23842.92
    ORTHCH:  VPU time  320.96: CPU time  323.20
    DOS   :  VPU time    0.00: CPU time   -0.00
    CHARGE:  VPU time  498.03: CPU time  500.94
    MIXING:  VPU time    0.20: CPU time    0.21
    ------------------------------------------
      LOOP:  VPU time25093.13: CPU time25223.27

 eigenvalue-minimisations  : 27117
 total energy-change (2. order) : 0.1188323E-02  (-0.2823256E-03)
 number of electron 1188.0000024 magnetization 
 augmentation part   781.9511829 magnetization 

 Broyden mixing:
  rms(total) = 0.18239E-01    rms(broyden)= 0.18239E-01
  rms(prec ) = 0.23009E-01
  weight for this iteration     100.00

 eigenvalues of (default mixing * dielectric matrix)
  average eigenvalue GAMMA=   0.9823
  2.0008  0.9561  0.5962  0.3762

 Free energy of the ion-electron system (eV)
  ---------------------------------------------------
  alpha Z        PSCENC =      9372.09229896
  Ewald energy   TEWEN  =   -110877.72867572
  -1/2 Hartree   DENC   =    -37688.15340197
  -V(xc)+E(xc)   XCENC  =      4579.59960163
  PAW double counting   =    115943.20318046  -131506.47436329
  entropy T*S    EENTRO =        -0.05406174
  eigenvalues    EBANDS =      -431.04990446
  atomic energy  EATOM  =    150225.49765690
  ---------------------------------------------------
  free energy    TOTEN  =      -383.06766924 eV

  energy without entropy =     -383.01360750  energy(sigma->0) =     -383.04964866


--------------------------------------------------------------------------------------------------------




----------------------------------------- Iteration    1(   6)  ---------------------------------------


    POTLOK:  VPU time    7.37: CPU time    7.40
    SETDIJ:  VPU time   13.61: CPU time   13.66
    EDDIAG:  VPU time 1356.61: CPU time 1362.69
  RMM-DIIS:  VPU time30580.55: CPU time30728.53
    ORTHCH:  VPU time  303.63: CPU time  304.05
    DOS   :  VPU time   -0.00: CPU time   -0.00
    CHARGE:  VPU time  419.93: CPU time  420.59
    MIXING:  VPU time    0.65: CPU time    0.65
    ------------------------------------------
      LOOP:  VPU time32683.09: CPU time32838.33

 eigenvalue-minimisations  : 27277
 total energy-change (2. order) : 0.6269239E-03  (-0.1296275E-03)
 number of electron 1188.0000024 magnetization 
 augmentation part   781.8959436 magnetization 

 Broyden mixing:
  rms(total) = 0.10743E-01    rms(broyden)= 0.10742E-01
  rms(prec ) = 0.14471E-01
  weight for this iteration     100.00

 eigenvalues of (default mixing * dielectric matrix)
  average eigenvalue GAMMA=   0.9602
  2.3539  1.0773  0.6197  0.3875  0.3627

 Free energy of the ion-electron system (eV)
  ---------------------------------------------------
  alpha Z        PSCENC =      9372.09229896
  Ewald energy   TEWEN  =   -110877.72867572
  -1/2 Hartree   DENC   =    -37693.73732770
  -V(xc)+E(xc)   XCENC  =      4579.85624583
  PAW double counting   =    115942.60678640  -131503.13246405
  entropy T*S    EENTRO =        -0.05396548
  eigenvalues    EBANDS =      -428.46759745
  atomic energy  EATOM  =    150225.49765690
  ---------------------------------------------------
  free energy    TOTEN  =      -383.06704231 eV

  energy without entropy =     -383.01307683  energy(sigma->0) =     -383.04905382


--------------------------------------------------------------------------------------------------------




----------------------------------------- Iteration    1(   7)  ---------------------------------------


    POTLOK:  VPU time    5.97: CPU time    5.98
    SETDIJ:  VPU time   11.18: CPU time   11.20
    EDDIAG:  VPU time  971.62: CPU time  974.84
  RMM-DIIS:  VPU time29902.57: CPU time30078.44
    ORTHCH:  VPU time  324.55: CPU time  326.80
    DOS   :  VPU time    0.00: CPU time   -0.00
    CHARGE:  VPU time  502.12: CPU time  505.26
    MIXING:  VPU time    0.27: CPU time    0.27
    ------------------------------------------
      LOOP:  VPU time31719.06: CPU time31903.64

 eigenvalue-minimisations  : 27124
 total energy-change (2. order) : 0.3529005E-03  (-0.5595404E-04)
 number of electron 1188.0000024 magnetization 
 augmentation part   781.8551060 magnetization 

 Broyden mixing:
  rms(total) = 0.16809E-02    rms(broyden)= 0.16807E-02
  rms(prec ) = 0.20626E-02
  weight for this iteration     100.00

 eigenvalues of (default mixing * dielectric matrix)
  average eigenvalue GAMMA=   1.0577
  2.5583  1.3674  1.0509  0.6112  0.3674  0.3911

 Free energy of the ion-electron system (eV)
  ---------------------------------------------------
  alpha Z        PSCENC =      9372.09229896
  Ewald energy   TEWEN  =   -110877.72867572
  -1/2 Hartree   DENC   =    -37696.96468971
  -V(xc)+E(xc)   XCENC  =      4580.00591865
  PAW double counting   =    115942.40443632  -131501.68483245
  entropy T*S    EENTRO =        -0.05389517
  eigenvalues    EBANDS =      -426.63490719
  atomic energy  EATOM  =    150225.49765690
  ---------------------------------------------------
  free energy    TOTEN  =      -383.06668941 eV

  energy without entropy =     -383.01279424  energy(sigma->0) =     -383.04872435


--------------------------------------------------------------------------------------------------------




----------------------------------------- Iteration    1(   8)  ---------------------------------------


    POTLOK:  VPU time    7.43: CPU time    7.48
    SETDIJ:  VPU time   13.96: CPU time   14.04
    EDDIAG:  VPU time 1365.62: CPU time 1374.51
  RMM-DIIS:  VPU time22767.45: CPU time22932.34
    ORTHCH:  VPU time  324.82: CPU time  326.63
    DOS   :  VPU time    0.00: CPU time   -0.00
    CHARGE:  VPU time  494.32: CPU time  499.34
    MIXING:  VPU time    0.20: CPU time    0.20
    ------------------------------------------
      LOOP:  VPU time24974.58: CPU time25155.32

 eigenvalue-minimisations  : 20431
 total energy-change (2. order) : 0.5770559E-04  (-0.4022053E-05)
 number of electron 1188.0000024 magnetization 
 augmentation part   781.8694707 magnetization 

 Broyden mixing:
  rms(total) = 0.80408E-03    rms(broyden)= 0.80406E-03
  rms(prec ) = 0.10940E-02
  weight for this iteration     100.00

 eigenvalues of (default mixing * dielectric matrix)
  average eigenvalue GAMMA=   1.0093
  2.6109  1.5287  1.0672  0.6189  0.3697  0.3926  0.4767

 Free energy of the ion-electron system (eV)
  ---------------------------------------------------
  alpha Z        PSCENC =      9372.09229896
  Ewald energy   TEWEN  =   -110877.72867572
  -1/2 Hartree   DENC   =    -37697.44947759
  -V(xc)+E(xc)   XCENC  =      4580.02493570
  PAW double counting   =    115939.81797073  -131498.19555208
  entropy T*S    EENTRO =        -0.05391354
  eigenvalues    EBANDS =      -427.07187507
  atomic energy  EATOM  =    150225.49765690
  ---------------------------------------------------
  free energy    TOTEN  =      -383.06663171 eV

  energy without entropy =     -383.01271817  energy(sigma->0) =     -383.04866053


--------------------------------------------------------------------------------------------------------




----------------------------------------- Iteration    1(   9)  ---------------------------------------


    POTLOK:  VPU time    7.33: CPU time    7.37
    SETDIJ:  VPU time   14.07: CPU time   14.15
    EDDIAG:  VPU time 1358.72: CPU time 1367.06
  RMM-DIIS:  VPU time16638.19: CPU time16740.19
    ORTHCH:  VPU time  219.42: CPU time  220.53
    DOS   :  VPU time   -0.00: CPU time   -0.00
    ------------------------------------------
      LOOP:  VPU time18238.42: CPU time18350.00

 eigenvalue-minimisations  : 14737
 total energy-change (2. order) : 0.2925983E-05  (-0.4124474E-06)
 number of electron 1188.0000024 magnetization 
 augmentation part   781.8694707 magnetization 

 Free energy of the ion-electron system (eV)
  ---------------------------------------------------
  alpha Z        PSCENC =      9372.09229896
  Ewald energy   TEWEN  =   -110877.72867572
  -1/2 Hartree   DENC   =    -37697.52594022
  -V(xc)+E(xc)   XCENC  =      4580.02848518
  PAW double counting   =    115939.51948495  -131497.88064370
  entropy T*S    EENTRO =        -0.05391101
  eigenvalues    EBANDS =      -427.01538412
  atomic energy  EATOM  =    150225.49765690
  ---------------------------------------------------
  free energy    TOTEN  =      -383.06662878 eV

  energy without entropy =     -383.01271777  energy(sigma->0) =     -383.04865844


--------------------------------------------------------------------------------------------------------




 average (electrostatic) potential at core
  the test charge radii are     1.0053
  (the norm of the test charge is              1.0000)
       1 -41.1664       2 -41.1664       3 -41.1665       4 -41.1663       5 -41.1665
       6 -41.1663       7 -41.1664       8 -41.1664       9 -41.1664      10 -41.1663
      11 -41.1664      12 -41.1664      13 -41.1664      14 -41.1664      15 -41.1665
      16 -41.1663      17 -41.1665      18 -41.1664      19 -41.1664      20 -41.1664
      21 -41.1644      22 -41.1644      23 -41.1664      24 -41.1665      25 -41.1663
      26 -41.1663      27 -41.1663      28 -41.1664      29 -41.1664      30 -41.1664
      31 -41.1664      32 -41.1665      33 -41.1665      34 -41.1664      35 -41.1663
      36 -41.1665      37 -41.1663      38 -41.1664      39 -41.1664      40 -41.1644
      41 -41.1644      42 -41.1664      43 -41.1665      44 -41.1664      45 -41.1663
      46 -41.1667      47 -41.1663      48 -41.1664      49 -41.1664      50 -41.1664
      51 -41.1683      52 -41.1683      53 -41.1664      54 -41.1664      55 -41.1664
      56 -41.1663      57 -41.1664      58 -41.1665      59 -41.1665      60 -41.1665
      61 -41.1663      62 -41.1664      63 -41.1664      64 -41.1664      65 -41.1664
      66 -41.1663      67 -41.1663      68 -41.1663      69 -41.1663      70 -41.1664
      71 -41.1664      72 -41.1683      73 -41.1683      74 -41.1664      75 -41.1664
      76 -41.1665      77 -41.1663      78 -41.1663      79 -41.1663      80 -41.1665
      81 -41.1666      82 -41.1665      83 -41.1663      84 -41.1663      85 -41.1665
      86 -41.1664      87 -41.1665      88 -41.1664      89 -41.1664      90 -41.1664
      91 -41.1664      92 -41.1664      93 -41.1664      94 -41.1663      95 -41.1664
      96 -41.1665      97 -41.1665      98 -41.1663      99 -41.1663     100 -41.1665
     101 -41.1664     102 -41.1664     103 -41.1665     104 -41.1665     105 -41.1665
     106 -41.1665     107 -41.1663     108 -41.1664
 
 
 
 E-fermi :   2.1156     XC(G=0): -11.5609     alpha+bet : -7.7256
   add alpha+bet to get absolut eigen values

 k-point   1 :       0.0833    0.0833    0.0833
  band No.  band energies     occupation 
      1      -5.6660      2.00000
      2      -4.7232      2.00000
      3      -4.7225      2.00000
      4      -4.7218      2.00000
      5      -4.3595      2.00000
      6      -4.3587      2.00000
      7      -4.3581      2.00000
      8      -3.8372      2.00000
      9      -3.8365      2.00000
     10      -3.8358      2.00000
     11      -3.5026      2.00000
     12      -3.5013      2.00000
     13      -3.5010      2.00000
     14      -3.5010      2.00000
     15      -3.5007      2.00000
     16      -3.4994      2.00000
     17      -3.1809      2.00000
     18      -3.1802      2.00000
     19      -3.1795      2.00000
     20      -3.0933      2.00000
     21      -2.8334      2.00000
     22      -2.8328      2.00000
     23      -2.8322      2.00000
     24      -2.6099      2.00000
     25      -2.6094      2.00000
     26      -2.6088      2.00000
     27      -2.4300      2.00000
     28      -2.2086      2.00000
     29      -2.2081      2.00000
     30      -2.2075      2.00000
     31      -1.9364      2.00000
     32      -1.9360      2.00000
     33      -1.9356      2.00000
     34      -1.6516      2.00000
     35      -1.6515      2.00000
     36      -1.6514      2.00000
     37      -1.6499      2.00000
     38      -1.6492      2.00000
     39      -1.6489      2.00000
     40      -1.6489      2.00000
     41      -1.6487      2.00000
     42      -1.6479      2.00000
     43      -1.6424      2.00000
     44      -1.6423      2.00000
     45      -1.6423      2.00000
     46      -1.6217      2.00000
     47      -1.6211      2.00000
     48      -1.6206      2.00000
     49      -1.6168      2.00000
     50      -1.6168      2.00000
     51      -1.6164      2.00000
     52      -1.6164      2.00000
     53      -1.6159      2.00000
     54      -1.6159      2.00000
     55      -1.5154      2.00000
     56      -1.5149      2.00000
     57      -1.5144      2.00000
     58      -1.4800      2.00000
     59      -1.4796      2.00000
     60      -1.4792      2.00000
     61      -1.4792      2.00000
     62      -1.4788      2.00000
     63      -1.4785      2.00000
     64      -1.4754      2.00000
     65      -1.4753      2.00000
     66      -1.4749      2.00000
     67      -1.4749      2.00000
     68      -1.4745      2.00000
     69      -1.4745      2.00000
     70      -1.4645      2.00000
     71      -1.4645      2.00000
     72      -1.4644      2.00000
     73      -1.4421      2.00000
     74      -1.4417      2.00000
     75      -1.4414      2.00000
     76      -1.4414      2.00000
     77      -1.4411      2.00000
     78      -1.4407      2.00000
     79      -1.3256      2.00000
     80      -1.3255      2.00000
     81      -1.3255      2.00000
     82      -1.3139      2.00000
     83      -1.3133      2.00000
     84      -1.3132      2.00000
     85      -1.3132      2.00000
     86      -1.3130      2.00000
     87      -1.3126      2.00000
     88      -1.2944      2.00000
     89      -1.2937      2.00000
     90      -1.2935      2.00000
     91      -1.2935      2.00000
     92      -1.2933      2.00000
     93      -1.2926      2.00000
     94      -1.2194      2.00000
     95      -1.2188      2.00000
     96      -1.2187      2.00000
     97      -1.2187      2.00000
     98      -1.2186      2.00000
     99      -1.2180      2.00000
    100      -1.1244      2.00000
    101      -1.1242      2.00000
    102      -1.1239      2.00000
    103      -1.1162      2.00000
    104      -1.1159      2.00000
    105      -1.1155      2.00000
    106      -1.0927      2.00000
    107      -1.0927      2.00000
    108      -1.0924      2.00000
    109      -1.0924      2.00000
    110      -1.0922      2.00000
    111      -1.0921      2.00000
    112      -1.0715      2.00000
    113      -1.0713      2.00000
    114      -1.0711      2.00000
    115      -1.0710      2.00000
    116      -1.0708      2.00000
    117      -1.0706      2.00000
    118      -1.0697      2.00000
    119      -1.0694      2.00000
    120      -1.0691      2.00000
    121      -1.0518      2.00000
    122      -1.0515      2.00000
    123      -1.0513      2.00000
    124      -0.9977      2.00000
    125      -0.9977      2.00000
    126      -0.9974      2.00000
    127      -0.9974      2.00000
    128      -0.9971      2.00000
    129      -0.9971      2.00000
    130      -0.9548      2.00000
    131      -0.9546      2.00000
    132      -0.9544      2.00000
    133      -0.9479      2.00000
    134      -0.9477      2.00000
    135      -0.9474      2.00000
    136      -0.9474      2.00000
    137      -0.9472      2.00000
    138      -0.9470      2.00000
    139      -0.9029      2.00000
    140      -0.9024      2.00000
    141      -0.9023      2.00000
    142      -0.9023      2.00000
    143      -0.9022      2.00000
    144      -0.9018      2.00000
    145      -0.8970      2.00000
    146      -0.8966      2.00000
    147      -0.8964      2.00000
    148      -0.8964      2.00000
    149      -0.8962      2.00000
    150      -0.8958      2.00000
    151      -0.8780      2.00000
    152      -0.8777      2.00000
    153      -0.8775      2.00000
    154      -0.8775      2.00000
    155      -0.8773      2.00000
    156      -0.8770      2.00000
    157      -0.8407      2.00000
    158      -0.8405      2.00000
    159      -0.8402      2.00000
    160      -0.8365      2.00000
    161      -0.8362      2.00000
    162      -0.8360      2.00000
    163      -0.8360      2.00000
    164      -0.8357      2.00000
    165      -0.8354      2.00000
    166      -0.6876      2.00000
    167      -0.6876      2.00000
    168      -0.6876      2.00000
    169      -0.6563      2.00000
    170      -0.6560      2.00000
    171      -0.6558      2.00000
    172      -0.6402      2.00000
    173      -0.6396      2.00000
    174      -0.6394      2.00000
    175      -0.6394      2.00000
    176      -0.6393      2.00000
    177      -0.6390      2.00000
    178      -0.6383      2.00000
    179      -0.6382      2.00000
    180      -0.6377      2.00000
    181      -0.6359      2.00000
    182      -0.6354      2.00000
    183      -0.6353      2.00000
    184      -0.6353      2.00000
    185      -0.6352      2.00000
    186      -0.6348      2.00000
    187      -0.6053      2.00000
    188      -0.6050      2.00000
    189      -0.6047      2.00000
    190      -0.5981      2.00000
    191      -0.5979      2.00000
    192      -0.5977      2.00000
    193      -0.5881      2.00000
    194      -0.5879      2.00000
    195      -0.5877      2.00000
    196      -0.5756      2.00000
    197      -0.5750      2.00000
    198      -0.5747      2.00000
    199      -0.5747      2.00000
    200      -0.5745      2.00000
    201      -0.5740      2.00000
    202      -0.5690      2.00000
    203      -0.5689      2.00000
    204      -0.5686      2.00000
    205      -0.5686      2.00000
    206      -0.5683      2.00000
    207      -0.5681      2.00000
    208      -0.5633      2.00000
    209      -0.5631      2.00000
    210      -0.5629      2.00000
    211      -0.5536      2.00000
    212      -0.5533      2.00000
    213      -0.5532      2.00000
    214      -0.5531      2.00000
    215      -0.5530      2.00000
    216      -0.5526      2.00000
    217      -0.5170      2.00000
    218      -0.5170      2.00000
    219      -0.5169      2.00000
    220      -0.4803      2.00000
    221      -0.4799      2.00000
    222      -0.4796      2.00000
    223      -0.4796      2.00000
    224      -0.4794      2.00000
    225      -0.4789      2.00000
    226      -0.4749      2.00000
    227      -0.4746      2.00000
    228      -0.4744      2.00000
    229      -0.4520      2.00000
    230      -0.4519      2.00000
    231      -0.4516      2.00000
    232      -0.4516      2.00000
    233      -0.4513      2.00000
    234      -0.4512      2.00000
    235      -0.4138      2.00000
    236      -0.4138      2.00000
    237      -0.4136      2.00000
    238      -0.4135      2.00000
    239      -0.4134      2.00000
    240      -0.4133      2.00000
    241      -0.4123      2.00000
    242      -0.3525      2.00000
    243      -0.3519      2.00000
    244      -0.3515      2.00000
    245      -0.3511      2.00000
    246      -0.3445      2.00000
    247      -0.3444      2.00000
    248      -0.3245      2.00000
    249      -0.3243      2.00000
    250      -0.3241      2.00000
    251      -0.3217      2.00000
    252      -0.3215      2.00000
    253      -0.3212      2.00000
    254      -0.3166      2.00000
    255      -0.3164      2.00000
    256      -0.3162      2.00000
    257      -0.3062      2.00000
    258      -0.3061      2.00000
    259      -0.2958      2.00000
    260      -0.2957      2.00000
    261      -0.2955      2.00000
    262      -0.2888      2.00000
    263      -0.2886      2.00000
    264      -0.2884      2.00000
    265      -0.2882      2.00000
    266      -0.2881      2.00000
    267      -0.2881      2.00000
    268      -0.2830      2.00000
    269      -0.2828      2.00000
    270      -0.2827      2.00000
    271      -0.2716      2.00000
    272      -0.2714      2.00000
    273      -0.2712      2.00000
    274      -0.2712      2.00000
    275      -0.2710      2.00000
    276      -0.2709      2.00000
    277      -0.2704      2.00000
    278      -0.2703      2.00000
    279      -0.2703      2.00000
    280      -0.2690      2.00000
    281      -0.2690      2.00000
    282      -0.2688      2.00000
    283      -0.2687      2.00000
    284      -0.2685      2.00000
    285      -0.2685      2.00000
    286      -0.2646      2.00000
    287      -0.2646      2.00000
    288      -0.2610      2.00000
    289      -0.2610      2.00000
    290      -0.2608      2.00000
    291      -0.2607      2.00000
    292      -0.2606      2.00000
    293      -0.2605      2.00000
    294      -0.2381      2.00000
    295      -0.2375      2.00000
    296      -0.2372      2.00000
    297      -0.2368      2.00000
    298      -0.2367      2.00000
    299      -0.2364      2.00000
    300      -0.2328      2.00000
    301      -0.2327      2.00000
    302      -0.2324      2.00000
    303      -0.2324      2.00000
    304      -0.2322      2.00000
    305      -0.2320      2.00000
    306      -0.2004      2.00000
    307      -0.2004      2.00000
    308      -0.2003      2.00000
    309      -0.1833      2.00000
    310      -0.1832      2.00000
    311      -0.1830      2.00000
    312      -0.1625      2.00000
    313      -0.1622      2.00000
    314      -0.1619      2.00000
    315      -0.1606      2.00000
    316      -0.1603      2.00000
    317      -0.1601      2.00000
    318      -0.1529      2.00000
    319      -0.1529      2.00000
    320      -0.1525      2.00000
    321      -0.1525      2.00000
    322      -0.1522      2.00000
    323      -0.1522      2.00000
    324      -0.1453      2.00000
    325      -0.1450      2.00000
    326      -0.1446      2.00000
    327      -0.1175      2.00000
    328      -0.1171      2.00000
    329      -0.1167      2.00000
    330      -0.1071      2.00000
    331      -0.1068      2.00000
    332      -0.1065      2.00000
    333      -0.1009      2.00000
    334      -0.1006      2.00000
    335      -0.1003      2.00000
    336      -0.0969      2.00000
    337      -0.0967      2.00000
    338      -0.0966      2.00000
    339      -0.0964      2.00000
    340      -0.0963      2.00000
    341      -0.0962      2.00000
    342      -0.0960      2.00000
    343      -0.0958      2.00000
    344      -0.0955      2.00000
    345      -0.0905      2.00000
    346      -0.0902      2.00000
    347      -0.0899      2.00000
    348      -0.0791      2.00000
    349      -0.0790      2.00000
    350      -0.0788      2.00000
    351      -0.0788      2.00000
    352      -0.0786      2.00000
    353      -0.0786      2.00000
    354      -0.0563      2.00000
    355      -0.0563      2.00000
    356      -0.0563      2.00000
    357      -0.0557      2.00000
    358      -0.0531      2.00000
    359      -0.0529      2.00000
    360      -0.0526      2.00000
    361      -0.0526      2.00000
    362      -0.0523      2.00000
    363      -0.0520      2.00000
    364      -0.0292      2.00000
    365      -0.0288      2.00000
    366      -0.0284      2.00000
    367       0.0157      2.00000
    368       0.0158      2.00000
    369       0.0159      2.00000
    370       0.0504      2.00000
    371       0.0505      2.00000
    372       0.0506      2.00000
    373       0.0569      2.00000
    374       0.0570      2.00000
    375       0.0572      2.00000
    376       0.0573      2.00000
    377       0.0575      2.00000
    378       0.0576      2.00000
    379       0.0598      2.00000
    380       0.0599      2.00000
    381       0.0600      2.00000
    382       0.0623      2.00000
    383       0.0625      2.00000
    384       0.0628      2.00000
    385       0.1510      2.00000
    386       0.1511      2.00000
    387       0.1513      2.00000
    388       0.1727      2.00000
    389       0.1730      2.00000
    390       0.1733      2.00000
    391       0.1935      2.00000
    392       0.1938      2.00000
    393       0.1939      2.00000
    394       0.1939      2.00000
    395       0.1940      2.00000
    396       0.1942      2.00000
    397       0.2134      2.00000
    398       0.2135      2.00000
    399       0.2137      2.00000
    400       0.2137      2.00000
    401       0.2138      2.00000
    402       0.2140      2.00000
    403       0.2371      2.00000
    404       0.2371      2.00000
    405       0.2394      2.00000
    406       0.2397      2.00000
    407       0.2399      2.00000
    408       0.2660      2.00000
    409       0.2661      2.00000
    410       0.2662      2.00000
    411       0.2663      2.00000
    412       0.2663      2.00000
    413       0.2664      2.00000
    414       0.2670      2.00000
    415       0.2672      2.00000
    416       0.2673      2.00000
    417       0.2673      2.00000
    418       0.2676      2.00000
    419       0.2677      2.00000
    420       0.3170      2.00000
    421       0.3174      2.00000
    422       0.3174      2.00000
    423       0.3174      2.00000
    424       0.3175      2.00000
    425       0.3178      2.00000
    426       0.3211      2.00000
    427       0.3212      2.00000
    428       0.3214      2.00000
    429       0.3265      2.00000
    430       0.3266      2.00000
    431       0.3268      2.00000
    432       0.3268      2.00000
    433       0.3270      2.00000
    434       0.3270      2.00000
    435       0.3512      2.00000
    436       0.3514      2.00000
    437       0.3515      2.00000
    438       0.3524      2.00000
    439       0.3526      2.00000
    440       0.3528      2.00000
    441       0.3716      2.00000
    442       0.3719      2.00000
    443       0.3723      2.00000
[...]
   0.160E+01 0.138E-01 0.138E-01   -.160E+01 -.129E-01 -.129E-01   0.508E-02 0.133E-03 0.133E-03   -.258E-02 -.111E-02 -.111E-02
   0.188E+00 0.244E-02 0.244E-02   -.189E+00 -.620E-03 -.620E-03   -.645E-03 -.172E-06 -.172E-06   0.143E-02 -.183E-02 -.183E-02
   0.979E-01 -.441E-08 -.442E-08   -.982E-01 0.450E-08 0.451E-08   -.597E-03 0.168E-21 -.127E-20   0.707E-03 0.215E-09 0.215E-09
   0.102E+00 0.274E+00 0.149E+00   -.100E+00 -.277E+00 -.151E+00   -.103E-02 0.104E-02 0.245E-03   -.380E-03 0.131E-02 0.228E-02
   -.944E+00 0.252E+01 -.305E-08   0.933E+00 -.251E+01 0.477E-09   0.179E-01 -.146E-01 0.000E+00   -.169E-02 -.417E-06 -.492E-09
   -.944E+00 -.375E-07 -.252E+01   0.933E+00 0.454E-07 0.251E+01   0.179E-01 0.262E-09 0.146E-01   -.169E-02 0.241E-09 0.533E-06
   0.102E+00 -.149E+00 -.274E+00   -.100E+00 0.151E+00 0.277E+00   -.103E-02 -.245E-03 -.104E-02   -.380E-03 -.228E-02 -.131E-02
   0.588E-01 -.399E-01 0.538E-09   -.569E-01 0.421E-01 -.611E-09   -.176E-03 0.169E-03 -.424E-21   -.183E-02 -.244E-02 0.438E-10
   -.233E+00 0.229E+00 0.208E-09   0.232E+00 -.227E+00 -.259E-09   0.376E-02 -.453E-02 0.424E-21   -.205E-02 0.272E-02 0.545E-10
   -.471E+00 0.276E+00 -.276E+00   0.472E+00 -.279E+00 0.279E+00   -.983E-03 0.113E-02 -.113E-02   -.200E-03 0.155E-02 -.155E-02
   -.233E+00 -.344E-08 -.229E+00   0.232E+00 0.367E-08 0.227E+00   0.376E-02 0.814E-10 0.453E-02   -.205E-02 0.494E-09 -.272E-02
   -.924E-01 -.397E-01 0.920E-08   0.957E-01 0.423E-01 -.941E-08   -.145E-02 0.386E-03 0.000E+00   -.170E-02 -.307E-02 -.367E-09
   -.233E+00 -.884E-03 0.204E-02   0.235E+00 -.806E-03 0.405E-03   -.153E-02 -.517E-05 0.379E-04   -.103E-02 0.171E-02 -.251E-02
   -.233E+00 -.204E-02 0.884E-03   0.235E+00 -.405E-03 0.806E-03   -.153E-02 -.379E-04 0.517E-05   -.103E-02 0.251E-02 -.171E-02
   -.189E+00 0.719E-09 0.163E-07   0.187E+00 -.623E-09 -.107E-07   0.339E-02 -.202E-21 0.339E-20   -.693E-03 0.267E-09 -.554E-09
   -.923E-01 0.668E-01 -.668E-01   0.924E-01 -.662E-01 0.662E-01   -.343E-03 0.207E-03 -.207E-03   0.227E-03 -.883E-03 0.883E-03
   -.955E-01 0.856E-08 -.443E-01   0.969E-01 -.868E-08 0.421E-01   -.151E-02 0.551E-11 0.306E-03   0.254E-03 -.422E-09 0.196E-02
   0.954E-01 0.153E+00 -.277E+00   -.963E-01 -.151E+00 0.277E+00   -.104E-02 0.231E-03 -.954E-03   0.225E-02 -.177E-02 0.158E-02
   0.954E-01 0.277E+00 -.153E+00   -.963E-01 -.277E+00 0.151E+00   -.104E-02 0.954E-03 -.231E-03   0.225E-02 -.158E-02 0.177E-02
   0.873E-01 -.445E-08 -.313E-09   -.891E-01 0.472E-08 0.307E-09   0.237E-03 0.130E-20 0.424E-21   0.154E-02 0.183E-09 -.152E-09
   0.547E+00 -.106E-08 -.527E-02   -.551E+00 0.760E-09 0.422E-02   0.200E-02 -.718E-12 -.399E-04   0.939E-03 -.463E-09 0.111E-02
   0.160E+01 0.138E-01 -.138E-01   -.160E+01 -.129E-01 0.129E-01   0.508E-02 0.133E-03 -.133E-03   -.258E-02 -.111E-02 0.111E-02
   0.547E+00 0.527E-02 -.108E-08   -.551E+00 -.422E-02 0.683E-09   0.200E-02 0.399E-04 0.000E+00   0.938E-03 -.111E-02 -.340E-09
   0.194E+00 -.125E-07 0.260E-02   -.196E+00 0.129E-07 -.409E-03   0.811E-03 0.539E-12 0.299E-04   0.157E-02 0.427E-09 -.224E-02
   0.102E+00 0.149E+00 0.274E+00   -.100E+00 -.151E+00 -.277E+00   -.103E-02 0.245E-03 0.104E-02   -.380E-03 0.228E-02 0.131E-02
   -.944E+00 0.425E-07 0.252E+01   0.933E+00 -.446E-07 -.251E+01   0.179E-01 -.262E-09 -.146E-01   -.169E-02 -.492E-09 -.533E-06
   -.944E+00 -.252E+01 0.752E-08   0.933E+00 0.251E+01 0.313E-09   0.179E-01 0.146E-01 -.847E-21   -.169E-02 0.417E-06 0.241E-09
   0.102E+00 -.274E+00 -.149E+00   -.100E+00 0.277E+00 0.151E+00   -.103E-02 -.104E-02 -.245E-03   -.380E-03 -.131E-02 -.228E-02
   0.588E-01 -.177E-09 -.399E-01   -.569E-01 0.148E-09 0.421E-01   -.176E-03 0.304E-11 0.169E-03   -.183E-02 -.167E-12 -.244E-02
   -.893E-01 0.641E-01 0.641E-01   0.913E-01 -.668E-01 -.668E-01   -.332E-03 0.166E-03 0.166E-03   -.169E-02 0.255E-02 0.255E-02
   -.471E+00 0.276E+00 0.276E+00   0.472E+00 -.279E+00 -.279E+00   -.983E-03 0.113E-02 0.113E-02   -.200E-03 0.155E-02 0.155E-02
   -.137E+01 0.142E-08 -.247E-05   0.139E+01 -.422E-09 -.422E-09   -.180E-01 0.102E-20 -.847E-21   0.541E-02 0.543E-09 0.542E-09
   -.471E+00 -.276E+00 -.276E+00   0.472E+00 0.279E+00 0.279E+00   -.983E-03 -.113E-02 -.113E-02   -.200E-03 -.155E-02 -.155E-02
   -.893E-01 -.641E-01 -.641E-01   0.913E-01 0.668E-01 0.668E-01   -.332E-03 -.166E-03 -.166E-03   -.169E-02 -.255E-02 -.255E-02
   -.481E-01 0.220E-08 0.218E-08   0.486E-01 -.222E-08 -.222E-08   0.434E-03 -.992E-21 0.847E-21   -.941E-03 -.123E-09 -.123E-09
   -.233E+00 -.884E-03 -.204E-02   0.235E+00 -.806E-03 -.405E-03   -.153E-02 -.517E-05 -.379E-04   -.103E-02 0.171E-02 0.251E-02
   -.561E+00 -.305E-03 0.732E-09   0.562E+00 -.154E-02 -.781E-09   0.121E-02 -.446E-04 -.339E-20   -.306E-02 0.191E-02 0.586E-09
   -.561E+00 0.876E-09 0.305E-03   0.562E+00 -.752E-09 0.154E-02   0.121E-02 0.802E-12 0.446E-04   -.306E-02 0.686E-09 -.191E-02
   -.233E+00 0.204E-02 0.884E-03   0.235E+00 0.405E-03 0.806E-03   -.153E-02 0.379E-04 0.517E-05   -.103E-02 -.251E-02 -.171E-02
   -.114E+00 0.110E-02 0.536E-08   0.113E+00 0.251E-03 -.542E-08   0.874E-04 0.194E-04 0.000E+00   0.811E-03 -.137E-02 -.309E-09
   0.546E-01 -.359E-10 -.436E-01   -.555E-01 0.670E-10 0.422E-01   -.197E-03 0.208E-11 0.116E-03   0.102E-02 -.180E-10 0.129E-02
   0.188E+00 0.244E-02 -.244E-02   -.189E+00 -.620E-03 0.620E-03   -.645E-03 -.172E-06 0.172E-06   0.143E-02 -.183E-02 0.183E-02
   0.194E+00 -.124E-07 -.260E-02   -.196E+00 0.128E-07 0.409E-03   0.811E-03 -.539E-12 -.299E-04   0.157E-02 0.492E-09 0.224E-02
   0.102E+00 -.149E+00 0.274E+00   -.100E+00 0.151E+00 -.277E+00   -.103E-02 -.245E-03 0.104E-02   -.380E-03 -.228E-02 0.131E-02
   0.102E+00 -.274E+00 0.149E+00   -.100E+00 0.277E+00 -.151E+00   -.103E-02 -.104E-02 0.245E-03   -.380E-03 -.131E-02 0.228E-02
   0.923E-01 -.465E-08 -.362E-09   -.916E-01 0.491E-08 0.316E-09   0.231E-03 -.698E-21 -.424E-21   -.936E-03 0.168E-09 -.613E-10
   -.233E+00 0.434E-08 0.229E+00   0.232E+00 -.435E-08 -.227E+00   0.376E-02 -.814E-10 -.453E-02   -.205E-02 0.103E-09 0.272E-02
   -.471E+00 -.276E+00 0.276E+00   0.472E+00 0.279E+00 -.279E+00   -.983E-03 -.113E-02 0.113E-02   -.200E-03 -.155E-02 0.155E-02
   -.233E+00 -.229E+00 0.646E-09   0.232E+00 0.227E+00 -.420E-09   0.376E-02 0.453E-02 0.424E-21   -.205E-02 -.272E-02 0.543E-09
   -.924E-01 0.848E-08 -.397E-01   0.957E-01 -.865E-08 0.423E-01   -.145E-02 0.694E-11 0.386E-03   -.170E-02 -.423E-09 -.307E-02
   -.233E+00 -.204E-02 -.884E-03   0.235E+00 -.405E-03 -.806E-03   -.153E-02 -.379E-04 -.517E-05   -.103E-02 0.251E-02 0.171E-02
   -.561E+00 0.979E-09 -.305E-03   0.562E+00 -.809E-09 -.154E-02   0.121E-02 -.802E-12 -.446E-04   -.306E-02 0.621E-09 0.191E-02
   -.561E+00 0.305E-03 0.650E-09   0.562E+00 0.154E-02 -.780E-09   0.121E-02 0.446E-04 -.339E-20   -.306E-02 -.191E-02 0.720E-09
   -.233E+00 0.884E-03 0.204E-02   0.235E+00 0.806E-03 0.405E-03   -.153E-02 0.517E-05 0.379E-04   -.103E-02 -.171E-02 -.251E-02
   -.114E+00 0.539E-08 0.110E-02   0.113E+00 -.542E-08 0.251E-03   0.874E-04 0.350E-12 0.194E-04   0.811E-03 -.334E-09 -.137E-02
   0.588E-01 -.509E-08 0.399E-01   -.569E-01 0.521E-08 -.421E-01   -.176E-03 -.304E-11 -.169E-03   -.183E-02 0.285E-09 0.244E-02
   -.893E-01 -.641E-01 0.641E-01   0.913E-01 0.668E-01 -.668E-01   -.332E-03 -.166E-03 0.166E-03   -.169E-02 -.255E-02 0.255E-02
   -.924E-01 0.355E-08 0.397E-01   0.957E-01 -.355E-08 -.423E-01   -.145E-02 -.694E-11 -.386E-03   -.170E-02 -.151E-09 0.307E-02
   -.233E+00 0.204E-02 -.884E-03   0.235E+00 0.405E-03 -.806E-03   -.153E-02 0.379E-04 -.517E-05   -.103E-02 -.251E-02 0.171E-02
   -.233E+00 0.884E-03 -.204E-02   0.235E+00 0.806E-03 -.405E-03   -.153E-02 0.517E-05 -.379E-04   -.103E-02 -.171E-02 0.251E-02
   -.189E+00 0.107E-07 0.714E-09   0.187E+00 -.107E-07 -.623E-09   0.339E-02 0.308E-19 -.339E-20   -.693E-03 -.554E-09 0.267E-09
   -.114E+00 0.534E-08 -.110E-02   0.113E+00 -.540E-08 -.251E-03   0.874E-04 -.350E-12 -.194E-04   0.811E-03 -.323E-09 0.137E-02
 -----------------------------------------------------------------------------------------------
   0.264E-02 -.180E-10 0.191E-07   0.657E-11 -.210E-11 0.594E-11   -.223E-02 -.821E-17 -.431E-17   -.179E-02 -.849E-10 -.784E-10
 
 
 POSITION                                       TOTAL-FORCE (eV/Angst)
 -----------------------------------------------------------------------------------
      7.78121      7.78121      3.89060        -0.000063      0.000015     -0.000015
      7.78121      9.72651      5.83590         0.000101      0.000040      0.000000
      9.72651      7.78121      5.83590        -0.000061      0.000024      0.000000
      7.78121      7.78121      0.00000        -0.000115     -0.000093      0.000000
      7.78121      9.72651      1.94530         0.000554      0.000290     -0.000290
      7.78121      0.00000      3.89060        -0.000115      0.000000      0.000093
      7.78121      1.94530      5.83590         0.000101     -0.000040      0.000000
      9.72651      7.78121      1.94530         0.000292      0.000285     -0.000087
      9.72651      9.72651      3.89060         0.000292      0.000087     -0.000285
      9.72651      0.00000      5.83590        -0.000027     -0.000000      0.000000
      0.00000      7.78121      3.89060         0.000055      0.000017     -0.000017
      0.00000      9.72651      5.83590         0.000084      0.000024     -0.000000
      1.94530      7.78121      5.83590        -0.000092     -0.000000      0.000000
      7.78121      7.78121      7.78121        -0.000063      0.000015      0.000015
      7.78121      9.72651      9.72651         0.000554      0.000290      0.000290
      7.78121      0.00000      0.00000         0.000967      0.000000     -0.000000
      7.78121      1.94530      1.94530         0.000554     -0.000290     -0.000290
      7.78121      3.89060      3.89060        -0.000063     -0.000015     -0.000015
      7.78121      5.83590      5.83590         0.000044     -0.000000      0.000000
      9.72651      7.78121      9.72651         0.000292      0.000285      0.000087
      9.72651      9.72651      0.00000         0.004381      0.004146      0.000000
      9.72651      0.00000      1.94530         0.004381     -0.000000     -0.004146
      9.72651      1.94530      3.89060         0.000292     -0.000087     -0.000285
      9.72651      3.89060      5.83590        -0.000061     -0.000024      0.000000
      0.00000      7.78121      0.00000        -0.000374      0.000014      0.000000
      0.00000      9.72651      1.94530         0.000163      0.000024     -0.000024
      0.00000      0.00000      3.89060        -0.000374     -0.000000     -0.000014
      0.00000      1.94530      5.83590         0.000084     -0.000024      0.000000
      1.94530      7.78121      1.94530         0.000264     -0.000256      0.000047
      1.94530      9.72651      3.89060         0.000264     -0.000047      0.000256
      1.94530      0.00000      5.83590        -0.000054     -0.000000      0.000000
      3.89060      7.78121      3.89060        -0.000075      0.000004     -0.000004
      3.89060      9.72651      5.83590         0.000092      0.000019      0.000000
      5.83590      7.78121      5.83590         0.000029     -0.000005     -0.000000
      7.78121      0.00000      7.78121        -0.000115     -0.000000     -0.000093
      7.78121      1.94530      9.72651         0.000554     -0.000290      0.000290
      7.78121      3.89060      0.00000        -0.000115      0.000093     -0.000000
      7.78121      5.83590      1.94530         0.000101     -0.000000     -0.000040
      9.72651      9.72651      7.78121         0.000292      0.000087      0.000285
      9.72651      0.00000      9.72651         0.004381      0.000000      0.004146
      9.72651      1.94530      0.00000         0.004381     -0.004146      0.000000
      9.72651      3.89060      1.94530         0.000292     -0.000285     -0.000087
      9.72651      5.83590      3.89060        -0.000061     -0.000000     -0.000024
      0.00000      7.78121      7.78121         0.000055      0.000017      0.000017
      0.00000      9.72651      9.72651         0.000163      0.000024      0.000024
      0.02001      0.00000      0.00000        -0.045641      0.000000     -0.000000
      0.00000      1.94530      1.94530         0.000163     -0.000024     -0.000024
      0.00000      3.89060      3.89060         0.000055     -0.000017     -0.000017
      0.00000      5.83590      5.83590        -0.000158      0.000000      0.000000
      1.94530      7.78121      9.72651         0.000264     -0.000256     -0.000047
      1.94530      9.72651      0.00000         0.004843     -0.004732      0.000000
      1.94530      0.00000      1.94530         0.004843      0.000000      0.004732
      1.94530      1.94530      3.89060         0.000264      0.000047      0.000256
      1.94530      3.89060      5.83590        -0.000092      0.000000      0.000000
      3.89060      7.78121      0.00000        -0.000119      0.000104      0.000000
      3.89060      9.72651      1.94530         0.000555     -0.000262      0.000262
      3.89060      0.00000      3.89060        -0.000119     -0.000000     -0.000104
      3.89060      1.94530      5.83590         0.000092     -0.000019      0.000000
      5.83590      7.78121      1.94530         0.000145      0.000014     -0.000032
      5.83590      9.72651      3.89060         0.000145      0.000032     -0.000014
      5.83590      0.00000      5.83590         0.000148      0.000000      0.000000
      7.78121      3.89060      7.78121        -0.000063     -0.000015      0.000015
      7.78121      5.83590      9.72651         0.000101      0.000000      0.000040
      9.72651      1.94530      7.78121         0.000292     -0.000087      0.000285
      9.72651      3.89060      9.72651         0.000292     -0.000285      0.000087
      9.72651      5.83590      0.00000        -0.000027      0.000000      0.000000
      0.00000      0.00000      7.78121        -0.000374      0.000000      0.000014
      0.00000      1.94530      9.72651         0.000163     -0.000024      0.000024
      0.00000      3.89060      0.00000        -0.000374     -0.000014      0.000000
      0.00000      5.83590      1.94530         0.000084     -0.000000     -0.000024
      1.94530      9.72651      7.78121         0.000264     -0.000047     -0.000256
      1.94530      0.00000      9.72651         0.004843     -0.000000     -0.004732
      1.94530      1.94530      0.00000         0.004843      0.004732      0.000000
      1.94530      3.89060      1.94530         0.000264      0.000256      0.000047
      1.94530      5.83590      3.89060        -0.000092      0.000000      0.000000
      3.89060      7.78121      7.78121        -0.000075      0.000004      0.000004
      3.89060      9.72651      9.72651         0.000555     -0.000262     -0.000262
      3.89060      0.00000      0.00000         0.000965      0.000000     -0.000000
      3.89060      1.94530      1.94530         0.000555      0.000262      0.000262
      3.89060      3.89060      3.89060        -0.000075     -0.000004     -0.000004
      3.89060      5.83590      5.83590         0.000058      0.000000      0.000000
      5.83590      7.78121      9.72651         0.000145      0.000014      0.000032
      5.83590      9.72651      0.00000        -0.000454      0.000022      0.000000
      5.83590      0.00000      1.94530        -0.000454     -0.000000     -0.000022
      5.83590      1.94530      3.89060         0.000145     -0.000032     -0.000014
      5.83590      3.89060      5.83590         0.000029      0.000005      0.000000
      9.72651      5.83590      7.78121        -0.000061      0.000000      0.000024
      0.00000      3.89060      7.78121         0.000055     -0.000017      0.000017
      0.00000      5.83590      9.72651         0.000084      0.000000      0.000024
      1.94530      1.94530      7.78121         0.000264      0.000047     -0.000256
      1.94530      3.89060      9.72651         0.000264      0.000256     -0.000047
      1.94530      5.83590      0.00000        -0.000054      0.000000     -0.000000
      3.89060      0.00000      7.78121        -0.000119      0.000000      0.000104
      3.89060      1.94530      9.72651         0.000555      0.000262     -0.000262
      3.89060      3.89060      0.00000        -0.000119     -0.000104      0.000000
      3.89060      5.83590      1.94530         0.000092     -0.000000     -0.000019
      5.83590      9.72651      7.78121         0.000145      0.000032      0.000014
      5.83590      0.00000      9.72651        -0.000454      0.000000      0.000022
      5.83590      1.94530      0.00000        -0.000454     -0.000022      0.000000
      5.83590      3.89060      1.94530         0.000145     -0.000014     -0.000032
      5.83590      5.83590      3.89060         0.000029      0.000000      0.000005
      1.94530      5.83590      7.78121        -0.000092     -0.000000     -0.000000
      3.89060      3.89060      7.78121        -0.000075     -0.000004      0.000004
      3.89060      5.83590      9.72651         0.000092      0.000000      0.000019
      5.83590      1.94530      7.78121         0.000145     -0.000032      0.000014
      5.83590      3.89060      9.72651         0.000145     -0.000014      0.000032
      5.83590      5.83590      0.00000         0.000148     -0.000000      0.000000
      5.83590      5.83590      7.78121         0.000029     -0.000000     -0.000005
 -----------------------------------------------------------------------------------
    total drift:                               -0.001381     -0.000000      0.000000


--------------------------------------------------------------------------------------------------------



 mean value of Nose-termostat <S>:     1.000 mean value of <T> :     0.000
 mean temperature <T/S>/<1/S>  :     0.000

     LOOP+:  VPU time********: CPU time********

 ----------------------------------------------------------------------------- 
|                                                                             |
|           W    W    AA    RRRRR   N    N  II  N    N   GGGG   !!!           |
|           W    W   A  A   R    R  NN   N  II  NN   N  G    G  !!!           |
|           W    W  A    A  R    R  N N  N  II  N N  N  G       !!!           |
|           W WW W  AAAAAA  RRRRR   N  N N  II  N  N N  G  GGG   !            |
|           WW  WW  A    A  R   R   N   NN  II  N   NN  G    G                |
|           W    W  A    A  R    R  N    N  II  N    N   GGGG   !!!           |
|                                                                             |
|      The partial DOS and the PROCAR file are not evaluated for NPAR/=1      |
|      please rerun with NPAR=1                                               |
|                                                                             |
 ----------------------------------------------------------------------------- 

  
  
 General timing and accounting informations for this job:
 ========================================================
  
                  Total CPU time used (sec):   261451.987
                            User time (sec):   255041.830
                          System time (sec):     6410.158
                         Elapsed time (sec):   262871.457
  
                   Maximum memory used (kb):     3853988.
                   Average memory used (kb):           0.
  
                          Minor page faults:      2384403
                          Major page faults:            0
                 Voluntary context switches:         3179
