 running on    4 nodes
 distr:  one band on    1 nodes,    4 groups
 vasp.4.6.28 25Jul05 complex 
 POSCAR found :  1 types and   32 ions

 ----------------------------------------------------------------------------- 
|                                                                             |
|  ADVICE TO THIS USER RUNNING 'VASP/VAMP'   (HEAR YOUR MASTER'S VOICE ...):  |
|                                                                             |
|      You have a (more or less) 'large supercell' and for larger cells       |
|      it might be more efficient to use real space projection operators      |
|      So try LREAL= Auto  in the INCAR   file.                               |
|      Mind: If you want to do an extremely accurate calculations keep the    |
|      reciprocal projection scheme          (i.e. LREAL=.FALSE.)             |
|                                                                             |
 ----------------------------------------------------------------------------- 

 LDA part: xc-table for Pade appr. of Perdew
 found WAVECAR, reading the header
 POSCAR, INCAR and KPOINTS ok, starting setup
 WARNING: wrap around errors must be expected
 FFT: planning ...           1
 reading WAVECAR
 the WAVECAR file was read sucessfully
 initial charge from wavefunction
 entering main loop
       N       E                     dE             d eps       ncg     rms          rms(c)
DAV:   1    -0.102724985652E+03   -0.10272E+03   -0.35287E+00   432   0.411E+00    0.996E-01
DAV:   2    -0.102649456062E+03    0.75530E-01   -0.29063E-01   512   0.295E+00    0.488E-01
DAV:   3    -0.102644881488E+03    0.45746E-02   -0.34666E-02   476   0.994E-01    0.243E-01
DAV:   4    -0.102644858346E+03    0.23143E-04   -0.61816E-03   440   0.220E-01    0.122E-01
DAV:   5    -0.102644852753E+03    0.55925E-05   -0.44919E-04   496   0.979E-02    0.499E-02
DAV:   6    -0.102644863425E+03   -0.10671E-04   -0.11026E-04   440   0.483E-02    0.955E-03
DAV:   7    -0.102644860836E+03    0.25885E-05   -0.13670E-05   256   0.171E-02
   1 F= -.10264486E+03 E0= -.10258809E+03  d E =-.170322E+00

 ----------------------------------------------------------------------------- 
|                                                                             |
|           W    W    AA    RRRRR   N    N  II  N    N   GGGG   !!!           |
|           W    W   A  A   R    R  NN   N  II  NN   N  G    G  !!!           |
|           W    W  A    A  R    R  N N  N  II  N N  N  G       !!!           |
|           W WW W  AAAAAA  RRRRR   N  N N  II  N  N N  G  GGG   !            |
|           WW  WW  A    A  R   R   N   NN  II  N   NN  G    G                |
|           W    W  A    A  R    R  N    N  II  N    N   GGGG   !!!           |
|                                                                             |
|      The partial DOS and the PROCAR file are not evaluated for NPAR/=1      |
|      please rerun with NPAR=1                                               |
|                                                                             |
 ----------------------------------------------------------------------------- 

