 vasp.4.6.28 25Jul05 complex 
 executed on             LinuxIFC date 2016.08.29  19:00:32
 running on    4 nodes
 distr:  one band on    1 nodes,    4 groups


--------------------------------------------------------------------------------------------------------


 INCAR:
 POTCAR:   PAW_PBE Au 06Sep2000                   
 POTCAR:   PAW_PBE Au 06Sep2000                   
   VRHFIN =Au: s1d10                                                            
   LEXCH  = PE                                                                  
   EATOM  =   926.0567 eV,   68.0632 Ry                                         
                                                                                
   TITEL  = PAW_PBE Au 06Sep2000                                                
   LULTRA =        F    use ultrasoft PP ?                                      
   IUNSCR =        1    unscreen: 0-lin 1-nonlin 2-no                           
   RPACOR =    2.330    partial core radius                                     
   POMASS =  196.966; ZVAL   =   11.000    mass and valenz                      
   RCORE  =    2.500    outmost cutoff radius                                   
   RWIGS  =    2.840; RWIGS  =    1.503    wigner-seitz radius (au A)           
   ENMAX  =  229.948; ENMIN  =  172.461 eV                                      
   RCLOC  =    1.964    cutoff for local pot                                    
   LCOR   =        T    correct aug charges                                     
   LPAW   =        T    paw PP                                                  
   EAUG   =  356.670                                                            
   DEXC   =    -.025                                                            
   RMAX   =    3.041    core radius for proj-oper                               
   RAUG   =    1.300    factor for augmentation sphere                          
   RDEP   =    2.598    radius for radial grids                                 
   QCUT   =   -4.111; QGAM   =    8.222    optimization parameters              
                                                                                
   Description                                                                  
     l     E      TYP  RCUT    TYP  RCUT                                        
     2   .000     23  2.500                                                     
     2   .000     23  2.500                                                     
     0   .000     23  2.500                                                     
     0   .000     23  2.500                                                     
     1  -.200     23  2.500                                                     
     1   .000     23  2.500                                                     
     3   .000      7   .000                                                     
  local pseudopotential read in
  partial core-charges read in
  atomic valenz-charges read in
  non local Contribution for L=           2  read in
    real space projection operators read in
  non local Contribution for L=           2  read in
    real space projection operators read in
  non local Contribution for L=           0  read in
    real space projection operators read in
  non local Contribution for L=           0  read in
    real space projection operators read in
  non local Contribution for L=           1  read in
    real space projection operators read in
  non local Contribution for L=           1  read in
    real space projection operators read in
    PAW grid and wavefunctions read in
 
   number of l-projection  operators is LMAX  =           6
   number of lm-projection operators is LMMAX =          18
 

 ----------------------------------------------------------------------------- 
|                                                                             |
|  ADVICE TO THIS USER RUNNING 'VASP/VAMP'   (HEAR YOUR MASTER'S VOICE ...):  |
|                                                                             |
|      You have a (more or less) 'large supercell' and for larger cells       |
|      it might be more efficient to use real space projection operators      |
|      So try LREAL= Auto  in the INCAR   file.                               |
|      Mind: If you want to do an extremely accurate calculations keep the    |
|      reciprocal projection scheme          (i.e. LREAL=.FALSE.)             |
|                                                                             |
 ----------------------------------------------------------------------------- 

 PAW_PBE Au 06Sep2000                   :
 energy of atom  1       EATOM= -926.0567
 kinetic energy error for atom=    0.0708 (will be added to EATOM!!)
 
 EXHCAR: internal setup
 exchange correlation table for  LEXCH =        8
   RHO(1)=    0.500       N(1)  =     2000
   RHO(2)=  100.500       N(2)  =     4000
 
 POSCAR: No title                                
  positions in direct lattice
  No initial velocities read in
 


--------------------------------------------------------------------------------------------------------


 ion  position               nearest neighbor table
   1  0.750  0.750  0.500-   3 3.01  14 3.01  19 3.01  20 3.01   5 3.01  26 3.01  11 3.01   6 3.01
                            18 3.01  29 3.01  10 3.01   8 3.01
   2  0.750  0.750  0.000-  12 2.99  10 3.01   8 3.01  22 3.01  27 3.01  11 3.01  18 3.01  26 3.01
                             5 3.01  32 3.01   3 3.01  20 3.01
   3  0.750  0.000  0.250-  12 2.99   5 3.01   9 3.01   1 3.01  28 3.01  19 3.01  18 3.01   6 3.01
                            27 3.01  13 3.01   4 3.01   2 3.01
   4  0.750  0.250  0.500-   6 3.01   8 3.01  10 3.01  29 3.01  13 3.01  31 3.01  21 3.01  28 3.01
                            14 3.01  19 3.01   3 3.01  20 3.01
   5  0.000  0.750  0.250-   3 3.01  14 3.01  25 3.01  15 3.01   1 3.01   2 3.01   7 3.01  16 3.01
                            10 3.01  22 3.01   6 3.01  12 3.01
   6  0.000  0.000  0.500-   4 3.01   7 3.01  11 3.01  13 3.01   8 3.01  16 3.01   1 3.01   3 3.01
                            17 3.01  23 3.01  21 3.01   5 3.01
   7  0.250  0.750  0.500-   6 3.01  16 3.01  29 3.01  30 3.01  11 3.01  18 3.01  19 3.01  26 3.01
                             5 3.01  14 3.01  25 3.01  23 3.01
   8  0.750  0.000  0.750-  12 2.99   4 3.01  11 3.01   2 3.01  31 3.01  27 3.01   6 3.01  26 3.01
                            19 3.01  21 3.01   9 3.01   1 3.01
   9  0.750  0.250  0.000-  12 2.99   3 3.01  20 3.01  32 3.01  28 3.01  21 3.01  27 3.01  13 3.01
                            31 3.01  22 3.01  10 3.01   8 3.01
  10  0.750  0.500  0.250-   2 3.01   4 3.01  13 3.01  18 3.01  22 3.01  29 3.01  14 3.01  28 3.01
                             5 3.01  32 3.01   9 3.01   1 3.01
  11  0.000  0.750  0.750-   6 3.01   8 3.01  22 3.01  30 3.01   7 3.01   2 3.01  20 3.01   1 3.01
                            23 3.01  15 3.01  14 3.01  12 3.01
  12  0.998  0.000  0.000-   3 2.99   9 2.99   8 2.99   2 2.99   5 3.01  21 3.01  11 3.01  13 3.01
                            15 3.02  23 3.02  16 3.02  24 3.02
  13  0.000  0.250  0.250-   6 3.01  10 3.01  16 3.01  22 3.01   4 3.01  24 3.01  17 3.01   3 3.01
                             9 3.01  25 3.01  14 3.01  12 3.01
  14  0.000  0.500  0.500-   1 3.01   5 3.01  17 3.01  21 3.01  20 3.01  25 3.01   7 3.01  10 3.01
                             4 3.01  30 3.01  13 3.01  11 3.01
  15  0.250  0.750  0.000-  23 3.01  25 3.01  32 3.01  26 3.01   5 3.01  18 3.01  22 3.01  27 3.01
                            11 3.01  30 3.01  16 3.01  12 3.02
  16  0.250  0.000  0.250-   7 3.01  13 3.01  18 3.01  24 3.01   6 3.01  27 3.01   5 3.01  19 3.01
                            28 3.01  17 3.01  15 3.01  12 3.02
  17  0.250  0.250  0.500-  14 3.01  19 3.01  23 3.01  25 3.01  21 3.01  28 3.01   6 3.01  13 3.01
                            29 3.01  31 3.01  30 3.01  16 3.01
  18  0.500  0.750  0.250-  10 3.01  16 3.01  27 3.01  29 3.01   2 3.01   7 3.01   1 3.01  25 3.01
                             3 3.01  15 3.01  19 3.01  32 3.01
  19  0.500  0.000  0.500-   1 3.01  17 3.01  26 3.01  28 3.01   3 3.01  23 3.01   4 3.01   7 3.01
                             8 3.01  16 3.01  18 3.01  31 3.01
  20  0.750  0.500  0.750-   1 3.01   9 3.01  21 3.01  26 3.01  14 3.01  32 3.01  11 3.01  29 3.01
                            31 3.01  22 3.01   4 3.01   2 3.01
  21  0.000  0.250  0.750-  14 3.01  20 3.01  23 3.01   9 3.01  17 3.01   8 3.01   4 3.01  24 3.01
                            30 3.01  22 3.01   6 3.01  12 3.01
  22  0.000  0.500  0.000-   2 3.01  11 3.01  13 3.01  24 3.01  10 3.01  30 3.01  20 3.01   9 3.01
                            25 3.01  15 3.01  21 3.01   5 3.01
  23  0.250  0.000  0.750-  15 3.01  17 3.01  21 3.01  26 3.01  19 3.01  11 3.01   6 3.01  27 3.01
                            31 3.01  24 3.01   7 3.01  12 3.02
  24  0.250  0.250  0.000-  16 3.01  22 3.01  27 3.01  30 3.01  13 3.01  31 3.01  21 3.01  28 3.01
                            32 3.01  25 3.01  23 3.01  12 3.02
  25  0.250  0.500  0.250-   5 3.01  15 3.01  17 3.01  28 3.01  14 3.01  32 3.01  22 3.01  13 3.01
                            29 3.01  18 3.01  24 3.01   7 3.01
  26  0.500  0.750  0.750-  19 3.01  20 3.01  23 3.01  32 3.01   1 3.01  15 3.01   8 3.01   2 3.01
                            30 3.01   7 3.01  27 3.01  29 3.01
  27  0.500  0.000  0.000-   2 3.01  18 3.01  24 3.01  31 3.01  16 3.01   8 3.01   9 3.01  23 3.01
                            15 3.01   3 3.01  28 3.01  26 3.01
  28  0.500  0.250  0.250-   3 3.01  19 3.01  25 3.01  32 3.01  17 3.01   9 3.01  10 3.01  24 3.01
                            16 3.01   4 3.01  29 3.01  27 3.01
  29  0.500  0.500  0.500-   4 3.01   7 3.01  18 3.01  31 3.01  30 3.01  10 3.01  20 3.01  25 3.01
                            17 3.01   1 3.01  26 3.01  28 3.01
  30  0.250  0.500  0.750-   7 3.01  11 3.01  24 3.01  31 3.01  29 3.01  22 3.01  26 3.01  14 3.01
                            21 3.01  32 3.01  17 3.01  15 3.01
  31  0.500  0.250  0.750-   8 3.01  27 3.01  29 3.01  30 3.01  24 3.01   4 3.01   9 3.01  17 3.01
                            20 3.01  23 3.01  19 3.01  32 3.01
  32  0.500  0.500  0.000-   9 3.01  15 3.01  26 3.01  28 3.01  20 3.01  25 3.01   2 3.01  10 3.01
                            24 3.01  30 3.01  18 3.01  31 3.01
 
  LATTYP: Found a simple cubic cell.
 ALAT       =     8.5028568000
  
  Lattice vectors:
  
 A1 = (   8.5028568000,   0.0000000000,   0.0000000000)
 A2 = (   0.0000001600,   8.5028568000,   0.0000000000)
 A3 = (   0.0000001600,   0.0000001600,   8.5028568000)
 Subroutine PRICEL returns:
 Original cell was already a primitive cell.
 

Analysis of symmetry for initial positions (statically):

 Routine SETGRP: Setting up the symmetry group for a 
 simple cubic supercell.


 Subroutine GETGRP returns: Found  8 space group operations
 (whereof  8 operations were pure point group operations)
 out of a pool of 48 trial point group operations.


The static configuration has the point symmetry C_4v.

Analysis of symmetry for dynamics (positions and initial velocities):

 Subroutine DYNSYM returns: Found  8 space group operations
 (whereof  8 operations were pure point group operations)
 out of a pool of  8 trial space group operations
 (whereof  8 operations were pure point group operations)
 and found also     1 'primitive' translations


The dynamic configuration has the point symmetry C_4v.
 
 
 KPOINTS: Automatic mesh                          

Automatic generation of k-mesh.
 
 Subroutine IBZKPT returns following result:
 ===========================================
 
 Found      1 irreducible k-points:
 
 Following reciprocal coordinates:
            Coordinates               Weight
  0.250000  0.250000  0.250000      8.000000
 
 Following cartesian coordinates:
            Coordinates               Weight
  0.029402  0.029402  0.029402      8.000000
 


--------------------------------------------------------------------------------------------------------




 Dimension of arrays:
   k-Points           NKPTS =      1   number of bands    NBANDS=    212
   number of dos      NEDOS =    301   number of ions     NIONS =     32
   non local maximal  LDIM  =      6   non local SUM 2l+1 LMDIM =     18
   total plane-waves  NPLWV =  32768
   max r-space proj   IRMAX =      1   max aug-charges    IRDMAX=   3459
   dimension x,y,z NGX =    32 NGY =   32 NGZ =   32
   dimension x,y,z NGXF=    64 NGYF=   64 NGZF=   64
   support grid    NGXF=    64 NGYF=   64 NGZF=   64
   ions per type =              32
 NGX,Y,Z   is equivalent  to a cutoff of   6.26,  6.26,  6.26 a.u.
 NGXF,Y,Z  is equivalent  to a cutoff of  12.51, 12.51, 12.51 a.u.


 I would recommend the setting:
   dimension x,y,z NGX =    32 NGY =   32 NGZ =   32
 SYSTEM =  No title                                
 POSCAR =  No title                                

 Startparameter for this run:
   NWRITE =      2    write-flag & timer
   PREC   = normal    medium, high low
   ISTART =      1    job   : 0-new  1-cont  2-samecut
   ICHARG =      0    charge: 1-file 2-atom 10-const
   ISPIN  =      1    spin polarized calculation?
   LNONCOLLINEAR =      F non collinear calculations
   LSORBIT =      F    spin-orbit coupling
   INIWAV =      1    electr: 0-lowe 1-rand  2-diag
   LASPH  =      F    aspherical Exc in radial PAW
   METAGGA=      F    non-selfconsistent MetaGGA calc.

 Electronic Relaxation 1
   ENCUT  =  229.9 eV  16.90 Ry    4.11 a.u.  10.51 10.51 10.51*2*pi/ulx,y,z
   ENINI  =  229.9     initial cutoff
   ENAUG  =  356.7 eV  augmentation charge cutoff
   NELM   =     60;   NELMIN=  2; NELMDL=  0     # of ELM steps 
   EDIFF  = 0.1E-04   stopping-criterion for ELM
   LREAL  =      F    real-space projection
   LCOMPAT=      F    compatible to vasp.4.4
   LREAL_COMPAT= F    compatible to vasp.4.5.1-3
   GGA_COMPAT  = T    GGA compatible to vasp.4.4-vasp.4.6
   LMAXPAW     = -100 max onsite density
   LMAXMIX     =    2 max onsite mixed and CHGCAR
   VOSKOWN=      1    Vosko Wilk Nusair interpolation
   ROPT   =    0.00000
 Ionic relaxation
   EDIFFG = -.2E-01   stopping-criterion for IOM
   NSW    =      0    number of steps for IOM
   NBLOCK =      1;   KBLOCK =      1    inner block; outer block 
   IBRION =     -1    ionic relax: 0-MD 1-quasi-New 2-CG
   NFREE  =      0    steps in history (QN), initial steepest desc. (CG)
   ISIF   =      2    stress and relaxation
   IWAVPR =     10    prediction:  0-non 1-charg 2-wave 3-comb
   ISYM   =      2    0-nonsym 1-usesym 2-fastsym
   LCORR  =      T    Harris-Foulkes like correction to forces

   POTIM  =   0.50    time-step for ionic-motion
   TEIN   =    0.0    initial temperature
   TEBEG  =    0.0;   TEEND  =   0.0 temperature during run
   SMASS  =  -3.00    Nose mass-parameter (am)
   estimated Nose-frequenzy (Omega)   =  0.10E-29 period in steps =****** mass=  -0.165E-26a.u.
   NPACO  =    256;   APACO  = 16.0  distance and # of slots for P.C.
   PSTRESS=    0.0 pullay stress

  Mass of Ions in am
   POMASS = 196.97
  Ionic Valenz
   ZVAL   =  11.00
  Atomic Wigner-Seitz radii
   RWIGS  =   1.34
   NELECT =     352.0000    total number of electrons
   NUPDOWN=      -1.0000    fix difference up-down

 DOS related values:
   EMIN   =  10.00;   EMAX   =-10.00  energy-range for DOS
   ISMEAR =     1;   SIGMA  =   0.20  broadening in eV -4-tet -1-fermi 0-gaus

 Electronic relaxation 2 (details)
   IALGO  =     38    algorithm
   LDIAG  =      T    sub-space diagonalisation
   IMIX   =      4    mixing-type and parameters
     AMIX     =   0.40;   BMIX     =  1.00
     AMIX_MAG =   1.60;   BMIX_MAG =  1.00
     AMIN     =   0.10
     WC   =   100.;   INIMIX=   1;  MIXPRE=   1

 Intra band minimization:
   WEIMIN = 0.0000     energy-eigenvalue tresh-hold
   EBREAK =  0.12E-07  absolut break condition
   DEPER  =   0.30     relativ break condition  

   TIME   =   0.10     timestep for ELM

  volume/ion in A,a.u.               =      19.21       129.64
  Fermi-wavevector in a.u.,eV,Ry     =   1.359432 25.144323  1.848056

 Second variation
   LSECVAR=     F    do a second variation
 
 Write flags
   LWAVE  =      F    write WAVECAR
   LCHARG =      F    write CHGCAR
   LVTOT  =      F    write LOCPOT, local potential
   LELF   =      F    write electronic localiz. function (ELF)
   LORBIT =      0    0 simple, 1 ext, 2 COOP (PROOUT)


 Dipole corrections
   IDIPOL =      0    1-x, 2-y, 3-z
   LDIPOL =      F    correct potential



--------------------------------------------------------------------------------------------------------


 Static calculation
 charge density will be updated during run
 non-spin polarized calculation
 Variant of blocked Davidson
 Davidson routine will perform the subspace rotation
 performe sub-space diagonalisation
    after iterative eigenvector-optimisation
 modified Broyden-mixing scheme, WC =      100.0
 initial mixing is a Kerker type mixing with AMIX =  0.4000 and BMIX =      1.0000
 Hartree-type preconditioning will be used
 using additional bands           36
 reciprocal scheme for non local part
 use partial core corrections
 calculate Harris-corrections to forces 
   (improved forces if not selfconsistent)
 use gradient corrections 
 use of overlap-Matrix (Vanderbilt PP)
 Methfessel and Paxton  Order N= 1 SIGMA  =   0.20


--------------------------------------------------------------------------------------------------------


  energy-cutoff  :      229.95
  volume of cell :      614.74
      direct lattice vectors                 reciprocal lattice vectors
     8.502856800  0.000000000  0.000000000     0.117607532 -0.000000002 -0.000000002
     0.000000160  8.502856800  0.000000000     0.000000000  0.117607532 -0.000000002
     0.000000160  0.000000160  8.502856800     0.000000000  0.000000000  0.117607532

  length of vectors
     8.502856800  8.502856800  8.502856800     0.117607532  0.117607532  0.117607532


 
 old parameters found on file WAVECAR:
  energy-cutoff  :      229.95
  volume of cell :      614.74
      direct lattice vectors                 reciprocal lattice vectors
     8.502856800  0.000000000  0.000000000     0.117607532 -0.000000002 -0.000000002
     0.000000160  8.502856800  0.000000000     0.000000000  0.117607532 -0.000000002
     0.000000160  0.000000160  8.502856800     0.000000000  0.000000000  0.117607532

  length of vectors

 
 k-points in units of 2pi/SCALE and weight: Automatic mesh                          
   0.02940188  0.02940188  0.02940188       1.000
 
 k-points in reciprocal lattice and weights: Automatic mesh                          
   0.25000000  0.25000000  0.25000000       1.000
 
 position of ions in fractional coordinates (direct lattice) 
   0.75000000  0.75000000  0.50000000
   0.75000000  0.75000000  0.00000000
   0.75000000  0.00000000  0.25000000
   0.75000000  0.25000000  0.50000000
   0.00000000  0.75000000  0.25000000
   0.00000000  0.00000000  0.50000000
   0.25000000  0.75000000  0.50000000
   0.75000000  0.00000000  0.75000000
   0.75000000  0.25000000  0.00000000
   0.75000000  0.50000000  0.25000000
   0.00000000  0.75000000  0.75000000
   0.99764800  0.00000000  0.00000000
   0.00000000  0.25000000  0.25000000
   0.00000000  0.50000000  0.50000000
   0.25000000  0.75000000  0.00000000
   0.25000000  0.00000000  0.25000000
   0.25000000  0.25000000  0.50000000
   0.50000000  0.75000000  0.25000000
   0.50000000  0.00000000  0.50000000
   0.75000000  0.50000000  0.75000000
   0.00000000  0.25000000  0.75000000
   0.00000000  0.50000000  0.00000000
   0.25000000  0.00000000  0.75000000
   0.25000000  0.25000000  0.00000000
   0.25000000  0.50000000  0.25000000
   0.50000000  0.75000000  0.75000000
   0.50000000  0.00000000  0.00000000
   0.50000000  0.25000000  0.25000000
   0.50000000  0.50000000  0.50000000
   0.25000000  0.50000000  0.75000000
   0.50000000  0.25000000  0.75000000
   0.50000000  0.50000000  0.00000000
 
 position of ions in cartesian coordinates  (Angst):
   6.37714280  6.37714268  4.25142840
   6.37714272  6.37714260  0.00000000
   6.37714264  0.00000004  2.12571420
   6.37714272  2.12571428  4.25142840
   0.00000016  6.37714264  2.12571420
   0.00000008  0.00000008  4.25142840
   2.12571440  6.37714268  4.25142840
   6.37714272  0.00000012  6.37714260
   6.37714264  2.12571420  0.00000000
   6.37714272  4.25142844  2.12571420
   0.00000024  6.37714272  6.37714260
   8.48285808  0.00000000  0.00000000
   0.00000008  2.12571424  2.12571420
   0.00000016  4.25142848  4.25142840
   2.12571432  6.37714260  0.00000000
   2.12571424  0.00000004  2.12571420
   2.12571432  2.12571428  4.25142840
   4.25142856  6.37714264  2.12571420
   4.25142848  0.00000008  4.25142840
   6.37714280  4.25142852  6.37714260
   0.00000016  2.12571432  6.37714260
   0.00000008  4.25142840  0.00000000
   2.12571432  0.00000012  6.37714260
   2.12571424  2.12571420  0.00000000
   2.12571432  4.25142844  2.12571420
   4.25142864  6.37714272  6.37714260
   4.25142840  0.00000000  0.00000000
   4.25142848  2.12571424  2.12571420
   4.25142856  4.25142848  4.25142840
   2.12571440  4.25142852  6.37714260
   4.25142856  2.12571432  6.37714260
   4.25142848  4.25142840  0.00000000
 


--------------------------------------------------------------------------------------------------------


 k-point  1 :  0.25000.25000.2500  plane waves:   4878

 maximum and minimum number of plane-waves per node :   4878  4878

 maximum number of plane-waves:   4878
 maximal index in each direction: 
   IXMAX= 10   IYMAX= 10   IZMAX= 10
   IXMIN=-10   IYMIN=-10   IZMIN=-10

 WARNING: wrap around error must be expected set NGX to  42
 WARNING: wrap around error must be expected set NGY to  42
 WARNING: wrap around error must be expected set NGZ to  42

 parallel 3dFFT wavefunction:
    minimum data exchange during FFTs selected (reduces bandwidth)
 parallel 3dFFT charge:
    minimum data exchange during FFTs selected (reduces bandwidth)

 For storing wavefunctions   16.55 MBYTES are necessary
 For predicting wavefunctions   37.90 MBYTES are necessary
Broyden mixing: mesh for mixing (old mesh)
   NGX = 21   NGY = 21   NGZ = 21
  (NGX  = 64   NGY  = 64   NGZ  = 64)
 gives a total of   9261 points
 charge density for first step will be calculated from the start-wavefunctions


--------------------------------------------------------------------------------------------------------


 Maximum index for augmentation-charges          813 (set IRDMAX)


--------------------------------------------------------------------------------------------------------


 initial charge from wavefunction
 First call to EWALD:  gamma=   0.208
 Maximum number of real-space cells 3x 3x 3
 Maximum number of reciprocal cells 3x 3x 3

    FEWALD:  VPU time    0.00: CPU time    0.00


----------------------------------------- Iteration    1(   1)  ---------------------------------------


    POTLOK:  VPU time    0.04: CPU time    0.04
    SETDIJ:  VPU time    0.01: CPU time    0.02
    EDDAV :  VPU time    0.92: CPU time    0.93
    DOS   :  VPU time    0.00: CPU time   -0.00
    CHARGE:  VPU time    0.03: CPU time    0.03
    MIXING:  VPU time    0.00: CPU time    0.00
    ------------------------------------------
      LOOP:  VPU time    1.01: CPU time    1.02

 eigenvalue-minimisations  :   432
 total energy-change (2. order) :-0.1027250E+03  (-0.3528517E+00)
 number of electron  352.0002205 magnetization 
 augmentation part   129.7531296 magnetization 

 Broyden mixing:
  rms(total) = 0.99617E-01    rms(broyden)= 0.99391E-01
  rms(prec ) = 0.25047E+00
  weight for this iteration     100.00

 Free energy of the ion-electron system (eV)
  ---------------------------------------------------
  alpha Z        PSCENC =      3119.61854171
  Ewald energy   TEWEN  =    -30064.35010663
  -1/2 Hartree   DENC   =     -4134.75202799
  -V(xc)+E(xc)   XCENC  =       463.82221755
  PAW double counting   =     23721.38085161   -23041.92658370
  entropy T*S    EENTRO =        -0.16914627
  eigenvalues    EBANDS =       202.10109544
  atomic energy  EATOM  =     29631.55017626
  ---------------------------------------------------
  free energy    TOTEN  =      -102.72498201 eV

  energy without entropy =     -102.55583574  energy(sigma->0) =     -102.66859992


--------------------------------------------------------------------------------------------------------




----------------------------------------- Iteration    1(   2)  ---------------------------------------


    POTLOK:  VPU time    0.04: CPU time    0.04
    SETDIJ:  VPU time    0.01: CPU time    0.01
    EDDAV :  VPU time    1.02: CPU time    1.02
    DOS   :  VPU time    0.00: CPU time   -0.00
    CHARGE:  VPU time    0.03: CPU time    0.03
    MIXING:  VPU time    0.00: CPU time    0.00
    ------------------------------------------
      LOOP:  VPU time    1.11: CPU time    1.11

 eigenvalue-minimisations  :   512
 total energy-change (2. order) : 0.7552566E-01  (-0.2906083E-01)
 number of electron  352.0002205 magnetization 
 augmentation part   129.7536539 magnetization 

 Broyden mixing:
  rms(total) = 0.48836E-01    rms(broyden)= 0.48739E-01
  rms(prec ) = 0.78610E-01
  weight for this iteration     100.00

 eigenvalues of (default mixing * dielectric matrix)
  average eigenvalue GAMMA=   0.9817
  0.9817

 Free energy of the ion-electron system (eV)
  ---------------------------------------------------
  alpha Z        PSCENC =      3119.61854171
  Ewald energy   TEWEN  =    -30064.35010663
  -1/2 Hartree   DENC   =     -4134.94624403
  -V(xc)+E(xc)   XCENC  =       463.82744501
  PAW double counting   =     23721.65405113   -23042.19952540
  entropy T*S    EENTRO =        -0.17027288
  eigenvalues    EBANDS =       202.36647848
  atomic energy  EATOM  =     29631.55017626
  ---------------------------------------------------
  free energy    TOTEN  =      -102.64945635 eV

  energy without entropy =     -102.47918346  energy(sigma->0) =     -102.59269872


--------------------------------------------------------------------------------------------------------




----------------------------------------- Iteration    1(   3)  ---------------------------------------


    POTLOK:  VPU time    0.03: CPU time    0.03
    SETDIJ:  VPU time    0.01: CPU time    0.01
    EDDAV :  VPU time    0.96: CPU time    0.96
    DOS   :  VPU time    0.00: CPU time   -0.00
    CHARGE:  VPU time    0.03: CPU time    0.03
    MIXING:  VPU time    0.00: CPU time    0.00
    ------------------------------------------
      LOOP:  VPU time    1.04: CPU time    1.05

 eigenvalue-minimisations  :   476
 total energy-change (2. order) : 0.4574542E-02  (-0.3467982E-02)
 number of electron  352.0002205 magnetization 
 augmentation part   129.7523018 magnetization 

 Broyden mixing:
  rms(total) = 0.24324E-01    rms(broyden)= 0.24307E-01
  rms(prec ) = 0.32934E-01
  weight for this iteration     100.00

 eigenvalues of (default mixing * dielectric matrix)
  average eigenvalue GAMMA=   1.2056
  0.8146  1.5965

 Free energy of the ion-electron system (eV)
  ---------------------------------------------------
  alpha Z        PSCENC =      3119.61854171
  Ewald energy   TEWEN  =    -30064.35010663
  -1/2 Hartree   DENC   =     -4135.05956701
  -V(xc)+E(xc)   XCENC  =       463.83164379
  PAW double counting   =     23721.80568177   -23042.34634051
  entropy T*S    EENTRO =        -0.17031762
  eigenvalues    EBANDS =       202.47540643
  atomic energy  EATOM  =     29631.55017626
  ---------------------------------------------------
  free energy    TOTEN  =      -102.64488180 eV

  energy without entropy =     -102.47456418  energy(sigma->0) =     -102.58810926


--------------------------------------------------------------------------------------------------------




----------------------------------------- Iteration    1(   4)  ---------------------------------------


    POTLOK:  VPU time    0.03: CPU time    0.03
    SETDIJ:  VPU time    0.01: CPU time    0.01
    EDDAV :  VPU time    0.91: CPU time    0.91
    DOS   :  VPU time    0.00: CPU time   -0.00
    CHARGE:  VPU time    0.03: CPU time    0.03
    MIXING:  VPU time    0.00: CPU time    0.00
    ------------------------------------------
      LOOP:  VPU time    0.99: CPU time    0.99

 eigenvalue-minimisations  :   440
 total energy-change (2. order) : 0.2342895E-04  (-0.6179053E-03)
 number of electron  352.0002205 magnetization 
 augmentation part   129.7505710 magnetization 

 Broyden mixing:
  rms(total) = 0.12242E-01    rms(broyden)= 0.12239E-01
  rms(prec ) = 0.14693E-01
  weight for this iteration     100.00

 eigenvalues of (default mixing * dielectric matrix)
  average eigenvalue GAMMA=   1.3646
  0.8425  1.2059  2.0454

 Free energy of the ion-electron system (eV)
  ---------------------------------------------------
  alpha Z        PSCENC =      3119.61854171
  Ewald energy   TEWEN  =    -30064.35010663
  -1/2 Hartree   DENC   =     -4135.12846420
  -V(xc)+E(xc)   XCENC  =       463.83421145
  PAW double counting   =     23721.84377851   -23042.38209427
  entropy T*S    EENTRO =        -0.17032598
  eigenvalues    EBANDS =       202.53942477
  atomic energy  EATOM  =     29631.55017626
  ---------------------------------------------------
  free energy    TOTEN  =      -102.64485837 eV

  energy without entropy =     -102.47453240  energy(sigma->0) =     -102.58808305


--------------------------------------------------------------------------------------------------------




----------------------------------------- Iteration    1(   5)  ---------------------------------------


    POTLOK:  VPU time    0.03: CPU time    0.03
    SETDIJ:  VPU time    0.01: CPU time    0.01
    EDDAV :  VPU time    0.99: CPU time    0.99
    DOS   :  VPU time    0.00: CPU time   -0.00
    CHARGE:  VPU time    0.03: CPU time    0.03
    MIXING:  VPU time    0.00: CPU time    0.00
    ------------------------------------------
      LOOP:  VPU time    1.07: CPU time    1.08

 eigenvalue-minimisations  :   496
 total energy-change (2. order) : 0.5613969E-05  (-0.4492692E-04)
 number of electron  352.0002205 magnetization 
 augmentation part   129.7505860 magnetization 

 Broyden mixing:
  rms(total) = 0.49930E-02    rms(broyden)= 0.49921E-02
  rms(prec ) = 0.60454E-02
  weight for this iteration     100.00

 eigenvalues of (default mixing * dielectric matrix)
  average eigenvalue GAMMA=   1.3336
  2.4428  1.3071  0.7923  0.7923

 Free energy of the ion-electron system (eV)
  ---------------------------------------------------
  alpha Z        PSCENC =      3119.61854171
  Ewald energy   TEWEN  =    -30064.35010663
  -1/2 Hartree   DENC   =     -4135.11530128
  -V(xc)+E(xc)   XCENC  =       463.83361814
  PAW double counting   =     23721.75769578   -23042.29669270
  entropy T*S    EENTRO =        -0.17032431
  eigenvalues    EBANDS =       202.52754028
  atomic energy  EATOM  =     29631.55017626
  ---------------------------------------------------
  free energy    TOTEN  =      -102.64485276 eV

  energy without entropy =     -102.47452845  energy(sigma->0) =     -102.58807799


--------------------------------------------------------------------------------------------------------




----------------------------------------- Iteration    1(   6)  ---------------------------------------


    POTLOK:  VPU time    0.03: CPU time    0.03
    SETDIJ:  VPU time    0.01: CPU time    0.01
    EDDAV :  VPU time    0.91: CPU time    0.91
    DOS   :  VPU time    0.00: CPU time   -0.00
    CHARGE:  VPU time    0.03: CPU time    0.03
    MIXING:  VPU time    0.00: CPU time    0.00
    ------------------------------------------
      LOOP:  VPU time    1.00: CPU time    1.00

 eigenvalue-minimisations  :   440
 total energy-change (2. order) :-0.1067940E-04  (-0.1106990E-04)
 number of electron  352.0002205 magnetization 
 augmentation part   129.7506600 magnetization 

 Broyden mixing:
  rms(total) = 0.95854E-03    rms(broyden)= 0.95724E-03
  rms(prec ) = 0.15465E-02
  weight for this iteration     100.00

 eigenvalues of (default mixing * dielectric matrix)
  average eigenvalue GAMMA=   1.2417
  2.4738  1.2250  0.8959  0.8069  0.8069

 Free energy of the ion-electron system (eV)
  ---------------------------------------------------
  alpha Z        PSCENC =      3119.61854171
  Ewald energy   TEWEN  =    -30064.35010663
  -1/2 Hartree   DENC   =     -4135.10958341
  -V(xc)+E(xc)   XCENC  =       463.83337776
  PAW double counting   =     23721.71210492   -23042.25133994
  entropy T*S    EENTRO =        -0.17032081
  eigenvalues    EBANDS =       202.52228669
  atomic energy  EATOM  =     29631.55017626
  ---------------------------------------------------
  free energy    TOTEN  =      -102.64486344 eV

  energy without entropy =     -102.47454263  energy(sigma->0) =     -102.58808984


--------------------------------------------------------------------------------------------------------




----------------------------------------- Iteration    1(   7)  ---------------------------------------


    POTLOK:  VPU time    0.03: CPU time    0.03
    SETDIJ:  VPU time    0.01: CPU time    0.01
    EDDAV :  VPU time    0.61: CPU time    0.62
    DOS   :  VPU time    0.00: CPU time   -0.00
    ------------------------------------------
      LOOP:  VPU time    0.67: CPU time    0.67

 eigenvalue-minimisations  :   248
 total energy-change (2. order) : 0.2600151E-05  (-0.1365273E-05)
 number of electron  352.0002205 magnetization 
 augmentation part   129.7506600 magnetization 

 Free energy of the ion-electron system (eV)
  ---------------------------------------------------
  alpha Z        PSCENC =      3119.61854171
  Ewald energy   TEWEN  =    -30064.35010663
  -1/2 Hartree   DENC   =     -4135.11143716
  -V(xc)+E(xc)   XCENC  =       463.83345315
  PAW double counting   =     23721.71620311   -23042.25535988
  entropy T*S    EENTRO =        -0.17032201
  eigenvalues    EBANDS =       202.52399061
  atomic energy  EATOM  =     29631.55017626
  ---------------------------------------------------
  free energy    TOTEN  =      -102.64486084 eV

  energy without entropy =     -102.47453882  energy(sigma->0) =     -102.58808683


--------------------------------------------------------------------------------------------------------




 average (electrostatic) potential at core
  the test charge radii are     1.2098
  (the norm of the test charge is              1.0000)
       1 -46.5698       2 -46.5722       3 -46.5722       4 -46.5698       5 -46.5697
       6 -46.5699       7 -46.5695       8 -46.5722       9 -46.5722      10 -46.5698
      11 -46.5697      12 -46.5702      13 -46.5697      14 -46.5699      15 -46.5671
      16 -46.5671      17 -46.5695      18 -46.5697      19 -46.5699      20 -46.5698
      21 -46.5697      22 -46.5699      23 -46.5671      24 -46.5671      25 -46.5695
      26 -46.5697      27 -46.5699      28 -46.5697      29 -46.5699      30 -46.5695
      31 -46.5697      32 -46.5699
 
 
 
 E-fermi :   4.1831     XC(G=0): -12.0038     alpha+bet : -9.0336
   add alpha+bet to get absolut eigen values

 k-point   1 :       0.2500    0.2500    0.2500
  band No.  band energies     occupation 
      1      -3.8654      2.00000
      2      -2.7247      2.00000
      3      -2.7216      2.00000
      4      -2.7186      2.00000
      5      -2.0510      2.00000
      6      -1.9709      2.00000
      7      -1.9687      2.00000
      8      -1.9665      2.00000
      9      -1.6786      2.00000
     10      -1.6783      2.00000
     11      -1.6780      2.00000
     12      -1.5278      2.00000
     13      -1.5276      2.00000
     14      -1.5275      2.00000
     15      -1.4595      2.00000
     16      -1.4573      2.00000
     17      -1.4551      2.00000
     18      -1.2550      2.00000
     19      -1.2545      2.00000
     20      -1.2539      2.00000
     21      -1.1274      2.00000
     22      -1.1264      2.00000
     23      -1.1241      2.00000
     24      -1.1241      2.00000
     25      -1.1219      2.00000
     26      -1.1209      2.00000
     27      -1.0301      2.00000
     28      -1.0278      2.00000
     29      -1.0257      2.00000
     30      -0.9804      2.00000
     31      -0.9786      2.00000
     32      -0.9776      2.00000
     33      -0.9775      2.00000
     34      -0.9765      2.00000
     35      -0.9748      2.00000
     36      -0.8610      2.00000
     37      -0.8597      2.00000
     38      -0.8585      2.00000
     39      -0.6073      2.00000
     40      -0.6058      2.00000
     41      -0.6046      2.00000
     42      -0.6046      2.00000
     43      -0.6034      2.00000
     44      -0.6021      2.00000
     45      -0.3103      2.00000
     46      -0.3087      2.00000
     47      -0.3070      2.00000
     48      -0.2455      2.00000
     49      -0.2437      2.00000
     50      -0.2420      2.00000
     51      -0.1770      2.00000
     52      -0.1749      2.00000
     53      -0.1740      2.00000
     54      -0.1740      2.00000
     55      -0.1732      2.00000
     56      -0.1711      2.00000
     57      -0.0477      2.00000
     58      -0.0454      2.00000
     59      -0.0435      2.00000
     60      -0.0163      2.00000
     61      -0.0161      2.00000
     62      -0.0155      2.00000
     63      -0.0129      2.00000
     64      -0.0123      2.00000
     65      -0.0106      2.00000
     66      -0.0099      2.00000
     67      -0.0085      2.00000
     68      -0.0080      2.00000
     69       0.0707      2.00000
     70       0.2540      2.00000
     71       0.2541      2.00000
     72       0.3239      2.00000
     73       0.3241      2.00000
     74       0.3660      2.00000
     75       0.3674      2.00000
     76       0.3693      2.00000
     77       0.3888      2.00000
     78       0.3889      2.00000
     79       0.3911      2.00000
     80       0.3911      2.00000
     81       0.3932      2.00000
     82       0.3937      2.00000
     83       0.4332      2.00000
     84       0.4335      2.00000
     85       0.4335      2.00000
     86       0.4493      2.00000
     87       0.4504      2.00000
     88       0.4517      2.00000
     89       0.5154      2.00000
     90       0.5163      2.00000
     91       0.5171      2.00000
     92       0.6022      2.00000
     93       0.6024      2.00000
     94       0.6028      2.00000
     95       0.6316      2.00000
     96       0.6341      2.00000
     97       0.6370      2.00000
     98       0.6757      2.00000
     99       0.6768      2.00000
    100       0.6777      2.00000
    101       1.0142      2.00000
    102       1.0168      2.00000
    103       1.0191      2.00000
    104       1.0531      2.00000
    105       1.0534      2.00000
    106       1.0556      2.00000
    107       1.0556      2.00000
    108       1.0578      2.00000
    109       1.0580      2.00000
    110       1.2486      2.00000
    111       1.2504      2.00000
    112       1.2512      2.00000
    113       1.2528      2.00000
    114       1.2542      2.00000
    115       1.2566      2.00000
    116       1.3368      2.00000
    117       1.3406      2.00000
    118       1.3419      2.00000
    119       1.3429      2.00000
    120       1.3444      2.00000
    121       1.3482      2.00000
    122       1.3736      2.00000
    123       1.3736      2.00000
    124       1.4992      2.00000
    125       1.5012      2.00000
    126       1.5019      2.00000
    127       1.5020      2.00000
    128       1.5025      2.00000
    129       1.5046      2.00000
    130       1.6649      2.00000
    131       1.7469      2.00000
    132       1.7483      2.00000
    133       1.7502      2.00000
    134       1.7699      2.00000
    135       1.7703      2.00000
    136       1.7709      2.00000
    137       2.0082      2.00000
    138       2.0101      2.00000
    139       2.0110      2.00000
    140       2.0110      2.00000
    141       2.0112      2.00000
    142       2.0133      2.00000
    143       2.0151      2.00000
    144       2.0156      2.00000
    145       2.0160      2.00000
    146       2.0662      2.00000
    147       2.0668      2.00000
    148       2.0673      2.00000
    149       2.1037      2.00000
    150       2.1038      2.00000
    151       2.2495      2.00000
    152       2.2497      2.00000
    153       2.2500      2.00000
    154       2.4096      2.00000
    155       2.4097      2.00000
    156       2.4100      2.00000
    157       2.4300      2.00000
    158       2.4311      2.00000
    159       2.4316      2.00000
    160       2.4317      2.00000
    161       2.4322      2.00000
    162       2.4331      2.00000
    163       2.4673      2.00000
    164       2.4686      2.00000
    165       2.4699      2.00000
    166       2.5384      2.00000
    167       2.5385      2.00000
    168       2.5386      2.00000
    169       2.5708      2.00000
    170       2.5723      2.00000
    171       2.5737      2.00000
    172       4.0935      1.68070
    173       4.0942      1.67593
    174       4.0956      1.66758
    175       4.0957      1.66712
    176       4.0971      1.65876
    177       4.0978      1.65412
    178       4.7043     -0.00142
    179       4.7050     -0.00140
    180       4.7056     -0.00138
    181       5.4397     -0.00000
    182       5.4411     -0.00000
    183       5.4425     -0.00000
    184       6.0096     -0.00000
    185       6.0101     -0.00000
    186       6.0105     -0.00000
    187       7.1050     -0.00000
    188       7.1069     -0.00000
    189       7.1077     -0.00000
    190       7.1078     -0.00000
    191       7.1086     -0.00000
    192       7.1105     -0.00000
    193       7.4988     -0.00000
    194       7.5004     -0.00000
    195       7.5019     -0.00000
    196       8.7425     -0.00000
    197       8.7441     -0.00000
    198       8.7457     -0.00000
    199       9.1755     -0.00000
    200       9.1758     -0.00000
    201       9.1783     -0.00000
    202       9.1783     -0.00000
    203       9.1808     -0.00000
    204       9.1810     -0.00000
    205      10.0012      0.00000
    206      10.3360      0.00000
    207      10.3362      0.00000
    208      10.3363      0.00000
    209      10.7986      0.00000
    210      10.7993      0.00000
    211      10.8000      0.00000
    212      10.8013      0.00000


--------------------------------------------------------------------------------------------------------


 soft charge-density along one line, spin component           1
         0         1         2         3         4         5         6         7         8         9
 total charge-density along one line
 
 pseudopotential strength for first ion, spin component:           1
-10.242   0.000   0.000   0.000   0.000  -0.041  -0.000  -0.000
  0.000 -10.242   0.000   0.000  -0.000  -0.000  -0.041  -0.000
  0.000   0.000 -10.230   0.000  -0.000  -0.000  -0.000  -0.042
  0.000   0.000   0.000 -10.242   0.000  -0.000  -0.000  -0.000
  0.000  -0.000  -0.000   0.000 -10.230  -0.000   0.000   0.000
 -0.041  -0.000  -0.000  -0.000  -0.000   0.276   0.000   0.000
 -0.000  -0.041  -0.000  -0.000   0.000   0.000   0.276   0.000
 -0.000  -0.000  -0.042  -0.000   0.000   0.000   0.000   0.276
 -0.000  -0.000  -0.000  -0.041  -0.000   0.000   0.000   0.000
 -0.000   0.000   0.000  -0.000  -0.042   0.000  -0.000  -0.000
 -0.000  -0.000  -0.000  -0.000  -0.000  -0.000   0.000   0.000
 -0.000   0.000   0.000   0.000   0.000   0.000  -0.000  -0.000
  0.000  -0.000   0.000   0.000   0.000  -0.000   0.000  -0.000
  0.000  -0.000  -0.000   0.000   0.000   0.000   0.000   0.000
 -0.000   0.000  -0.000  -0.000   0.000   0.000   0.000   0.000
 -0.000   0.000  -0.000  -0.000  -0.000   0.000  -0.000   0.000
 -0.000   0.000   0.000  -0.000  -0.000   0.000  -0.000  -0.000
  0.000  -0.000   0.000   0.000  -0.000  -0.000   0.000  -0.000
 total augmentation occupancy for first ion, spin component:           1
  1.910  -0.011  -0.002  -0.011   0.000  -0.074   0.009  -0.003   0.009  -0.000   0.012  -0.000   0.000  -0.000  -0.000   0.000
 -0.011   1.910   0.001  -0.011  -0.002   0.009  -0.074   0.001   0.009  -0.002   0.012  -0.000  -0.000  -0.000   0.000  -0.000
 -0.002   0.001   1.951   0.001  -0.000  -0.003   0.001  -0.109   0.001  -0.000   0.000   0.000   0.000  -0.000  -0.000   0.000
 -0.011  -0.011   0.001   1.910   0.002   0.009   0.009   0.001  -0.074   0.002   0.012  -0.000  -0.000   0.000   0.000   0.000
  0.000  -0.002  -0.000   0.002   1.951  -0.000  -0.002  -0.000   0.002  -0.109  -0.000  -0.000   0.000  -0.000   0.000   0.000
 -0.074   0.009  -0.003   0.009  -0.000   0.144  -0.007   0.008  -0.007   0.000  -0.001   0.004  -0.000   0.000  -0.000  -0.000
  0.009  -0.074   0.001   0.009  -0.002  -0.007   0.144  -0.004  -0.007   0.007  -0.001   0.004   0.000   0.000  -0.000  -0.000
 -0.003   0.001  -0.109   0.001  -0.000   0.008  -0.004   0.114  -0.004   0.000  -0.000  -0.000  -0.000   0.000   0.000  -0.000
  0.009   0.009   0.001  -0.074   0.002  -0.007  -0.007  -0.004   0.144  -0.007  -0.001   0.004   0.000  -0.000  -0.000  -0.000
 -0.000  -0.002  -0.000   0.002  -0.109   0.000   0.007   0.000  -0.007   0.114   0.000   0.000  -0.000   0.000   0.000  -0.000
  0.012   0.012   0.000   0.012  -0.000  -0.001  -0.001  -0.000  -0.001   0.000   1.046  -0.312   0.000   0.000  -0.000  -0.000
 -0.000  -0.000   0.000  -0.000  -0.000   0.004   0.004  -0.000   0.004   0.000  -0.312   0.193   0.000   0.000  -0.000   0.000
  0.000  -0.000   0.000  -0.000   0.000  -0.000   0.000  -0.000   0.000  -0.000   0.000   0.000   0.121   0.003   0.003  -0.009
 -0.000  -0.000  -0.000   0.000  -0.000   0.000   0.000   0.000  -0.000   0.000   0.000   0.000   0.003   0.121   0.003  -0.000
 -0.000   0.000  -0.000   0.000   0.000  -0.000  -0.000   0.000  -0.000   0.000  -0.000  -0.000   0.003   0.003   0.121  -0.000
  0.000  -0.000   0.000   0.000   0.000  -0.000  -0.000  -0.000  -0.000  -0.000  -0.000   0.000  -0.009  -0.000  -0.000   0.001
  0.000  -0.000   0.000   0.000   0.000  -0.000   0.000  -0.000  -0.000  -0.000  -0.000  -0.000  -0.000  -0.009  -0.000   0.000
 -0.000  -0.000  -0.000  -0.000   0.000   0.000   0.000  -0.000   0.000  -0.000   0.000  -0.000  -0.000  -0.000  -0.009   0.000


------------------------ aborting loop because EDIFF is reached ----------------------------------------




--------------------------------------------------------------------------------------------------------


    CHARGE:  VPU time    0.03: CPU time    0.03
    FORLOC:  VPU time    0.01: CPU time    0.01
    FORNL :  VPU time    0.74: CPU time    0.74
    STRESS:  VPU time    0.89: CPU time    0.89
    FORCOR:  VPU time    0.04: CPU time    0.04
    FORHAR:  VPU time    0.01: CPU time    0.01
    MIXING:  VPU time    0.00: CPU time    0.00


--------------------------------------------------------------------------------------------------------



  FREE ENERGIE OF THE ION-ELECTRON SYSTEM (eV)
  ---------------------------------------------------
  free  energy   TOTEN  =      -102.644861 eV

  energy  without entropy=     -102.474539  energy(sigma->0) =     -102.588087
 

  FORCE on cell =-STRESS in cart. coord.  units (eV/reduce length):
  Direction    X        Y        Z        XY       YZ       ZX
  --------------------------------------------------------------------------------------
  Alpha Z   3119.62   3119.62   3119.62
  Ewald   -10021.58 -10021.45 -10021.45     -0.00     -0.00     -0.00
  Hartree   1378.31   1378.40   1378.40     -0.00     -0.00     -0.00
  E(xc)    -1581.52  -1581.52  -1581.52     -0.00     -0.00     -0.00
  Local     2460.11   2459.88   2459.88      0.00      0.00      0.00
  n-local  -1646.13  -1646.13  -1646.13      9.82      9.82      9.82
  augment   1374.30   1374.30   1374.30     -0.00     -0.00     -0.00
  Kinetic   4886.77   4886.77   4886.77     -7.03     -7.03     -7.03
  -------------------------------------------------------------------------------------
  Total      -30.12    -30.12    -30.12     -0.00     -0.00     -0.00
  in kB      -78.50    -78.51    -78.51     -0.00     -0.00     -0.00
  external pressure =      -78.50 kB  Pullay stress =        0.00 kB


 VOLUME and BASIS-vectors are now :
 -----------------------------------------------------------------------------
  energy-cutoff  :      229.95
  volume of cell :      614.74
      direct lattice vectors                 reciprocal lattice vectors
     8.502856800  0.000000000  0.000000000     0.117607532 -0.000000002 -0.000000002
     0.000000160  8.502856800  0.000000000     0.000000000  0.117607532 -0.000000002
     0.000000160  0.000000160  8.502856800     0.000000000  0.000000000  0.117607532

  length of vectors
     8.502856800  8.502856800  8.502856800     0.117607532  0.117607532  0.117607532


 FORCES acting on ions
    electron-ion (+dipol)            ewald-force                    non-local-force                 convergence-correction
 -----------------------------------------------------------------------------------------------
   0.262E-01 0.151E+00 -.143E-07   -.271E-01 -.148E+00 0.154E-07   0.176E-02 -.140E-02 0.187E-19   -.164E-02 0.815E-04 0.513E-09
   0.932E+00 0.181E+01 -.995E-08   -.931E+00 -.180E+01 0.293E-09   -.638E-02 -.229E-02 0.113E-18   -.427E-02 -.161E-01 -.419E-09
   0.932E+00 -.312E-07 -.181E+01   -.931E+00 0.336E-07 0.180E+01   -.638E-02 0.430E-10 0.229E-02   -.427E-02 0.540E-09 0.161E-01
   0.262E-01 -.151E+00 0.825E-08   -.271E-01 0.148E+00 -.899E-08   0.176E-02 0.140E-02 0.110E-19   -.164E-02 -.815E-04 -.203E-09
   -.116E+01 -.861E-02 0.861E-02   0.116E+01 0.858E-02 -.858E-02   -.174E-02 -.169E-03 0.169E-03   0.112E-01 0.203E-03 -.203E-03
   -.609E+00 0.261E-08 0.418E-07   0.615E+00 -.170E-08 -.459E-07   -.832E-02 -.132E-18 0.642E-20   0.229E-02 0.568E-09 -.142E-08
   0.315E-01 -.151E+00 0.792E-08   -.326E-01 0.147E+00 -.862E-08   0.180E-02 0.139E-02 -.120E-19   -.147E-02 0.237E-03 -.205E-09
   0.932E+00 0.241E-07 0.181E+01   -.931E+00 -.336E-07 -.180E+01   -.638E-02 -.430E-10 -.229E-02   -.427E-02 -.722E-09 -.161E-01
   0.932E+00 -.181E+01 0.278E-08   -.931E+00 0.180E+01 -.293E-09   -.638E-02 0.229E-02 0.124E-18   -.427E-02 0.161E-01 0.238E-09
   0.262E-01 0.542E-08 -.151E+00   -.271E-01 -.621E-08 0.148E+00   0.176E-02 0.264E-10 0.140E-02   -.164E-02 -.204E-09 -.814E-04
   -.116E+01 -.861E-02 -.861E-02   0.116E+01 0.858E-02 0.858E-02   -.174E-02 -.169E-03 -.169E-03   0.112E-01 0.203E-03 0.203E-03
   -.737E+01 0.118E-06 -.621E-06   0.736E+01 -.132E-06 -.132E-06   0.607E-01 -.822E-20 0.106E-19   0.582E-02 0.169E-08 0.169E-08
   -.116E+01 0.861E-02 0.861E-02   0.116E+01 -.858E-02 -.858E-02   -.174E-02 0.169E-03 0.169E-03   0.112E-01 -.203E-03 -.203E-03
   -.251E+00 0.115E-07 0.115E-07   0.254E+00 -.122E-07 -.122E-07   0.476E-03 0.182E-19 0.147E-19   -.808E-03 -.607E-09 -.607E-09
   0.943E+00 -.178E+01 0.263E-08   -.942E+00 0.177E+01 -.264E-09   -.593E-02 0.199E-02 0.836E-19   -.383E-02 0.142E-01 0.248E-09
   0.943E+00 0.236E-07 0.178E+01   -.942E+00 -.330E-07 -.177E+01   -.593E-02 -.375E-10 -.199E-02   -.383E-02 -.627E-09 -.142E-01
   0.315E-01 0.151E+00 -.145E-07   -.326E-01 -.147E+00 0.156E-07   0.180E-02 -.139E-02 -.386E-19   -.147E-02 -.237E-03 0.450E-09
   0.650E+00 0.253E-02 -.253E-02   -.653E+00 -.257E-02 0.257E-02   0.478E-02 0.105E-04 -.105E-04   -.344E-02 0.287E-04 -.287E-04
   0.495E+00 -.248E-08 -.277E-07   -.483E+00 0.168E-08 0.290E-07   -.119E-01 -.190E-19 -.937E-19   0.471E-02 -.678E-09 0.117E-08
   0.262E-01 -.115E-07 0.151E+00   -.271E-01 0.126E-07 -.148E+00   0.176E-02 -.264E-10 -.140E-02   -.164E-02 0.515E-09 0.814E-04
   -.116E+01 0.861E-02 -.861E-02   0.116E+01 -.858E-02 0.858E-02   -.174E-02 0.169E-03 -.169E-03   0.112E-01 -.203E-03 0.203E-03
   -.609E+00 0.418E-07 0.261E-08   0.615E+00 -.459E-07 -.170E-08   -.832E-02 -.528E-20 -.955E-19   0.229E-02 -.142E-08 0.568E-09
   0.943E+00 -.308E-07 -.178E+01   -.942E+00 0.331E-07 0.177E+01   -.593E-02 0.375E-10 0.199E-02   -.383E-02 0.515E-09 0.142E-01
   0.943E+00 0.178E+01 -.982E-08   -.942E+00 -.177E+01 0.322E-09   -.593E-02 -.199E-02 -.439E-19   -.383E-02 -.142E-01 -.360E-09
   0.315E-01 -.117E-07 0.151E+00   -.326E-01 0.129E-07 -.147E+00   0.180E-02 -.261E-10 -.139E-02   -.147E-02 0.446E-09 -.237E-03
   0.650E+00 0.253E-02 0.253E-02   -.653E+00 -.257E-02 -.257E-02   0.478E-02 0.105E-04 0.105E-04   -.344E-02 0.287E-04 0.287E-04
   0.195E+01 -.573E-08 -.574E-08   -.194E+01 0.226E-08 0.226E-08   0.102E-01 0.283E-20 -.474E-19   -.255E-01 -.119E-08 -.119E-08
   0.650E+00 -.253E-02 -.253E-02   -.653E+00 0.257E-02 0.257E-02   0.478E-02 -.105E-04 -.105E-04   -.344E-02 -.287E-04 -.287E-04
   0.230E+00 -.102E-07 -.102E-07   -.237E+00 0.107E-07 0.107E-07   0.258E-02 0.679E-20 -.988E-20   0.198E-02 0.598E-09 0.598E-09
   0.315E-01 0.508E-08 -.151E+00   -.326E-01 -.586E-08 0.147E+00   0.180E-02 0.261E-10 0.139E-02   -.147E-02 -.201E-09 0.237E-03
   0.650E+00 -.253E-02 0.253E-02   -.653E+00 0.257E-02 -.257E-02   0.478E-02 -.105E-04 0.105E-04   -.344E-02 -.287E-04 0.287E-04
   0.495E+00 -.277E-07 -.248E-08   -.483E+00 0.290E-07 0.168E-08   -.119E-01 0.667E-19 -.462E-19   0.471E-02 0.117E-08 -.678E-09
 -----------------------------------------------------------------------------------------------
   0.101E-01 -.463E-11 -.739E-06   -.785E-13 -.136E-12 -.159E-12   0.107E-01 -.547E-18 -.292E-19   -.184E-01 0.248E-09 0.249E-09
 
 
 POSITION                                       TOTAL-FORCE (eV/Angst)
 -----------------------------------------------------------------------------------
      6.37714      6.37714      4.25143        -0.000835      0.001808      0.000000
      6.37714      6.37714      0.00000        -0.009621     -0.011497     -0.000000
      6.37714      0.00000      2.12571        -0.009621      0.000000      0.011497
      6.37714      2.12571      4.25143        -0.000835     -0.001808     -0.000000
      0.00000      6.37714      2.12571         0.005817     -0.000002      0.000002
      0.00000      0.00000      4.25143         0.000287      0.000000      0.000000
      2.12571      6.37714      4.25143        -0.000844     -0.001817      0.000000
      6.37714      0.00000      6.37714        -0.009621     -0.000000     -0.011497
      6.37714      2.12571      0.00000        -0.009621      0.011497      0.000000
      6.37714      4.25143      2.12571        -0.000835     -0.000000     -0.001808
      0.00000      6.37714      6.37714         0.005817     -0.000002     -0.000002
      8.48286      0.00000      0.00000         0.059248     -0.000000     -0.000000
      0.00000      2.12571      2.12571         0.005817      0.000002      0.000002
      0.00000      4.25143      4.25143         0.002892     -0.000000     -0.000000
      2.12571      6.37714      0.00000        -0.008806      0.010407     -0.000000
      2.12571      0.00000      2.12571        -0.008806     -0.000000     -0.010407
      2.12571      2.12571      4.25143        -0.000844      0.001817      0.000000
      4.25143      6.37714      2.12571        -0.001665     -0.000000      0.000000
      4.25143      0.00000      4.25143         0.005105     -0.000000      0.000000
      6.37714      4.25143      6.37714        -0.000835      0.000000      0.001808
      0.00000      2.12571      6.37714         0.005817      0.000002     -0.000002
      0.00000      4.25143      0.00000         0.000287      0.000000     -0.000000
      2.12571      0.00000      6.37714        -0.008806      0.000000      0.010407
      2.12571      2.12571      0.00000        -0.008806     -0.010407      0.000000
      2.12571      4.25143      2.12571        -0.000844      0.000000      0.001817
      4.25143      6.37714      6.37714        -0.001665     -0.000000     -0.000000
      4.25143      0.00000      0.00000        -0.006600     -0.000000      0.000000
      4.25143      2.12571      2.12571        -0.001665      0.000000      0.000000
      4.25143      4.25143      4.25143        -0.002512     -0.000000      0.000000
      2.12571      4.25143      6.37714        -0.000844     -0.000000     -0.001817
      4.25143      2.12571      6.37714        -0.001665      0.000000     -0.000000
      4.25143      4.25143      0.00000         0.005105     -0.000000     -0.000000
 -----------------------------------------------------------------------------------
    total drift:                                0.002336      0.000000     -0.000001


--------------------------------------------------------------------------------------------------------



 mean value of Nose-termostat <S>:     1.000 mean value of <T> :     0.000
 mean temperature <T/S>/<1/S>  :     0.000

     LOOP+:  VPU time    8.64: CPU time    8.66

 ----------------------------------------------------------------------------- 
|                                                                             |
|           W    W    AA    RRRRR   N    N  II  N    N   GGGG   !!!           |
|           W    W   A  A   R    R  NN   N  II  NN   N  G    G  !!!           |
|           W    W  A    A  R    R  N N  N  II  N N  N  G       !!!           |
|           W WW W  AAAAAA  RRRRR   N  N N  II  N  N N  G  GGG   !            |
|           WW  WW  A    A  R   R   N   NN  II  N   NN  G    G                |
|           W    W  A    A  R    R  N    N  II  N    N   GGGG   !!!           |
|                                                                             |
|      The partial DOS and the PROCAR file are not evaluated for NPAR/=1      |
|      please rerun with NPAR=1                                               |
|                                                                             |
 ----------------------------------------------------------------------------- 

  
  
 General timing and accounting informations for this job:
 ========================================================
  
                  Total CPU time used (sec):        9.103
                            User time (sec):        8.484
                          System time (sec):        0.619
                         Elapsed time (sec):        9.147
  
                   Maximum memory used (kb):       77408.
                   Average memory used (kb):           0.
  
                          Minor page faults:        15473
                          Major page faults:            0
                 Voluntary context switches:          858
