       N       E                     dE             d eps       ncg     rms          rms(c)
DAV:   1     0.192969738100E+04    0.19297E+04   -0.10736E+05   432   0.858E+02
DAV:   2    -0.127977229677E+02   -0.19425E+04   -0.18392E+04   444   0.324E+02
DAV:   3    -0.108136136467E+03   -0.95338E+02   -0.91174E+02   472   0.689E+01
DAV:   4    -0.109920597607E+03   -0.17845E+01   -0.17719E+01   456   0.950E+00
DAV:   5    -0.109957484416E+03   -0.36887E-01   -0.36873E-01   452   0.116E+00    0.153E+01
DAV:   6    -0.103114638406E+03    0.68428E+01   -0.19276E+01   444   0.138E+01    0.395E+00
DAV:   7    -0.102726697284E+03    0.38794E+00   -0.10913E+00   460   0.280E+00    0.172E+00
DAV:   8    -0.102645527589E+03    0.81170E-01   -0.42315E-02   444   0.575E-01    0.128E-01
DAV:   9    -0.102645477949E+03    0.49640E-04   -0.47620E-03   460   0.203E-01    0.768E-02
DAV:  10    -0.102645465782E+03    0.12167E-04   -0.44714E-04   444   0.548E-02    0.776E-03
DAV:  11    -0.102645472796E+03   -0.70146E-05   -0.99039E-06   228   0.846E-03
   1 F= -.10264547E+03 E0= -.10258869E+03  d E =-.102645E+03
