   4   4   0   0
  0.1202561E+02  0.3636824E-09  0.3636824E-09  0.3636824E-09  0.5000000E-15
  1.000000000000000E-004
  CAR 
 unknown system                          
     26.53214284     -7.10251123  301      3.64567890      1.00000000
     -7.103  0.0000E+00  0.0000E+00
     -6.990  0.0000E+00  0.0000E+00
     -6.878  0.0000E+00  0.0000E+00
     -6.766  0.0000E+00  0.0000E+00
     -6.654  0.0000E+00  0.0000E+00
     -6.542  0.0000E+00  0.0000E+00
     -6.430  0.0000E+00  0.0000E+00
     -6.318  0.0000E+00  0.0000E+00
     -6.206  0.0000E+00  0.0000E+00
     -6.093  0.0000E+00  0.0000E+00
     -5.981  0.0000E+00  0.0000E+00
     -5.869  0.0000E+00  0.0000E+00
     -5.757  0.0000E+00  0.0000E+00
     -5.645  0.0000E+00  0.0000E+00
     -5.533  0.1594E-01  0.1787E-02
     -5.421  0.7011E-01  0.1177E-01
     -5.309  0.1185E+00  0.2674E-01
     -5.197  0.1038E+00  0.4795E-01
     -5.084  0.1298E+00  0.6736E-01
     -4.972  0.2023E+00  0.9719E-01
     -4.860  0.1530E+00  0.1241E+00
     -4.748  0.1522E+00  0.1509E+00
     -4.636  0.2426E+00  0.1923E+00
     -4.524  0.2508E+00  0.2244E+00
     -4.412  0.2380E+00  0.2650E+00
     -4.300  0.2785E+00  0.3042E+00
     -4.188  0.3774E+00  0.3474E+00
     -4.075  0.2746E+00  0.3949E+00
     -3.963  0.2399E+00  0.4321E+00
     -3.851  0.3569E+00  0.4913E+00
     -3.739  0.4114E+00  0.5425E+00
     -3.627  0.2578E+00  0.5913E+00
     -3.515  0.3666E+00  0.6512E+00
     -3.403  0.4116E+00  0.7153E+00
     -3.291  0.4820E+00  0.7729E+00
     -3.178  0.4180E+00  0.8352E+00
     -3.066  0.3802E+00  0.9013E+00
     -2.954  0.3425E+00  0.9752E+00
     -2.842  0.3214E+00  0.1035E+01
     -2.730  0.6927E+00  0.1131E+01
     -2.618  0.4397E+00  0.1203E+01
     -2.506  0.4819E+00  0.1288E+01
     -2.394  0.6578E+00  0.1389E+01
     -2.282  0.6053E+00  0.1481E+01
     -2.169  0.7224E+00  0.1578E+01
     -2.057  0.6287E+00  0.1690E+01
     -1.945  0.6984E+00  0.1803E+01
     -1.833  0.9324E+00  0.1946E+01
     -1.721  0.9276E+00  0.2077E+01
     -1.609  0.1170E+01  0.2242E+01
     -1.497  0.1115E+01  0.2426E+01
     -1.385  0.1791E+01  0.2674E+01
     -1.273  0.2104E+01  0.2960E+01
     -1.160  0.2460E+01  0.3345E+01
     -1.048  0.3369E+01  0.3872E+01
     -0.936  0.3356E+01  0.4396E+01
     -0.824  0.3234E+01  0.4962E+01
     -0.712  0.3416E+01  0.5570E+01
     -0.600  0.4950E+01  0.6346E+01
     -0.488  0.6021E+01  0.7314E+01
     -0.376  0.7605E+01  0.8422E+01
     -0.263  0.6742E+01  0.9461E+01
     -0.151  0.6073E+01  0.1041E+02
     -0.039  0.6294E+01  0.1141E+02
      0.073  0.6114E+01  0.1235E+02
      0.185  0.7045E+01  0.1339E+02
      0.297  0.8271E+01  0.1465E+02
      0.409  0.8755E+01  0.1608E+02
      0.521  0.8908E+01  0.1757E+02
      0.633  0.1166E+02  0.1935E+02
      0.746  0.1176E+02  0.2118E+02
      0.858  0.1399E+02  0.2337E+02
      0.970  0.8990E+01  0.2482E+02
      1.082  0.7585E+01  0.2606E+02
      1.194  0.7538E+01  0.2725E+02
      1.306  0.1016E+02  0.2881E+02
      1.418  0.1126E+02  0.3055E+02
      1.530  0.1048E+02  0.3219E+02
      1.642  0.9377E+01  0.3368E+02
      1.755  0.9291E+01  0.3515E+02
      1.867  0.1100E+02  0.3686E+02
      1.979  0.1781E+02  0.3940E+02
      2.091  0.1018E+02  0.4143E+02
      2.203  0.1109E+01  0.4196E+02
      2.315  0.1656E+01  0.4218E+02
      2.427  0.1348E+01  0.4236E+02
      2.539  0.9525E+00  0.4251E+02
      2.652  0.1362E+01  0.4270E+02
      2.764  0.9009E+00  0.4283E+02
      2.876  0.9879E+00  0.4301E+02
      2.988  0.9064E+00  0.4315E+02
      3.100  0.1008E+01  0.4331E+02
      3.212  0.8241E+00  0.4345E+02
      3.324  0.1098E+01  0.4361E+02
      3.436  0.1183E+01  0.4375E+02
      3.548  0.7503E+00  0.4387E+02
      3.661  0.1149E+01  0.4404E+02
      3.773  0.6882E+00  0.4415E+02
      3.885  0.9731E+00  0.4429E+02
      3.997  0.1040E+01  0.4443E+02
      4.109  0.1013E+01  0.4456E+02
      4.221  0.8301E+00  0.4467E+02
      4.333  0.6979E+00  0.4477E+02
      4.445  0.8967E+00  0.4495E+02
      4.558  0.6693E+00  0.4504E+02
      4.670  0.7494E+00  0.4515E+02
      4.782  0.8302E+00  0.4527E+02
      4.894  0.7393E+00  0.4540E+02
      5.006  0.5379E+00  0.4551E+02
      5.118  0.7148E+00  0.4562E+02
      5.230  0.6578E+00  0.4572E+02
      5.342  0.9941E+00  0.4589E+02
      5.454  0.7466E+00  0.4599E+02
      5.567  0.6122E+00  0.4609E+02
      5.679  0.4986E+00  0.4617E+02
      5.791  0.9024E+00  0.4631E+02
      5.903  0.8796E+00  0.4643E+02
      6.015  0.4184E+00  0.4649E+02
      6.127  0.7732E+00  0.4661E+02
      6.239  0.3306E+00  0.4667E+02
      6.351  0.8161E+00  0.4679E+02
      6.463  0.3795E+00  0.4687E+02
      6.576  0.7743E+00  0.4698E+02
      6.688  0.3476E+00  0.4702E+02
      6.800  0.5644E+00  0.4712E+02
      6.912  0.4872E+00  0.4719E+02
      7.024  0.6659E+00  0.4729E+02
      7.136  0.3104E+00  0.4734E+02
      7.248  0.2785E+00  0.4740E+02
      7.360  0.4148E+00  0.4746E+02
      7.473  0.9021E+00  0.4760E+02
      7.585  0.8069E+00  0.4773E+02
      7.697  0.8282E+00  0.4786E+02
      7.809  0.6946E+00  0.4798E+02
      7.921  0.8624E+00  0.4811E+02
      8.033  0.8104E+00  0.4825E+02
      8.145  0.8865E+00  0.4838E+02
      8.257  0.7825E+00  0.4849E+02
      8.369  0.9615E+00  0.4865E+02
      8.482  0.6090E+00  0.4875E+02
      8.594  0.1020E+01  0.4890E+02
      8.706  0.7142E+00  0.4902E+02
      8.818  0.6102E+00  0.4914E+02
      8.930  0.9427E+00  0.4928E+02
      9.042  0.6866E+00  0.4941E+02
      9.154  0.9398E+00  0.4953E+02
      9.266  0.5953E+00  0.4963E+02
      9.378  0.7144E+00  0.4975E+02
      9.491  0.9894E+00  0.4988E+02
      9.603  0.5699E+00  0.4998E+02
      9.715  0.7557E+00  0.5011E+02
      9.827  0.6608E+00  0.5021E+02
      9.939  0.5599E+00  0.5030E+02
     10.051  0.8259E+00  0.5042E+02
     10.163  0.8200E+00  0.5055E+02
     10.275  0.5926E+00  0.5063E+02
     10.388  0.5712E+00  0.5073E+02
     10.500  0.4929E+00  0.5082E+02
     10.612  0.6667E+00  0.5093E+02
     10.724  0.9832E+00  0.5107E+02
     10.836  0.6758E+00  0.5117E+02
     10.948  0.9355E+00  0.5132E+02
     11.060  0.9550E+00  0.5147E+02
     11.172  0.7800E+00  0.5161E+02
     11.284  0.8002E+00  0.5174E+02
     11.397  0.7148E+00  0.5187E+02
     11.509  0.8995E+00  0.5202E+02
     11.621  0.9788E+00  0.5218E+02
     11.733  0.8134E+00  0.5235E+02
     11.845  0.7692E+00  0.5249E+02
     11.957  0.1122E+01  0.5266E+02
     12.069  0.9130E+00  0.5279E+02
     12.181  0.9530E+00  0.5294E+02
     12.293  0.1211E+01  0.5313E+02
     12.406  0.1106E+01  0.5332E+02
     12.518  0.6088E+00  0.5343E+02
     12.630  0.1111E+01  0.5362E+02
     12.742  0.9877E+00  0.5374E+02
     12.854  0.9983E+00  0.5390E+02
     12.966  0.1200E+01  0.5407E+02
     13.078  0.1283E+01  0.5426E+02
     13.190  0.1252E+01  0.5444E+02
     13.303  0.1062E+01  0.5459E+02
     13.415  0.7604E+00  0.5472E+02
     13.527  0.1064E+01  0.5488E+02
     13.639  0.1126E+01  0.5505E+02
     13.751  0.1075E+01  0.5523E+02
     13.863  0.1097E+01  0.5541E+02
     13.975  0.1033E+01  0.5554E+02
     14.087  0.1284E+01  0.5573E+02
     14.199  0.9939E+00  0.5589E+02
     14.312  0.1069E+01  0.5607E+02
     14.424  0.1219E+01  0.5623E+02
     14.536  0.1225E+01  0.5643E+02
     14.648  0.9011E+00  0.5658E+02
     14.760  0.1075E+01  0.5674E+02
     14.872  0.8063E+00  0.5688E+02
     14.984  0.1219E+01  0.5708E+02
     15.096  0.1170E+01  0.5728E+02
     15.208  0.1161E+01  0.5745E+02
     15.321  0.8534E+00  0.5761E+02
     15.433  0.1111E+01  0.5778E+02
     15.545  0.1222E+01  0.5798E+02
     15.657  0.1109E+01  0.5818E+02
     15.769  0.8689E+00  0.5831E+02
     15.881  0.1184E+01  0.5848E+02
     15.993  0.1107E+01  0.5869E+02
     16.105  0.1201E+01  0.5888E+02
     16.218  0.9712E+00  0.5904E+02
     16.330  0.1249E+01  0.5925E+02
     16.442  0.1537E+01  0.5948E+02
     16.554  0.9229E+00  0.5962E+02
     16.666  0.1246E+01  0.5984E+02
     16.778  0.1171E+01  0.6002E+02
     16.890  0.1283E+01  0.6023E+02
     17.002  0.1273E+01  0.6042E+02
     17.114  0.1165E+01  0.6057E+02
     17.227  0.1069E+01  0.6075E+02
     17.339  0.1062E+01  0.6091E+02
     17.451  0.1420E+01  0.6112E+02
     17.563  0.1002E+01  0.6127E+02
     17.675  0.7910E+00  0.6141E+02
     17.787  0.1030E+01  0.6158E+02
     17.899  0.9932E+00  0.6173E+02
     18.011  0.6899E+00  0.6185E+02
     18.123  0.6391E+00  0.6196E+02
     18.236  0.7177E+00  0.6207E+02
     18.348  0.6936E+00  0.6216E+02
     18.460  0.8497E+00  0.6230E+02
     18.572  0.4884E+00  0.6239E+02
     18.684  0.3493E+00  0.6246E+02
     18.796  0.5589E+00  0.6254E+02
     18.908  0.7960E+00  0.6265E+02
     19.020  0.2717E+00  0.6270E+02
     19.133  0.6114E+00  0.6278E+02
     19.245  0.4233E+00  0.6285E+02
     19.357  0.3789E+00  0.6290E+02
     19.469  0.4313E+00  0.6297E+02
     19.581  0.1915E+00  0.6301E+02
     19.693  0.2519E+00  0.6306E+02
     19.805  0.5706E+00  0.6315E+02
     19.917  0.4022E+00  0.6320E+02
     20.029  0.1752E+00  0.6324E+02
     20.142  0.1215E+00  0.6326E+02
     20.254  0.5841E+00  0.6333E+02
     20.366  0.2164E+00  0.6336E+02
     20.478  0.3077E+00  0.6340E+02
     20.590  0.3422E+00  0.6344E+02
     20.702  0.9013E-01  0.6346E+02
     20.814  0.3035E+00  0.6350E+02
     20.926  0.1552E+00  0.6353E+02
     21.038  0.3479E+00  0.6357E+02
     21.151  0.9669E-01  0.6359E+02
     21.263  0.2060E+00  0.6362E+02
     21.375  0.1443E+00  0.6365E+02
     21.487  0.5682E-01  0.6366E+02
     21.599  0.5320E-01  0.6367E+02
     21.711  0.2271E+00  0.6370E+02
     21.823  0.2302E-01  0.6371E+02
     21.935  0.1766E+00  0.6376E+02
     22.048  0.1534E+00  0.6378E+02
     22.160  0.6274E-01  0.6378E+02
     22.272  0.6194E-01  0.6379E+02
     22.384  0.1858E+00  0.6382E+02
     22.496  0.2168E+00  0.6384E+02
     22.608  0.1239E+00  0.6385E+02
     22.720  0.1214E+00  0.6387E+02
     22.832  0.6456E-01  0.6387E+02
     22.944  0.9291E-01  0.6389E+02
     23.057  0.2065E-01  0.6389E+02
     23.169  0.9291E-01  0.6391E+02
     23.281  0.6233E-01  0.6392E+02
     23.393  0.6318E-01  0.6393E+02
     23.505  0.6189E-01  0.6394E+02
     23.617  0.0000E+00  0.6394E+02
     23.729  0.5387E-01  0.6395E+02
     23.841  0.6194E-01  0.6396E+02
     23.953  0.1340E+00  0.6397E+02
     24.066  0.7781E-03  0.6397E+02
     24.178  0.0000E+00  0.6397E+02
     24.290  0.1166E-08  0.6397E+02
     24.402  0.6506E-01  0.6398E+02
     24.514  0.3097E-01  0.6399E+02
     24.626  0.0000E+00  0.6399E+02
     24.738  0.3843E-12  0.6399E+02
     24.850  0.4595E-01  0.6400E+02
     24.963  0.4442E-02  0.6400E+02
     25.075  0.1032E-01  0.6400E+02
     25.187  0.0000E+00  0.6400E+02
     25.299  0.0000E+00  0.6400E+02
     25.411  0.0000E+00  0.6400E+02
     25.523  0.0000E+00  0.6400E+02
     25.635  0.0000E+00  0.6400E+02
     25.747  0.0000E+00  0.6400E+02
     25.859  0.0000E+00  0.6400E+02
     25.972  0.0000E+00  0.6400E+02
     26.084  0.0000E+00  0.6400E+02
     26.196  0.0000E+00  0.6400E+02
     26.308  0.0000E+00  0.6400E+02
     26.420  0.0000E+00  0.6400E+02
     26.532  0.0000E+00  0.6400E+02
