    4    4    1    1
  0.1202561E+02  0.3636824E-09  0.3636824E-09  0.3636824E-09  0.5000000E-15
  1.000000000000000E-004
  CAR 
 unknown system                          
   44  455   32
 
  0.0000000E+00  0.0000000E+00  0.0000000E+00  0.7233796E-04
   1       -5.5737
   2       -1.1521
   3       -1.1521
   4       -1.1521
   5       -0.7115
   6       -0.7115
   7       -0.7115
   8        0.6411
   9        0.6411
  10        0.6411
  11        1.4461
  12        1.4461
  13        1.9808
  14        1.9808
  15        1.9808
  16        2.1307
  17        2.1307
  18        2.1307
  19        2.1307
  20        2.1307
  21        2.1307
  22        5.1629
  23        5.1629
  24        5.1629
  25       10.6308
  26       10.6308
  27       10.6308
  28       16.6659
  29       16.6659
  30       16.6659
  31       16.6659
  32       16.6659
 
  0.4166667E-01  0.0000000E+00  0.0000000E+00  0.4340278E-03
   1       -5.5528
   2       -1.1521
   3       -1.1424
   4       -1.1424
   5       -0.7060
   6       -0.7057
   7       -0.7057
   8        0.6350
   9        0.6459
  10        0.6459
  11        1.4406
  12        1.4483
  13        1.9737
  14        1.9737
  15        1.9785
  16        2.0933
  17        2.0933
  18        2.1223
  19        2.1223
  20        2.1308
  21        2.1308
  22        5.0202
  23        5.2190
  24        5.2190
  25       10.6386
  26       10.6386
  27       10.8151
  28       16.5084
  29       16.5084
  30       16.5683
  31       16.5683
  32       16.6965
 
  0.8333333E-01  0.0000000E+00  0.0000000E+00  0.4340278E-03
   1       -5.4903
   2       -1.1531
   3       -1.1135
   4       -1.1135
   5       -0.6896
   6       -0.6883
   7       -0.6883
   8        0.6168
   9        0.6606
  10        0.6606
  11        1.4241
  12        1.4550
  13        1.9524
  14        1.9524
  15        1.9715
  16        1.9887
  17        1.9887
  18        2.0972
  19        2.0972
  20        2.1308
  21        2.1308
  22        4.6419
  23        5.3797
  24        5.3797
  25       10.6623
  26       10.6623
  27       11.3188
  28       16.0965
  29       16.0965
  30       16.2983
  31       16.2983
  32       16.7877
 
  0.1250000E+00  0.0000000E+00  0.0000000E+00  0.4340278E-03
   1       -5.3864
   2       -1.1580
   3       -1.0666
   4       -1.0666
   5       -0.6625
   6       -0.6593
   7       -0.6593
   8        0.5870
   9        0.6849
  10        0.6849
  11        1.3972
  12        1.4660
  13        1.8348
  14        1.8348
  15        1.9175
  16        1.9175
  17        1.9601
  18        2.0563
  19        2.0563
  20        2.1309
  21        2.1309
  22        4.1256
  23        5.6270
  24        5.6270
  25       10.7024
  26       10.7024
  27       12.0468
  28       15.5374
  29       15.5374
  30       15.9077
  31       15.9077
  32       16.9387
 
  0.1666667E+00  0.0000000E+00  0.0000000E+00  0.4340278E-03
   1       -5.2418
   2       -1.1723
   3       -1.0032
   4       -1.0032
   5       -0.6251
   6       -0.6184
   7       -0.6184
   8        0.5460
   9        0.7187
  10        0.7187
  11        1.3607
  12        1.4812
  13        1.6503
  14        1.6503
  15        1.8698
  16        1.8698
  17        1.9443
  18        2.0010
  19        2.0010
  20        2.1309
  21        2.1309
  22        3.5526
  23        5.9420
  24        5.9420
  25       10.7599
  26       10.7599
  27       12.9220
  28       14.9070
  29       14.9070
  30       15.4490
  31       15.4490
  32       17.1479
 
  0.2083333E+00  0.0000000E+00  0.0000000E+00  0.4340278E-03
   1       -5.0573
   2       -1.2047
   3       -0.9260
   4       -0.9260
   5       -0.5781
   6       -0.5656
   7       -0.5656
   8        0.4947
   9        0.7617
  10        0.7617
  11        1.3157
  12        1.4503
  13        1.4503
  14        1.5003
  15        1.8108
  16        1.8108
  17        1.9245
  18        1.9331
  19        1.9331
  20        2.1310
  21        2.1310
  22        2.9775
  23        6.3095
  24        6.3095
  25       10.8359
  26       10.8359
  27       13.8972
  28       14.2465
  29       14.2465
  30       14.9621
  31       14.9621
  32       17.4132
 
  0.2500000E+00  0.0000000E+00  0.0000000E+00  0.4340278E-03
   1       -4.8341
   2       -1.2677
   3       -0.8384
   4       -0.8384
   5       -0.5220
   6       -0.5007
   7       -0.5007
   8        0.4341
   9        0.8138
  10        0.8138
  11        1.2450
  12        1.2450
  13        1.2640
  14        1.5230
  15        1.7427
  16        1.7427
  17        1.8547
  18        1.8547
  19        1.9011
  20        2.1311
  21        2.1311
  22        2.4387
  23        6.7191
  24        6.7191
  25       10.9319
  26       10.9319
  27       13.5774
  28       13.5774
  29       14.4740
  30       14.4740
  31       14.9445
  32       17.7321
 
  0.2916667E+00  0.0000000E+00  0.0000000E+00  0.4340278E-03
   1       -4.5739
   2       -1.3778
   3       -0.7449
   4       -0.7449
   5       -0.4577
   6       -0.4234
   7       -0.4234
   8        0.3654
   9        0.8745
  10        0.8745
  11        1.0412
  12        1.0412
  13        1.2077
  14        1.5489
  15        1.6686
  16        1.6686
  17        1.7679
  18        1.7679
  19        1.8744
  20        1.9667
  21        2.1312
  22        2.1312
  23        7.1635
  24        7.1635
  25       11.0498
  26       11.0498
  27       12.9113
  28       12.9113
  29       14.0021
  30       14.0021
  31       16.0466
  32       18.1021
 
  0.3333333E+00  0.0000000E+00  0.0000000E+00  0.4340278E-03
   1       -4.2790
   2       -1.5511
   3       -0.6513
   4       -0.6513
   5       -0.3863
   6       -0.3335
   7       -0.3335
   8        0.2897
   9        0.8433
  10        0.8433
  11        0.9433
  12        0.9433
  13        1.1498
  14        1.5777
  15        1.5862
  16        1.5931
  17        1.5931
  18        1.6750
  19        1.6750
  20        1.8450
  21        2.1313
  22        2.1313
  23        7.6380
  24        7.6380
  25       11.1910
  26       11.1910
  27       12.2546
  28       12.2546
  29       13.5577
  30       13.5577
  31       17.1913
  32       18.5204
 
  0.3750000E+00  0.0000000E+00  0.0000000E+00  0.4340278E-03
   1       -3.9526
   2       -1.7962
   3       -0.5648
   4       -0.5648
   5       -0.3088
   6       -0.2309
   7       -0.2309
   8        0.2086
   9        0.6542
  10        0.6542
  11        1.0195
  12        1.0195
  13        1.0944
  14        1.3100
  15        1.5220
  16        1.5220
  17        1.5783
  18        1.5783
  19        1.6088
  20        1.8134
  21        2.1314
  22        2.1314
  23        8.1394
  24        8.1394
  25       11.3569
  26       11.3569
  27       11.6115
  28       11.6115
  29       13.1484
  30       13.1484
  31       18.3684
  32       18.9842
 
  0.4166667E+00  0.0000000E+00  0.0000000E+00  0.4340278E-03
   1       -3.5994
   2       -2.1065
   3       -0.4936
   4       -0.4936
   5       -0.2264
   6       -0.1154
   7       -0.1154
   8        0.1234
   9        0.4757
  10        0.4757
  11        1.0466
  12        1.1025
  13        1.1025
  14        1.1342
  15        1.4627
  16        1.4627
  17        1.4797
  18        1.4797
  19        1.6417
  20        1.7800
  21        2.1314
  22        2.1314
  23        8.6653
  24        8.6653
  25       10.9842
  26       10.9842
  27       11.5461
  28       11.5461
  29       12.7815
  30       12.7815
  31       19.4907
  32       19.4909
 
  0.4583333E+00  0.0000000E+00  0.0000000E+00  0.4340278E-03
   1       -3.2261
   2       -2.4629
   3       -0.4463
   4       -0.4463
   5       -0.1406
   6        0.0131
   7        0.0131
   8        0.0358
   9        0.3089
  10        0.3089
  11        1.0141
  12        1.0407
  13        1.1912
  14        1.1912
  15        1.3812
  16        1.3812
  17        1.4228
  18        1.4228
  19        1.6758
  20        1.7456
  21        2.1315
  22        2.1315
  23        9.2141
  24        9.2141
  25       10.3747
  26       10.3747
  27       11.7463
  28       11.7463
  29       12.4732
  30       12.4732
  31       20.0374
  32       20.0374
 
  0.5000000E+00  0.0000000E+00  0.0000000E+00  0.2170139E-03
   1       -2.8426
   2       -2.8426
   3       -0.4296
   4       -0.4296
   5       -0.0527
   6       -0.0527
   7        0.1546
   8        0.1546
   9        0.1546
  10        0.1546
  11        1.0072
  12        1.0072
  13        1.2845
  14        1.2845
  15        1.2845
  16        1.2845
  17        1.4086
  18        1.4086
  19        1.7107
  20        1.7107
  21        2.1315
  22        2.1315
  23        9.7843
  24        9.7843
  25        9.7843
  26        9.7843
  27       11.8692
  28       11.8692
  29       12.3141
  30       12.3141
  31       20.6215
  32       20.6215
 
  0.4166667E-01  0.4166667E-01  0.0000000E+00  0.8680556E-03
   1       -5.5319
   2       -1.1423
   3       -1.1423
   4       -1.1327
   5       -0.7002
   6       -0.7002
   7       -0.6999
   8        0.6314
   9        0.6483
  10        0.6507
  11        1.4389
  12        1.4468
  13        1.9666
  14        1.9705
  15        1.9705
  16        2.0625
  17        2.0851
  18        2.0851
  19        2.1223
  20        2.1223
  21        2.1254
  22        5.0760
  23        5.0760
  24        5.2739
  25       10.6465
  26       10.8238
  27       10.8238
  28       16.1385
  29       16.5383
  30       16.5383
  31       16.5983
  32       16.5983
 
  0.8333333E-01  0.4166667E-01  0.0000000E+00  0.1736111E-02
   1       -5.4695
   2       -1.1431
   3       -1.1133
   4       -1.1040
   5       -0.6839
   6       -0.6829
   7       -0.6827
   8        0.6147
   9        0.6616
  10        0.6650
  11        1.4242
  12        1.4521
  13        1.9408
  14        1.9456
  15        1.9607
  16        1.9640
  17        1.9878
  18        2.0612
  19        2.0972
  20        2.1223
  21        2.1224
  22        4.6975
  23        5.2352
  24        5.4315
  25       10.6702
  26       10.8501
  27       11.3294
  28       15.6041
  29       16.1251
  30       16.3272
  31       16.6276
  32       16.6620
 
  0.1250000E+00  0.4166667E-01  0.0000000E+00  0.1736111E-02
   1       -5.3657
   2       -1.1478
   3       -1.0661
   4       -1.0574
   5       -0.6569
   6       -0.6540
   7       -0.6539
   8        0.5854
   9        0.6855
  10        0.6886
  11        1.3978
  12        1.4633
  13        1.8148
  14        1.8159
  15        1.9110
  16        1.9227
  17        1.9420
  18        2.0241
  19        2.0563
  20        2.1216
  21        2.1223
  22        4.1828
  23        5.4792
  24        5.6749
  25       10.7104
  26       10.8947
  27       12.0591
  28       14.9971
  29       15.5648
  30       15.9352
  31       16.3886
  32       16.7752
 
  0.1666667E+00  0.4166667E-01  0.0000000E+00  0.1736111E-02
   1       -5.2213
   2       -1.1616
   3       -1.0023
   4       -0.9944
   5       -0.6198
   6       -0.6134
   7       -0.6133
   8        0.5448
   9        0.7191
  10        0.7215
  11        1.3618
  12        1.4789
  13        1.6331
  14        1.6346
  15        1.8638
  16        1.8728
  17        1.9077
  18        1.9814
  19        2.0010
  20        2.1214
  21        2.1224
  22        3.6145
  23        5.7884
  24        5.9861
  25       10.7678
  26       10.9586
  27       12.9357
  28       14.3585
  29       14.9335
  30       15.4750
  31       15.9814
  32       16.9794
 
  0.2083333E+00  0.4166667E-01  0.0000000E+00  0.1736111E-02
   1       -5.0370
   2       -1.1934
   3       -0.9245
   4       -0.9176
   5       -0.5730
   6       -0.5611
   7       -0.5608
   8        0.4939
   9        0.7621
  10        0.7632
  11        1.3176
  12        1.4335
  13        1.4381
  14        1.4986
  15        1.8054
  16        1.8133
  17        1.8465
  18        1.9330
  19        1.9439
  20        2.1214
  21        2.1224
  22        3.0495
  23        6.1474
  24        6.3502
  25       10.8436
  26       11.0432
  27       13.7114
  28       13.9118
  29       14.2725
  30       14.9867
  31       15.5059
  32       17.2380
 
  0.2500000E+00  0.4166667E-01  0.0000000E+00  0.1736111E-02
   1       -4.8140
   2       -1.2558
   3       -0.8363
   4       -0.8304
   5       -0.5172
   6       -0.4970
   7       -0.4962
   8        0.4337
   9        0.8132
  10        0.8141
  11        1.2287
  12        1.2358
  13        1.2671
  14        1.5220
  15        1.7379
  16        1.7451
  17        1.7552
  18        1.8546
  19        1.9106
  20        2.1215
  21        2.1224
  22        2.5327
  23        6.5456
  24        6.7568
  25       10.9388
  26       11.1502
  27       13.0691
  28       13.6032
  29       14.4972
  30       14.9595
  31       15.0059
  32       17.5483
 
  0.2916667E+00  0.4166667E-01  0.0000000E+00  0.1736111E-02
   1       -4.5541
   2       -1.3650
   3       -0.7421
   4       -0.7373
   5       -0.4532
   6       -0.4207
   7       -0.4193
   8        0.3653
   9        0.8705
  10        0.8747
  11        1.0257
  12        1.0345
  13        1.2134
  14        1.5488
  15        1.6250
  16        1.6646
  17        1.6710
  18        1.7678
  19        1.8734
  20        2.1142
  21        2.1216
  22        2.1225
  23        6.9757
  24        7.1988
  25       11.0537
  26       11.2815
  27       12.4396
  28       12.9371
  29       14.0241
  30       14.5085
  31       16.0613
  32       17.9073
 
  0.3333333E+00  0.4166667E-01  0.0000000E+00  0.1736111E-02
   1       -4.2596
   2       -1.5375
   3       -0.6476
   4       -0.6438
   5       -0.3821
   6       -0.3324
   7       -0.3299
   8        0.2901
   9        0.8289
  10        0.8387
  11        0.9322
  12        0.9434
  13        1.1617
  14        1.4373
  15        1.5786
  16        1.5898
  17        1.5954
  18        1.6749
  19        1.7869
  20        1.8851
  21        2.1218
  22        2.1225
  23        7.4329
  24        7.6713
  25       11.1816
  26       11.4390
  27       11.8349
  28       12.2806
  29       13.5787
  30       14.0306
  31       17.2039
  32       18.3118
 
  0.3750000E+00  0.4166667E-01  0.0000000E+00  0.1736111E-02
   1       -3.9337
   2       -1.7817
   3       -0.5601
   4       -0.5571
   5       -0.3050
   6       -0.2319
   7       -0.2278
   8        0.2095
   9        0.6410
  10        0.6513
  11        0.9871
  12        1.0196
  13        1.1265
  14        1.2357
  15        1.5195
  16        1.5240
  17        1.5781
  18        1.6107
  19        1.6392
  20        1.8294
  21        2.1219
  22        2.1225
  23        7.9135
  24        8.1710
  25       11.1286
  26       11.4524
  27       11.6237
  28       11.6377
  29       13.1690
  30       13.5831
  31       18.3669
  32       18.7584
 
  0.4166667E+00  0.4166667E-01  0.0000000E+00  0.1736111E-02
   1       -3.5811
   2       -2.0912
   3       -0.4879
   4       -0.4857
   5       -0.2231
   6       -0.1188
   7       -0.1130
   8        0.1248
   9        0.4640
  10        0.4742
  11        1.0003
  12        1.0881
  13        1.1025
  14        1.1473
  15        1.4610
  16        1.4642
  17        1.4795
  18        1.5174
  19        1.6448
  20        1.7909
  21        2.1221
  22        2.1224
  23        8.4152
  24        8.6956
  25       10.5927
  26       11.0110
  27       11.5953
  28       11.8326
  29       12.8045
  30       13.1739
  31       19.2434
  32       19.2918
 
  0.4583333E+00  0.4166667E-01  0.0000000E+00  0.1736111E-02
   1       -3.2084
   2       -2.4467
   3       -0.4396
   4       -0.4384
   5       -0.1377
   6        0.0073
   7        0.0148
   8        0.0377
   9        0.2989
  10        0.3087
  11        0.9829
  12        1.0067
  13        1.1911
  14        1.2196
  15        1.3811
  16        1.4093
  17        1.4220
  18        1.4237
  19        1.6803
  20        1.7537
  21        2.1222
  22        2.1224
  23        8.9358
  24        9.2432
  25       10.0276
  26       10.4021
  27       11.8076
  28       12.0344
  29       12.5203
  30       12.8116
  31       19.7629
  32       19.8563
 
  0.5000000E+00  0.4166667E-01  0.0000000E+00  0.8680556E-03
   1       -2.8256
   2       -2.8256
   3       -0.4221
   4       -0.4221
   5       -0.0503
   6       -0.0503
   7        0.1465
   8        0.1465
   9        0.1554
  10        0.1554
  11        0.9778
  12        0.9778
  13        1.2844
  14        1.2844
  15        1.3098
  16        1.3098
  17        1.4088
  18        1.4088
  19        1.7168
  20        1.7168
  21        2.1223
  22        2.1223
  23        9.4739
  24        9.4739
  25        9.8124
  26        9.8124
  27       12.0210
  28       12.0210
  29       12.5274
  30       12.5274
  31       20.3132
  32       20.3151
 
  0.8333333E-01  0.8333333E-01  0.0000000E+00  0.8680556E-03
   1       -5.4072
   2       -1.1136
   3       -1.1136
   4       -1.0759
   5       -0.6668
   6       -0.6668
   7       -0.6659
   8        0.6033
   9        0.6698
  10        0.6781
  11        1.4181
  12        1.4499
  13        1.8838
  14        1.9084
  15        1.9084
  16        1.9252
  17        1.9826
  18        1.9826
  19        2.0971
  20        2.0971
  21        2.1092
  22        4.8550
  23        4.8550
  24        5.5811
  25       10.6941
  26       11.3613
  27       11.3613
  28       14.9603
  29       16.2103
  30       16.2103
  31       16.4137
  32       16.4137
 
  0.1250000E+00  0.8333333E-01  0.0000000E+00  0.1736111E-02
   1       -5.3038
   2       -1.1173
   3       -1.0654
   4       -1.0301
   5       -0.6403
   6       -0.6383
   7       -0.6378
   8        0.5779
   9        0.6904
  10        0.6999
  11        1.3967
  12        1.4581
  13        1.7520
  14        1.7685
  15        1.8571
  16        1.8917
  17        1.9290
  18        1.9711
  19        2.0562
  20        2.0971
  21        2.1014
  22        4.3421
  23        5.0932
  24        5.8143
  25       10.7343
  26       11.4153
  27       12.0964
  28       14.2883
  29       15.6465
  30       16.0174
  31       16.3512
  32       16.5569
 
  0.1666667E+00  0.8333333E-01  0.0000000E+00  0.1736111E-02
   1       -5.1598
   2       -1.1299
   3       -1.0005
   4       -0.9683
   5       -0.6037
   6       -0.5985
   7       -0.5982
   8        0.5396
   9        0.7223
  10        0.7299
  11        1.3632
  12        1.4739
  13        1.5850
  14        1.5859
  15        1.7862
  16        1.8460
  17        1.8781
  18        1.9533
  19        2.0008
  20        2.0970
  21        2.0976
  22        3.7814
  23        5.3911
  24        6.1150
  25       10.7915
  26       11.4925
  27       12.9770
  28       13.6136
  29       15.0128
  30       15.5528
  31       16.5457
  32       16.6615
 
  0.2083333E+00  0.8333333E-01  0.0000000E+00  0.1736111E-02
   1       -4.9761
   2       -1.1600
   3       -0.9211
   4       -0.8928
   5       -0.5576
   6       -0.5477
   7       -0.5465
   8        0.4904
   9        0.7644
  10        0.7676
  11        1.3216
  12        1.3855
  13        1.4009
  14        1.4951
  15        1.6934
  16        1.7893
  17        1.8184
  18        1.9291
  19        1.9328
  20        2.0958
  21        2.0969
  22        3.2318
  23        5.7331
  24        6.4698
  25       10.8658
  26       11.5942
  27       12.9507
  28       13.9557
  29       14.3503
  30       15.0602
  31       16.2854
  32       16.7916
 
  0.2500000E+00  0.8333333E-01  0.0000000E+00  0.1736111E-02
   1       -4.7540
   2       -1.2203
   3       -0.8310
   4       -0.8070
   5       -0.5026
   6       -0.4857
   7       -0.4828
   8        0.4317
   9        0.8119
  10        0.8158
  11        1.1821
  12        1.2079
  13        1.2748
  14        1.5206
  15        1.5744
  16        1.7237
  17        1.7503
  18        1.8542
  19        1.8977
  20        2.0949
  21        2.0968
  22        2.7386
  23        6.1089
  24        6.8683
  25       10.9556
  26       11.7222
  27       12.3101
  28       13.6804
  29       14.5669
  30       15.0044
  31       15.8354
  32       17.0861
 
  0.2916667E+00  0.8333333E-01  0.0000000E+00  0.1736111E-02
   1       -4.4950
   2       -1.3271
   3       -0.7344
   4       -0.7148
   5       -0.4397
   6       -0.4127
   7       -0.4070
   8        0.3649
   9        0.8601
  10        0.8759
  11        0.9813
  12        1.0142
  13        1.2275
  14        1.4257
  15        1.5501
  16        1.6525
  17        1.6763
  18        1.7674
  19        1.8562
  20        2.0946
  21        2.0966
  22        2.3413
  23        6.5117
  24        7.3034
  25       11.0449
  26       11.7139
  27       11.8781
  28       13.0142
  29       14.0902
  30       15.3573
  31       16.1050
  32       17.4257
 
  0.3333333E+00  0.8333333E-01  0.0000000E+00  0.1736111E-02
   1       -4.2017
   2       -1.4971
   3       -0.6373
   4       -0.6217
   5       -0.3697
   6       -0.3289
   7       -0.3190
   8        0.2912
   9        0.7875
  10        0.8247
  11        0.9062
  12        0.9443
  13        1.1884
  14        1.2571
  15        1.5798
  16        1.5829
  17        1.6007
  18        1.6745
  19        1.7943
  20        2.0673
  21        2.0945
  22        2.0964
  23        6.9374
  24        7.7702
  25       10.9301
  26       11.3694
  27       12.0630
  28       12.3582
  29       13.6422
  30       14.8785
  31       17.2367
  32       17.8073
 
  0.3750000E+00  0.8333333E-01  0.0000000E+00  0.1736111E-02
   1       -3.8772
   2       -1.7386
   3       -0.5468
   4       -0.5345
   5       -0.2938
   6       -0.2345
   7       -0.2186
   8        0.2120
   9        0.6031
  10        0.6425
  11        0.9361
  12        1.0202
  13        1.1015
  14        1.1747
  15        1.5118
  16        1.5289
  17        1.5777
  18        1.6186
  19        1.6950
  20        1.9162
  21        2.0946
  22        2.0962
  23        7.3830
  24        8.2651
  25       10.4243
  26       11.4659
  27       11.7162
  28       12.2749
  29       13.2335
  30       14.4158
  31       18.2271
  32       18.2847
 
  0.4166667E+00  0.8333333E-01  0.0000000E+00  0.1736111E-02
   1       -3.5262
   2       -2.0454
   3       -0.4714
   4       -0.4623
   5       -0.2132
   6       -0.1287
   7       -0.1057
   8        0.1289
   9        0.4301
  10        0.4698
  11        0.9367
  12        0.9901
  13        1.1028
  14        1.2042
  15        1.4557
  16        1.4680
  17        1.4792
  18        1.5746
  19        1.6568
  20        1.8390
  21        2.0948
  22        2.0959
  23        7.8471
  24        8.7856
  25        9.8787
  26       11.0908
  27       11.6539
  28       12.4838
  29       12.8995
  30       13.9799
  31       18.6815
  32       18.8979
 
  0.4583333E+00  0.8333333E-01  0.0000000E+00  0.1736111E-02
   1       -3.1555
   2       -2.3984
   3       -0.4199
   4       -0.4148
   5       -0.1292
   6       -0.0099
   7        0.0198
   8        0.0433
   9        0.2697
  10        0.3080
  11        0.9211
  12        0.9305
  13        1.1912
  14        1.2702
  15        1.3808
  16        1.4192
  17        1.4257
  18        1.4601
  19        1.6972
  20        1.7857
  21        2.0951
  22        2.0957
  23        8.3288
  24        9.3299
  25        9.3449
  26       10.4838
  27       11.8819
  28       12.4157
  29       12.9175
  30       13.5777
  31       19.1667
  32       19.4263
 
  0.5000000E+00  0.8333333E-01  0.0000000E+00  0.8680556E-03
   1       -2.7748
   2       -2.7748
   3       -0.3999
   4       -0.3999
   5       -0.0432
   6       -0.0432
   7        0.1228
   8        0.1228
   9        0.1578
  10        0.1578
  11        0.9127
  12        0.9127
  13        1.2844
  14        1.2844
  15        1.3578
  16        1.3578
  17        1.4085
  18        1.4085
  19        1.7398
  20        1.7398
  21        2.0954
  22        2.0954
  23        8.8281
  24        8.8281
  25        9.8964
  26        9.8964
  27       12.1425
  28       12.1425
  29       13.2164
  30       13.2164
  31       19.6792
  32       19.6792
 
  0.1250000E+00  0.1250000E+00  0.0000000E+00  0.8680556E-03
   1       -5.2009
   2       -1.0677
   3       -1.0677
   4       -0.9857
   5       -0.6125
   6       -0.6125
   7       -0.6110
   8        0.5588
   9        0.7052
  10        0.7184
  11        1.3853
  12        1.4593
  13        1.6452
  14        1.7005
  15        1.7005
  16        1.8600
  17        1.9282
  18        1.9282
  19        2.0560
  20        2.0560
  21        2.0825
  22        4.5775
  23        4.5775
  24        6.0339
  25       10.7743
  26       12.1593
  27       12.1593
  28       13.5738
  29       15.7813
  30       15.7813
  31       16.1535
  32       16.1535
 
  0.1666667E+00  0.1250000E+00  0.0000000E+00  0.1736111E-02
   1       -5.0578
   2       -1.0781
   3       -1.0006
   4       -0.9258
   5       -0.5768
   6       -0.5734
   7       -0.5733
   8        0.5263
   9        0.7325
  10        0.7438
  11        1.3594
  12        1.4724
  13        1.5027
  14        1.5121
  15        1.6130
  16        1.8166
  17        1.8793
  18        1.9183
  19        2.0005
  20        2.0558
  21        2.0696
  22        4.0191
  23        4.8661
  24        6.3204
  25       10.8298
  26       12.2486
  27       12.8737
  28       13.0463
  29       15.1436
  30       15.6817
  31       15.9676
  32       16.3422
 
  0.2083333E+00  0.1250000E+00  0.0000000E+00  0.1736111E-02
   1       -4.8751
   2       -1.1054
   3       -0.9186
   4       -0.8526
   5       -0.5318
   6       -0.5252
   7       -0.5228
   8        0.4815
   9        0.7715
  10        0.7751
  11        1.3118
  12        1.3230
  13        1.3373
  14        1.4946
  15        1.5049
  16        1.7626
  17        1.8208
  18        1.8987
  19        1.9323
  20        2.0554
  21        2.0617
  22        3.4754
  23        5.1926
  24        6.6617
  25       10.8971
  26       12.2019
  27       12.3655
  28       14.0290
  29       14.4788
  30       15.1823
  31       16.2029
  32       16.5822
 
  0.2500000E+00  0.1250000E+00  0.0000000E+00  0.1736111E-02
   1       -4.6543
   2       -1.1623
   3       -0.8252
   4       -0.7691
   5       -0.4783
   6       -0.4667
   7       -0.4607
   8        0.4263
   9        0.8106
  10        0.8208
  11        1.1101
  12        1.1603
  13        1.2818
  14        1.3759
  15        1.5234
  16        1.7002
  17        1.7538
  18        1.8537
  19        1.8688
  20        2.0551
  21        2.0571
  22        2.9873
  23        5.5475
  24        7.0484
  25       10.9501
  26       11.5910
  27       12.5112
  28       13.8077
  29       14.6828
  30       15.0790
  31       16.4844
  32       16.6909
 
  0.2916667E+00  0.1250000E+00  0.0000000E+00  0.1736111E-02
   1       -4.3970
   2       -1.2652
   3       -0.7247
   4       -0.6788
   5       -0.4170
   6       -0.3987
   7       -0.3869
   8        0.3626
   9        0.8466
  10        0.8796
  11        0.9128
  12        0.9797
  13        1.2304
  14        1.2423
  15        1.5574
  16        1.6322
  17        1.6806
  18        1.7668
  19        1.8269
  20        2.0544
  21        2.0547
  22        2.5846
  23        5.9256
  24        7.4733
  25       10.7500
  26       11.2841
  27       12.6863
  28       13.1414
  29       14.2012
  30       16.1738
  31       16.2661
  32       16.8091
 
  0.3333333E+00  0.1250000E+00  0.0000000E+00  0.1736111E-02
   1       -4.1057
   2       -1.4309
   3       -0.6231
   4       -0.5863
   5       -0.3489
   6       -0.3223
   7       -0.3012
   8        0.2918
   9        0.7235
  10        0.8008
  11        0.8757
  12        0.9469
  13        1.0841
  14        1.2147
  15        1.5629
  16        1.5958
  17        1.6053
  18        1.6739
  19        1.7689
  20        2.0529
  21        2.0542
  22        2.2822
  23        6.3238
  24        7.9314
  25       10.2186
  26       11.3626
  27       12.4862
  28       12.8880
  29       13.7525
  30       15.8124
  31       17.1737
  32       17.2425
 
  0.3750000E+00  0.1250000E+00  0.0000000E+00  0.1736111E-02
   1       -3.7836
   2       -1.6681
   3       -0.5274
   4       -0.4982
   5       -0.2751
   6       -0.2380
   7       -0.2035
   8        0.2155
   9        0.5446
  10        0.6275
  11        0.8870
  12        0.9614
  13        1.0220
  14        1.2131
  15        1.4985
  16        1.5332
  17        1.5772
  18        1.6381
  19        1.6900
  20        2.0522
  21        2.0537
  22        2.0761
  23        6.7407
  24        8.4190
  25        9.6602
  26       11.5245
  27       11.8457
  28       13.0727
  29       13.3879
  30       15.3576
  31       17.5751
  32       17.9032
 
  0.4166667E+00  0.1250000E+00  0.0000000E+00  0.1736111E-02
   1       -3.4354
   2       -1.9704
   3       -0.4463
   4       -0.4242
   5       -0.1967
   6       -0.1445
   7       -0.0937
   8        0.1352
   9        0.3776
  10        0.4621
  11        0.8766
  12        0.8801
  13        1.1039
  14        1.2462
  15        1.4460
  16        1.4712
  17        1.4788
  18        1.5924
  19        1.6843
  20        1.9446
  21        2.0520
  22        2.0532
  23        7.1760
  24        8.9333
  25        9.1191
  26       11.2225
  27       11.7267
  28       12.8787
  29       13.4740
  30       14.9178
  31       18.0100
  32       18.3831
 
  0.4583333E+00  0.1250000E+00  0.0000000E+00  0.1736111E-02
   1       -3.0680
   2       -2.3188
   3       -0.3890
   4       -0.3764
   5       -0.1151
   6       -0.0378
   7        0.0280
   8        0.0523
   9        0.2239
  10        0.3065
  11        0.8423