<?xml version="1.0" encoding="ISO-8859-1"?>
<modeling>
 <generator>
  <i name="program" type="string">vasp</i>
  <i name="version" type="string">4.6.28 </i>
  <i name="subversion" type="string">25Jul05 complex  parallel</i>
  <i name="platform" type="string">LinuxIFC</i>
  <i name="date" type="string">2017 01 11</i>
  <i name="time" type="string">19:09:16</i>
 </generator>
 <incar>
  <i type="string" name="PREC">accurate</i>
  <i type="int" name="IALGO">    38</i>
  <i type="logical" name="ADDGRID"> T  </i>
  <i name="EDIFF">      0.00000001</i>
  <i type="int" name="IBRION">    -1</i>
  <i name="ENCUT">    800.00000000</i>
  <i type="logical" name="LREAL"> F  </i>
  <i type="int" name="ISMEAR">     0</i>
  <i name="SIGMA">      0.01000000</i>
  <i type="logical" name="LWAVE"> F  </i>
  <i type="logical" name="LCHARG"> F  </i>
 </incar>
 <kpoints>
  <generation param="Gamma">
   <v type="int" name="divisions">      24      24      24</v>
   <v name="usershift">      0.00000000      0.00000000      0.00000000</v>
   <v name="genvec1">      0.04166667      0.00000000      0.00000000</v>
   <v name="genvec2">      0.00000000      0.04166667      0.00000000</v>
   <v name="genvec3">      0.00000000      0.00000000      0.04166667</v>
   <v name="shift">      0.00000000      0.00000000      0.00000000</v>
  </generation>
  <varray name="kpointlist" >
   <v>       0.00000000      0.00000000      0.00000000</v>
   <v>       0.04166667      0.00000000      0.00000000</v>
   <v>       0.08333333      0.00000000      0.00000000</v>
   <v>       0.12500000      0.00000000      0.00000000</v>
   <v>       0.16666667      0.00000000      0.00000000</v>
   <v>       0.20833333      0.00000000      0.00000000</v>
   <v>       0.25000000      0.00000000      0.00000000</v>
   <v>       0.29166667      0.00000000      0.00000000</v>
   <v>       0.33333333      0.00000000      0.00000000</v>
   <v>       0.37500000      0.00000000      0.00000000</v>
   <v>       0.41666667      0.00000000      0.00000000</v>
   <v>       0.45833333      0.00000000      0.00000000</v>
   <v>       0.50000000      0.00000000      0.00000000</v>
   <v>       0.04166667      0.04166667      0.00000000</v>
   <v>       0.08333333      0.04166667      0.00000000</v>
   <v>       0.12500000      0.04166667      0.00000000</v>
   <v>       0.16666667      0.04166667      0.00000000</v>
   <v>       0.20833333      0.04166667      0.00000000</v>
   <v>       0.25000000      0.04166667      0.00000000</v>
   <v>       0.29166667      0.04166667      0.00000000</v>
   <v>       0.33333333      0.04166667      0.00000000</v>
   <v>       0.37500000      0.04166667      0.00000000</v>
   <v>       0.41666667      0.04166667      0.00000000</v>
   <v>       0.45833333      0.04166667      0.00000000</v>
   <v>       0.50000000      0.04166667      0.00000000</v>
   <v>       0.08333333      0.08333333      0.00000000</v>
   <v>       0.12500000      0.08333333      0.00000000</v>
   <v>       0.16666667      0.08333333      0.00000000</v>
   <v>       0.20833333      0.08333333      0.00000000</v>
   <v>       0.25000000      0.08333333      0.00000000</v>
   <v>       0.29166667      0.08333333      0.00000000</v>
   <v>       0.33333333      0.08333333      0.00000000</v>
   <v>       0.37500000      0.08333333      0.00000000</v>
   <v>       0.41666667      0.08333333      0.00000000</v>
   <v>       0.45833333      0.08333333      0.00000000</v>
   <v>       0.50000000      0.08333333      0.00000000</v>
   <v>       0.12500000      0.12500000      0.00000000</v>
   <v>       0.16666667      0.12500000      0.00000000</v>
   <v>       0.20833333      0.12500000      0.00000000</v>
   <v>       0.25000000      0.12500000      0.00000000</v>
   <v>       0.29166667      0.12500000      0.00000000</v>
   <v>       0.33333333      0.12500000      0.00000000</v>
   <v>       0.37500000      0.12500000      0.00000000</v>
   <v>       0.41666667      0.12500000      0.00000000</v>
   <v>       0.45833333      0.12500000      0.00000000</v>
   <v>       0.50000000      0.12500000      0.00000000</v>
   <v>       0.16666667      0.16666667      0.00000000</v>
   <v>       0.20833333      0.16666667      0.00000000</v>
   <v>       0.25000000      0.16666667      0.00000000</v>
   <v>       0.29166667      0.16666667      0.00000000</v>
   <v>       0.33333333      0.16666667      0.00000000</v>
   <v>       0.37500000      0.16666667      0.00000000</v>
   <v>       0.41666667      0.16666667      0.00000000</v>
   <v>       0.45833333      0.16666667      0.00000000</v>
   <v>       0.50000000      0.16666667      0.00000000</v>
   <v>       0.20833333      0.20833333      0.00000000</v>
   <v>       0.25000000      0.20833333      0.00000000</v>
   <v>       0.29166667      0.20833333      0.00000000</v>
   <v>       0.33333333      0.20833333      0.00000000</v>
   <v>       0.37500000      0.20833333      0.00000000</v>
   <v>       0.41666667      0.20833333      0.00000000</v>
   <v>       0.45833333      0.20833333      0.00000000</v>
   <v>       0.50000000      0.20833333      0.00000000</v>
   <v>       0.25000000      0.25000000      0.00000000</v>
   <v>       0.29166667      0.25000000      0.00000000</v>
   <v>       0.33333333      0.25000000      0.00000000</v>
   <v>       0.37500000      0.25000000      0.00000000</v>
   <v>       0.41666667      0.25000000      0.00000000</v>
   <v>       0.45833333      0.25000000      0.00000000</v>
   <v>       0.50000000      0.25000000      0.00000000</v>
   <v>       0.29166667      0.29166667      0.00000000</v>
   <v>       0.33333333      0.29166667      0.00000000</v>
   <v>       0.37500000      0.29166667      0.00000000</v>
   <v>       0.41666667      0.29166667      0.00000000</v>
   <v>       0.45833333      0.29166667      0.00000000</v>
   <v>       0.50000000      0.29166667      0.00000000</v>
   <v>       0.33333333      0.33333333      0.00000000</v>
   <v>       0.37500000      0.33333333      0.00000000</v>
   <v>       0.41666667      0.33333333      0.00000000</v>
   <v>       0.45833333      0.33333333      0.00000000</v>
   <v>       0.50000000      0.33333333      0.00000000</v>
   <v>       0.37500000      0.37500000      0.00000000</v>
   <v>       0.41666667      0.37500000      0.00000000</v>
   <v>       0.45833333      0.37500000      0.00000000</v>
   <v>       0.50000000      0.37500000      0.00000000</v>
   <v>       0.41666667      0.41666667      0.00000000</v>
   <v>       0.45833333      0.41666667      0.00000000</v>
   <v>       0.50000000      0.41666667      0.00000000</v>
   <v>       0.45833333      0.45833333      0.00000000</v>
   <v>       0.50000000      0.45833333      0.00000000</v>
   <v>       0.50000000      0.50000000      0.00000000</v>
   <v>       0.04166667      0.04166667      0.04166667</v>
   <v>       0.08333333      0.04166667      0.04166667</v>
   <v>       0.12500000      0.04166667      0.04166667</v>
   <v>       0.16666667      0.04166667      0.04166667</v>
   <v>       0.20833333      0.04166667      0.04166667</v>
   <v>       0.25000000      0.04166667      0.04166667</v>
   <v>       0.29166667      0.04166667      0.04166667</v>
   <v>       0.33333333      0.04166667      0.04166667</v>
   <v>       0.37500000      0.04166667      0.04166667</v>
   <v>       0.41666667      0.04166667      0.04166667</v>
   <v>       0.45833333      0.04166667      0.04166667</v>
   <v>       0.50000000      0.04166667      0.04166667</v>
   <v>       0.08333333      0.08333333      0.04166667</v>
   <v>       0.12500000      0.08333333      0.04166667</v>
   <v>       0.16666667      0.08333333      0.04166667</v>
   <v>       0.20833333      0.08333333      0.04166667</v>
   <v>       0.25000000      0.08333333      0.04166667</v>
   <v>       0.29166667      0.08333333      0.04166667</v>
   <v>       0.33333333      0.08333333      0.04166667</v>
   <v>       0.37500000      0.08333333      0.04166667</v>
   <v>       0.41666667      0.08333333      0.04166667</v>
   <v>       0.45833333      0.08333333      0.04166667</v>
   <v>       0.50000000      0.08333333      0.04166667</v>
   <v>       0.12500000      0.12500000      0.04166667</v>
   <v>       0.16666667      0.12500000      0.04166667</v>
   <v>       0.20833333      0.12500000      0.04166667</v>
   <v>       0.25000000      0.12500000      0.04166667</v>
   <v>       0.29166667      0.12500000      0.04166667</v>
   <v>       0.33333333      0.12500000      0.04166667</v>
   <v>       0.37500000      0.12500000      0.04166667</v>
   <v>       0.41666667      0.12500000      0.04166667</v>
   <v>       0.45833333      0.12500000      0.04166667</v>
   <v>       0.50000000      0.12500000      0.04166667</v>
   <v>       0.16666667      0.16666667      0.04166667</v>
   <v>       0.20833333      0.16666667      0.04166667</v>
   <v>       0.25000000      0.16666667      0.04166667</v>
   <v>       0.29166667      0.16666667      0.04166667</v>
   <v>       0.33333333      0.16666667      0.04166667</v>
   <v>       0.37500000      0.16666667      0.04166667</v>
   <v>       0.41666667      0.16666667      0.04166667</v>
   <v>       0.45833333      0.16666667      0.04166667</v>
   <v>       0.50000000      0.16666667      0.04166667</v>
   <v>       0.20833333      0.20833333      0.04166667</v>
   <v>       0.25000000      0.20833333      0.04166667</v>
   <v>       0.29166667      0.20833333      0.04166667</v>
   <v>       0.33333333      0.20833333      0.04166667</v>
   <v>       0.37500000      0.20833333      0.04166667</v>
   <v>       0.41666667      0.20833333      0.04166667</v>
   <v>       0.45833333      0.20833333      0.04166667</v>
   <v>       0.50000000      0.20833333      0.04166667</v>
   <v>       0.25000000      0.25000000      0.04166667</v>
   <v>       0.29166667      0.25000000      0.04166667</v>
   <v>       0.33333333      0.25000000      0.04166667</v>
   <v>       0.37500000      0.25000000      0.04166667</v>
   <v>       0.41666667      0.25000000      0.04166667</v>
   <v>       0.45833333      0.25000000      0.04166667</v>
   <v>       0.50000000      0.25000000      0.04166667</v>
   <v>       0.29166667      0.29166667      0.04166667</v>
   <v>       0.33333333      0.29166667      0.04166667</v>
   <v>       0.37500000      0.29166667      0.04166667</v>
   <v>       0.41666667      0.29166667      0.04166667</v>
   <v>       0.45833333      0.29166667      0.04166667</v>
   <v>       0.50000000      0.29166667      0.04166667</v>
   <v>       0.33333333      0.33333333      0.04166667</v>
   <v>       0.37500000      0.33333333      0.04166667</v>
   <v>       0.41666667      0.33333333      0.04166667</v>
   <v>       0.45833333      0.33333333      0.04166667</v>
   <v>       0.50000000      0.33333333      0.04166667</v>
   <v>       0.37500000      0.37500000      0.04166667</v>
   <v>       0.41666667      0.37500000      0.04166667</v>
   <v>       0.45833333      0.37500000      0.04166667</v>
   <v>       0.50000000      0.37500000      0.04166667</v>
   <v>       0.41666667      0.41666667      0.04166667</v>
   <v>       0.45833333      0.41666667      0.04166667</v>
   <v>       0.50000000      0.41666667      0.04166667</v>
   <v>       0.45833333      0.45833333      0.04166667</v>
   <v>       0.50000000      0.45833333      0.04166667</v>
   <v>       0.50000000      0.50000000      0.04166667</v>
   <v>       0.08333333      0.08333333      0.08333333</v>
   <v>       0.12500000      0.08333333      0.08333333</v>
   <v>       0.16666667      0.08333333      0.08333333</v>
   <v>       0.20833333      0.08333333      0.08333333</v>
   <v>       0.25000000      0.08333333      0.08333333</v>
   <v>       0.29166667      0.08333333      0.08333333</v>
   <v>       0.33333333      0.08333333      0.08333333</v>
   <v>       0.37500000      0.08333333      0.08333333</v>
   <v>       0.41666667      0.08333333      0.08333333</v>
   <v>       0.45833333      0.08333333      0.08333333</v>
   <v>       0.50000000      0.08333333      0.08333333</v>
   <v>       0.12500000      0.12500000      0.08333333</v>
   <v>       0.16666667      0.12500000      0.08333333</v>
   <v>       0.20833333      0.12500000      0.08333333</v>
   <v>       0.25000000      0.12500000      0.08333333</v>
   <v>       0.29166667      0.12500000      0.08333333</v>
   <v>       0.33333333      0.12500000      0.08333333</v>
   <v>       0.37500000      0.12500000      0.08333333</v>
   <v>       0.41666667      0.12500000      0.08333333</v>
   <v>       0.45833333      0.12500000      0.08333333</v>
   <v>       0.50000000      0.12500000      0.08333333</v>
   <v>       0.16666667      0.16666667      0.08333333</v>
   <v>       0.20833333      0.16666667      0.08333333</v>
   <v>       0.25000000      0.16666667      0.08333333</v>
   <v>       0.29166667      0.16666667      0.08333333</v>
   <v>       0.33333333      0.16666667      0.08333333</v>
   <v>       0.37500000      0.16666667      0.08333333</v>
   <v>       0.41666667      0.16666667      0.08333333</v>
   <v>       0.45833333      0.16666667      0.08333333</v>
   <v>       0.50000000      0.16666667      0.08333333</v>
   <v>       0.20833333      0.20833333      0.08333333</v>
   <v>       0.25000000      0.20833333      0.08333333</v>
   <v>       0.29166667      0.20833333      0.08333333</v>
   <v>       0.33333333      0.20833333      0.08333333</v>
   <v>       0.37500000      0.20833333      0.08333333</v>
   <v>       0.41666667      0.20833333      0.08333333</v>
   <v>       0.45833333      0.20833333      0.08333333</v>
   <v>       0.50000000      0.20833333      0.08333333</v>
   <v>       0.25000000      0.25000000      0.08333333</v>
   <v>       0.29166667      0.25000000      0.08333333</v>
   <v>       0.33333333      0.25000000      0.08333333</v>
   <v>       0.37500000      0.25000000      0.08333333</v>
   <v>       0.41666667      0.25000000      0.08333333</v>
   <v>       0.45833333      0.25000000      0.08333333</v>
   <v>       0.50000000      0.25000000      0.08333333</v>
   <v>       0.29166667      0.29166667      0.08333333</v>
   <v>       0.33333333      0.29166667      0.08333333</v>
   <v>       0.37500000      0.29166667      0.08333333</v>
   <v>       0.41666667      0.29166667      0.08333333</v>
   <v>       0.45833333      0.29166667      0.08333333</v>
   <v>       0.50000000      0.29166667      0.08333333</v>
   <v>       0.33333333      0.33333333      0.08333333</v>
   <v>       0.37500000      0.33333333      0.08333333</v>
   <v>       0.41666667      0.33333333      0.08333333</v>
   <v>       0.45833333      0.33333333      0.08333333</v>
   <v>       0.50000000      0.33333333      0.08333333</v>
   <v>       0.37500000      0.37500000      0.08333333</v>
   <v>       0.41666667      0.37500000      0.08333333</v>
   <v>       0.45833333      0.37500000      0.08333333</v>
   <v>       0.50000000      0.37500000      0.08333333</v>
   <v>       0.41666667      0.41666667      0.08333333</v>
   <v>       0.45833333      0.41666667      0.08333333</v>
   <v>       0.50000000      0.41666667      0.08333333</v>
   <v>       0.45833333      0.45833333      0.08333333</v>
   <v>       0.50000000      0.45833333      0.08333333</v>
   <v>       0.50000000      0.50000000      0.08333333</v>
   <v>       0.12500000      0.12500000      0.12500000</v>
   <v>       0.16666667      0.12500000      0.12500000</v>
   <v>       0.20833333      0.12500000      0.12500000</v>
   <v>       0.25000000      0.12500000      0.12500000</v>
   <v>       0.29166667      0.12500000      0.12500000</v>
   <v>       0.33333333      0.12500000      0.12500000</v>
   <v>       0.37500000      0.12500000      0.12500000</v>
   <v>       0.41666667      0.12500000      0.12500000</v>
   <v>       0.45833333      0.12500000      0.12500000</v>
   <v>       0.50000000      0.12500000      0.12500000</v>
   <v>       0.16666667      0.16666667      0.12500000</v>
   <v>       0.20833333      0.16666667      0.12500000</v>
   <v>       0.25000000      0.16666667      0.12500000</v>
   <v>       0.29166667      0.16666667      0.12500000</v>
   <v>       0.33333333      0.16666667      0.12500000</v>
   <v>       0.37500000      0.16666667      0.12500000</v>
   <v>       0.41666667      0.16666667      0.12500000</v>
   <v>       0.45833333      0.16666667      0.12500000</v>
   <v>       0.50000000      0.16666667      0.12500000</v>
   <v>       0.20833333      0.20833333      0.12500000</v>
   <v>       0.25000000      0.20833333      0.12500000</v>
   <v>       0.29166667      0.20833333      0.12500000</v>
   <v>       0.33333333      0.20833333      0.12500000</v>
   <v>       0.37500000      0.20833333      0.12500000</v>
   <v>       0.41666667      0.20833333      0.12500000</v>
   <v>       0.45833333      0.20833333      0.12500000</v>
   <v>       0.50000000      0.20833333      0.12500000</v>
   <v>       0.25000000      0.25000000      0.12500000</v>
   <v>       0.29166667      0.25000000      0.12500000</v>
   <v>       0.33333333      0.25000000      0.12500000</v>
   <v>       0.37500000      0.25000000      0.12500000</v>
   <v>       0.41666667      0.25000000      0.12500000</v>
   <v>       0.45833333      0.25000000      0.12500000</v>
   <v>       0.50000000      0.25000000      0.12500000</v>
   <v>       0.29166667      0.29166667      0.12500000</v>
   <v>       0.33333333      0.29166667      0.12500000</v>
   <v>       0.37500000      0.29166667      0.12500000</v>
   <v>       0.41666667      0.29166667      0.12500000</v>
   <v>       0.45833333      0.29166667      0.12500000</v>
   <v>       0.50000000      0.29166667      0.12500000</v>
   <v>       0.33333333      0.33333333      0.12500000</v>
   <v>       0.37500000      0.33333333      0.12500000</v>
   <v>       0.41666667      0.33333333      0.12500000</v>
   <v>       0.45833333      0.33333333      0.12500000</v>
   <v>       0.50000000      0.33333333      0.12500000</v>
   <v>       0.37500000      0.37500000      0.12500000</v>
   <v>       0.41666667      0.37500000      0.12500000</v>
   <v>       0.45833333      0.37500000      0.12500000</v>
   <v>       0.50000000      0.37500000      0.12500000</v>
   <v>       0.41666667      0.41666667      0.12500000</v>
   <v>       0.45833333      0.41666667      0.12500000</v>
   <v>       0.50000000      0.41666667      0.12500000</v>
   <v>       0.45833333      0.45833333      0.12500000</v>
   <v>       0.50000000      0.45833333      0.12500000</v>
   <v>       0.50000000      0.50000000      0.12500000</v>
   <v>       0.16666667      0.16666667      0.16666667</v>
   <v>       0.20833333      0.16666667      0.16666667</v>
   <v>       0.25000000      0.16666667      0.16666667</v>
   <v>       0.29166667      0.16666667      0.16666667</v>
   <v>       0.33333333      0.16666667      0.16666667</v>
   <v>       0.37500000      0.16666667      0.16666667</v>
   <v>       0.41666667      0.16666667      0.16666667</v>
   <v>       0.45833333      0.16666667      0.16666667</v>
   <v>       0.50000000      0.16666667      0.16666667</v>
   <v>       0.20833333      0.20833333      0.16666667</v>
   <v>       0.25000000      0.20833333      0.16666667</v>
   <v>       0.29166667      0.20833333      0.16666667</v>
   <v>       0.33333333      0.20833333      0.16666667</v>
   <v>       0.37500000      0.20833333      0.16666667</v>
   <v>       0.41666667      0.20833333      0.16666667</v>
   <v>       0.45833333      0.20833333      0.16666667</v>
   <v>       0.50000000      0.20833333      0.16666667</v>
   <v>       0.25000000      0.25000000      0.16666667</v>
   <v>       0.29166667      0.25000000      0.16666667</v>
   <v>       0.33333333      0.25000000      0.16666667</v>
   <v>       0.37500000      0.25000000      0.16666667</v>
   <v>       0.41666667      0.25000000      0.16666667</v>
   <v>       0.45833333      0.25000000      0.16666667</v>
   <v>       0.50000000      0.25000000      0.16666667</v>
   <v>       0.29166667      0.29166667      0.16666667</v>
   <v>       0.33333333      0.29166667      0.16666667</v>
   <v>       0.37500000      0.29166667      0.16666667</v>
   <v>       0.41666667      0.29166667      0.16666667</v>
   <v>       0.45833333      0.29166667      0.16666667</v>
   <v>       0.50000000      0.29166667      0.16666667</v>
   <v>       0.33333333      0.33333333      0.16666667</v>
   <v>       0.37500000      0.33333333      0.16666667</v>
   <v>       0.41666667      0.33333333      0.16666667</v>
   <v>       0.45833333      0.33333333      0.16666667</v>
   <v>       0.50000000      0.33333333      0.16666667</v>
   <v>       0.37500000      0.37500000      0.16666667</v>
   <v>       0.41666667      0.37500000      0.16666667</v>
   <v>       0.45833333      0.37500000      0.16666667</v>
   <v>       0.50000000      0.37500000      0.16666667</v>
   <v>       0.41666667      0.41666667      0.16666667</v>
   <v>       0.45833333      0.41666667      0.16666667</v>
   <v>       0.50000000      0.41666667      0.16666667</v>
   <v>       0.45833333      0.45833333      0.16666667</v>
   <v>       0.50000000      0.45833333      0.16666667</v>
   <v>       0.50000000      0.50000000      0.16666667</v>
   <v>       0.20833333      0.20833333      0.20833333</v>
   <v>       0.25000000      0.20833333      0.20833333</v>
   <v>       0.29166667      0.20833333      0.20833333</v>
   <v>       0.33333333      0.20833333      0.20833333</v>
   <v>       0.37500000      0.20833333      0.20833333</v>
   <v>       0.41666667      0.20833333      0.20833333</v>
   <v>       0.45833333      0.20833333      0.20833333</v>
   <v>       0.50000000      0.20833333      0.20833333</v>
   <v>       0.25000000      0.25000000      0.20833333</v>
   <v>       0.29166667      0.25000000      0.20833333</v>
   <v>       0.33333333      0.25000000      0.20833333</v>
   <v>       0.37500000      0.25000000      0.20833333</v>
   <v>       0.41666667      0.25000000      0.20833333</v>
   <v>       0.45833333      0.25000000      0.20833333</v>
   <v>       0.50000000      0.25000000      0.20833333</v>
   <v>       0.29166667      0.29166667      0.20833333</v>
   <v>       0.33333333      0.29166667      0.20833333</v>
   <v>       0.37500000      0.29166667      0.20833333</v>
   <v>       0.41666667      0.29166667      0.20833333</v>
   <v>       0.45833333      0.29166667      0.20833333</v>
   <v>       0.50000000      0.29166667      0.20833333</v>
   <v>       0.33333333      0.33333333      0.20833333</v>
   <v>       0.37500000      0.33333333      0.20833333</v>
   <v>       0.41666667      0.33333333      0.20833333</v>
   <v>       0.45833333      0.33333333      0.20833333</v>
   <v>       0.50000000      0.33333333      0.20833333</v>
   <v>       0.37500000      0.37500000      0.20833333</v>
   <v>       0.41666667      0.37500000      0.20833333</v>
   <v>       0.45833333      0.37500000      0.20833333</v>
   <v>       0.50000000      0.37500000      0.20833333</v>
   <v>       0.41666667      0.41666667      0.20833333</v>
   <v>       0.45833333      0.41666667      0.20833333</v>
   <v>       0.50000000      0.41666667      0.20833333</v>
   <v>       0.45833333      0.45833333      0.20833333</v>
   <v>       0.50000000      0.45833333      0.20833333</v>
   <v>       0.50000000      0.50000000      0.20833333</v>
   <v>       0.25000000      0.25000000      0.25000000</v>
   <v>       0.29166667      0.25000000      0.25000000</v>
   <v>       0.33333333      0.25000000      0.25000000</v>
   <v>       0.37500000      0.25000000      0.25000000</v>
   <v>       0.41666667      0.25000000      0.25000000</v>
   <v>       0.45833333      0.25000000      0.25000000</v>
   <v>       0.50000000      0.25000000      0.25000000</v>
   <v>       0.29166667      0.29166667      0.25000000</v>
   <v>       0.33333333      0.29166667      0.25000000</v>
   <v>       0.37500000      0.29166667      0.25000000</v>
   <v>       0.41666667      0.29166667      0.25000000</v>
   <v>       0.45833333      0.29166667      0.25000000</v>
   <v>       0.50000000      0.29166667      0.25000000</v>
   <v>       0.33333333      0.33333333      0.25000000</v>
   <v>       0.37500000      0.33333333      0.25000000</v>
   <v>       0.41666667      0.33333333      0.25000000</v>
   <v>       0.45833333      0.33333333      0.25000000</v>
   <v>       0.50000000      0.33333333      0.25000000</v>
   <v>       0.37500000      0.37500000      0.25000000</v>
   <v>       0.41666667      0.37500000      0.25000000</v>
   <v>       0.45833333      0.37500000      0.25000000</v>
   <v>       0.50000000      0.37500000      0.25000000</v>
   <v>       0.41666667      0.41666667      0.25000000</v>
   <v>       0.45833333      0.41666667      0.25000000</v>
   <v>       0.50000000      0.41666667      0.25000000</v>
   <v>       0.45833333      0.45833333      0.25000000</v>
   <v>       0.50000000      0.45833333      0.25000000</v>
   <v>       0.50000000      0.50000000      0.25000000</v>
   <v>       0.29166667      0.29166667      0.29166667</v>
   <v>       0.33333333      0.29166667      0.29166667</v>
   <v>       0.37500000      0.29166667      0.29166667</v>
   <v>       0.41666667      0.29166667      0.29166667</v>
   <v>       0.45833333      0.29166667      0.29166667</v>
   <v>       0.50000000      0.29166667      0.29166667</v>
   <v>       0.33333333      0.33333333      0.29166667</v>
   <v>       0.37500000      0.33333333      0.29166667</v>
   <v>       0.41666667      0.33333333      0.29166667</v>
   <v>       0.45833333      0.33333333      0.29166667</v>
   <v>       0.50000000      0.33333333      0.29166667</v>
   <v>       0.37500000      0.37500000      0.29166667</v>
   <v>       0.41666667      0.37500000      0.29166667</v>
   <v>       0.45833333      0.37500000      0.29166667</v>
   <v>       0.50000000      0.37500000      0.29166667</v>
   <v>       0.41666667      0.41666667      0.29166667</v>
   <v>       0.45833333      0.41666667      0.29166667</v>
   <v>       0.50000000      0.41666667      0.29166667</v>
   <v>       0.45833333      0.45833333      0.29166667</v>
   <v>       0.50000000      0.45833333      0.29166667</v>
   <v>       0.50000000      0.50000000      0.29166667</v>
   <v>       0.33333333      0.33333333      0.33333333</v>
   <v>       0.37500000      0.33333333      0.33333333</v>
   <v>       0.41666667      0.33333333      0.33333333</v>
   <v>       0.45833333      0.33333333      0.33333333</v>
   <v>       0.50000000      0.33333333      0.33333333</v>
   <v>       0.37500000      0.37500000      0.33333333</v>
   <v>       0.41666667      0.37500000      0.33333333</v>
   <v>       0.45833333      0.37500000      0.33333333</v>
   <v>       0.50000000      0.37500000      0.33333333</v>
   <v>       0.41666667      0.41666667      0.33333333</v>
   <v>       0.45833333      0.41666667      0.33333333</v>
   <v>       0.50000000      0.41666667      0.33333333</v>
   <v>       0.45833333      0.45833333      0.33333333</v>
   <v>       0.50000000      0.45833333      0.33333333</v>
   <v>       0.50000000      0.50000000      0.33333333</v>
   <v>       0.37500000      0.37500000      0.37500000</v>
   <v>       0.41666667      0.37500000      0.37500000</v>
   <v>       0.45833333      0.37500000      0.37500000</v>
   <v>       0.50000000      0.37500000      0.37500000</v>
   <v>       0.41666667      0.41666667      0.37500000</v>
   <v>       0.45833333      0.41666667      0.37500000</v>
   <v>       0.50000000      0.41666667      0.37500000</v>
   <v>       0.45833333      0.45833333      0.37500000</v>
   <v>       0.50000000      0.45833333      0.37500000</v>
   <v>       0.50000000      0.50000000      0.37500000</v>
   <v>       0.41666667      0.41666667      0.41666667</v>
   <v>       0.45833333      0.41666667      0.41666667</v>
   <v>       0.50000000      0.41666667      0.41666667</v>
   <v>       0.45833333      0.45833333      0.41666667</v>
   <v>       0.50000000      0.45833333      0.41666667</v>
   <v>       0.50000000      0.50000000      0.41666667</v>
   <v>       0.45833333      0.45833333      0.45833333</v>
   <v>       0.50000000      0.45833333      0.45833333</v>
   <v>       0.50000000      0.50000000      0.45833333</v>
   <v>       0.50000000      0.50000000      0.50000000</v>
  </varray>
  <varray name="weights" >
   <v>       0.00007234</v>
   <v>       0.00043403</v>
   <v>       0.00043403</v>
   <v>       0.00043403</v>
   <v>       0.00043403</v>
   <v>       0.00043403</v>
   <v>       0.00043403</v>
   <v>       0.00043403</v>
   <v>       0.00043403</v>
   <v>       0.00043403</v>
   <v>       0.00043403</v>
   <v>       0.00043403</v>
   <v>       0.00021701</v>
   <v>       0.00086806</v>
   <v>       0.00173611</v>
   <v>       0.00173611</v>
   <v>       0.00173611</v>
   <v>       0.00173611</v>
   <v>       0.00173611</v>
   <v>       0.00173611</v>
   <v>       0.00173611</v>
   <v>       0.00173611</v>
   <v>       0.00173611</v>
   <v>       0.00173611</v>
   <v>       0.00086806</v>
   <v>       0.00086806</v>
   <v>       0.00173611</v>
   <v>       0.00173611</v>
   <v>       0.00173611</v>
   <v>       0.00173611</v>
   <v>       0.00173611</v>
   <v>       0.00173611</v>
   <v>       0.00173611</v>
   <v>       0.00173611</v>
   <v>       0.00173611</v>
   <v>       0.00086806</v>
   <v>       0.00086806</v>
   <v>       0.00173611</v>
   <v>       0.00173611</v>
   <v>       0.00173611</v>
   <v>       0.00173611</v>
   <v>       0.00173611</v>
   <v>       0.00173611</v>
   <v>       0.00173611</v>
   <v>       0.00173611</v>
   <v>       0.00086806</v>
   <v>       0.00086806</v>
   <v>       0.00173611</v>
   <v>       0.00173611</v>
   <v>       0.00173611</v>
   <v>       0.00173611</v>
   <v>       0.00173611</v>
   <v>       0.00173611</v>
   <v>       0.00173611</v>
   <v>       0.00086806</v>
   <v>       0.00086806</v>
   <v>       0.00173611</v>
   <v>       0.00173611</v>
   <v>       0.00173611</v>
   <v>       0.00173611</v>
   <v>       0.00173611</v>
   <v>       0.00173611</v>
   <v>       0.00086806</v>
   <v>       0.00086806</v>
   <v>       0.00173611</v>
   <v>       0.00173611</v>
   <v>       0.00173611</v>
   <v>       0.00173611</v>
   <v>       0.00173611</v>
   <v>       0.00086806</v>
   <v>       0.00086806</v>
   <v>       0.00173611</v>
   <v>       0.00173611</v>
   <v>       0.00173611</v>
   <v>       0.00173611</v>
   <v>       0.00086806</v>
   <v>       0.00086806</v>
   <v>       0.00173611</v>
   <v>       0.00173611</v>
   <v>       0.00173611</v>
   <v>       0.00086806</v>
   <v>       0.00086806</v>
   <v>       0.00173611</v>
   <v>       0.00173611</v>
   <v>       0.00086806</v>
   <v>       0.00086806</v>
   <v>       0.00173611</v>
   <v>       0.00086806</v>
   <v>       0.00086806</v>
   <v>       0.00086806</v>
   <v>       0.00021701</v>
   <v>       0.00057870</v>
   <v>       0.00173611</v>
   <v>       0.00173611</v>
   <v>       0.00173611</v>
   <v>       0.00173611</v>
   <v>       0.00173611</v>
   <v>       0.00173611</v>
   <v>       0.00173611</v>
   <v>       0.00173611</v>
   <v>       0.00173611</v>
   <v>       0.00173611</v>
   <v>       0.00086806</v>
   <v>       0.00173611</v>
   <v>       0.00347222</v>
   <v>       0.00347222</v>
   <v>       0.00347222</v>
   <v>       0.00347222</v>
   <v>       0.00347222</v>
   <v>       0.00347222</v>
   <v>       0.00347222</v>
   <v>       0.00347222</v>
   <v>       0.00347222</v>
   <v>       0.00173611</v>
   <v>       0.00173611</v>
   <v>       0.00347222</v>
   <v>       0.00347222</v>
   <v>       0.00347222</v>
   <v>       0.00347222</v>
   <v>       0.00347222</v>
   <v>       0.00347222</v>
   <v>       0.00347222</v>
   <v>       0.00347222</v>
   <v>       0.00173611</v>
   <v>       0.00173611</v>
   <v>       0.00347222</v>
   <v>       0.00347222</v>
   <v>       0.00347222</v>
   <v>       0.00347222</v>
   <v>       0.00347222</v>
   <v>       0.00347222</v>
   <v>       0.00347222</v>
   <v>       0.00173611</v>
   <v>       0.00173611</v>
   <v>       0.00347222</v>
   <v>       0.00347222</v>
   <v>       0.00347222</v>
   <v>       0.00347222</v>
   <v>       0.00347222</v>
   <v>       0.00347222</v>
   <v>       0.00173611</v>
   <v>       0.00173611</v>
   <v>       0.00347222</v>
   <v>       0.00347222</v>
   <v>       0.00347222</v>
   <v>       0.00347222</v>
   <v>       0.00347222</v>
   <v>       0.00173611</v>
   <v>       0.00173611</v>
   <v>       0.00347222</v>
   <v>       0.00347222</v>
   <v>       0.00347222</v>
   <v>       0.00347222</v>
   <v>       0.00173611</v>
   <v>       0.00173611</v>
   <v>       0.00347222</v>
   <v>       0.00347222</v>
   <v>       0.00347222</v>
   <v>       0.00173611</v>
   <v>       0.00173611</v>
   <v>       0.00347222</v>
   <v>       0.00347222</v>
   <v>       0.00173611</v>
   <v>       0.00173611</v>
   <v>       0.00347222</v>
   <v>       0.00173611</v>
   <v>       0.00173611</v>
   <v>       0.00173611</v>
   <v>       0.00043403</v>
   <v>       0.00057870</v>
   <v>       0.00173611</v>
   <v>       0.00173611</v>
   <v>       0.00173611</v>
   <v>       0.00173611</v>
   <v>       0.00173611</v>
   <v>       0.00173611</v>
   <v>       0.00173611</v>
   <v>       0.00173611</v>
   <v>       0.00173611</v>
   <v>       0.00086806</v>
   <v>       0.00173611</v>
   <v>       0.00347222</v>
   <v>       0.00347222</v>
   <v>       0.00347222</v>
   <v>       0.00347222</v>
   <v>       0.00347222</v>
   <v>       0.00347222</v>
   <v>       0.00347222</v>
   <v>       0.00347222</v>
   <v>       0.00173611</v>
   <v>       0.00173611</v>
   <v>       0.00347222</v>
   <v>       0.00347222</v>
   <v>       0.00347222</v>
   <v>       0.00347222</v>
   <v>       0.00347222</v>
   <v>       0.00347222</v>
   <v>       0.00347222</v>
   <v>       0.00173611</v>
   <v>       0.00173611</v>
   <v>       0.00347222</v>
   <v>       0.00347222</v>
   <v>       0.00347222</v>
   <v>       0.00347222</v>
   <v>       0.00347222</v>
   <v>       0.00347222</v>
   <v>       0.00173611</v>
   <v>       0.00173611</v>
   <v>       0.00347222</v>
   <v>       0.00347222</v>
   <v>       0.00347222</v>
   <v>       0.00347222</v>
   <v>       0.00347222</v>
   <v>       0.00173611</v>
   <v>       0.00173611</v>
   <v>       0.00347222</v>
   <v>       0.00347222</v>
   <v>       0.00347222</v>
   <v>       0.00347222</v>
   <v>       0.00173611</v>
   <v>       0.00173611</v>
   <v>       0.00347222</v>
   <v>       0.00347222</v>
   <v>       0.00347222</v>
   <v>       0.00173611</v>
   <v>       0.00173611</v>
   <v>       0.00347222</v>
   <v>       0.00347222</v>
   <v>       0.00173611</v>
   <v>       0.00173611</v>
   <v>       0.00347222</v>
   <v>       0.00173611</v>
   <v>       0.00173611</v>
   <v>       0.00173611</v>
   <v>       0.00043403</v>
   <v>       0.00057870</v>
   <v>       0.00173611</v>
   <v>       0.00173611</v>
   <v>       0.00173611</v>
   <v>       0.00173611</v>
   <v>       0.00173611</v>
   <v>       0.00173611</v>
   <v>       0.00173611</v>
   <v>       0.00173611</v>
   <v>       0.00086806</v>
   <v>       0.00173611</v>
   <v>       0.00347222</v>
   <v>       0.00347222</v>
   <v>       0.00347222</v>
   <v>       0.00347222</v>
   <v>       0.00347222</v>
   <v>       0.00347222</v>
   <v>       0.00347222</v>
   <v>       0.00173611</v>
   <v>       0.00173611</v>
   <v>       0.00347222</v>
   <v>       0.00347222</v>
   <v>       0.00347222</v>
   <v>       0.00347222</v>
   <v>       0.00347222</v>
   <v>       0.00347222</v>
   <v>       0.00173611</v>
   <v>       0.00173611</v>
   <v>       0.00347222</v>
   <v>       0.00347222</v>
   <v>       0.00347222</v>
   <v>       0.00347222</v>
   <v>       0.00347222</v>
   <v>       0.00173611</v>
   <v>       0.00173611</v>
   <v>       0.00347222</v>
   <v>       0.00347222</v>
   <v>       0.00347222</v>
   <v>       0.00347222</v>
   <v>       0.00173611</v>
   <v>       0.00173611</v>
   <v>       0.00347222</v>
   <v>       0.00347222</v>
   <v>       0.00347222</v>
   <v>       0.00173611</v>
   <v>       0.00173611</v>
   <v>       0.00347222</v>
   <v>       0.00347222</v>
   <v>       0.00173611</v>
   <v>       0.00173611</v>
   <v>       0.00347222</v>
   <v>       0.00173611</v>
   <v>       0.00173611</v>
   <v>       0.00173611</v>
   <v>       0.00043403</v>
   <v>       0.00057870</v>
   <v>       0.00173611</v>
   <v>       0.00173611</v>
   <v>       0.00173611</v>
   <v>       0.00173611</v>
   <v>       0.00173611</v>
   <v>       0.00173611</v>
   <v>       0.00173611</v>
   <v>       0.00086806</v>
   <v>       0.00173611</v>
   <v>       0.00347222</v>
   <v>       0.00347222</v>
   <v>       0.00347222</v>
   <v>       0.00347222</v>
   <v>       0.00347222</v>
   <v>       0.00347222</v>
   <v>       0.00173611</v>
   <v>       0.00173611</v>
   <v>       0.00347222</v>
   <v>       0.00347222</v>
   <v>       0.00347222</v>
   <v>       0.00347222</v>
   <v>       0.00347222</v>
   <v>       0.00173611</v>
   <v>       0.00173611</v>
   <v>       0.00347222</v>
   <v>       0.00347222</v>
   <v>       0.00347222</v>
   <v>       0.00347222</v>
   <v>       0.00173611</v>
   <v>       0.00173611</v>
   <v>       0.00347222</v>
   <v>       0.00347222</v>
   <v>       0.00347222</v>
   <v>       0.00173611</v>
   <v>       0.00173611</v>
   <v>       0.00347222</v>
   <v>       0.00347222</v>
   <v>       0.00173611</v>
   <v>       0.00173611</v>
   <v>       0.00347222</v>
   <v>       0.00173611</v>
   <v>       0.00173611</v>
   <v>       0.00173611</v>
   <v>       0.00043403</v>
   <v>       0.00057870</v>
   <v>       0.00173611</v>
   <v>       0.00173611</v>
   <v>       0.00173611</v>
   <v>       0.00173611</v>
   <v>       0.00173611</v>
   <v>       0.00173611</v>
   <v>       0.00086806</v>
   <v>       0.00173611</v>
   <v>       0.00347222</v>
   <v>       0.00347222</v>
   <v>       0.00347222</v>
   <v>       0.00347222</v>
   <v>       0.00347222</v>
   <v>       0.00173611</v>
   <v>       0.00173611</v>
   <v>       0.00347222</v>
   <v>       0.00347222</v>
   <v>       0.00347222</v>
   <v>       0.00347222</v>
   <v>       0.00173611</v>
   <v>       0.00173611</v>
   <v>       0.00347222</v>
   <v>       0.00347222</v>
   <v>       0.00347222</v>
   <v>       0.00173611</v>
   <v>       0.00173611</v>
   <v>       0.00347222</v>
   <v>       0.00347222</v>
   <v>       0.00173611</v>
   <v>       0.00173611</v>
   <v>       0.00347222</v>
   <v>       0.00173611</v>
   <v>       0.00173611</v>
   <v>       0.00173611</v>
   <v>       0.00043403</v>
   <v>       0.00057870</v>
   <v>       0.00173611</v>
   <v>       0.00173611</v>
   <v>       0.00173611</v>
   <v>       0.00173611</v>
   <v>       0.00173611</v>
   <v>       0.00086806</v>
   <v>       0.00173611</v>
   <v>       0.00347222</v>
   <v>       0.00347222</v>
   <v>       0.00347222</v>
   <v>       0.00347222</v>
   <v>       0.00173611</v>
   <v>       0.00173611</v>
   <v>       0.00347222</v>
   <v>       0.00347222</v>
   <v>       0.00347222</v>
   <v>       0.00173611</v>
   <v>       0.00173611</v>
   <v>       0.00347222</v>
   <v>       0.00347222</v>
   <v>       0.00173611</v>
   <v>       0.00173611</v>
   <v>       0.00347222</v>
   <v>       0.00173611</v>
   <v>       0.00173611</v>
   <v>       0.00173611</v>
   <v>       0.00043403</v>
   <v>       0.00057870</v>
   <v>       0.00173611</v>
   <v>       0.00173611</v>
   <v>       0.00173611</v>
   <v>       0.00173611</v>
   <v>       0.00086806</v>
   <v>       0.00173611</v>
   <v>       0.00347222</v>
   <v>       0.00347222</v>
   <v>       0.00347222</v>
   <v>       0.00173611</v>
   <v>       0.00173611</v>
   <v>       0.00347222</v>
   <v>       0.00347222</v>
   <v>       0.00173611</v>
   <v>       0.00173611</v>
   <v>       0.00347222</v>
   <v>       0.00173611</v>
   <v>       0.00173611</v>
   <v>       0.00173611</v>
   <v>       0.00043403</v>
   <v>       0.00057870</v>
   <v>       0.00173611</v>
   <v>       0.00173611</v>
   <v>       0.00173611</v>
   <v>       0.00086806</v>
   <v>       0.00173611</v>
   <v>       0.00347222</v>
   <v>       0.00347222</v>
   <v>       0.00173611</v>
   <v>       0.00173611</v>
   <v>       0.00347222</v>
   <v>       0.00173611</v>
   <v>       0.00173611</v>
   <v>       0.00173611</v>
   <v>       0.00043403</v>
   <v>       0.00057870</v>
   <v>       0.00173611</v>
   <v>       0.00173611</v>
   <v>       0.00086806</v>
   <v>       0.00173611</v>
   <v>       0.00347222</v>
   <v>       0.00173611</v>
   <v>       0.00173611</v>
   <v>       0.00173611</v>
   <v>       0.00043403</v>
   <v>       0.00057870</v>
   <v>       0.00173611</v>
   <v>       0.00086806</v>
   <v>       0.00173611</v>
   <v>       0.00173611</v>
   <v>       0.00043403</v>
   <v>       0.00057870</v>
   <v>       0.00086806</v>
   <v>       0.00043403</v>
   <v>       0.00007234</v>
  </varray>
 </kpoints>
 <parameters>
  <separator name="general" >
   <i type="string" name="SYSTEM">unknown system</i>
   <i type="logical" name="LCOMPAT"> F  </i>
  </separator>
  <separator name="electronic" >
   <i type="string" name="PREC">accura</i>
   <i name="ENMAX">    800.00000000</i>
   <i name="ENAUG">    516.45600000</i>
   <i name="EDIFF">      0.00000001</i>
   <i type="int" name="IALGO">    38</i>
   <i type="int" name="IWAVPR">    10</i>
   <i type="int" name="NBANDS">    26</i>
   <i name="NELECT">     44.00000000</i>
   <separator name="electronic smearing" >
    <i type="int" name="ISMEAR">     0</i>
    <i name="SIGMA">      0.01000000</i>
   </separator>
   <separator name="electronic projectors" >
    <i type="logical" name="LREAL"> F  </i>
    <v name="ROPT">      0.00000000</v>
    <i type="int" name="LMAXPAW">  -100</i>
    <i type="int" name="LMAXMIX">     2</i>
   </separator>
   <separator name="electronic startup" >
    <i type="int" name="ISTART">     0</i>
    <i type="int" name="ICHARG">     2</i>
    <i type="int" name="INIWAV">     1</i>
   </separator>
   <separator name="electronic spin" >
    <i type="int" name="ISPIN">     1</i>
    <i type="logical" name="LNONCOLLINEAR"> F  </i>
    <v name="MAGMOM">      1.00000000      1.00000000      1.00000000      1.00000000</v>
    <i name="NUPDOWN">     -1.00000000</i>
    <i type="logical" name="LSORBIT"> F  </i>
    <v name="SAXIS">      0.00000000      0.00000000      1.00000000</v>
    <i type="logical" name="LSPIRAL"> F  </i>
    <v name="QSPIRAL">      0.00000000      0.00000000      0.00000000</v>
    <i type="logical" name="LZEROZ"> F  </i>
   </separator>
   <separator name="electronic exchange-correlation" >
    <i type="string" name="GGA">--</i>
    <i type="int" name="VOSKOWN">     0</i>
    <i type="logical" name="LASPH"> F  </i>
    <i type="logical" name="LMETAGGA"> F  </i>
    <i type="string" name="GGA2">--</i>
   </separator>
   <separator name="electronic convergence" >
    <i type="int" name="NELM">    60</i>
    <i type="int" name="NELMDL">    -5</i>
    <i type="int" name="NELMIN">     2</i>
    <i name="ENINI">    800.00000000</i>
    <separator name="electronic convergence detail" >
     <i type="logical" name="LDIAG"> T  </i>
     <i name="WEIMIN">      0.00000000</i>
     <i name="EBREAK">      0.00000000</i>
     <i name="DEPER">      0.30000000</i>
     <i type="int" name="NRMM">     4</i>
     <i name="TIME">      0.10000000</i>
    </separator>
   </separator>
   <separator name="electronic mixer" >
    <i name="AMIX">      0.40000000</i>
    <i name="BMIX">      1.00000000</i>
    <i name="AMIN">      0.10000000</i>
    <i name="AMIX_MAG">      1.60000000</i>
    <i name="BMIX_MAG">      1.00000000</i>
    <separator name="electronic mixer details" >
     <i type="int" name="IMIX">     4</i>
     <i type="int" name="MAXMIX">   -45</i>
     <i name="WC">    100.00000000</i>
     <i type="int" name="INIMIX">     1</i>
     <i type="int" name="MIXPRE">     1</i>
     <i type="int" name="MREMOVE">     5</i>
    </separator>
   </separator>
   <separator name="electronic dipolcorrection" >
    <i type="int" name="IDIPOL">     0</i>
    <i type="logical" name="LDIPOL"> F  </i>
    <v name="DIPOL">   -100.00000000</v>
    <i name="EFIELD">      0.00000000</i>
   </separator>
  </separator>
  <separator name="grids" >
   <i type="int" name="NGX">    36</i>
   <i type="int" name="NGY">    36</i>
   <i type="int" name="NGZ">    36</i>
   <i type="int" name="NGXF">    72</i>
   <i type="int" name="NGYF">    72</i>
   <i type="int" name="NGZF">    72</i>
   <i type="logical" name="ADDGRID"> T  </i>
  </separator>
  <separator name="ionic" >
   <i type="int" name="NSW">     0</i>
   <i type="int" name="IBRION">    -1</i>
   <i type="int" name="ISIF">     2</i>
   <i name="PSTRESS">      0.00000000</i>
   <i name="EDIFFG">      0.00000010</i>
   <i type="int" name="NFREE">     0</i>
   <i name="POTIM">      0.50000000</i>
   <i name="SMASS">     -3.00000000</i>
  </separator>
  <separator name="ionic md" >
   <i name="TEBEG">      0.00010000</i>
   <i name="TEEND">      0.00010000</i>
   <i type="int" name="NBLOCK">     1</i>
   <i type="int" name="KBLOCK">     1</i>
   <i type="int" name="NPACO">   256</i>
   <i name="APACO">     16.00000000</i>
  </separator>
  <separator name="symmetry" >
   <i type="int" name="ISYM">     2</i>
   <i name="SYMPREC">      0.00001000</i>
  </separator>
  <separator name="dos" >
   <i type="logical" name="LORBIT"> F  </i>
   <v name="RWIGS">     -1.00000000</v>
   <i type="int" name="NEDOS">   301</i>
   <i name="EMIN">     10.00000000</i>
   <i name="EMAX">    -10.00000000</i>
  </separator>
  <separator name="writing" >
   <i type="int" name="NWRITE">     2</i>
   <i type="logical" name="LWAVE"> F  </i>
   <i type="logical" name="LCHARG"> F  </i>
   <i type="logical" name="LPARD"> F  </i>
   <i type="logical" name="LVTOT"> F  </i>
   <i type="logical" name="LELF"> F  </i>
   <i type="logical" name="LOPTICS"> F  </i>
   <i name="STM">      0.00000000</i>
  </separator>
  <separator name="performance" >
   <i type="int" name="NPAR">     8</i>
   <i type="int" name="NSIM">     4</i>
   <i type="int" name="NBLK">   256</i>
   <i type="logical" name="LPLANE"> T  </i>
   <i type="logical" name="LCRITICAL_MEM"> F  </i>
   <i type="logical" name="LSCALAPACK"> F  </i>
   <i type="logical" name="LSCALU"> F  </i>
   <i type="logical" name="LASYNC"> F  </i>
  </separator>
  <separator name="miscellaneous" >
   <i type="int" name="IDIOT">     3</i>
   <i type="logical" name="LMUSIC"> F  </i>
   <v name="POMASS">     63.54600000</v>
   <i type="logical" name="LCORR"> T  </i>
  </separator>
  <i type="logical" name="LREAL_COMPAT"> F  </i>
  <i type="logical" name="GGA_COMPAT"> T  </i>
  <i type="logical" name="LBERRY"> F  </i>
  <i type="int" name="ICORELEVEL">     0</i>
  <i type="logical" name="LDAU"> F  </i>
  <i type="int" name="I_CONSTRAINED_M">     0</i>
 </parameters>
 <atominfo>
  <atoms>       4</atoms>
  <types>       1</types>
  <array name="atoms" >
   <dimension dim="1">ion</dimension>
   <field type="string">element</field>
   <field type="int">atomtype</field>
   <set>
    <rc><c>Cu</c><c>   1</c></rc>
    <rc><c>Cu</c><c>   1</c></rc>
    <rc><c>Cu</c><c>   1</c></rc>
    <rc><c>Cu</c><c>   1</c></rc>
   </set>
  </array>
  <array name="atomtypes" >
   <dimension dim="1">type</dimension>
   <field type="int">atomspertype</field>
   <field type="string">element</field>
   <field>mass</field>
   <field>valence</field>
   <field type="string">pseudopotential</field>
   <set>
    <rc><c>   4</c><c>Cu</c><c>     63.54600000</c><c>     11.00000000</c><c> PAW_PBE Cu 05Jan2001                   </c></rc>
   </set>
  </array>
 </atominfo>
 <structure name="initialpos" >
  <crystal>
   <varray name="basis" >
    <v>       3.63682423      0.00000000      0.00000000</v>
    <v>       0.00000000      3.63682423      0.00000000</v>
    <v>       0.00000000      0.00000000      3.63682423</v>
   </varray>
   <i name="volume">     48.10242086</i>
   <varray name="rec_basis" >
    <v>       0.27496517      0.00000000      0.00000000</v>
    <v>       0.00000000      0.27496517      0.00000000</v>
    <v>       0.00000000      0.00000000      0.27496517</v>
   </varray>
  </crystal>
  <varray name="positions" >
   <v>       0.00000000      0.00000000      0.00000000</v>
   <v>       0.50000000      0.50000000      0.00000000</v>
   <v>       0.50000000      0.00000000      0.50000000</v>
   <v>       0.00000000      0.50000000      0.50000000</v>
  </varray>
 </structure>
 <calculation>
  <scstep>
   <time name="dav">   59.84   60.17</time>
   <time name="total">   60.50   60.84</time>
   <energy>
    <i name="alphaZ">    424.96822640</i>
    <i name="ewald">  -4393.14368526</i>
    <i name="hartreedc">  -1318.74565501</i>
    <i name="XCdc">    175.40826241</i>
    <i name="pawpsdc">   4328.20916945</i>
    <i name="pawaedc">  -4904.30802700</i>
    <i name="eentropy">     -0.00006199</i>
    <i name="bandstr">    455.08552501</i>
    <i name="atom">   5563.91759264</i>
    <i name="e_fr_energy">    331.39134663</i>
    <i name="e_wo_entrp">    331.39140862</i>
    <i name="e_0_energy">    331.39137763</i>
   </energy>
  </scstep>
  <scstep>
   <time name="dav">   58.66   58.86</time>
   <time name="total">   58.69   58.89</time>
   <energy>
    <i name="e_fr_energy">      6.45615730</i>
    <i name="e_wo_entrp">      6.45632374</i>
    <i name="e_0_energy">      6.45624052</i>
   </energy>
  </scstep>
  <scstep>
   <time name="dav">   62.67   62.97</time>
   <time name="total">   62.69   63.00</time>
   <energy>
    <i name="e_fr_energy">    -18.01341678</i>
    <i name="e_wo_entrp">    -18.01330117</i>
    <i name="e_0_energy">    -18.01335898</i>
   </energy>
  </scstep>
  <scstep>
   <time name="dav">   63.07   63.51</time>
   <time name="total">   63.10   63.54</time>
   <energy>
    <i name="e_fr_energy">    -18.33866344</i>
    <i name="e_wo_entrp">    -18.33856262</i>
    <i name="e_0_energy">    -18.33861303</i>
   </energy>
  </scstep>
  <scstep>
   <time name="dav">   63.95   64.07</time>
   <time name="total">   65.84   65.99</time>
   <energy>
    <i name="e_fr_energy">    -18.33926726</i>
    <i name="e_wo_entrp">    -18.33916645</i>
    <i name="e_0_energy">    -18.33921686</i>
   </energy>
  </scstep>
  <scstep>
   <time name="dav">   62.59   62.84</time>
   <time name="total">   65.14   65.40</time>
   <energy>
    <i name="e_fr_energy">    -16.19100591</i>
    <i name="e_wo_entrp">    -16.19098077</i>
    <i name="e_0_energy">    -16.19099334</i>
   </energy>
  </scstep>
  <scstep>
   <time name="dav">   64.21   64.47</time>
   <time name="total">   66.72   67.00</time>
   <energy>
    <i name="e_fr_energy">    -14.91906112</i>
    <i name="e_wo_entrp">    -14.91899455</i>
    <i name="e_0_energy">    -14.91902784</i>
   </energy>
  </scstep>
  <scstep>
   <time name="dav">   61.71   62.10</time>
   <time name="total">   64.23   64.64</time>
   <energy>
    <i name="e_fr_energy">    -14.88068465</i>
    <i name="e_wo_entrp">    -14.88061680</i>
    <i name="e_0_energy">    -14.88065072</i>
   </energy>
  </scstep>
  <scstep>
   <time name="dav">   66.63   66.74</time>
   <time name="total">   69.21   69.33</time>
   <energy>
    <i name="e_fr_energy">    -14.87235953</i>
    <i name="e_wo_entrp">    -14.87224439</i>
    <i name="e_0_energy">    -14.87230196</i>
   </energy>
  </scstep>
  <scstep>
   <time name="dav">   61.75   62.14</time>
   <time name="total">   64.27   64.70</time>
   <energy>
    <i name="e_fr_energy">    -14.87244275</i>
    <i name="e_wo_entrp">    -14.87232611</i>
    <i name="e_0_energy">    -14.87238443</i>
   </energy>
  </scstep>
  <scstep>
   <time name="dav">   66.98   67.41</time>
   <time name="total">   69.55   69.99</time>
   <energy>
    <i name="e_fr_energy">    -14.87244023</i>
    <i name="e_wo_entrp">    -14.87232500</i>
    <i name="e_0_energy">    -14.87238262</i>
   </energy>
  </scstep>
  <scstep>
   <time name="dav">   64.95   65.35</time>
   <time name="total">   67.51   67.94</time>
   <energy>
    <i name="e_fr_energy">    -14.87244459</i>
    <i name="e_wo_entrp">    -14.87232850</i>
    <i name="e_0_energy">    -14.87238655</i>
   </energy>
  </scstep>
  <scstep>
   <time name="dav">   58.84   59.21</time>
   <time name="total">   61.45   61.83</time>
   <energy>
    <i name="e_fr_energy">    -14.87244498</i>
    <i name="e_wo_entrp">    -14.87232898</i>
    <i name="e_0_energy">    -14.87238698</i>
   </energy>
  </scstep>
  <scstep>
   <time name="dav">   44.76   44.91</time>
   <time name="total">   47.25   47.41</time>
   <energy>
    <i name="e_fr_energy">    -14.87244507</i>
    <i name="e_wo_entrp">    -14.87232914</i>
    <i name="e_0_energy">    -14.87238710</i>
   </energy>
  </scstep>
  <scstep>
   <time name="dav">   43.46   43.75</time>
   <time name="total">   46.01   46.31</time>
   <energy>
    <i name="e_fr_energy">    -14.87244504</i>
    <i name="e_wo_entrp">    -14.87232911</i>
    <i name="e_0_energy">    -14.87238707</i>
   </energy>
  </scstep>
  <scstep>
   <time name="dav">   42.49   42.55</time>
   <time name="total">   43.14   43.22</time>
   <energy>
    <i name="alphaZ">    424.96822640</i>
    <i name="ewald">  -4393.14368526</i>
    <i name="hartreedc">  -1231.02098276</i>
    <i name="XCdc">    171.08863226</i>
    <i name="pawpsdc">   4382.95594323</i>
    <i name="pawaedc">  -4961.68762691</i>
    <i name="eentropy">     -0.00011593</i>
    <i name="bandstr">     28.04957129</i>
    <i name="atom">   5563.91759264</i>
    <i name="e_fr_energy">    -14.87244504</i>
    <i name="e_wo_entrp">    -14.87232911</i>
    <i name="e_0_energy">    -14.87238708</i>
   </energy>
  </scstep>
  <structure>
   <crystal>
    <varray name="basis" >
     <v>       3.63682423      0.00000000      0.00000000</v>
     <v>       0.00000000      3.63682423      0.00000000</v>
     <v>       0.00000000      0.00000000      3.63682423</v>
    </varray>
    <i name="volume">     48.10242086</i>
    <varray name="rec_basis" >
     <v>       0.27496517      0.00000000      0.00000000</v>
     <v>       0.00000000      0.27496517      0.00000000</v>
     <v>       0.00000000      0.00000000      0.27496517</v>
    </varray>
   </crystal>
   <varray name="positions" >
    <v>       0.00000000      0.00000000      0.00000000</v>
    <v>       0.50000000      0.50000000      0.00000000</v>
    <v>       0.50000000      0.00000000      0.50000000</v>
    <v>       0.00000000      0.50000000      0.50000000</v>
   </varray>
  </structure>
  <varray name="forces" >
   <v>      -0.00000000      0.00000000      0.00000000</v>
   <v>       0.00000000     -0.00000000     -0.00000000</v>
   <v>       0.00000000      0.00000000      0.00000000</v>
   <v>      -0.00000000      0.00000000      0.00000000</v>
  </varray>
  <varray name="stress" >
   <v>       0.04889376     -0.00000000      0.00000000</v>
   <v>       0.00000000      0.04889376     -0.00000000</v>
   <v>       0.00000000      0.00000000      0.04889376</v>
  </varray>
  <energy>
   <i name="e_fr_energy">    -14.87244504</i>
   <i name="e_wo_entrp">    -14.87238708</i>
   <i name="e_0_energy">     -0.00011593</i>
  </energy>
  <eigenvalues>
   <array>
    <dimension dim="1">band</dimension>
    <dimension dim="2">kpoint</dimension>
    <dimension dim="3">spin</dimension>
    <field>eigene</field>
    <field>occ</field>
    <set>
     <set comment="spin 1">
      <set comment="kpoint 1">
       <r>  -5.5737  1.0000</r>
       <r>  -1.1521  1.0000</r>
       <r>  -1.1521  1.0000</r>
       <r>  -1.1521  1.0000</r>
       <r>  -0.7115  1.0000</r>
       <r>  -0.7115  1.0000</r>
       <r>  -0.7115  1.0000</r>
       <r>   0.6411  1.0000</r>
       <r>   0.6411  1.0000</r>
       <r>   0.6411  1.0000</r>
       <r>   1.4461  1.0000</r>
       <r>   1.4461  1.0000</r>
       <r>   1.9808  1.0000</r>
       <r>   1.9808  1.0000</r>
       <r>   1.9808  1.0000</r>
       <r>   2.1307  1.0000</r>
       <r>   2.1307  1.0000</r>
       <r>   2.1307  1.0000</r>
       <r>   2.1307  1.0000</r>
       <r>   2.1307  1.0000</r>
       <r>   2.1307  1.0000</r>
       <r>   5.1629  0.0000</r>
       <r>   5.1629  0.0000</r>
       <r>   5.1629  0.0000</r>
       <r>  10.6308  0.0000</r>
       <r>  10.6308  0.0000</r>
       <r>  10.6308  0.0000</r>
       <r>  16.6659  0.0000</r>
       <r>  16.6659  0.0000</r>
       <r>  16.6659  0.0000</r>
       <r>  16.6659  0.0000</r>
       <r>  16.6659  0.0000</r>
      </set>
      <set comment="kpoint 2">
       <r>  -5.5528  1.0000</r>
       <r>  -1.1521  1.0000</r>
       <r>  -1.1424  1.0000</r>
       <r>  -1.1424  1.0000</r>
       <r>  -0.7060  1.0000</r>
       <r>  -0.7057  1.0000</r>
       <r>  -0.7057  1.0000</r>
       <r>   0.6350  1.0000</r>
       <r>   0.6459  1.0000</r>
       <r>   0.6459  1.0000</r>
       <r>   1.4406  1.0000</r>
       <r>   1.4483  1.0000</r>
       <r>   1.9737  1.0000</r>
       <r>   1.9737  1.0000</r>
       <r>   1.9785  1.0000</r>
       <r>   2.0933  1.0000</r>
       <r>   2.0933  1.0000</r>
       <r>   2.1223  1.0000</r>
       <r>   2.1223  1.0000</r>
       <r>   2.1308  1.0000</r>
       <r>   2.1308  1.0000</r>
       <r>   5.0202  0.0000</r>
       <r>   5.2190  0.0000</r>
       <r>   5.2190  0.0000</r>
       <r>  10.6386  0.0000</r>
       <r>  10.6386  0.0000</r>
       <r>  10.8151  0.0000</r>
       <r>  16.5084  0.0000</r>
       <r>  16.5084  0.0000</r>
       <r>  16.5683  0.0000</r>
       <r>  16.5683  0.0000</r>
       <r>  16.6965  0.0000</r>
      </set>
      <set comment="kpoint 3">
       <r>  -5.4903  1.0000</r>
       <r>  -1.1531  1.0000</r>
       <r>  -1.1135  1.0000</r>
       <r>  -1.1135  1.0000</r>
       <r>  -0.6896  1.0000</r>
       <r>  -0.6883  1.0000</r>
       <r>  -0.6883  1.0000</r>
       <r>   0.6168  1.0000</r>
       <r>   0.6606  1.0000</r>
       <r>   0.6606  1.0000</r>
       <r>   1.4241  1.0000</r>
       <r>   1.4550  1.0000</r>
       <r>   1.9524  1.0000</r>
       <r>   1.9524  1.0000</r>
       <r>   1.9715  1.0000</r>
       <r>   1.9887  1.0000</r>
       <r>   1.9887  1.0000</r>
       <r>   2.0972  1.0000</r>
       <r>   2.0972  1.0000</r>
       <r>   2.1308  1.0000</r>
       <r>   2.1308  1.0000</r>
       <r>   4.6419  0.0000</r>
       <r>   5.3797  0.0000</r>
       <r>   5.3797  0.0000</r>
       <r>  10.6623  0.0000</r>
       <r>  10.6623  0.0000</r>
       <r>  11.3188  0.0000</r>
       <r>  16.0965  0.0000</r>
       <r>  16.0965  0.0000</r>
       <r>  16.2983  0.0000</r>
       <r>  16.2983  0.0000</r>
       <r>  16.7877  0.0000</r>
      </set>
      <set comment="kpoint 4">
       <r>  -5.3864  1.0000</r>
       <r>  -1.1580  1.0000</r>
       <r>  -1.0666  1.0000</r>
       <r>  -1.0666  1.0000</r>
       <r>  -0.6625  1.0000</r>
       <r>  -0.6593  1.0000</r>
       <r>  -0.6593  1.0000</r>
       <r>   0.5870  1.0000</r>
       <r>   0.6849  1.0000</r>
       <r>   0.6849  1.0000</r>
       <r>   1.3972  1.0000</r>
       <r>   1.4660  1.0000</r>
       <r>   1.8348  1.0000</r>
       <r>   1.8348  1.0000</r>
       <r>   1.9175  1.0000</r>
       <r>   1.9175  1.0000</r>
       <r>   1.9601  1.0000</r>
       <r>   2.0563  1.0000</r>
       <r>   2.0563  1.0000</r>
       <r>   2.1309  1.0000</r>
       <r>   2.1309  1.0000</r>
       <r>   4.1256  0.0000</r>
       <r>   5.6270  0.0000</r>
       <r>   5.6270  0.0000</r>
       <r>  10.7024  0.0000</r>
       <r>  10.7024  0.0000</r>
       <r>  12.0468  0.0000</r>
       <r>  15.5374  0.0000</r>
       <r>  15.5374  0.0000</r>
       <r>  15.9077  0.0000</r>
       <r>  15.9077  0.0000</r>
       <r>  16.9387  0.0000</r>
      </set>
      <set comment="kpoint 5">
       <r>  -5.2418  1.0000</r>
       <r>  -1.1723  1.0000</r>
       <r>  -1.0032  1.0000</r>
       <r>  -1.0032  1.0000</r>
       <r>  -0.6251  1.0000</r>
       <r>  -0.6184  1.0000</r>
       <r>  -0.6184  1.0000</r>
       <r>   0.5460  1.0000</r>
       <r>   0.7187  1.0000</r>
       <r>   0.7187  1.0000</r>
       <r>   1.3607  1.0000</r>
       <r>   1.4812  1.0000</r>
       <r>   1.6503  1.0000</r>
       <r>   1.6503  1.0000</r>
       <r>   1.8698  1.0000</r>
       <r>   1.8698  1.0000</r>
       <r>   1.9443  1.0000</r>
       <r>   2.0010  1.0000</r>
       <r>   2.0010  1.0000</r>
       <r>   2.1309  1.0000</r>
       <r>   2.1309  1.0000</r>
       <r>   3.5526  1.0000</r>
       <r>   5.9420  0.0000</r>
       <r>   5.9420  0.0000</r>
       <r>  10.7599  0.0000</r>
       <r>  10.7599  0.0000</r>
       <r>  12.9220  0.0000</r>
       <r>  14.9070  0.0000</r>
       <r>  14.9070  0.0000</r>
       <r>  15.4490  0.0000</r>
       <r>  15.4490  0.0000</r>
       <r>  17.1479  0.0000</r>
      </set>
      <set comment="kpoint 6">
       <r>  -5.0573  1.0000</r>
       <r>  -1.2047  1.0000</r>
       <r>  -0.9260  1.0000</r>
       <r>  -0.9260  1.0000</r>
       <r>  -0.5781  1.0000</r>
       <r>  -0.5656  1.0000</r>
       <r>  -0.5656  1.0000</r>
       <r>   0.4947  1.0000</r>
       <r>   0.7617  1.0000</r>
       <r>   0.7617  1.0000</r>
       <r>   1.3157  1.0000</r>
       <r>   1.4503  1.0000</r>
       <r>   1.4503  1.0000</r>
       <r>   1.5003  1.0000</r>
       <r>   1.8108  1.0000</r>
       <r>   1.8108  1.0000</r>
       <r>   1.9245  1.0000</r>
       <r>   1.9331  1.0000</r>
       <r>   1.9331  1.0000</r>
       <r>   2.1310  1.0000</r>
       <r>   2.1310  1.0000</r>
       <r>   2.9775  1.0000</r>
       <r>   6.3095  0.0000</r>
       <r>   6.3095  0.0000</r>
       <r>  10.8359  0.0000</r>
       <r>  10.8359  0.0000</r>
       <r>  13.8972  0.0000</r>
       <r>  14.2465  0.0000</r>
       <r>  14.2465  0.0000</r>
       <r>  14.9621  0.0000</r>
       <r>  14.9621  0.0000</r>
       <r>  17.4132  0.0000</r>
      </set>
      <set comment="kpoint 7">
       <r>  -4.8341  1.0000</r>
       <r>  -1.2677  1.0000</r>
       <r>  -0.8384  1.0000</r>
       <r>  -0.8384  1.0000</r>
       <r>  -0.5220  1.0000</r>
       <r>  -0.5007  1.0000</r>
       <r>  -0.5007  1.0000</r>
       <r>   0.4341  1.0000</r>
       <r>   0.8138  1.0000</r>
       <r>   0.8138  1.0000</r>
       <r>   1.2450  1.0000</r>
       <r>   1.2450  1.0000</r>
       <r>   1.2640  1.0000</r>
       <r>   1.5230  1.0000</r>
       <r>   1.7427  1.0000</r>
       <r>   1.7427  1.0000</r>
       <r>   1.8547  1.0000</r>
       <r>   1.8547  1.0000</r>
       <r>   1.9011  1.0000</r>
       <r>   2.1311  1.0000</r>
       <r>   2.1311  1.0000</r>
       <r>   2.4387  1.0000</r>
       <r>   6.7191  0.0000</r>
       <r>   6.7191  0.0000</r>
       <r>  10.9319  0.0000</r>
       <r>  10.9319  0.0000</r>
       <r>  13.5774  0.0000</r>
       <r>  13.5774  0.0000</r>
       <r>  14.4740  0.0000</r>
       <r>  14.4740  0.0000</r>
       <r>  14.9445  0.0000</r>
       <r>  17.7321  0.0000</r>
      </set>
      <set comment="kpoint 8">
       <r>  -4.5739  1.0000</r>
       <r>  -1.3778  1.0000</r>
       <r>  -0.7449  1.0000</r>
       <r>  -0.7449  1.0000</r>
       <r>  -0.4577  1.0000</r>
       <r>  -0.4234  1.0000</r>
       <r>  -0.4234  1.0000</r>
       <r>   0.3654  1.0000</r>
       <r>   0.8745  1.0000</r>
       <r>   0.8745  1.0000</r>
       <r>   1.0412  1.0000</r>
       <r>   1.0412  1.0000</r>
       <r>   1.2077  1.0000</r>
       <r>   1.5489  1.0000</r>
       <r>   1.6686  1.0000</r>
       <r>   1.6686  1.0000</r>
       <r>   1.7679  1.0000</r>
       <r>   1.7679  1.0000</r>
       <r>   1.8744  1.0000</r>
       <r>   1.9667  1.0000</r>
       <r>   2.1312  1.0000</r>
       <r>   2.1312  1.0000</r>
       <r>   7.1635  0.0000</r>
       <r>   7.1635  0.0000</r>
       <r>  11.0498  0.0000</r>
       <r>  11.0498  0.0000</r>
       <r>  12.9113  0.0000</r>
       <r>  12.9113  0.0000</r>
       <r>  14.0021  0.0000</r>
       <r>  14.0021  0.0000</r>
       <r>  16.0466  0.0000</r>
       <r>  18.1021  0.0000</r>
      </set>
      <set comment="kpoint 9">
       <r>  -4.2790  1.0000</r>
       <r>  -1.5511  1.0000</r>
       <r>  -0.6513  1.0000</r>
       <r>  -0.6513  1.0000</r>
       <r>  -0.3863  1.0000</r>
       <r>  -0.3335  1.0000</r>
       <r>  -0.3335  1.0000</r>
       <r>   0.2897  1.0000</r>
       <r>   0.8433  1.0000</r>
       <r>   0.8433  1.0000</r>
       <r>   0.9433  1.0000</r>
       <r>   0.9433  1.0000</r>
       <r>   1.1498  1.0000</r>
       <r>   1.5777  1.0000</r>
       <r>   1.5862  1.0000</r>
       <r>   1.5931  1.0000</r>
       <r>   1.5931  1.0000</r>
       <r>   1.6750  1.0000</r>
       <r>   1.6750  1.0000</r>
       <r>   1.8450  1.0000</r>
       <r>   2.1313  1.0000</r>
       <r>   2.1313  1.0000</r>
       <r>   7.6380  0.0000</r>
       <r>   7.6380  0.0000</r>
       <r>  11.1910  0.0000</r>
       <r>  11.1910  0.0000</r>
       <r>  12.2546  0.0000</r>
       <r>  12.2546  0.0000</r>
       <r>  13.5577  0.0000</r>
       <r>  13.5577  0.0000</r>
       <r>  17.1913  0.0000</r>
       <r>  18.5204  0.0000</r>
      </set>
      <set comment="kpoint 10">
       <r>  -3.9526  1.0000</r>
       <r>  -1.7962  1.0000</r>
       <r>  -0.5648  1.0000</r>
       <r>  -0.5648  1.0000</r>
       <r>  -0.3088  1.0000</r>
       <r>  -0.2309  1.0000</r>
       <r>  -0.2309  1.0000</r>
       <r>   0.2086  1.0000</r>
       <r>   0.6542  1.0000</r>
       <r>   0.6542  1.0000</r>
       <r>   1.0195  1.0000</r>
       <r>   1.0195  1.0000</r>
       <r>   1.0944  1.0000</r>
       <r>   1.3100  1.0000</r>
       <r>   1.5220  1.0000</r>
       <r>   1.5220  1.0000</r>
       <r>   1.5783  1.0000</r>
       <r>   1.5783  1.0000</r>
       <r>   1.6088  1.0000</r>
       <r>   1.8134  1.0000</r>
       <r>   2.1314  1.0000</r>
       <r>   2.1314  1.0000</r>
       <r>   8.1394  0.0000</r>
       <r>   8.1394  0.0000</r>
       <r>  11.3569  0.0000</r>
       <r>  11.3569  0.0000</r>
       <r>  11.6115  0.0000</r>
       <r>  11.6115  0.0000</r>
       <r>  13.1484  0.0000</r>
       <r>  13.1484  0.0000</r>
       <r>  18.3684  0.0000</r>
       <r>  18.9842  0.0000</r>
      </set>
      <set comment="kpoint 11">
       <r>  -3.5994  1.0000</r>
       <r>  -2.1065  1.0000</r>
       <r>  -0.4936  1.0000</r>
       <r>  -0.4936  1.0000</r>
       <r>  -0.2264  1.0000</r>
       <r>  -0.1154  1.0000</r>
       <r>  -0.1154  1.0000</r>
       <r>   0.1234  1.0000</r>
       <r>   0.4757  1.0000</r>
       <r>   0.4757  1.0000</r>
       <r>   1.0466  1.0000</r>
       <r>   1.1025  1.0000</r>
       <r>   1.1025  1.0000</r>
       <r>   1.1342  1.0000</r>
       <r>   1.4627  1.0000</r>
       <r>   1.4627  1.0000</r>
       <r>   1.4797  1.0000</r>
       <r>   1.4797  1.0000</r>
       <r>   1.6417  1.0000</r>
       <r>   1.7800  1.0000</r>
       <r>   2.1314  1.0000</r>
       <r>   2.1314  1.0000</r>
       <r>   8.6653  0.0000</r>
       <r>   8.6653  0.0000</r>
       <r>  10.9842  0.0000</r>
       <r>  10.9842  0.0000</r>
       <r>  11.5461  0.0000</r>
       <r>  11.5461  0.0000</r>
       <r>  12.7815  0.0000</r>
       <r>  12.7815  0.0000</r>
       <r>  19.4907  0.0000</r>
       <r>  19.4909  0.0000</r>
      </set>
      <set comment="kpoint 12">
       <r>  -3.2261  1.0000</r>
       <r>  -2.4629  1.0000</r>
       <r>  -0.4463  1.0000</r>
       <r>  -0.4463  1.0000</r>
       <r>  -0.1406  1.0000</r>
       <r>   0.0131  1.0000</r>
       <r>   0.0131  1.0000</r>
       <r>   0.0358  1.0000</r>
       <r>   0.3089  1.0000</r>
       <r>   0.3089  1.0000</r>
       <r>   1.0141  1.0000</r>
       <r>   1.0407  1.0000</r>
       <r>   1.1912  1.0000</r>
       <r>   1.1912  1.0000</r>
       <r>   1.3812  1.0000</r>
       <r>   1.3812  1.0000</r>
       <r>   1.4228  1.0000</r>
       <r>   1.4228  1.0000</r>
       <r>   1.6758  1.0000</r>
       <r>   1.7456  1.0000</r>
       <r>   2.1315  1.0000</r>
       <r>   2.1315  1.0000</r>
       <r>   9.2141  0.0000</r>
       <r>   9.2141  0.0000</r>
       <r>  10.3747  0.0000</r>
       <r>  10.3747  0.0000</r>
       <r>  11.7463  0.0000</r>
       <r>  11.7463  0.0000</r>
       <r>  12.4732  0.0000</r>
       <r>  12.4732  0.0000</r>
       <r>  20.0374  0.0000</r>
       <r>  20.0374  0.0000</r>
      </set>
      <set comment="kpoint 13">
       <r>  -2.8426  1.0000</r>
       <r>  -2.8426  1.0000</r>
       <r>  -0.4296  1.0000</r>
       <r>  -0.4296  1.0000</r>
       <r>  -0.0527  1.0000</r>
       <r>  -0.0527  1.0000</r>
       <r>   0.1546  1.0000</r>
       <r>   0.1546  1.0000</r>
       <r>   0.1546  1.0000</r>
       <r>   0.1546  1.0000</r>
       <r>   1.0072  1.0000</r>
       <r>   1.0072  1.0000</r>
       <r>   1.2845  1.0000</r>
       <r>   1.2845  1.0000</r>
       <r>   1.2845  1.0000</r>
       <r>   1.2845  1.0000</r>
       <r>   1.4086  1.0000</r>
       <r>   1.4086  1.0000</r>
       <r>   1.7107  1.0000</r>
       <r>   1.7107  1.0000</r>
       <r>   2.1315  1.0000</r>
       <r>   2.1315  1.0000</r>
       <r>   9.7843  0.0000</r>
       <r>   9.7843  0.0000</r>
       <r>   9.7843  0.0000</r>
       <r>   9.7843  0.0000</r>
       <r>  11.8692  0.0000</r>
       <r>  11.8692  0.0000</r>
       <r>  12.3141  0.0000</r>
       <r>  12.3141  0.0000</r>
       <r>  20.6215  0.0000</r>
       <r>  20.6215  0.0000</r>
      </set>
      <set comment="kpoint 14">
       <r>  -5.5319  1.0000</r>
       <r>  -1.1423  1.0000</r>
       <r>  -1.1423  1.0000</r>
       <r>  -1.1327  1.0000</r>
       <r>  -0.7002  1.0000</r>
       <r>  -0.7002  1.0000</r>
       <r>  -0.6999  1.0000</r>
       <r>   0.6314  1.0000</r>
       <r>   0.6483  1.0000</r>
       <r>   0.6507  1.0000</r>
       <r>   1.4389  1.0000</r>
       <r>   1.4468  1.0000</r>
       <r>   1.9666  1.0000</r>
       <r>   1.9705  1.0000</r>
       <r>   1.9705  1.0000</r>
       <r>   2.0625  1.0000</r>
       <r>   2.0851  1.0000</r>
       <r>   2.0851  1.0000</r>
       <r>   2.1223  1.0000</r>
       <r>   2.1223  1.0000</r>
       <r>   2.1254  1.0000</r>
       <r>   5.0760  0.0000</r>
       <r>   5.0760  0.0000</r>
       <r>   5.2739  0.0000</r>
       <r>  10.6465  0.0000</r>
       <r>  10.8238  0.0000</r>
       <r>  10.8238  0.0000</r>
       <r>  16.1385  0.0000</r>
       <r>  16.5383  0.0000</r>
       <r>  16.5383  0.0000</r>
       <r>  16.5983  0.0000</r>
       <r>  16.5983  0.0000</r>
      </set>
      <set comment="kpoint 15">
       <r>  -5.4695  1.0000</r>
       <r>  -1.1431  1.0000</r>
       <r>  -1.1133  1.0000</r>
       <r>  -1.1040  1.0000</r>
       <r>  -0.6839  1.0000</r>
       <r>  -0.6829  1.0000</r>
       <r>  -0.6827  1.0000</r>
       <r>   0.6147  1.0000</r>
       <r>   0.6616  1.0000</r>
       <r>   0.6650  1.0000</r>
       <r>   1.4242  1.0000</r>
       <r>   1.4521  1.0000</r>
       <r>   1.9408  1.0000</r>
       <r>   1.9456  1.0000</r>
       <r>   1.9607  1.0000</r>
       <r>   1.9640  1.0000</r>
       <r>   1.9878  1.0000</r>
       <r>   2.0612  1.0000</r>
       <r>   2.0972  1.0000</r>
       <r>   2.1223  1.0000</r>
       <r>   2.1224  1.0000</r>
       <r>   4.6975  0.0000</r>
       <r>   5.2352  0.0000</r>
       <r>   5.4315  0.0000</r>
       <r>  10.6702  0.0000</r>
       <r>  10.8501  0.0000</r>
       <r>  11.3294  0.0000</r>
       <r>  15.6041  0.0000</r>
       <r>  16.1251  0.0000</r>
       <r>  16.3272  0.0000</r>
       <r>  16.6276  0.0000</r>
       <r>  16.6620  0.0000</r>
      </set>
      <set comment="kpoint 16">
       <r>  -5.3657  1.0000</r>
       <r>  -1.1478  1.0000</r>
       <r>  -1.0661  1.0000</r>
       <r>  -1.0574  1.0000</r>
       <r>  -0.6569  1.0000</r>
       <r>  -0.6540  1.0000</r>
       <r>  -0.6539  1.0000</r>
       <r>   0.5854  1.0000</r>
       <r>   0.6855  1.0000</r>
       <r>   0.6886  1.0000</r>
       <r>   1.3978  1.0000</r>
       <r>   1.4633  1.0000</r>
       <r>   1.8148  1.0000</r>
       <r>   1.8159  1.0000</r>
       <r>   1.9110  1.0000</r>
       <r>   1.9227  1.0000</r>
       <r>   1.9420  1.0000</r>
       <r>   2.0241  1.0000</r>
       <r>   2.0563  1.0000</r>
       <r>   2.1216  1.0000</r>
       <r>   2.1223  1.0000</r>
       <r>   4.1828  0.0000</r>
       <r>   5.4792  0.0000</r>
       <r>   5.6749  0.0000</r>
       <r>  10.7104  0.0000</r>
       <r>  10.8947  0.0000</r>
       <r>  12.0591  0.0000</r>
       <r>  14.9971  0.0000</r>
       <r>  15.5648  0.0000</r>
       <r>  15.9352  0.0000</r>
       <r>  16.3886  0.0000</r>
       <r>  16.7752  0.0000</r>
      </set>
      <set comment="kpoint 17">
       <r>  -5.2213  1.0000</r>
       <r>  -1.1616  1.0000</r>
       <r>  -1.0023  1.0000</r>
       <r>  -0.9944  1.0000</r>
       <r>  -0.6198  1.0000</r>
       <r>  -0.6134  1.0000</r>
       <r>  -0.6133  1.0000</r>
       <r>   0.5448  1.0000</r>
       <r>   0.7191  1.0000</r>
       <r>   0.7215  1.0000</r>
       <r>   1.3618  1.0000</r>
       <r>   1.4789  1.0000</r>
       <r>   1.6331  1.0000</r>
       <r>   1.6346  1.0000</r>
       <r>   1.8638  1.0000</r>
       <r>   1.8728  1.0000</r>
       <r>   1.9077  1.0000</r>
       <r>   1.9814  1.0000</r>
       <r>   2.0010  1.0000</r>
       <r>   2.1214  1.0000</r>
       <r>   2.1224  1.0000</r>
       <r>   3.6145  1.0000</r>
       <r>   5.7884  0.0000</r>
       <r>   5.9861  0.0000</r>
       <r>  10.7678  0.0000</r>
       <r>  10.9586  0.0000</r>
       <r>  12.9357  0.0000</r>
       <r>  14.3585  0.0000</r>
       <r>  14.9335  0.0000</r>
       <r>  15.4750  0.0000</r>
       <r>  15.9814  0.0000</r>
       <r>  16.9794  0.0000</r>
      </set>
      <set comment="kpoint 18">
       <r>  -5.0370  1.0000</r>
       <r>  -1.1934  1.0000</r>
       <r>  -0.9245  1.0000</r>
       <r>  -0.9176  1.0000</r>
       <r>  -0.5730  1.0000</r>
       <r>  -0.5611  1.0000</r>
       <r>  -0.5608  1.0000</r>
       <r>   0.4939  1.0000</r>
       <r>   0.7621  1.0000</r>
       <r>   0.7632  1.0000</r>
       <r>   1.3176  1.0000</r>
       <r>   1.4335  1.0000</r>
       <r>   1.4381  1.0000</r>
       <r>   1.4986  1.0000</r>
       <r>   1.8054  1.0000</r>
       <r>   1.8133  1.0000</r>
       <r>   1.8465  1.0000</r>
       <r>   1.9330  1.0000</r>
       <r>   1.9439  1.0000</r>
       <r>   2.1214  1.0000</r>
       <r>   2.1224  1.0000</r>
       <r>   3.0495  1.0000</r>
       <r>   6.1474  0.0000</r>
       <r>   6.3502  0.0000</r>
       <r>  10.8436  0.0000</r>
       <r>  11.0432  0.0000</r>
       <r>  13.7114  0.0000</r>
       <r>  13.9118  0.0000</r>
       <r>  14.2725  0.0000</r>
       <r>  14.9867  0.0000</r>
       <r>  15.5059  0.0000</r>
       <r>  17.2380  0.0000</r>
      </set>
      <set comment="kpoint 19">
       <r>  -4.8140  1.0000</r>
       <r>  -1.2558  1.0000</r>
       <r>  -0.8363  1.0000</r>
       <r>  -0.8304  1.0000</r>
       <r>  -0.5172  1.0000</r>
       <r>  -0.4970  1.0000</r>
       <r>  -0.4962  1.0000</r>
       <r>   0.4337  1.0000</r>
       <r>   0.8132  1.0000</r>
       <r>   0.8141  1.0000</r>
       <r>   1.2287  1.0000</r>
       <r>   1.2358  1.0000</r>
       <r>   1.2671  1.0000</r>
       <r>   1.5220  1.0000</r>
       <r>   1.7379  1.0000</r>
       <r>   1.7451  1.0000</r>
       <r>   1.7552  1.0000</r>
       <r>   1.8546  1.0000</r>
       <r>   1.9106  1.0000</r>
       <r>   2.1215  1.0000</r>
       <r>   2.1224  1.0000</r>
       <r>   2.5327  1.0000</r>
       <r>   6.5456  0.0000</r>
       <r>   6.7568  0.0000</r>
       <r>  10.9388  0.0000</r>
       <r>  11.1502  0.0000</r>
       <r>  13.0691  0.0000</r>
       <r>  13.6032  0.0000</r>
       <r>  14.4972  0.0000</r>
       <r>  14.9595  0.0000</r>
       <r>  15.0059  0.0000</r>
       <r>  17.5483  0.0000</r>
      </set>
      <set comment="kpoint 20">
       <r>  -4.5541  1.0000</r>
       <r>  -1.3650  1.0000</r>
       <r>  -0.7421  1.0000</r>
       <r>  -0.7373  1.0000</r>
       <r>  -0.4532  1.0000</r>
       <r>  -0.4207  1.0000</r>
       <r>  -0.4193  1.0000</r>
       <r>   0.3653  1.0000</r>
       <r>   0.8705  1.0000</r>
       <r>   0.8747  1.0000</r>
       <r>   1.0257  1.0000</r>
       <r>   1.0345  1.0000</r>
       <r>   1.2134  1.0000</r>
       <r>   1.5488  1.0000</r>
       <r>   1.6250  1.0000</r>
       <r>   1.6646  1.0000</r>
       <r>   1.6710  1.0000</r>
       <r>   1.7678  1.0000</r>
       <r>   1.8734  1.0000</r>
       <r>   2.1142  1.0000</r>
       <r>   2.1216  1.0000</r>
       <r>   2.1225  1.0000</r>
       <r>   6.9757  0.0000</r>
       <r>   7.1988  0.0000</r>
       <r>  11.0537  0.0000</r>
       <r>  11.2815  0.0000</r>
       <r>  12.4396  0.0000</r>
       <r>  12.9371  0.0000</r>
       <r>  14.0241  0.0000</r>
       <r>  14.5085  0.0000</r>
       <r>  16.0613  0.0000</r>
       <r>  17.9073  0.0000</r>
      </set>
      <set comment="kpoint 21">
       <r>  -4.2596  1.0000</r>
       <r>  -1.5375  1.0000</r>
       <r>  -0.6476  1.0000</r>
       <r>  -0.6438  1.0000</r>
       <r>  -0.3821  1.0000</r>
       <r>  -0.3324  1.0000</r>
       <r>  -0.3299  1.0000</r>
       <r>   0.2901  1.0000</r>
       <r>   0.8289  1.0000</r>
       <r>   0.8387  1.0000</r>
       <r>   0.9322  1.0000</r>
       <r>   0.9434  1.0000</r>
       <r>   1.1617  1.0000</r>
       <r>   1.4373  1.0000</r>
       <r>   1.5786  1.0000</r>
       <r>   1.5898  1.0000</r>
       <r>   1.5954  1.0000</r>
       <r>   1.6749  1.0000</r>
       <r>   1.7869  1.0000</r>
       <r>   1.8851  1.0000</r>
       <r>   2.1218  1.0000</r>
       <r>   2.1225  1.0000</r>
       <r>   7.4329  0.0000</r>
       <r>   7.6713  0.0000</r>
       <r>  11.1816  0.0000</r>
       <r>  11.4390  0.0000</r>
       <r>  11.8349  0.0000</r>
       <r>  12.2806  0.0000</r>
       <r>  13.5787  0.0000</r>
       <r>  14.0306  0.0000</r>
       <r>  17.2039  0.0000</r>
       <r>  18.3118  0.0000</r>
      </set>
      <set comment="kpoint 22">
       <r>  -3.9337  1.0000</r>
       <r>  -1.7817  1.0000</r>
       <r>  -0.5601  1.0000</r>
       <r>  -0.5571  1.0000</r>
       <r>  -0.3050  1.0000</r>
       <r>  -0.2319  1.0000</r>
       <r>  -0.2278  1.0000</r>
       <r>   0.2095  1.0000</r>
       <r>   0.6410  1.0000</r>
       <r>   0.6513  1.0000</r>
       <r>   0.9871  1.0000</r>
       <r>   1.0196  1.0000</r>
       <r>   1.1265  1.0000</r>
       <r>   1.2357  1.0000</r>
       <r>   1.5195  1.0000</r>
       <r>   1.5240  1.0000</r>
       <r>   1.5781  1.0000</r>
       <r>   1.6107  1.0000</r>
       <r>   1.6392  1.0000</r>
       <r>   1.8294  1.0000</r>
       <r>   2.1219  1.0000</r>
       <r>   2.1225  1.0000</r>
       <r>   7.9135  0.0000</r>
       <r>   8.1710  0.0000</r>
       <r>  11.1286  0.0000</r>
       <r>  11.4524  0.0000</r>
       <r>  11.6237  0.0000</r>
       <r>  11.6377  0.0000</r>
       <r>  13.1690  0.0000</r>
       <r>  13.5831  0.0000</r>
       <r>  18.3669  0.0000</r>
       <r>  18.7584  0.0000</r>
      </set>
      <set comment="kpoint 23">
       <r>  -3.5811  1.0000</r>
       <r>  -2.0912  1.0000</r>
       <r>  -0.4879  1.0000</r>
       <r>  -0.4857  1.0000</r>
       <r>  -0.2231  1.0000</r>
       <r>  -0.1188  1.0000</r>
       <r>  -0.1130  1.0000</r>
       <r>   0.1248  1.0000</r>
       <r>   0.4640  1.0000</r>
       <r>   0.4742  1.0000</r>
       <r>   1.0003  1.0000</r>
       <r>   1.0881  1.0000</r>
       <r>   1.1025  1.0000</r>
[...]
       <r>   0.4667  1.0000</r>
       <r>   0.5478  1.0000</r>
       <r>   0.6322  1.0000</r>
       <r>   0.6782  1.0000</r>
       <r>   0.7175  1.0000</r>
       <r>   0.7468  1.0000</r>
       <r>   0.7468  1.0000</r>
       <r>   1.1645  1.0000</r>
       <r>   1.1770  1.0000</r>
       <r>   1.1770  1.0000</r>
       <r>   1.2699  1.0000</r>
       <r>   1.9347  1.0000</r>
       <r>   1.9823  1.0000</r>
       <r>   1.9823  1.0000</r>
       <r>   1.9920  1.0000</r>
       <r>   2.0993  1.0000</r>
       <r>   2.8266  1.0000</r>
       <r>   3.8682  0.0000</r>
       <r>   3.8682  0.0000</r>
       <r>   7.4739  0.0000</r>
       <r>   7.4739  0.0000</r>
       <r>   8.6163  0.0000</r>
       <r>   9.4387  0.0000</r>
       <r>  21.6417  0.0000</r>
       <r>  21.6417  0.0000</r>
       <r>  22.5550  0.0000</r>
       <r>  22.5550  0.0000</r>
      </set>
      <set comment="kpoint 439">
       <r>  -1.4355  1.0000</r>
       <r>  -1.4355  1.0000</r>
       <r>  -1.1351  1.0000</r>
       <r>  -1.1351  1.0000</r>
       <r>   0.4719  1.0000</r>
       <r>   0.4719  1.0000</r>
       <r>   0.5950  1.0000</r>
       <r>   0.5950  1.0000</r>
       <r>   0.6929  1.0000</r>
       <r>   0.6929  1.0000</r>
       <r>   0.7405  1.0000</r>
       <r>   0.7405  1.0000</r>
       <r>   1.2044  1.0000</r>
       <r>   1.2044  1.0000</r>
       <r>   1.2348  1.0000</r>
       <r>   1.2348  1.0000</r>
       <r>   1.9687  1.0000</r>
       <r>   1.9687  1.0000</r>
       <r>   1.9763  1.0000</r>
       <r>   1.9763  1.0000</r>
       <r>   2.4247  1.0000</r>
       <r>   2.4247  1.0000</r>
       <r>   3.8838  0.0000</r>
       <r>   3.8838  0.0000</r>
       <r>   7.4052  0.0000</r>
       <r>   7.4052  0.0000</r>
       <r>   9.0047  0.0000</r>
       <r>   9.0047  0.0000</r>
       <r>  21.8295  0.0000</r>
       <r>  21.8295  0.0000</r>
       <r>  22.3624  0.0000</r>
       <r>  22.3624  0.0000</r>
      </set>
      <set comment="kpoint 440">
       <r>  -1.5794  1.0000</r>
       <r>  -1.2149  1.0000</r>
       <r>  -1.2149  1.0000</r>
       <r>  -1.1548  1.0000</r>
       <r>   0.4821  1.0000</r>
       <r>   0.5083  1.0000</r>
       <r>   0.5083  1.0000</r>
       <r>   0.6525  1.0000</r>
       <r>   0.6575  1.0000</r>
       <r>   0.7244  1.0000</r>
       <r>   0.7244  1.0000</r>
       <r>   0.7330  1.0000</r>
       <r>   1.2126  1.0000</r>
       <r>   1.2126  1.0000</r>
       <r>   1.2201  1.0000</r>
       <r>   1.4179  1.0000</r>
       <r>   1.8752  1.0000</r>
       <r>   1.9890  1.0000</r>
       <r>   1.9907  1.0000</r>
       <r>   1.9967  1.0000</r>
       <r>   1.9967  1.0000</r>
       <r>   3.3680  1.0000</r>
       <r>   3.3680  1.0000</r>
       <r>   3.7756  0.0000</r>
       <r>   7.4599  0.0000</r>
       <r>   7.8977  0.0000</r>
       <r>   7.8977  0.0000</r>
       <r>   9.4119  0.0000</r>
       <r>  21.6528  0.0000</r>
       <r>  22.4408  0.0000</r>
       <r>  22.4408  0.0000</r>
       <r>  23.2229  0.0000</r>
      </set>
      <set comment="kpoint 441">
       <r>  -1.4895  1.0000</r>
       <r>  -1.3080  1.0000</r>
       <r>  -1.2119  1.0000</r>
       <r>  -1.1820  1.0000</r>
       <r>   0.5040  1.0000</r>
       <r>   0.5169  1.0000</r>
       <r>   0.5574  1.0000</r>
       <r>   0.6296  1.0000</r>
       <r>   0.6589  1.0000</r>
       <r>   0.6928  1.0000</r>
       <r>   0.7078  1.0000</r>
       <r>   0.7119  1.0000</r>
       <r>   1.3042  1.0000</r>
       <r>   1.3050  1.0000</r>
       <r>   1.3193  1.0000</r>
       <r>   1.4706  1.0000</r>
       <r>   1.9180  1.0000</r>
       <r>   1.9802  1.0000</r>
       <r>   1.9826  1.0000</r>
       <r>   1.9854  1.0000</r>
       <r>   2.1887  1.0000</r>
       <r>   2.9258  1.0000</r>
       <r>   3.4744  1.0000</r>
       <r>   3.6936  0.0000</r>
       <r>   7.3802  0.0000</r>
       <r>   7.6120  0.0000</r>
       <r>   8.1925  0.0000</r>
       <r>   8.9546  0.0000</r>
       <r>  21.9895  0.0000</r>
       <r>  22.5608  0.0000</r>
       <r>  23.1016  0.0000</r>
       <r>  23.3404  0.0000</r>
      </set>
      <set comment="kpoint 442">
       <r>  -1.3993  1.0000</r>
       <r>  -1.3993  1.0000</r>
       <r>  -1.2010  1.0000</r>
       <r>  -1.2010  1.0000</r>
       <r>   0.5157  1.0000</r>
       <r>   0.5157  1.0000</r>
       <r>   0.5979  1.0000</r>
       <r>   0.5979  1.0000</r>
       <r>   0.6709  1.0000</r>
       <r>   0.6709  1.0000</r>
       <r>   0.7034  1.0000</r>
       <r>   0.7034  1.0000</r>
       <r>   1.3371  1.0000</r>
       <r>   1.3371  1.0000</r>
       <r>   1.4134  1.0000</r>
       <r>   1.4134  1.0000</r>
       <r>   1.9601  1.0000</r>
       <r>   1.9601  1.0000</r>
       <r>   1.9751  1.0000</r>
       <r>   1.9751  1.0000</r>
       <r>   2.5213  1.0000</r>
       <r>   2.5213  1.0000</r>
       <r>   3.5881  1.0000</r>
       <r>   3.5881  1.0000</r>
       <r>   7.4344  0.0000</r>
       <r>   7.4344  0.0000</r>
       <r>   8.5469  0.0000</r>
       <r>   8.5469  0.0000</r>
       <r>  22.3274  0.0000</r>
       <r>  22.3274  0.0000</r>
       <r>  23.2984  0.0000</r>
       <r>  23.2984  0.0000</r>
      </set>
      <set comment="kpoint 443">
       <r>  -1.4257  1.0000</r>
       <r>  -1.2876  1.0000</r>
       <r>  -1.2876  1.0000</r>
       <r>  -1.2250  1.0000</r>
       <r>   0.5330  1.0000</r>
       <r>   0.5596  1.0000</r>
       <r>   0.5596  1.0000</r>
       <r>   0.6190  1.0000</r>
       <r>   0.6504  1.0000</r>
       <r>   0.6782  1.0000</r>
       <r>   0.6782  1.0000</r>
       <r>   0.6878  1.0000</r>
       <r>   1.4042  1.0000</r>
       <r>   1.4229  1.0000</r>
       <r>   1.4229  1.0000</r>
       <r>   1.5595  1.0000</r>
       <r>   1.9104  1.0000</r>
       <r>   1.9684  1.0000</r>
       <r>   1.9684  1.0000</r>
       <r>   1.9693  1.0000</r>
       <r>   2.3961  1.0000</r>
       <r>   3.0763  1.0000</r>
       <r>   3.0763  1.0000</r>
       <r>   3.4849  1.0000</r>
       <r>   7.4216  0.0000</r>
       <r>   7.8440  0.0000</r>
       <r>   7.8440  0.0000</r>
       <r>   8.5242  0.0000</r>
       <r>  22.3415  0.0000</r>
       <r>  23.0709  0.0000</r>
       <r>  23.0709  0.0000</r>
       <r>  23.8925  0.0000</r>
      </set>
      <set comment="kpoint 444">
       <r>  -1.3586  1.0000</r>
       <r>  -1.3586  1.0000</r>
       <r>  -1.2601  1.0000</r>
       <r>  -1.2601  1.0000</r>
       <r>   0.5519  1.0000</r>
       <r>   0.5519  1.0000</r>
       <r>   0.5942  1.0000</r>
       <r>   0.5942  1.0000</r>
       <r>   0.6585  1.0000</r>
       <r>   0.6585  1.0000</r>
       <r>   0.6761  1.0000</r>
       <r>   0.6761  1.0000</r>
       <r>   1.4513  1.0000</r>
       <r>   1.4513  1.0000</r>
       <r>   1.5203  1.0000</r>
       <r>   1.5203  1.0000</r>
       <r>   1.9400  1.0000</r>
       <r>   1.9400  1.0000</r>
       <r>   1.9610  1.0000</r>
       <r>   1.9610  1.0000</r>
       <r>   2.7049  1.0000</r>
       <r>   2.7049  1.0000</r>
       <r>   3.2696  1.0000</r>
       <r>   3.2696  1.0000</r>
       <r>   7.5821  0.0000</r>
       <r>   7.5821  0.0000</r>
       <r>   8.1518  0.0000</r>
       <r>   8.1518  0.0000</r>
       <r>  22.7079  0.0000</r>
       <r>  22.7079  0.0000</r>
       <r>  23.4829  0.0000</r>
       <r>  23.4829  0.0000</r>
      </set>
      <set comment="kpoint 445">
       <r>  -1.3124  1.0000</r>
       <r>  -1.3124  1.0000</r>
       <r>  -1.3124  1.0000</r>
       <r>  -1.3124  1.0000</r>
       <r>   0.5789  1.0000</r>
       <r>   0.5789  1.0000</r>
       <r>   0.5789  1.0000</r>
       <r>   0.5789  1.0000</r>
       <r>   0.6602  1.0000</r>
       <r>   0.6602  1.0000</r>
       <r>   0.6602  1.0000</r>
       <r>   0.6602  1.0000</r>
       <r>   1.5255  1.0000</r>
       <r>   1.5255  1.0000</r>
       <r>   1.5255  1.0000</r>
       <r>   1.5255  1.0000</r>
       <r>   1.9422  1.0000</r>
       <r>   1.9422  1.0000</r>
       <r>   1.9422  1.0000</r>
       <r>   1.9422  1.0000</r>
       <r>   2.9637  1.0000</r>
       <r>   2.9637  1.0000</r>
       <r>   2.9637  1.0000</r>
       <r>   2.9637  1.0000</r>
       <r>   7.8266  0.0000</r>
       <r>   7.8266  0.0000</r>
       <r>   7.8266  0.0000</r>
       <r>   7.8266  0.0000</r>
       <r>  23.0909  0.0000</r>
       <r>  23.0909  0.0000</r>
       <r>  23.0909  0.0000</r>
       <r>  23.0909  0.0000</r>
      </set>
      <set comment="kpoint 446">
       <r>  -1.5173  1.0000</r>
       <r>  -1.2364  1.0000</r>
       <r>  -1.2364  1.0000</r>
       <r>  -1.2364  1.0000</r>
       <r>   0.5306  1.0000</r>
       <r>   0.5306  1.0000</r>
       <r>   0.5306  1.0000</r>
       <r>   0.6442  1.0000</r>
       <r>   0.6442  1.0000</r>
       <r>   0.6953  1.0000</r>
       <r>   0.6953  1.0000</r>
       <r>   0.6953  1.0000</r>
       <r>   1.3567  1.0000</r>
       <r>   1.3567  1.0000</r>
       <r>   1.3567  1.0000</r>
       <r>   1.7100  1.0000</r>
       <r>   1.9215  1.0000</r>
       <r>   1.9215  1.0000</r>
       <r>   1.9996  1.0000</r>
       <r>   1.9996  1.0000</r>
       <r>   1.9996  1.0000</r>
       <r>   3.3670  1.0000</r>
       <r>   3.3670  1.0000</r>
       <r>   3.3670  1.0000</r>
       <r>   7.5959  0.0000</r>
       <r>   7.5959  0.0000</r>
       <r>   7.5959  0.0000</r>
       <r>   8.9294  0.0000</r>
       <r>  22.7646  0.0000</r>
       <r>  22.7646  0.0000</r>
       <r>  22.7646  0.0000</r>
       <r>  23.9386  0.0000</r>
      </set>
      <set comment="kpoint 447">
       <r>  -1.4527  1.0000</r>
       <r>  -1.3130  1.0000</r>
       <r>  -1.2495  1.0000</r>
       <r>  -1.2495  1.0000</r>
       <r>   0.5452  1.0000</r>
       <r>   0.5452  1.0000</r>
       <r>   0.5716  1.0000</r>
       <r>   0.6283  1.0000</r>
       <r>   0.6414  1.0000</r>
       <r>   0.6672  1.0000</r>
       <r>   0.6767  1.0000</r>
       <r>   0.6767  1.0000</r>
       <r>   1.4603  1.0000</r>
       <r>   1.4603  1.0000</r>
       <r>   1.4906  1.0000</r>
       <r>   1.7307  1.0000</r>
       <r>   1.9577  1.0000</r>
       <r>   1.9918  1.0000</r>
       <r>   1.9918  1.0000</r>
       <r>   1.9971  1.0000</r>
       <r>   2.1505  1.0000</r>
       <r>   2.9457  1.0000</r>
       <r>   3.3661  1.0000</r>
       <r>   3.3661  1.0000</r>
       <r>   7.4081  0.0000</r>
       <r>   7.4081  0.0000</r>
       <r>   7.8254  0.0000</r>
       <r>   8.5009  0.0000</r>
       <r>  23.0600  0.0000</r>
       <r>  23.0600  0.0000</r>
       <r>  23.7963  0.0000</r>
       <r>  23.9284  0.0000</r>
      </set>
      <set comment="kpoint 448">
       <r>  -1.3849  1.0000</r>
       <r>  -1.3849  1.0000</r>
       <r>  -1.2540  1.0000</r>
       <r>  -1.2540  1.0000</r>
       <r>   0.5503  1.0000</r>
       <r>   0.5503  1.0000</r>
       <r>   0.6042  1.0000</r>
       <r>   0.6042  1.0000</r>
       <r>   0.6491  1.0000</r>
       <r>   0.6491  1.0000</r>
       <r>   0.6702  1.0000</r>
       <r>   0.6702  1.0000</r>
       <r>   1.4992  1.0000</r>
       <r>   1.4992  1.0000</r>
       <r>   1.6182  1.0000</r>
       <r>   1.6182  1.0000</r>
       <r>   1.9830  1.0000</r>
       <r>   1.9830  1.0000</r>
       <r>   1.9863  1.0000</r>
       <r>   1.9863  1.0000</r>
       <r>   2.5336  1.0000</r>
       <r>   2.5336  1.0000</r>
       <r>   3.3657  1.0000</r>
       <r>   3.3657  1.0000</r>
       <r>   7.3442  0.0000</r>
       <r>   7.3442  0.0000</r>
       <r>   8.1307  0.0000</r>
       <r>   8.1307  0.0000</r>
       <r>  23.2298  0.0000</r>
       <r>  23.2298  0.0000</r>
       <r>  23.7760  0.0000</r>
       <r>  23.7760  0.0000</r>
      </set>
      <set comment="kpoint 449">
       <r>  -1.4111  1.0000</r>
       <r>  -1.3101  1.0000</r>
       <r>  -1.3101  1.0000</r>
       <r>  -1.2786  1.0000</r>
       <r>   0.5662  1.0000</r>
       <r>   0.5792  1.0000</r>
       <r>   0.5792  1.0000</r>
       <r>   0.6235  1.0000</r>
       <r>   0.6304  1.0000</r>
       <r>   0.6511  1.0000</r>
       <r>   0.6511  1.0000</r>
       <r>   0.6557  1.0000</r>
       <r>   1.5830  1.0000</r>
       <r>   1.6091  1.0000</r>
       <r>   1.6091  1.0000</r>
       <r>   1.8352  1.0000</r>
       <r>   1.9486  1.0000</r>
       <r>   1.9883  1.0000</r>
       <r>   1.9904  1.0000</r>
       <r>   1.9904  1.0000</r>
       <r>   2.3196  1.0000</r>
       <r>   3.0065  1.0000</r>
       <r>   3.0065  1.0000</r>
       <r>   3.2377  1.0000</r>
       <r>   7.3325  0.0000</r>
       <r>   7.5516  0.0000</r>
       <r>   7.5516  0.0000</r>
       <r>   8.1106  0.0000</r>
       <r>  23.4053  0.0000</r>
       <r>  23.9237  0.0000</r>
       <r>  23.9237  0.0000</r>
       <r>  24.4305  0.0000</r>
      </set>
      <set comment="kpoint 450">
       <r>  -1.3638  1.0000</r>
       <r>  -1.3638  1.0000</r>
       <r>  -1.2987  1.0000</r>
       <r>  -1.2987  1.0000</r>
       <r>   0.5780  1.0000</r>
       <r>   0.5780  1.0000</r>
       <r>   0.6055  1.0000</r>
       <r>   0.6055  1.0000</r>
       <r>   0.6354  1.0000</r>
       <r>   0.6354  1.0000</r>
       <r>   0.6467  1.0000</r>
       <r>   0.6467  1.0000</r>
       <r>   1.6426  1.0000</r>
       <r>   1.6426  1.0000</r>
       <r>   1.7442  1.0000</r>
       <r>   1.7442  1.0000</r>
       <r>   1.9745  1.0000</r>
       <r>   1.9745  1.0000</r>
       <r>   1.9833  1.0000</r>
       <r>   1.9833  1.0000</r>
       <r>   2.6439  1.0000</r>
       <r>   2.6439  1.0000</r>
       <r>   3.1094  1.0000</r>
       <r>   3.1094  1.0000</r>
       <r>   7.3833  0.0000</r>
       <r>   7.3833  0.0000</r>
       <r>   7.7908  0.0000</r>
       <r>   7.7908  0.0000</r>
       <r>  23.7213  0.0000</r>
       <r>  23.7213  0.0000</r>
       <r>  24.3995  0.0000</r>
       <r>  24.4026  0.0000</r>
      </set>
      <set comment="kpoint 451">
       <r>  -1.3353  1.0000</r>
       <r>  -1.3353  1.0000</r>
       <r>  -1.3353  1.0000</r>
       <r>  -1.3353  1.0000</r>
       <r>   0.5975  1.0000</r>
       <r>   0.5975  1.0000</r>
       <r>   0.5975  1.0000</r>
       <r>   0.5975  1.0000</r>
       <r>   0.6341  1.0000</r>
       <r>   0.6341  1.0000</r>
       <r>   0.6341  1.0000</r>
       <r>   0.6341  1.0000</r>
       <r>   1.7435  1.0000</r>
       <r>   1.7435  1.0000</r>
       <r>   1.7435  1.0000</r>
       <r>   1.7435  1.0000</r>
       <r>   1.9711  1.0000</r>
       <r>   1.9711  1.0000</r>
       <r>   1.9711  1.0000</r>
       <r>   1.9711  1.0000</r>
       <r>   2.8526  1.0000</r>
       <r>   2.8526  1.0000</r>
       <r>   2.8526  1.0000</r>
       <r>   2.8526  1.0000</r>
       <r>   7.5373  0.0000</r>
       <r>   7.5373  0.0000</r>
       <r>   7.5373  0.0000</r>
       <r>   7.5373  0.0000</r>
       <r>  24.0794  0.0000</r>
       <r>  24.0794  0.0000</r>
       <r>  24.0794  0.0000</r>
       <r>  24.0794  0.0000</r>
      </set>
      <set comment="kpoint 452">
       <r>  -1.3898  1.0000</r>
       <r>  -1.3239  1.0000</r>
       <r>  -1.3239  1.0000</r>
       <r>  -1.3239  1.0000</r>
       <r>   0.5922  1.0000</r>
       <r>   0.5922  1.0000</r>
       <r>   0.5922  1.0000</r>
       <r>   0.6209  1.0000</r>
       <r>   0.6209  1.0000</r>
       <r>   0.6337  1.0000</r>
       <r>   0.6337  1.0000</r>
       <r>   0.6337  1.0000</r>
       <r>   1.7513  1.0000</r>
       <r>   1.7513  1.0000</r>
       <r>   1.7513  1.0000</r>
       <r>   1.9759  1.0000</r>
       <r>   1.9759  1.0000</r>
       <r>   1.9959  1.0000</r>
       <r>   1.9959  1.0000</r>
       <r>   1.9959  1.0000</r>
       <r>   2.3762  1.0000</r>
       <r>   2.9475  1.0000</r>
       <r>   2.9475  1.0000</r>
       <r>   2.9475  1.0000</r>
       <r>   7.3708  0.0000</r>
       <r>   7.3708  0.0000</r>
       <r>   7.3708  0.0000</r>
       <r>   7.7735  0.0000</r>
       <r>  24.3279  0.0000</r>
       <r>  24.3279  0.0000</r>
       <r>  24.3279  0.0000</r>
       <r>  25.0033  0.0000</r>
      </set>
      <set comment="kpoint 453">
       <r>  -1.3609  1.0000</r>
       <r>  -1.3609  1.0000</r>
       <r>  -1.3285  1.0000</r>
       <r>  -1.3285  1.0000</r>
       <r>   0.5972  1.0000</r>
       <r>   0.5972  1.0000</r>
       <r>   0.6105  1.0000</r>
       <r>   0.6105  1.0000</r>
       <r>   0.6220  1.0000</r>
       <r>   0.6220  1.0000</r>
       <r>   0.6273  1.0000</r>
       <r>   0.6273  1.0000</r>
       <r>   1.8094  1.0000</r>
       <r>   1.8094  1.0000</r>
       <r>   1.8973  1.0000</r>
       <r>   1.8973  1.0000</r>
       <r>   1.9917  1.0000</r>
       <r>   1.9917  1.0000</r>
       <r>   1.9925  1.0000</r>
       <r>   1.9925  1.0000</r>
       <r>   2.6403  1.0000</r>
       <r>   2.6403  1.0000</r>
       <r>   2.9233  1.0000</r>
       <r>   2.9233  1.0000</r>
       <r>   7.3096  0.0000</r>
       <r>   7.3096  0.0000</r>
       <r>   7.5227  0.0000</r>
       <r>   7.5227  0.0000</r>
       <r>  24.4710  0.0000</r>
       <r>  24.4710  0.0000</r>
       <r>  24.8505  0.0000</r>
       <r>  24.8510  0.0000</r>
      </set>
      <set comment="kpoint 454">
       <r>  -1.3492  1.0000</r>
       <r>  -1.3492  1.0000</r>
       <r>  -1.3492  1.0000</r>
       <r>  -1.3492  1.0000</r>
       <r>   0.6089  1.0000</r>
       <r>   0.6089  1.0000</r>
       <r>   0.6089  1.0000</r>
       <r>   0.6089  1.0000</r>
       <r>   0.6182  1.0000</r>
       <r>   0.6182  1.0000</r>
       <r>   0.6182  1.0000</r>
       <r>   0.6182  1.0000</r>
       <r>   1.9199  1.0000</r>
       <r>   1.9199  1.0000</r>
       <r>   1.9199  1.0000</r>
       <r>   1.9199  1.0000</r>
       <r>   1.9887  1.0000</r>
       <r>   1.9887  1.0000</r>
       <r>   1.9887  1.0000</r>
       <r>   1.9887  1.0000</r>
       <r>   2.7452  1.0000</r>
       <r>   2.7452  1.0000</r>
       <r>   2.7452  1.0000</r>
       <r>   2.7452  1.0000</r>
       <r>   7.3588  0.0000</r>
       <r>   7.3588  0.0000</r>
       <r>   7.3588  0.0000</r>
       <r>   7.3588  0.0000</r>
       <r>  24.7855  0.0000</r>
       <r>  24.7855  0.0000</r>
       <r>  24.7855  0.0000</r>
       <r>  24.7855  0.0000</r>
      </set>
      <set comment="kpoint 455">
       <r>  -1.3539  1.0000</r>
       <r>  -1.3539  1.0000</r>
       <r>  -1.3539  1.0000</r>
       <r>  -1.3539  1.0000</r>
       <r>   0.6129  1.0000</r>
       <r>   0.6129  1.0000</r>
       <r>   0.6129  1.0000</r>
       <r>   0.6129  1.0000</r>
       <r>   0.6129  1.0000</r>
       <r>   0.6129  1.0000</r>
       <r>   0.6129  1.0000</r>
       <r>   0.6129  1.0000</r>
       <r>   1.9947  1.0000</r>
       <r>   1.9947  1.0000</r>
       <r>   1.9947  1.0000</r>
       <r>   1.9947  1.0000</r>
       <r>   1.9947  1.0000</r>
       <r>   1.9947  1.0000</r>
       <r>   1.9947  1.0000</r>
       <r>   1.9947  1.0000</r>
       <r>   2.6942  1.0000</r>
       <r>   2.6942  1.0000</r>
       <r>   2.6942  1.0000</r>
       <r>   2.6942  1.0000</r>
       <r>   7.2985  0.0000</r>
       <r>   7.2985  0.0000</r>
       <r>   7.2985  0.0000</r>
       <r>   7.2985  0.0000</r>
       <r>  24.9549  0.0000</r>
       <r>  24.9549  0.0000</r>
       <r>  24.9549  0.0000</r>
       <r>  24.9549  0.0000</r>
      </set>
     </set>
    </set>
   </array>
  </eigenvalues>
 </calculation>
 <structure name="finalpos" >
  <crystal>
   <varray name="basis" >
    <v>       3.63682423      0.00000000      0.00000000</v>
    <v>       0.00000000      3.63682423      0.00000000</v>
    <v>       0.00000000      0.00000000      3.63682423</v>
   </varray>
   <i name="volume">     48.10242086</i>
   <varray name="rec_basis" >
    <v>       0.27496517      0.00000000      0.00000000</v>
    <v>       0.00000000      0.27496517      0.00000000</v>
    <v>       0.00000000      0.00000000      0.27496517</v>
   </varray>
  </crystal>
  <varray name="positions" >
   <v>       0.00000000      0.00000000      0.00000000</v>
   <v>       0.50000000      0.50000000      0.00000000</v>
   <v>       0.50000000      0.00000000      0.50000000</v>
   <v>       0.00000000      0.50000000      0.50000000</v>
  </varray>
 </structure>
</modeling>
