 running on    4 nodes
 distr:  one band on    1 nodes,    4 groups
 vasp.4.6.28 25Jul05 complex 
 POSCAR found :  1 types and    4 ions
 LDA part: xc-table for Pade appr. of Perdew
 POSCAR, INCAR and KPOINTS ok, starting setup
 WARNING: wrap around errors must be expected
 FFT: planning ...           1
 reading WAVECAR
 WARNING: random wavefunctions but no delay for mixing, default for NELMDL
 entering main loop
       N       E                     dE             d eps       ncg     rms          rms(c)
DAV:   1     0.488143162882E+03    0.48814E+03   -0.28159E+04  4704   0.220E+03
DAV:   2     0.358887633049E+01   -0.48455E+03   -0.46358E+03  4736   0.498E+02
DAV:   3    -0.120134020195E+02   -0.15602E+02   -0.15434E+02  5096   0.110E+02
DAV:   4    -0.121186203547E+02   -0.10522E+00   -0.10517E+00  5000   0.837E+00
DAV:   5    -0.121190219052E+02   -0.40155E-03   -0.40154E-03  4984   0.456E-01    0.598E+00
DAV:   6    -0.111782213603E+02    0.94080E+00   -0.30444E+00  4964   0.191E+01    0.113E+00
DAV:   7    -0.111424445453E+02    0.35777E-01   -0.64277E-02  4908   0.184E+00    0.532E-01
DAV:   8    -0.111283793022E+02    0.14065E-01   -0.47711E-03  4876   0.742E-01    0.394E-02
DAV:   9    -0.111285039405E+02   -0.12464E-03   -0.20685E-04  5008   0.124E-01    0.278E-02
DAV:  10    -0.111284765771E+02    0.27363E-04   -0.15569E-05  4896   0.324E-02    0.311E-03
DAV:  11    -0.111284747655E+02    0.18116E-05   -0.52121E-07  5012   0.532E-03    0.569E-04
DAV:  12    -0.111284743493E+02    0.41623E-06   -0.20602E-08  4024   0.115E-03    0.808E-05
DAV:  13    -0.111284742086E+02    0.14075E-06   -0.11020E-09  2556   0.287E-04    0.240E-05
DAV:  14    -0.111284741804E+02    0.28134E-07   -0.75147E-11  2508   0.920E-05    0.105E-05
DAV:  15    -0.111284741775E+02    0.29631E-08   -0.10508E-11  2528   0.393E-05
   1 F= -.11128474E+02 E0= -.11128397E+02  d E =-.154792E-03
