   4   4   0   0
  0.1646436E+02  0.4038328E-09  0.4038328E-09  0.4038328E-09  0.5000000E-15
  1.000000000000000E-004
  CAR 
 unknown system                          
     16.31857927     -5.16410103  301      3.87333070      1.00000000
     -5.164  0.0000E+00  0.0000E+00
     -5.092  0.0000E+00  0.0000E+00
     -5.021  0.0000E+00  0.0000E+00
     -4.949  0.0000E+00  0.0000E+00
     -4.878  0.0000E+00  0.0000E+00
     -4.806  0.0000E+00  0.0000E+00
     -4.734  0.0000E+00  0.0000E+00
     -4.663  0.0000E+00  0.0000E+00
     -4.591  0.0000E+00  0.0000E+00
     -4.520  0.0000E+00  0.0000E+00
     -4.448  0.0000E+00  0.0000E+00
     -4.376  0.0000E+00  0.0000E+00
     -4.305  0.0000E+00  0.0000E+00
     -4.233  0.9375E-12  0.6713E-13
     -4.162  0.1616E-01  0.1157E-02
     -4.090  0.9691E-01  0.8097E-02
     -4.018  0.1936E+00  0.2196E-01
     -3.947  0.1289E+00  0.3122E-01
     -3.875  0.9605E-01  0.3813E-01
     -3.804  0.3853E+00  0.6579E-01
     -3.732  0.3872E+00  0.9370E-01
     -3.660  0.3086E-11  0.9375E-01
     -3.589  0.1939E+00  0.1076E+00
     -3.517  0.4848E+00  0.1424E+00
     -3.445  0.3879E+00  0.1701E+00
     -3.374  0.4371E+00  0.2014E+00
     -3.302  0.8237E-01  0.2073E+00
     -3.231  0.9560E+00  0.2758E+00
     -3.159  0.2055E+00  0.2905E+00
     -3.087  0.4133E+00  0.3201E+00
     -3.016  0.4589E+00  0.3530E+00
     -2.944  0.9654E+00  0.4221E+00
     -2.873  0.5287E+00  0.4603E+00
     -2.801  0.1452E+01  0.5648E+00
     -2.729  0.2455E+01  0.7406E+00
     -2.658  0.5264E+01  0.1118E+01
     -2.586  0.6164E+01  0.1562E+01
     -2.515  0.8246E+01  0.2157E+01
     -2.443  0.9422E+01  0.2836E+01
     -2.371  0.1129E+02  0.3655E+01
     -2.300  0.1124E+02  0.4462E+01
     -2.228  0.1709E+02  0.5691E+01
     -2.157  0.1078E+02  0.6468E+01
     -2.085  0.1250E+02  0.7365E+01
     -2.013  0.1182E+02  0.8213E+01
     -1.942  0.7763E+01  0.8776E+01
     -1.870  0.1042E+02  0.9523E+01
     -1.798  0.6157E+01  0.9966E+01
     -1.727  0.7282E+01  0.1049E+02
     -1.655  0.1184E+02  0.1134E+02
     -1.584  0.6370E+01  0.1179E+02
     -1.512  0.1128E+02  0.1260E+02
     -1.440  0.9658E+01  0.1330E+02
     -1.369  0.1039E+02  0.1405E+02
     -1.297  0.1012E+02  0.1478E+02
     -1.226  0.8323E+01  0.1538E+02
     -1.154  0.1055E+02  0.1614E+02
     -1.082  0.9168E+01  0.1680E+02
     -1.011  0.9962E+01  0.1752E+02
     -0.939  0.1837E+02  0.1884E+02
     -0.868  0.1487E+02  0.1991E+02
     -0.796  0.1852E+02  0.2124E+02
     -0.724  0.1177E+02  0.2210E+02
     -0.653  0.1325E+02  0.2306E+02
     -0.581  0.8040E+01  0.2363E+02
     -0.510  0.9181E+01  0.2429E+02
     -0.438  0.1061E+02  0.2506E+02
     -0.366  0.8672E+01  0.2568E+02
     -0.295  0.9416E+01  0.2636E+02
     -0.223  0.1080E+02  0.2713E+02
     -0.151  0.1358E+02  0.2811E+02
     -0.080  0.1078E+02  0.2889E+02
     -0.008  0.1363E+02  0.2987E+02
      0.063  0.1167E+02  0.3071E+02
      0.135  0.1092E+02  0.3151E+02
      0.207  0.8181E+01  0.3210E+02
      0.278  0.1069E+02  0.3286E+02
      0.350  0.7878E+01  0.3343E+02
      0.421  0.1161E+02  0.3426E+02
      0.493  0.1028E+02  0.3500E+02
      0.565  0.9057E+01  0.3565E+02
      0.636  0.1114E+02  0.3645E+02
      0.708  0.1195E+02  0.3731E+02
      0.779  0.1541E+02  0.3842E+02
      0.851  0.2178E+02  0.3998E+02
      0.923  0.9039E+01  0.4064E+02
      0.994  0.7461E+01  0.4118E+02
      1.066  0.2962E+01  0.4139E+02
      1.137  0.5387E+00  0.4143E+02
      1.209  0.6356E+00  0.4148E+02
      1.281  0.1194E+01  0.4156E+02
      1.352  0.2095E+01  0.4171E+02
      1.424  0.9666E+00  0.4178E+02
      1.496  0.3879E+00  0.4181E+02
      1.567  0.1164E+01  0.4189E+02
      1.639  0.9630E-01  0.4190E+02
      1.710  0.1188E-10  0.4190E+02
      1.782  0.5335E+00  0.4194E+02
      1.854  0.1483E+01  0.4204E+02
      1.925  0.2377E+01  0.4221E+02
      1.997  0.7832E+00  0.4227E+02
      2.068  0.7601E+00  0.4233E+02
      2.140  0.7754E+00  0.4239E+02
      2.212  0.5200E+00  0.4242E+02
      2.283  0.7731E+00  0.4248E+02
      2.355  0.2476E+00  0.4250E+02
      2.426  0.1403E+00  0.4251E+02
      2.498  0.7762E+00  0.4256E+02
      2.570  0.2689E+01  0.4275E+02
      2.641  0.3582E+00  0.4278E+02
      2.713  0.1258E+01  0.4288E+02
      2.784  0.8150E+00  0.4293E+02
      2.856  0.1101E+01  0.4301E+02
      2.928  0.5289E+00  0.4305E+02
      2.999  0.1408E+01  0.4315E+02
      3.071  0.7666E+00  0.4321E+02
      3.143  0.3879E+00  0.4323E+02
      3.214  0.9641E-09  0.4323E+02
      3.286  0.1018E+01  0.4331E+02
      3.357  0.2331E+01  0.4347E+02
      3.429  0.1140E+01  0.4356E+02
      3.501  0.1113E+01  0.4364E+02
      3.572  0.1160E+01  0.4373E+02
      3.644  0.5649E+00  0.4377E+02
      3.715  0.1618E+01  0.4388E+02
      3.787  0.9190E+00  0.4395E+02
      3.859  0.3977E+00  0.4398E+02
      3.930  0.8902E+00  0.4404E+02
      4.002  0.3606E+00  0.4407E+02
      4.073  0.4348E-01  0.4407E+02
      4.145  0.2142E+01  0.4422E+02
      4.217  0.2021E+01  0.4437E+02
      4.288  0.1748E+01  0.4450E+02
      4.360  0.1913E+00  0.4451E+02
      4.431  0.5259E+00  0.4455E+02
      4.503  0.1801E+01  0.4468E+02
      4.575  0.1163E+01  0.4476E+02
      4.646  0.3879E+00  0.4479E+02
      4.718  0.7938E+00  0.4485E+02
      4.790  0.1589E+01  0.4496E+02
      4.861  0.4434E+00  0.4499E+02
      4.933  0.1441E+01  0.4509E+02
      5.004  0.1301E+00  0.4510E+02
      5.076  0.3884E+00  0.4513E+02
      5.148  0.1740E+01  0.4526E+02
      5.219  0.1074E+01  0.4533E+02
      5.291  0.2007E+01  0.4548E+02
      5.362  0.1148E+01  0.4556E+02
      5.434  0.1587E+01  0.4567E+02
      5.506  0.1338E-01  0.4567E+02
      5.577  0.3835E+00  0.4570E+02
      5.649  0.9493E+00  0.4577E+02
      5.720  0.1560E+01  0.4588E+02
      5.792  0.1538E+01  0.4599E+02
      5.864  0.9031E+00  0.4606E+02
      5.935  0.7758E+00  0.4612E+02
      6.007  0.1014E-04  0.4612E+02
      6.079  0.3880E+00  0.4615E+02
      6.150  0.2730E+01  0.4634E+02
      6.222  0.8141E+00  0.4640E+02
      6.293  0.1585E+00  0.4641E+02
      6.365  0.4026E+00  0.4644E+02
      6.437  0.2656E+01  0.4663E+02
      6.508  0.7757E+00  0.4669E+02
      6.580  0.7753E+00  0.4674E+02
      6.651  0.0000E+00  0.4674E+02
      6.723  0.1961E-04  0.4674E+02
      6.795  0.1145E+01  0.4683E+02
      6.866  0.5057E+00  0.4686E+02
      6.938  0.9151E+00  0.4693E+02
      7.009  0.1642E+01  0.4705E+02
      7.081  0.2382E-03  0.4705E+02
      7.153  0.1737E+01  0.4717E+02
      7.224  0.2283E-03  0.4717E+02
      7.296  0.1539E+01  0.4728E+02
      7.367  0.3644E+00  0.4731E+02
      7.439  0.4114E+00  0.4734E+02
      7.511  0.1247E+00  0.4735E+02
      7.582  0.6699E+00  0.4740E+02
      7.654  0.4245E+00  0.4743E+02
      7.726  0.1914E+01  0.4756E+02
      7.797  0.1198E+01  0.4765E+02
      7.869  0.5472E-01  0.4765E+02
      7.940  0.1691E+01  0.4778E+02
      8.012  0.1775E+01  0.4790E+02
      8.084  0.1320E+01  0.4800E+02
      8.155  0.1156E+01  0.4808E+02
      8.227  0.1985E+01  0.4822E+02
      8.298  0.1270E+01  0.4832E+02
      8.370  0.7657E+00  0.4837E+02
      8.442  0.1552E+01  0.4848E+02
      8.513  0.1500E+01  0.4859E+02
      8.585  0.1939E+01  0.4873E+02
      8.656  0.7552E+00  0.4879E+02
      8.728  0.9587E+00  0.4886E+02
      8.800  0.1751E+01  0.4898E+02
      8.871  0.7443E+00  0.4904E+02
      8.943  0.1940E+00  0.4905E+02
      9.014  0.1279E+01  0.4914E+02
      9.086  0.1829E+01  0.4928E+02
      9.158  0.1148E+01  0.4936E+02
      9.229  0.1692E+01  0.4948E+02
      9.301  0.9483E+00  0.4955E+02
      9.373  0.3181E-04  0.4955E+02
      9.444  0.2781E+01  0.4975E+02
      9.516  0.9271E+00  0.4982E+02
      9.587  0.1301E+01  0.4991E+02
      9.659  0.6217E-06  0.4991E+02
      9.731  0.1173E+01  0.4999E+02
      9.802  0.7711E+00  0.5005E+02
      9.874  0.1685E+01  0.5017E+02
      9.945  0.1184E+01  0.5026E+02
     10.017  0.2039E+01  0.5040E+02
     10.089  0.3816E+00  0.5044E+02
     10.160  0.3885E+00  0.5047E+02
     10.232  0.7739E+00  0.5052E+02
     10.303  0.1139E+01  0.5060E+02
     10.375  0.1189E+01  0.5069E+02
     10.447  0.1229E+01  0.5078E+02
     10.518  0.1486E+01  0.5088E+02
     10.590  0.7758E+00  0.5094E+02
     10.661  0.3879E+00  0.5097E+02
     10.733  0.1546E+01  0.5108E+02
     10.805  0.1121E+01  0.5116E+02
     10.876  0.1008E+01  0.5123E+02
     10.948  0.2553E+01  0.5142E+02
     11.020  0.8666E+00  0.5149E+02
     11.091  0.7086E+00  0.5154E+02
     11.163  0.5452E+00  0.5158E+02
     11.234  0.2461E+01  0.5175E+02
     11.306  0.1582E+01  0.5187E+02
     11.378  0.1989E+01  0.5201E+02
     11.449  0.8966E+00  0.5207E+02
     11.521  0.3054E+01  0.5229E+02
     11.592  0.2237E+01  0.5245E+02
     11.664  0.1225E+01  0.5254E+02
     11.736  0.1928E+01  0.5268E+02
     11.807  0.7498E+00  0.5273E+02
     11.879  0.3596E+00  0.5276E+02
     11.950  0.1417E+01  0.5286E+02
     12.022  0.3144E+01  0.5309E+02
     12.094  0.1865E+01  0.5322E+02
     12.165  0.2466E+01  0.5340E+02
     12.237  0.1598E+01  0.5351E+02
     12.308  0.1468E+01  0.5362E+02
     12.380  0.1163E+01  0.5370E+02
     12.452  0.1224E+01  0.5379E+02
     12.523  0.2498E+01  0.5397E+02
     12.595  0.4561E+00  0.5400E+02
     12.667  0.1180E+01  0.5408E+02
     12.738  0.2012E+01  0.5423E+02
     12.810  0.5480E+00  0.5427E+02
     12.881  0.2514E+01  0.5445E+02
     12.953  0.1831E+01  0.5458E+02
     13.025  0.1546E+01  0.5469E+02
     13.096  0.8334E+00  0.5475E+02
     13.168  0.1345E+01  0.5485E+02
     13.239  0.8693E+00  0.5491E+02
     13.311  0.2876E+01  0.5512E+02
     13.383  0.3490E+00  0.5514E+02
     13.454  0.1980E+01  0.5529E+02
     13.526  0.1163E+01  0.5537E+02
     13.597  0.1164E+01  0.5545E+02
     13.669  0.7048E+00  0.5550E+02
     13.741  0.1247E+01  0.5559E+02
     13.812  0.5228E+00  0.5563E+02
     13.884  0.4259E-01  0.5563E+02
     13.955  0.1255E+01  0.5572E+02
     14.027  0.1298E+01  0.5582E+02
     14.099  0.2239E+00  0.5583E+02
     14.170  0.1640E+00  0.5584E+02
     14.242  0.5117E-04  0.5584E+02
     14.314  0.4134E+00  0.5587E+02
     14.385  0.3624E+00  0.5590E+02
     14.457  0.1164E+01  0.5598E+02
     14.528  0.0000E+00  0.5598E+02
     14.600  0.7521E-14  0.5598E+02
     14.672  0.9668E-01  0.5599E+02
     14.743  0.0000E+00  0.5599E+02
     14.815  0.0000E+00  0.5599E+02
     14.886  0.1277E-03  0.5599E+02
     14.958  0.1604E-01  0.5599E+02
     15.030  0.0000E+00  0.5599E+02
     15.101  0.0000E+00  0.5599E+02
     15.173  0.0000E+00  0.5599E+02
     15.244  0.0000E+00  0.5599E+02
     15.316  0.1493E-04  0.5599E+02
     15.388  0.1293E+00  0.5600E+02
     15.459  0.0000E+00  0.5600E+02
     15.531  0.0000E+00  0.5600E+02
     15.602  0.0000E+00  0.5600E+02
     15.674  0.0000E+00  0.5600E+02
     15.746  0.0000E+00  0.5600E+02
     15.817  0.0000E+00  0.5600E+02
     15.889  0.0000E+00  0.5600E+02
     15.961  0.0000E+00  0.5600E+02
     16.032  0.0000E+00  0.5600E+02
     16.104  0.0000E+00  0.5600E+02
     16.175  0.0000E+00  0.5600E+02
     16.247  0.0000E+00  0.5600E+02
     16.319  0.0000E+00  0.5600E+02
