    4    4    1    1
  0.1646436E+02  0.4038328E-09  0.4038328E-09  0.4038328E-09  0.5000000E-15
  1.000000000000000E-004
  CAR 
 unknown system                          
   44   84   28
 
  0.0000000E+00  0.0000000E+00  0.0000000E+00  0.5787037E-03
   1       -4.1876
   2       -2.8653
   3       -2.8653
   4       -2.8653
   5       -2.7148
   6       -2.7148
   7       -2.7148
   8       -1.1231
   9       -1.1231
  10       -1.1231
  11       -0.0206
  12       -0.0206
  13        0.7914
  14        0.7914
  15        0.7914
  16        1.0450
  17        1.0450
  18        1.0450
  19        1.0450
  20        1.0450
  21        1.0450
  22        5.4298
  23        5.4298
  24        5.4298
  25       10.8703
  26       10.8703
  27       10.8703
  28       14.9035
 
  0.8333333E-01  0.0000000E+00  0.0000000E+00  0.3472222E-02
   1       -4.1126
   2       -2.8334
   3       -2.8242
   4       -2.8242
   5       -2.6906
   6       -2.6779
   7       -2.6779
   8       -1.1538
   9       -1.0949
  10       -1.0949
  11       -0.0515
  12       -0.0075
  13        0.7502
  14        0.7502
  15        0.7768
  16        0.8951
  17        0.8951
  18        0.9947
  19        0.9947
  20        1.0450
  21        1.0450
  22        4.9557
  23        5.6400
  24        5.6400
  25       10.8797
  26       10.8797
  27       11.4571
  28       14.6522
 
  0.1666667E+00  0.0000000E+00  0.0000000E+00  0.3472222E-02
   1       -3.8917
   2       -2.7419
   3       -2.7061
   4       -2.7061
   5       -2.6192
   6       -2.5674
   7       -2.5674
   8       -1.2428
   9       -1.0111
  10       -1.0111
  11       -0.1380
  12        0.0312
  13        0.5158
  14        0.5158
  15        0.6312
  16        0.6312
  17        0.7342
  18        0.8514
  19        0.8514
  20        1.0452
  21        1.0452
  22        3.9070
  23        6.1992
  24        6.1992
  25       10.9100
  26       10.9100
  27       12.8428
  28       13.9943
 
  0.2500000E+00  0.0000000E+00  0.0000000E+00  0.3472222E-02
   1       -3.5399
   2       -2.6045
   3       -2.5279
   4       -2.5279
   5       -2.5040
   6       -2.3841
   7       -2.3841
   8       -1.3818
   9       -0.8738
  10       -0.8738
  11       -0.2596
  12        0.0290
  13        0.0290
  14        0.0931
  15        0.4506
  16        0.4506
  17        0.6351
  18        0.6351
  19        0.6669
  20        1.0455
  21        1.0455
  22        2.7189
  23        6.9826
  24        6.9826
  25       10.9664
  26       10.9664
  27       13.0999
  28       13.0999
 
  0.3333333E+00  0.0000000E+00  0.0000000E+00  0.3472222E-02
   1       -3.0945
   2       -2.4495
   3       -2.3510
   4       -2.3223
   5       -2.3223
   6       -2.1293
   7       -2.1293
   8       -1.5586
   9       -0.6872
  10       -0.6872
  11       -0.4818
  12       -0.4818
  13       -0.3700
  14        0.1745
  15        0.2414
  16        0.2414
  17        0.3716
  18        0.3716
  19        0.5801
  20        1.0458
  21        1.0458
  22        1.5845
  23        7.9014
  24        7.9014
  25       11.0528
  26       11.0528
  27       12.0877
  28       12.0877
 
  0.4166667E+00  0.0000000E+00  0.0000000E+00  0.3472222E-02
   1       -2.6469
   2       -2.3334
   3       -2.1683
   4       -2.1455
   5       -2.1455
   6       -1.8056
   7       -1.8056
   8       -1.7585
   9       -0.9718
  10       -0.9718
  11       -0.4579
  12       -0.4579
  13       -0.3666
  14        0.0611
  15        0.0611
  16        0.0873
  17        0.0873
  18        0.2704
  19        0.4803
  20        0.6140
  21        1.0460
  22        1.0460
  23        8.9034
  24        8.9034
  25       11.0255
  26       11.0255
  27       11.1565
  28       11.1565
 
  0.5000000E+00  0.0000000E+00  0.0000000E+00  0.1736111E-02
   1       -2.3646
   2       -2.3646
   3       -2.0727
   4       -2.0727
   5       -1.9666
   6       -1.9666
   7       -1.4174
   8       -1.4174
   9       -1.4174
  10       -1.4174
  11       -0.1952
  12       -0.1952
  13       -0.1952
  14       -0.1952
  15       -0.0702
  16       -0.0702
  17       -0.0132
  18       -0.0132
  19        0.3746
  20        0.3746
  21        1.0461
  22        1.0461
  23        9.9541
  24        9.9541
  25        9.9541
  26        9.9541
  27       11.2133
  28       11.2133
 
  0.8333333E-01  0.8333333E-01  0.0000000E+00  0.6944444E-02
   1       -4.0387
   2       -2.7920
   3       -2.7920
   4       -2.7899
   5       -2.6542
   6       -2.6542
   7       -2.6357
   8       -1.1656
   9       -1.0847
  10       -1.0687
  11       -0.0597
  12       -0.0141
  13        0.7107
  14        0.7124
  15        0.7124
  16        0.7908
  17        0.8670
  18        0.8670
  19        0.9946
  20        0.9946
  21        1.0106
  22        5.1584
  23        5.1584
  24        5.8393
  25       10.8890
  26       11.4751
  27       11.4751
  28       13.8067
 
  0.1666667E+00  0.8333333E-01  0.0000000E+00  0.1388889E-01
   1       -3.8210
   2       -2.6997
   3       -2.6892
   4       -2.6732
   5       -2.5842
   6       -2.5452
   7       -2.5124
   8       -1.2433
   9       -1.0098
  10       -0.9916
  11       -0.1344
  12        0.0217
  13        0.4139
  14        0.4522
  15        0.5897
  16        0.5966
  17        0.6690
  18        0.7998
  19        0.8509
  20        0.9931
  21        0.9943
  22        4.1063
  23        5.6893
  24        6.3762
  25       10.9172
  26       11.5311
  27       12.8431
  28       12.8686
 
  0.2500000E+00  0.8333333E-01  0.0000000E+00  0.1388889E-01
   1       -3.4747
   2       -2.5608
   3       -2.5289
   4       -2.4936
   5       -2.4715
   6       -2.3644
   7       -2.3187
   8       -1.3766
   9       -0.8746
  10       -0.8711
  11       -0.2435
  12       -0.0533
  13       -0.0087
  14        0.0914
  15        0.3825
  16        0.4229
  17        0.4761
  18        0.6340
  19        0.7117
  20        0.9896
  21        0.9939
  22        2.9301
  23        6.4165
  24        7.1384
  25       10.9506
  26       11.6270
  27       11.9016
  28       13.2157
 
  0.3333333E+00  0.8333333E-01  0.0000000E+00  0.1388889E-01
   1       -3.0368
   2       -2.4033
   3       -2.3265
   4       -2.3217
   5       -2.2862
   6       -2.1134
   7       -2.0715
   8       -1.5482
   9       -0.7385
  10       -0.6888
  11       -0.5472
  12       -0.5012
  13       -0.3085
  14        0.1119
  15        0.1856
  16        0.2214
  17        0.2610
  18        0.3701
  19        0.6038
  20        0.9894
  21        0.9932
  22        1.8279
  23        7.2472
  24        8.0411
  25       10.7177
  26       11.3044
  27       11.7432
  28       12.2016
 
  0.4166667E+00  0.8333333E-01  0.0000000E+00  0.1388889E-01
   1       -2.5954
   2       -2.2843
   3       -2.1430
   4       -2.1322
   5       -2.1084
   6       -1.7950
   7       -1.7802
   8       -1.7430
   9       -1.0155
  10       -0.9780
  11       -0.6510
  12       -0.4597
  13       -0.1993
  14       -0.1815
  15        0.0498
  16        0.0723
  17        0.0855
  18        0.3015
  19        0.4641
  20        0.9287
  21        0.9902
  22        0.9923
  23        8.1257
  24        9.0313
  25        9.9051
  26       11.1408
  27       11.3735
  28       11.7620
 
  0.5000000E+00  0.8333333E-01  0.0000000E+00  0.6944444E-02
   1       -2.3142
   2       -2.3142
   3       -2.0410
   4       -2.0410
   5       -1.9460
   6       -1.9460
   7       -1.4311
   8       -1.4311
   9       -1.4139
  10       -1.4139
  11       -0.4928
  12       -0.4928
  13       -0.1972
  14       -0.1972
  15       -0.0137
  16       -0.0137
  17        0.1615
  18        0.1615
  19        0.4585
  20        0.4585
  21        0.9912
  22        0.9912
  23        9.0184
  24        9.0184
  25       10.0740
  26       10.0740
  27       11.5806
  28       11.5806
 
  0.1666667E+00  0.1666667E+00  0.0000000E+00  0.6944444E-02
   1       -3.6134
   2       -2.6228
   3       -2.5783
   4       -2.5783
   5       -2.4797
   6       -2.4797
   7       -2.3683
   8       -1.2768
   9       -0.9723
  10       -0.9357
  11       -0.1631
  12        0.0395
  13        0.2164
  14        0.2164
  15        0.2308
  16        0.4959
  17        0.6795
  18        0.6795
  19        0.8495
  20        0.8495
  21        0.9091
  22        4.6117
  23        4.6117
  24        6.8643
  25       10.9109
  26       11.7219
  27       12.9384
  28       12.9384
 
  0.2500000E+00  0.1666667E+00  0.0000000E+00  0.1388889E-01
   1       -3.2844
   2       -2.4952
   3       -2.4346
   4       -2.3943
   5       -2.3742
   6       -2.3066
   7       -2.1639
   8       -1.3761
   9       -0.8608
  10       -0.8575
  11       -0.2451
  12       -0.2392
  13       -0.1351
  14       -0.0327
  15        0.1298
  16        0.3411
  17        0.5010
  18        0.6312
  19        0.6333
  20        0.8472
  21        0.8633
  22        3.4369
  23        5.2824
  24        7.5771
  25       10.4212
  26       11.1992
  27       12.9831
  28       13.5528
 
  0.3333333E+00  0.1666667E+00  0.0000000E+00  0.1388889E-01
   1       -2.8701
   2       -2.3114
   3       -2.2696
   4       -2.2345
   5       -2.1809
   6       -2.0670
   7       -1.9291
   8       -1.5244
   9       -0.8102
  10       -0.7088
  11       -0.6853
  12       -0.5651
  13       -0.3152
  14       -0.2581
  15        0.1606
  16        0.2770
  17        0.2869
  18        0.3662
  19        0.5313
  20        0.8444
  21        0.8454
  22        2.3523
  23        6.0355
  24        8.4394
  25        9.4632
  26       11.2891
  27       12.5326
  28       12.7155
 
  0.4166667E+00  0.1666667E+00  0.0000000E+00  0.1388889E-01
   1       -2.4493
   2       -2.1420
   3       -2.0986
   4       -2.0684
   5       -1.9999
   6       -1.7645
   7       -1.7001
   8       -1.6983
   9       -1.1274
  10       -0.9994
  11       -0.8349
  12       -0.5994
  13       -0.4611
  14       -0.1108
  15        0.0115
  16        0.0812
  17        0.0860
  18        0.3710
  19        0.4910
  20        0.8398
  21        0.8416
  22        1.4615
  23        6.8335
  24        8.5378
  25        9.3995
  26       11.4755
  27       11.5021
  28       12.2371
 
  0.5000000E+00  0.1666667E+00  0.0000000E+00  0.6944444E-02
   1       -2.1706
   2       -2.1706
   3       -1.9540
   4       -1.9540
   5       -1.8862
   6       -1.8862
   7       -1.4589
   8       -1.4589
   9       -1.4052
  10       -1.4052
  11       -0.8003
  12       -0.8003
  13       -0.2007
  14       -0.2007
  15       -0.0250
  16       -0.0250
  17        0.1426
  18        0.1426
  19        0.8395
  20        0.8395
  21        0.8451
  22        0.8451
  23        7.6654
  24        7.6654
  25       10.4213
  26       10.4213
  27       11.8175
  28       11.8175
 
  0.2500000E+00  0.2500000E+00  0.0000000E+00  0.6944444E-02
   1       -2.9864
   2       -2.4040
   3       -2.2422
   4       -2.2422
   5       -2.2139
   6       -2.2139
   7       -1.9585
   8       -1.4149
   9       -0.8330
  10       -0.7938
  11       -0.4858
  12       -0.4858
  13       -0.3684
  14       -0.2942
  15        0.2123
  16        0.2723
  17        0.4750
  18        0.4750
  19        0.6272
  20        0.6272
  21        0.7454
  22        4.0820
  23        4.0820
  24        8.2347
  25        9.2923
  26       11.2544
  27       13.9945
  28       13.9988
 
  0.3333333E+00  0.2500000E+00  0.0000000E+00  0.1388889E-01
   1       -2.6158
   2       -2.2533
   3       -2.0919
   4       -2.0639
   5       -2.0167
   6       -1.9934
   7       -1.7377
   8       -1.5085
   9       -0.9141
  10       -0.8445
  11       -0.7410
  12       -0.6881
  13       -0.6530
  14       -0.3203
  15        0.0593
  16        0.2705
  17        0.3615
  18        0.3820
  19        0.5117
  20        0.6230
  21        0.6730
  22        2.9804
  23        4.7971
  24        8.2259
  25        9.0485
  26       11.4299
  27       13.0527
  28       13.2446
 
  0.4166667E+00  0.2500000E+00  0.0000000E+00  0.1388889E-01
   1       -2.2368
   2       -2.0511
   3       -1.9485
   4       -1.9229
   5       -1.8286
   6       -1.7180
   7       -1.6418
   8       -1.5569
   9       -1.2709
  10       -1.0448
  11       -0.9625
  12       -0.9464
  13       -0.4485
  14       -0.2066
  15       -0.0628
  16        0.0646
  17        0.0781
  18        0.2201
  19        0.6208
  20        0.6378
  21        0.8533
  22        2.0542
  23        5.5612
  24        7.2581
  25        9.9701
  26       11.7021
  27       12.0008
  28       12.5992
 
  0.5000000E+00  0.2500000E+00  0.0000000E+00  0.6944444E-02
   1       -1.9611
   2       -1.9611
   3       -1.8438
   4       -1.8438
   5       -1.7941
   6       -1.7941
   7       -1.4583
   8       -1.4583
   9       -1.3968
  10       -1.3968
  11       -1.0395
  12       -1.0395
  13       -0.1987
  14       -0.1987
  15       -0.0697
  16       -0.0697
  17        0.0051
  18        0.0051
  19        0.6238
  20        0.6238
  21        1.3478
  22        1.3478
  23        6.3764
  24        6.3764
  25       10.9638
  26       10.9638
  27       12.0867
  28       12.0867
 
  0.3333333E+00  0.3333333E+00  0.0000000E+00  0.6944444E-02
   1       -2.3122
   2       -2.1451
   3       -1.8985
   4       -1.8985
   5       -1.8163
   6       -1.8163
   7       -1.5322
   8       -1.5265
   9       -1.1242
  10       -1.1242
  11       -0.8796
  12       -0.8628
  13       -0.5622
  14       -0.4076
  15       -0.0691
  16        0.1857
  17        0.1857
  18        0.3591
  19        0.3591
  20        0.5284
  21        0.8592
  22        3.6666
  23        3.6666
  24        7.1050
  25        9.8162
  26       11.6616
  27       13.7249
  28       13.7252
 
  0.4166667E+00  0.3333333E+00  0.0000000E+00  0.1388889E-01
   1       -2.0098
   2       -1.9837
   3       -1.7909
   4       -1.6626
   5       -1.6603
   6       -1.6109
   7       -1.5882
   8       -1.4149
   9       -1.3765
  10       -1.2671
  11       -1.1267
  12       -0.9714
  13       -0.4004
  14       -0.3624
  15       -0.1752
  16       -0.0201
  17        0.0276
  18        0.0830
  19        0.3643
  20        0.4347
  21        1.3161
  22        2.6979
  23        4.4063
  24        6.1048
  25       10.6988
  26       11.9968
  27       12.6797
  28       13.0452
 
  0.5000000E+00  0.3333333E+00  0.0000000E+00  0.6944444E-02
   1       -1.7715
   2       -1.7715
   3       -1.7574
   4       -1.7574
   5       -1.6823
   6       -1.6823
   7       -1.3980
   8       -1.3980
   9       -1.3648
  10       -1.3648
  11       -1.1654
  12       -1.1654
  13       -0.1791
  14       -0.1791
  15       -0.1783
  16       -0.1783
  17       -0.1670
  18       -0.1670
  19        0.3852
  20        0.3852
  21        1.9168
  22        1.9168
  23        5.2121
  24        5.2121
  25       11.6624
  26       11.6624
  27       12.4529
  28       12.4529
 
  0.4166667E+00  0.4166667E+00  0.0000000E+00  0.6944444E-02
   1       -1.8839
   2       -1.8233
   3       -1.6086
   4       -1.6086
   5       -1.5609
   6       -1.5606
   7       -1.5606
   8       -1.3526
   9       -1.3526
  10       -1.2540
  11       -1.2157
  12       -0.9733
  13       -0.4614
  14       -0.2943
  15       -0.2930
  16       -0.1740
  17       -0.1740
  18        0.1064
  19        0.1064
  20        0.2710
  21        1.8772
  22        3.4034
  23        3.4034
  24        5.0851
  25       11.5461
  26       12.4023
  27       13.4760
  28       13.4760
 
  0.5000000E+00  0.4166667E+00  0.0000000E+00  0.6944444E-02
   1       -1.7411
   2       -1.7411
   3       -1.6840
   4       -1.6840
   5       -1.5699
   6       -1.5699
   7       -1.4215
   8       -1.4215
   9       -1.1930
  10       -1.1930
  11       -1.1166
  12       -1.1166
  13       -0.3619
  14       -0.3619
  15       -0.3118
  16       -0.3118
  17       -0.1214
  18       -0.1214
  19        0.1637
  20        0.1637
  21        2.5638
  22        2.5638
  23        4.1911
  24        4.1911
  25       12.4803
  26       12.4803
  27       12.9332
  28       12.9332
 
  0.5000000E+00  0.5000000E+00  0.0000000E+00  0.1736111E-02
   1       -1.7099
   2       -1.7099
   3       -1.7099
   4       -1.7099
   5       -1.4784
   6       -1.4784
   7       -1.4784
   8       -1.4784
   9       -1.0659
  10       -1.0659
  11       -1.0659
  12       -1.0659
  13       -0.4269
  14       -0.4269
  15       -0.4269
  16       -0.4269
  17       -0.0097
  18       -0.0097
  19       -0.0097
  20       -0.0097
  21        3.3135
  22        3.3135
  23        3.3135
  24        3.3135
  25       13.3871
  26       13.3871
  27       13.3871
  28       13.3871
 
  0.8333333E-01  0.8333333E-01  0.8333333E-01  0.4629630E-02
   1       -3.9660
   2       -2.7584
   3       -2.7584
   4       -2.7584
   5       -2.6117
   6       -2.6117
   7       -2.6117
   8       -1.1736
   9       -1.0609
  10       -1.0609
  11       -0.0431
  12       -0.0431
  13        0.6752
  14        0.6752
  15        0.6752
  16        0.7357
  17        0.7357
  18        0.7357
  19        0.9852
  20        0.9852
  21        0.9852
  22        5.3485
  23        5.3485
  24        5.3485
  25       11.4920
  26       11.4920
  27       11.4920
  28       13.9283
 
  0.1666667E+00  0.8333333E-01  0.8333333E-01  0.1388889E-01
   1       -3.7524
   2       -2.6685
   3       -2.6591
   4       -2.6591
   5       -2.5402
   6       -2.4880
   7       -2.4880
   8       -1.2395
   9       -0.9952
  10       -0.9900
  11       -0.1220
  12        0.0060
  13        0.3719
  14        0.3719
  15        0.5692
  16        0.5774
  17        0.5882
  18        0.5882
  19        0.9165
  20        0.9694
  21        0.9694
  22        4.2882
  23        5.8540
  24        5.8540
  25       11.5376
  26       11.5376
  27       12.8857
  28       12.9696
 
  0.2500000E+00  0.8333333E-01  0.8333333E-01  0.1388889E-01
   1       -3.4133
   2       -2.5357
   3       -2.5000
   4       -2.5000
   5       -2.4226
   6       -2.2949
   7       -2.2949
   8       -1.3647
   9       -0.8753
  10       -0.8735
  11       -0.2197
  12       -0.0827
  13       -0.0827
  14        0.0842
  15        0.3334
  16        0.3992
  17        0.4251
  18        0.4251
  19        0.8184
  20        0.9575
  21        0.9575
  22        3.1121
  23        6.5570
  24        6.5570
  25       11.5160
  26       11.5160
  27       12.1316
  28       12.1316
 
  0.3333333E+00  0.8333333E-01  0.8333333E-01  0.1388889E-01
   1       -2.9860
   2       -2.3870
   3       -2.2968
   4       -2.2968
   5       -2.2654
   6       -2.0520
   7       -2.0520
   8       -1.5282
   9       -0.7626
  10       -0.7148
  11       -0.5601
  12       -0.5601
  13       -0.2422
  14        0.0264
  15        0.1831
  16        0.1868
  17        0.2274
  18        0.2274
  19        0.7013
  20        0.9508
  21        0.9508
  22        2.0115
  23        7.3680
  24        7.3680
  25       10.8817
  26       10.8817
  27       12.0137
  28       12.0137
 
  0.4166667E+00  0.8333333E-01  0.8333333E-01  0.1388889E-01
   1       -2.5570
   2       -2.2677
   3       -2.0984
   4       -2.0984
   5       -2.0883
   6       -1.7745
   7       -1.7745
   8       -1.7135
   9       -1.0107
  10       -1.0107
  11       -0.7183
  12       -0.5193
  13       -0.3112
  14       -0.0556
  15       -0.0401
  16        0.0513
  17        0.0513
  18        0.3073
  19        0.5724
  20        0.9476
  21        0.9476
  22        1.0868
  23        8.2303
  24        8.2303
  25       10.0068
  26       10.0068
  27       12.2393
  28       12.2393
 
  0.5000000E+00  0.8333333E-01  0.8333333E-01  0.6944444E-02
   1       -2.2871
   2       -2.2871
   3       -2.0096
   4       -2.0096
   5       -1.9041
   6       -1.9041
   7       -1.5167
   8       -1.5167
   9       -1.3356
  10       -1.3356
  11       -0.5966
  12       -0.5966
  13       -0.2954
  14       -0.2954
  15       -0.0228
  16       -0.0228
  17        0.4017
  18        0.4017
  19        0.4385
  20        0.4385
  21        0.9467
  22        0.9467
  23        9.0395
  24        9.0395
  25        9.1941
  26        9.1941
  27       12.4175
  28       12.4175
 
  0.1666667E+00  0.1666667E+00  0.8333333E-01  0.1388889E-01
   1       -3.5514
   2       -2.5969
   3       -2.5748
   4       -2.5748
   5       -2.4137
   6       -2.4137
   7       -2.3416
   8       -1.2596
   9       -0.9641
  10       -0.9413
  11       -0.1333
  12        0.0145
  13        0.1767
  14        0.1872
  15        0.1872
  16        0.4349
  17        0.5092
  18        0.5092
  19        0.9094
  20        0.9094
  21        0.9200
  22        4.7609
  23        4.7609
  24        6.3037
  25       11.4104
  26       12.0001
  27       12.8365
  28       12.8365
 
  0.2500000E+00  0.1666667E+00  0.8333333E-01  0.2777778E-01
   1       -3.2351
   2       -2.4732
   3       -2.4540
   4       -2.4208
   5       -2.2882
   6       -2.2209
   7       -2.1375
   8       -1.3432
   9       -0.8702
  10       -0.8653
  11       -0.2625
  12       -0.1957
  13       -0.1885
  14       -0.0590
  15        0.1091
  16        0.2927
  17        0.3424
  18        0.3877
  19        0.8243
  20        0.8743
  21        0.8753
  22        3.5722
  23        5.4029
  24        6.9477
  25       10.5471
  26       11.9101
  27       12.1266
  28       13.3063
 
  0.3333333E+00  0.1666667E+00  0.8333333E-01  0.2777778E-01
   1       -2.8417
   2       -2.3215
   3       -2.2917
   4       -2.2170
   5       -2.1194
   6       -1.9892
   7       -1.9088
   8       -1.4741
   9       -0.8217
  10       -0.7302
  11       -0.7073
  12       -0.6053
  13       -0.3442
  14       -0.1706
  15        0.1202
  16        0.1307
  17        0.2143
  18        0.2558
  19        0.7098
  20        0.8439
  21        0.8474
  22        2.4659
  23        6.1340
  24        7.7022
  25        9.5671
  26       11.2010
  27       12.1202
  28       13.4973
 
  0.4166667E+00  0.1666667E+00  0.8333333E-01  0.2777778E-01
   1       -2.4533
   2       -2.2117
   3       -2.0761
   4       -2.0038
   5       -1.9377
   6       -1.7580
   7       -1.7064
   8       -1.6251
   9       -1.0898
  10       -1.0002
  11       -0.8558
  12       -0.6314
  13       -0.5570
  14       -0.1200
  15       -0.0138
  16        0.0378
  17        0.0515
  18        0.4630
  19        0.5584
  20        0.8288
  21        0.8314
  22        1.5302
  23        6.9144
  24        8.3860
  25        8.7825
  26       10.2996
  27       12.4603
  28       13.4295
 
  0.5000000E+00  0.1666667E+00  0.8333333E-01  0.1388889E-01
   1       -2.2167
   2       -2.2167
   3       -1.9237
   4       -1.9237
   5       -1.7766
   6       -1.7766
   7       -1.6081
   8       -1.6081
   9       -1.2562
  10       -1.2562
  11       -0.8297
  12       -0.8297
  13       -0.3512
  14       -0.3512
  15       -0.0584
  16       -0.0584
  17        0.3475
  18        0.3475
  19        0.8254
  20        0.8254
  21        0.8434
  22        0.8434
  23        7.7265
  24        7.7265
  25        9.4318
  26        9.4318
  27       12.9224
  28       12.9224
 
  0.2500000E+00  0.2500000E+00  0.8333333E-01  0.1388889E-01
   1       -2.9604
   2       -2.3886
   3       -2.3127
   4       -2.3127
   5       -2.0908
   6       -2.0908
   7       -1.9341
   8       -1.3508
   9       -0.8419
  10       -0.8241
  11       -0.4936
  12       -0.4936
  13       -0.4023
  14       -0.2304
  15        0.1370
  16        0.2462
  17        0.2642
  18        0.2642
  19        0.7679
  20        0.7679
  21        0.7850
  22        4.1827
  23        4.1827
  24        7.5140
  25        9.4019
  26       12.0617
  27       12.6544
  28       12.6544
 
  0.3333333E+00  0.2500000E+00  0.8333333E-01  0.2777778E-01
   1       -2.6298
   2       -2.2448
   3       -2.2014
   4       -2.1176
   5       -1.9101
   6       -1.8675
   7       -1.7252
   8       -1.4073
   9       -0.8927
  10       -0.8504
  11       -0.7399
  12       -0.7244
  13       -0.6979
  14       -0.2126
  15       -0.0087
  16        0.0665
  17        0.1344
  18        0.4829
  19        0.6354
  20        0.7063
  21        0.7133
  22        3.0549
  23        4.8743
  24        8.0060
  25        8.5465
  26       11.6746
  27       12.3363
  28       13.2976
 
  0.4166667E+00  0.2500000E+00  0.8333333E-01  0.2777778E-01
   1       -2.3156
   2       -2.1166
   3       -2.0485
   4       -1.8862
   5       -1.7157
   6       -1.7138
   7       -1.5917
   8       -1.4873
   9       -1.1718
  10       -0.9904
  11       -0.9565
  12       -0.9533
  13       -0.5778
  14       -0.1631
  15       -0.1227
  16       -0.0318
  17       -0.0244
  18        0.4590
  19        0.6676
  20        0.6700
  21        0.8270
  22        2.0917
  23        5.6215
  24        7.2807
  25        9.0860
  26       10.7580
  27       12.7390
  28       13.9521
 
  0.5000000E+00  0.2500000E+00  0.8333333E-01  0.1388889E-01
   1       -2.1270
   2       -2.1270
   3       -1.8302
   4       -1.8302
   5       -1.6553
   6       -1.6553
   7       -1.5701
   8       -1.5701
   9       -1.1772
  10       -1.1772
  11       -1.0430
  12       -1.0430
  13       -0.3865
  14       -0.3865
  15       -0.1362
  16       -0.1362
  17        0.2273
  18        0.2273
  19        0.6556
  20        0.6556
  21        1.3444
  22        1.3444
  23        6.4222
  24        6.4222
  25        9.8952
  26        9.8952
  27       13.2802
  28       13.2802
 
  0.3333333E+00  0.3333333E+00  0.8333333E-01  0.1388889E-01
   1       -2.3925
   2       -2.1502
   3       -2.0358
   4       -2.0358
   5       -1.6790
   6       -1.6790
   7       -1.5470
   8       -1.3641
   9       -1.0764
  10       -1.0764
  11       -0.8541
  12       -0.8396
  13       -0.6917
  14       -0.2509
  15       -0.1531
  16       -0.0231
  17       -0.0231
  18        0.5416
  19        0.5416
  20        0.5921
  21        0.8296
  22        3.7189
  23        3.7189
  24        7.1120
  25        8.9707
  26       12.2847
  27       12.2847
  28       12.6689
 
  0.4166667E+00  0.3333333E+00  0.8333333E-01  0.2777778E-01
   1       -2.1806
   2       -2.0087
   3       -1.9982
   4       -1.8528
   5       -1.5801
   6       -1.4714
   7       -1.4520
   8       -1.3550
   9       -1.2176
  10       -1.2102
  11       -0.9769
  12       -0.9556
  13       -0.5989
  14       -0.2599
  15       -0.2264
  16       -0.1511
  17       -0.1318
  18        0.3420
  19        0.4772
  20        0.5038
  21        1.2921
  22        2.7208
  23        4.4452
  24        6.1281
  25        9.6929
  26       11.3520
  27       13.0057
  28       13.1343
 
  0.5000000E+00  0.3333333E+00  0.8333333E-01  0.1388889E-01
   1       -2.0403
   2       -2.0403
   3       -1.8416
   4       -1.8416
   5       -1.5661
   6       -1.5661
   7       -1.3456
   8       -1.3456
   9       -1.1594
  10       -1.1594
  11       -1.0866
  12       -1.0866
  13       -0.4313
  14       -0.4313
  15       -0.2614
  16       -0.2614
  17        0.1028
  18        0.1028
  19        0.4638
  20        0.4638
  21        1.9111
  22        1.9111
  23        5.2425
  24        5.2425
  25       10.4907
  26       10.4907
  27       13.7403
  28       13.7403
 
  0.4166667E+00  0.4166667E+00  0.8333333E-01  0.1388889E-01
   1       -2.0672
   2       -1.9496
   3       -1.8978
   4       -1.8978
   5       -1.4234
   6       -1.4181
   7       -1.4181
   8       -1.3101
   9       -1.1582
  10       -1.1582
  11       -0.9417
  12       -0.8977
  13       -0.6186
  14       -0.3865
  15       -0.3241
  16       -0.3241
  17       -0.1187
  18        0.2648
  19        0.2648
  20        0.3590
  21        1.8596
  22        3.4198
  23        3.4198
  24        5.1038
  25       10.4017
  26       12.0559
  27       12.0559
  28       13.6627
 
  0.5000000E+00  0.4166667E+00  0.8333333E-01  0.1388889E-01
   1       -1.9738
   2       -1.9738
   3       -1.8884
   4       -1.8884
   5       -1.4502
   6       -1.4502
   7       -1.3342
   8       -1.3342
   9       -1.0029
  10       -1.0029
  11       -0.9713
  12       -0.9713
  13       -0.5049
  14       -0.5049
  15       -0.4157
  16       -0.4157
  17        0.0442
  18        0.0442
  19        0.2700
  20        0.2700
  21        2.5599
  22        2.5599
  23        4.2066
  24        4.2066
  25       11.1902
  26       11.1902
  27       12.8534
  28       12.8534
 
  0.5000000E+00  0.5000000E+00  0.8333333E-01  0.3472222E-02
   1       -1.9288
   2       -1.9288
   3       -1.9288
   4       -1.9288
   5       -1.3801
   6       -1.3801
   7       -1.3801
   8       -1.3801
   9       -0.8844
  10       -0.8844
  11       -0.8844
  12       -0.8844
  13       -0.5387
  14       -0.5387
  15       -0.5387
  16       -0.5387
  17        0.1095
  18        0.1095
  19        0.1095
  20        0.1095
  21        3.3168
  22        3.3168
  23        3.3168
  24        3.3168
  25       11.9788
  26       11.9788
  27       11.9788
  28       11.9788
 
  0.1666667E+00  0.1666667E+00  0.1666667E+00  0.4629630E-02
   1       -3.3717
   2       -2.5261
   3       -2.5261
   4       -2.5261
   5       -2.2598
   6       -2.2598
   7       -2.2598
   8       -1.2324
   9       -0.9361
  10       -0.9361
  11       -0.0492
  12       -0.0492
  13        0.0227
  14        0.0227
  15        0.0227
  16        0.2848
  17        0.2848
  18        0.2848
  19        0.9250
  20        0.9250
  21        0.9250
  22        5.1646
  23        5.1646
  24        5.1646
  25       11.9476
  26       11.9476
  27       11.9476
  28       13.2416
 
  0.2500000E+00  0.1666667E+00  0.1666667E+00  0.1388889E-01