   4   4   0   0
  0.1276167E+02  0.3709561E-09  0.3709561E-09  0.3709561E-09  0.5000000E-15
  1.000000000000000E-004
  CAR 
 unknown system                          
     25.45054606     -7.10078553  301      3.16163305      1.00000000
     -7.101  0.0000E+00  0.0000E+00
     -6.992  0.0000E+00  0.0000E+00
     -6.884  0.0000E+00  0.0000E+00
     -6.775  0.0000E+00  0.0000E+00
     -6.667  0.0000E+00  0.0000E+00
     -6.558  0.0000E+00  0.0000E+00
     -6.450  0.0000E+00  0.0000E+00
     -6.341  0.0000E+00  0.0000E+00
     -6.233  0.0000E+00  0.0000E+00
     -6.124  0.0000E+00  0.0000E+00
     -6.016  0.0000E+00  0.0000E+00
     -5.907  0.0000E+00  0.0000E+00
     -5.799  0.0000E+00  0.0000E+00
     -5.690  0.0000E+00  0.0000E+00
     -5.582  0.1476E-01  0.1602E-02
     -5.473  0.7640E-01  0.1176E-01
     -5.365  0.1165E+00  0.2828E-01
     -5.256  0.1457E+00  0.4800E-01
     -5.148  0.1725E+00  0.7175E-01
     -5.039  0.1694E+00  0.9721E-01
     -4.931  0.1862E+00  0.1260E+00
     -4.822  0.2406E+00  0.1598E+00
     -4.714  0.2224E+00  0.1908E+00
     -4.605  0.2484E+00  0.2283E+00
     -4.497  0.2812E+00  0.2662E+00
     -4.388  0.2667E+00  0.3055E+00
     -4.280  0.3046E+00  0.3524E+00
     -4.171  0.3136E+00  0.3935E+00
     -4.063  0.3204E+00  0.4444E+00
     -3.954  0.3106E+00  0.4937E+00
     -3.846  0.4034E+00  0.5496E+00
     -3.737  0.3526E+00  0.5992E+00
     -3.629  0.4170E+00  0.6609E+00
     -3.520  0.4568E+00  0.7191E+00
     -3.412  0.3883E+00  0.7780E+00
     -3.303  0.4093E+00  0.8464E+00
     -3.195  0.4667E+00  0.9123E+00
     -3.086  0.4460E+00  0.9842E+00
     -2.978  0.5428E+00  0.1057E+01
     -2.869  0.5234E+00  0.1135E+01
     -2.761  0.5381E+00  0.1216E+01
     -2.652  0.6195E+00  0.1302E+01
     -2.544  0.6212E+00  0.1390E+01
     -2.435  0.7054E+00  0.1487E+01
     -2.327  0.6661E+00  0.1585E+01
     -2.218  0.8194E+00  0.1701E+01
     -2.110  0.8488E+00  0.1815E+01
     -2.001  0.8819E+00  0.1939E+01
     -1.893  0.1015E+01  0.2083E+01
     -1.784  0.1031E+01  0.2236E+01
     -1.676  0.1276E+01  0.2424E+01
     -1.567  0.1622E+01  0.2648E+01
     -1.459  0.2115E+01  0.2952E+01
     -1.350  0.2404E+01  0.3310E+01
     -1.242  0.3567E+01  0.3800E+01
     -1.133  0.3809E+01  0.4352E+01
     -1.025  0.3728E+01  0.4930E+01
     -0.916  0.4048E+01  0.5549E+01
     -0.808  0.5810E+01  0.6324E+01
     -0.699  0.6746E+01  0.7302E+01
     -0.591  0.8069E+01  0.8458E+01
     -0.482  0.7324E+01  0.9550E+01
     -0.374  0.6858E+01  0.1054E+02
     -0.265  0.7020E+01  0.1159E+02
     -0.157  0.6651E+01  0.1257E+02
     -0.048  0.8543E+01  0.1376E+02
      0.061  0.9809E+01  0.1519E+02
      0.169  0.1057E+02  0.1675E+02
      0.278  0.1188E+02  0.1844E+02
      0.386  0.1321E+02  0.2040E+02
      0.495  0.1638E+02  0.2270E+02
      0.603  0.1094E+02  0.2443E+02
      0.712  0.8856E+01  0.2578E+02
      0.820  0.8691E+01  0.2703E+02
      0.929  0.1146E+02  0.2863E+02
      1.037  0.1267E+02  0.3048E+02
      1.146  0.1178E+02  0.3223E+02
      1.254  0.1055E+02  0.3381E+02
      1.363  0.1111E+02  0.3540E+02
      1.471  0.1303E+02  0.3729E+02
      1.580  0.2134E+02  0.4027E+02
      1.688  0.8753E+01  0.4181E+02
      1.797  0.1500E+01  0.4203E+02
      1.905  0.1402E+01  0.4222E+02
      2.014  0.1272E+01  0.4240E+02
      2.122  0.1185E+01  0.4257E+02
      2.231  0.1207E+01  0.4274E+02
      2.339  0.1080E+01  0.4290E+02
      2.448  0.9181E+00  0.4305E+02
      2.556  0.1030E+01  0.4321E+02
      2.665  0.1162E+01  0.4337E+02
      2.773  0.8491E+00  0.4350E+02
      2.882  0.9128E+00  0.4365E+02
      2.990  0.1022E+01  0.4379E+02
      3.099  0.8845E+00  0.4393E+02
      3.207  0.8760E+00  0.4406E+02
      3.316  0.8384E+00  0.4420E+02
      3.424  0.7472E+00  0.4432E+02
      3.533  0.9386E+00  0.4447E+02
      3.641  0.6890E+00  0.4458E+02
      3.750  0.1011E+01  0.4472E+02
      3.858  0.8443E+00  0.4484E+02
      3.967  0.7748E+00  0.4496E+02
      4.075  0.8894E+00  0.4509E+02
      4.184  0.7185E+00  0.4520E+02
      4.292  0.8842E+00  0.4532E+02
      4.401  0.7070E+00  0.4544E+02
      4.509  0.6752E+00  0.4554E+02
      4.618  0.9249E+00  0.4568E+02
      4.726  0.7648E+00  0.4578E+02
      4.835  0.7257E+00  0.4589E+02
      4.943  0.7553E+00  0.4601E+02
      5.052  0.6960E+00  0.4612E+02
      5.160  0.7513E+00  0.4623E+02
      5.269  0.7444E+00  0.4634E+02
      5.377  0.6391E+00  0.4643E+02
      5.486  0.7291E+00  0.4654E+02
      5.594  0.6197E+00  0.4664E+02
      5.703  0.6528E+00  0.4673E+02
      5.811  0.5397E+00  0.4681E+02
      5.920  0.8135E+00  0.4692E+02
      6.028  0.5158E+00  0.4699E+02
      6.137  0.4507E+00  0.4706E+02
      6.245  0.5484E+00  0.4715E+02
      6.354  0.5627E+00  0.4723E+02
      6.462  0.3976E+00  0.4730E+02
      6.571  0.5274E+00  0.4737E+02
      6.679  0.8359E+00  0.4749E+02
      6.788  0.9061E+00  0.4762E+02
      6.896  0.7374E+00  0.4773E+02
      7.005  0.9728E+00  0.4787E+02
      7.113  0.8222E+00  0.4800E+02
      7.222  0.7936E+00  0.4813E+02
      7.330  0.8418E+00  0.4825E+02
      7.439  0.1035E+01  0.4840E+02
      7.547  0.7946E+00  0.4852E+02
      7.656  0.9443E+00  0.4865E+02
      7.764  0.8471E+00  0.4878E+02
      7.873  0.9098E+00  0.4890E+02
      7.981  0.8894E+00  0.4903E+02
      8.090  0.8177E+00  0.4916E+02
      8.198  0.9028E+00  0.4928E+02
      8.307  0.9434E+00  0.4941E+02
      8.415  0.7709E+00  0.4952E+02
      8.524  0.7989E+00  0.4964E+02
      8.632  0.7874E+00  0.4976E+02
      8.741  0.7824E+00  0.4987E+02
      8.849  0.7195E+00  0.4998E+02
      8.958  0.7645E+00  0.5009E+02
      9.066  0.6929E+00  0.5020E+02
      9.175  0.7103E+00  0.5031E+02
      9.283  0.6725E+00  0.5041E+02
      9.392  0.7633E+00  0.5053E+02
      9.500  0.7285E+00  0.5062E+02
      9.609  0.6563E+00  0.5072E+02
      9.717  0.7465E+00  0.5083E+02
      9.826  0.7496E+00  0.5093E+02
      9.934  0.9151E+00  0.5107E+02
     10.043  0.8719E+00  0.5120E+02
     10.151  0.1021E+01  0.5135E+02
     10.260  0.9456E+00  0.5150E+02
     10.368  0.9493E+00  0.5163E+02
     10.477  0.9555E+00  0.5177E+02
     10.585  0.1067E+01  0.5192E+02
     10.694  0.9970E+00  0.5208E+02
     10.802  0.9811E+00  0.5222E+02
     10.911  0.9506E+00  0.5237E+02
     11.019  0.1006E+01  0.5253E+02
     11.128  0.1044E+01  0.5269E+02
     11.236  0.1155E+01  0.5285E+02
     11.345  0.1016E+01  0.5300E+02
     11.453  0.1150E+01  0.5316E+02
     11.562  0.1044E+01  0.5332E+02
     11.670  0.1078E+01  0.5348E+02
     11.779  0.9880E+00  0.5363E+02
     11.887  0.1203E+01  0.5380E+02
     11.996  0.9874E+00  0.5395E+02
     12.105  0.1163E+01  0.5411E+02
     12.213  0.1119E+01  0.5428E+02
     12.322  0.1211E+01  0.5445E+02
     12.430  0.9887E+00  0.5461E+02
     12.539  0.1088E+01  0.5477E+02
     12.647  0.1026E+01  0.5492E+02
     12.756  0.1061E+01  0.5509E+02
     12.864  0.1163E+01  0.5526E+02
     12.973  0.1075E+01  0.5543E+02
     13.081  0.1130E+01  0.5560E+02
     13.190  0.1067E+01  0.5575E+02
     13.298  0.1141E+01  0.5592E+02
     13.407  0.1162E+01  0.5610E+02
     13.515  0.1280E+01  0.5628E+02
     13.624  0.9636E+00  0.5643E+02
     13.732  0.1131E+01  0.5660E+02
     13.841  0.1215E+01  0.5679E+02
     13.949  0.1063E+01  0.5694E+02
     14.058  0.1215E+01  0.5712E+02
     14.166  0.1268E+01  0.5730E+02
     14.275  0.1189E+01  0.5747E+02
     14.383  0.1122E+01  0.5764E+02
     14.492  0.1139E+01  0.5781E+02
     14.600  0.1279E+01  0.5799E+02
     14.709  0.1373E+01  0.5819E+02
     14.817  0.1056E+01  0.5834E+02
     14.926  0.1397E+01  0.5854E+02
     15.034  0.1318E+01  0.5873E+02
     15.143  0.1041E+01  0.5889E+02
     15.251  0.1367E+01  0.5910E+02
     15.360  0.1159E+01  0.5927E+02
     15.468  0.1275E+01  0.5946E+02
     15.577  0.1466E+01  0.5966E+02
     15.685  0.1284E+01  0.5985E+02
     15.794  0.1287E+01  0.6005E+02
     15.902  0.1244E+01  0.6025E+02
     16.011  0.1237E+01  0.6043E+02
     16.119  0.1233E+01  0.6061E+02
     16.228  0.1186E+01  0.6078E+02
     16.336  0.1132E+01  0.6095E+02
     16.445  0.1214E+01  0.6113E+02
     16.553  0.1017E+01  0.6129E+02
     16.662  0.1044E+01  0.6144E+02
     16.770  0.9310E+00  0.6159E+02
     16.879  0.1046E+01  0.6174E+02
     16.987  0.7172E+00  0.6185E+02
     17.096  0.8934E+00  0.6199E+02
     17.204  0.8056E+00  0.6211E+02
     17.313  0.6807E+00  0.6220E+02
     17.421  0.7019E+00  0.6231E+02
     17.530  0.5871E+00  0.6239E+02
     17.638  0.5276E+00  0.6247E+02
     17.747  0.5561E+00  0.6256E+02
     17.855  0.5500E+00  0.6265E+02
     17.964  0.4381E+00  0.6271E+02
     18.072  0.4110E+00  0.6278E+02
     18.181  0.3903E+00  0.6285E+02
     18.289  0.4789E+00  0.6292E+02
     18.398  0.4494E+00  0.6298E+02
     18.506  0.4686E+00  0.6304E+02
     18.615  0.3069E+00  0.6309E+02
     18.723  0.3773E+00  0.6315E+02
     18.832  0.4122E+00  0.6320E+02
     18.940  0.2063E+00  0.6323E+02
     19.049  0.4330E+00  0.6329E+02
     19.157  0.1639E+00  0.6332E+02
     19.266  0.3157E+00  0.6337E+02
     19.374  0.2101E+00  0.6340E+02
     19.483  0.3068E+00  0.6344E+02
     19.591  0.1945E+00  0.6347E+02
     19.700  0.2555E+00  0.6350E+02
     19.808  0.1862E+00  0.6353E+02
     19.917  0.2405E+00  0.6356E+02
     20.025  0.1291E+00  0.6359E+02
     20.134  0.2410E+00  0.6362E+02
     20.242  0.1234E+00  0.6364E+02
     20.351  0.2216E+00  0.6367E+02
     20.459  0.1084E+00  0.6369E+02
     20.568  0.4166E-01  0.6371E+02
     20.676  0.2120E+00  0.6373E+02
     20.785  0.1423E+00  0.6375E+02
     20.893  0.1954E+00  0.6378E+02
     21.002  0.5752E-01  0.6378E+02
     21.110  0.1387E+00  0.6381E+02
     21.219  0.1445E+00  0.6382E+02
     21.327  0.1297E+00  0.6384E+02
     21.436  0.8686E-01  0.6385E+02
     21.544  0.4034E-01  0.6386E+02
     21.653  0.8578E-01  0.6388E+02
     21.761  0.7467E-01  0.6389E+02
     21.870  0.6608E-01  0.6390E+02
     21.978  0.2225E-01  0.6390E+02
     22.087  0.8852E-01  0.6392E+02
     22.195  0.6637E-01  0.6393E+02
     22.304  0.6638E-01  0.6394E+02
     22.412  0.1896E-01  0.6394E+02
     22.521  0.1042E+00  0.6395E+02
     22.629  0.5075E-01  0.6396E+02
     22.738  0.4081E-01  0.6396E+02
     22.846  0.3781E-08  0.6397E+02
     22.955  0.7584E-01  0.6397E+02
     23.063  0.4740E-01  0.6398E+02
     23.172  0.2845E-01  0.6398E+02
     23.280  0.1880E-01  0.6398E+02
     23.389  0.3293E-01  0.6399E+02
     23.497  0.9450E-02  0.6399E+02
     23.606  0.1798E-03  0.6399E+02
     23.714  0.2462E-01  0.6400E+02
     23.823  0.1605E-16  0.6400E+02
     23.931  0.2090E-01  0.6400E+02
     24.040  0.1580E-02  0.6400E+02
     24.148  0.0000E+00  0.6400E+02
     24.257  0.0000E+00  0.6400E+02
     24.366  0.0000E+00  0.6400E+02
     24.474  0.0000E+00  0.6400E+02
     24.583  0.0000E+00  0.6400E+02
     24.691  0.0000E+00  0.6400E+02
     24.800  0.0000E+00  0.6400E+02
     24.908  0.0000E+00  0.6400E+02
     25.017  0.0000E+00  0.6400E+02
     25.125  0.0000E+00  0.6400E+02
     25.234  0.0000E+00  0.6400E+02
     25.342  0.0000E+00  0.6400E+02
     25.451  0.0000E+00  0.6400E+02
