 running on    8 nodes
 distr:  one band on    1 nodes,    8 groups
 vasp.4.6.28 25Jul05 complex 
 POSCAR found :  1 types and    4 ions
 WARNING: PSMAXN for non-local potential too small
 LDA part: xc-table for Pade appr. of Perdew
 POSCAR, INCAR and KPOINTS ok, starting setup
 FFT: planning ...           1
 reading WAVECAR
 WARNING: random wavefunctions but no delay for mixing, default for NELMDL
 entering main loop
       N       E                     dE             d eps       ncg     rms          rms(c)
DAV:   1     0.620024670515E+03    0.62002E+03   -0.32056E+04 85120   0.235E+03
DAV:   2     0.681283816422E+01   -0.61321E+03   -0.57106E+03 85136   0.522E+02
DAV:   3    -0.136020533847E+02   -0.20415E+02   -0.20035E+02100128   0.117E+02
DAV:   4    -0.138000028408E+02   -0.19795E+00   -0.19782E+00 94000   0.955E+00
DAV:   5    -0.138018894170E+02   -0.18866E-02   -0.18864E-02101392   0.875E-01    0.588E+00
DAV:   6    -0.128911226519E+02    0.91077E+00   -0.17503E+00 97448   0.127E+01    0.169E+00
DAV:   7    -0.128083130721E+02    0.82810E-01   -0.16345E-01104336   0.324E+00    0.564E-01
DAV:   8    -0.127941735545E+02    0.14140E-01   -0.86755E-03 92160   0.819E-01    0.460E-02
DAV:   9    -0.127942192588E+02   -0.45704E-04   -0.25377E-04104800   0.126E-01    0.249E-02
DAV:  10    -0.127942252556E+02   -0.59968E-05   -0.20604E-05 95600   0.283E-02    0.207E-03
DAV:  11    -0.127942271111E+02   -0.18555E-05   -0.39699E-07101136   0.478E-03    0.465E-04
DAV:  12    -0.127942267475E+02    0.36360E-06   -0.17701E-08 83064   0.110E-03    0.127E-04
DAV:  13    -0.127942266374E+02    0.11005E-06   -0.14827E-09 62568   0.331E-04    0.147E-05
DAV:  14    -0.127942266473E+02   -0.98303E-08   -0.14145E-10 56488   0.952E-05
   1 F= -.12794227E+02 E0= -.12794199E+02  d E =-.555092E-04
