   4   4   0   0
  0.1658611E+02  0.4048258E-09  0.4048258E-09  0.4048258E-09  0.5000000E-15
  1.000000000000000E-004
  CAR 
 unknown system                          
     22.92854079     -5.31807811  301      6.12506335      1.00000000
     -5.318  0.0000E+00  0.0000E+00
     -5.224  0.0000E+00  0.0000E+00
     -5.130  0.0000E+00  0.0000E+00
     -5.036  0.0000E+00  0.0000E+00
     -4.941  0.0000E+00  0.0000E+00
     -4.847  0.0000E+00  0.0000E+00
     -4.753  0.0000E+00  0.0000E+00
     -4.659  0.0000E+00  0.0000E+00
     -4.565  0.0000E+00  0.0000E+00
     -4.471  0.0000E+00  0.0000E+00
     -4.377  0.0000E+00  0.0000E+00
     -4.282  0.0000E+00  0.0000E+00
     -4.188  0.0000E+00  0.0000E+00
     -4.094  0.0000E+00  0.0000E+00
     -4.000  0.1297E-01  0.1221E-02
     -3.906  0.7485E-01  0.9493E-02
     -3.812  0.1046E+00  0.2061E-01
     -3.717  0.1532E+00  0.3653E-01
     -3.623  0.1627E+00  0.5497E-01
     -3.529  0.1861E+00  0.7569E-01
     -3.435  0.1999E+00  0.9766E-01
     -3.341  0.2443E+00  0.1237E+00
     -3.247  0.2418E+00  0.1490E+00
     -3.153  0.2383E+00  0.1778E+00
     -3.058  0.2717E+00  0.2105E+00
     -2.964  0.3092E+00  0.2442E+00
     -2.870  0.3631E+00  0.2814E+00
     -2.776  0.2867E+00  0.3149E+00
     -2.682  0.3974E+00  0.3578E+00
     -2.588  0.3509E+00  0.3987E+00
     -2.493  0.3583E+00  0.4454E+00
     -2.399  0.4276E+00  0.4935E+00
     -2.305  0.4834E+00  0.5460E+00
     -2.211  0.4821E+00  0.6003E+00
     -2.117  0.5357E+00  0.6601E+00
     -2.023  0.5682E+00  0.7251E+00
     -1.928  0.5804E+00  0.7895E+00
     -1.834  0.7313E+00  0.8692E+00
     -1.740  0.6306E+00  0.9430E+00
     -1.646  0.7687E+00  0.1038E+01
     -1.552  0.1092E+01  0.1150E+01
     -1.458  0.1625E+01  0.1317E+01
     -1.364  0.2084E+01  0.1554E+01
     -1.269  0.2284E+01  0.1802E+01
     -1.175  0.2790E+01  0.2090E+01
     -1.081  0.3157E+01  0.2439E+01
     -0.987  0.3695E+01  0.2839E+01
     -0.893  0.4461E+01  0.3325E+01
     -0.799  0.5221E+01  0.3904E+01
     -0.704  0.5963E+01  0.4558E+01
     -0.610  0.6356E+01  0.5268E+01
     -0.516  0.6308E+01  0.5966E+01
     -0.422  0.6057E+01  0.6619E+01
     -0.328  0.5789E+01  0.7244E+01
     -0.234  0.5588E+01  0.7846E+01
     -0.140  0.5377E+01  0.8450E+01
     -0.045  0.5412E+01  0.9033E+01
      0.049  0.4489E+01  0.9541E+01
      0.143  0.3996E+01  0.9983E+01
      0.237  0.3535E+01  0.1037E+02
      0.331  0.4946E+01  0.1092E+02
      0.425  0.5719E+01  0.1154E+02
      0.520  0.5858E+01  0.1217E+02
      0.614  0.6206E+01  0.1286E+02
      0.708  0.6510E+01  0.1357E+02
      0.802  0.6458E+01  0.1428E+02
      0.896  0.5978E+01  0.1495E+02
      0.990  0.6681E+01  0.1569E+02
      1.084  0.6212E+01  0.1638E+02
      1.179  0.6822E+01  0.1716E+02
      1.273  0.7618E+01  0.1800E+02
      1.367  0.8037E+01  0.1891E+02
      1.461  0.9010E+01  0.1993E+02
      1.555  0.1188E+02  0.2123E+02
      1.649  0.9551E+01  0.2236E+02
      1.744  0.7161E+01  0.2316E+02
      1.838  0.5870E+01  0.2382E+02
      1.932  0.5430E+01  0.2443E+02
      2.026  0.5693E+01  0.2505E+02
      2.120  0.5387E+01  0.2564E+02
      2.214  0.4965E+01  0.2619E+02
      2.309  0.5331E+01  0.2678E+02
      2.403  0.6133E+01  0.2744E+02
      2.497  0.6326E+01  0.2815E+02
      2.591  0.6627E+01  0.2888E+02
      2.685  0.7478E+01  0.2969E+02
      2.779  0.6868E+01  0.3047E+02
      2.873  0.5938E+01  0.3115E+02
      2.968  0.5618E+01  0.3180E+02
      3.062  0.5445E+01  0.3242E+02
      3.156  0.5454E+01  0.3302E+02
      3.250  0.5346E+01  0.3361E+02
      3.344  0.5249E+01  0.3419E+02
      3.438  0.5015E+01  0.3476E+02
      3.533  0.5718E+01  0.3537E+02
      3.627  0.5453E+01  0.3596E+02
      3.721  0.5719E+01  0.3658E+02
      3.815  0.6724E+01  0.3731E+02
      3.909  0.8031E+01  0.3817E+02
      4.003  0.9806E+01  0.3925E+02
      4.097  0.9720E+01  0.4032E+02
      4.192  0.6708E+01  0.4107E+02
      4.286  0.4488E+01  0.4158E+02
      4.380  0.3633E+01  0.4199E+02
      4.474  0.1633E+01  0.4219E+02
      4.568  0.7728E+00  0.4228E+02
      4.662  0.8904E+00  0.4238E+02
      4.757  0.8426E+00  0.4249E+02
      4.851  0.8284E+00  0.4257E+02
      4.945  0.9639E+00  0.4270E+02
      5.039  0.9000E+00  0.4279E+02
      5.133  0.8797E+00  0.4290E+02
      5.227  0.1008E+01  0.4300E+02
      5.321  0.8991E+00  0.4311E+02
      5.416  0.9531E+00  0.4321E+02
      5.510  0.8488E+00  0.4331E+02
      5.604  0.1002E+01  0.4342E+02
      5.698  0.9634E+00  0.4352E+02
      5.792  0.8315E+00  0.4362E+02
      5.886  0.9502E+00  0.4373E+02
      5.981  0.8632E+00  0.4383E+02
      6.075  0.9225E+00  0.4394E+02
      6.169  0.9422E+00  0.4404E+02
      6.263  0.7792E+00  0.4413E+02
      6.357  0.1087E+01  0.4426E+02
      6.451  0.7279E+00  0.4434E+02
      6.546  0.1107E+01  0.4445E+02
      6.640  0.7946E+00  0.4455E+02
      6.734  0.8818E+00  0.4465E+02
      6.828  0.9893E+00  0.4476E+02
      6.922  0.9367E+00  0.4486E+02
      7.016  0.9165E+00  0.4495E+02
      7.110  0.1044E+01  0.4507E+02
      7.205  0.7783E+00  0.4516E+02
      7.299  0.9338E+00  0.4527E+02
      7.393  0.8128E+00  0.4536E+02
      7.487  0.1002E+01  0.4547E+02
      7.581  0.8736E+00  0.4557E+02
      7.675  0.8358E+00  0.4566E+02
      7.770  0.8587E+00  0.4576E+02
      7.864  0.8280E+00  0.4586E+02
      7.958  0.9867E+00  0.4596E+02
      8.052  0.8494E+00  0.4605E+02
      8.146  0.7684E+00  0.4614E+02
      8.240  0.9120E+00  0.4623E+02
      8.334  0.8884E+00  0.4633E+02
      8.429  0.7074E+00  0.4641E+02
      8.523  0.7458E+00  0.4650E+02
      8.617  0.8366E+00  0.4659E+02
      8.711  0.7610E+00  0.4668E+02
      8.805  0.7049E+00  0.4676E+02
      8.899  0.7052E+00  0.4684E+02
      8.994  0.7356E+00  0.4693E+02
      9.088  0.6027E+00  0.4700E+02
      9.182  0.7500E+00  0.4708E+02
      9.276  0.7637E+00  0.4717E+02
      9.370  0.1838E+01  0.4736E+02
      9.464  0.1521E+01  0.4754E+02
      9.558  0.1315E+01  0.4769E+02
      9.653  0.1426E+01  0.4783E+02
      9.747  0.1110E+01  0.4796E+02
      9.841  0.1226E+01  0.4809E+02
      9.935  0.1165E+01  0.4821E+02
     10.029  0.9818E+00  0.4833E+02
     10.123  0.9363E+00  0.4844E+02
     10.218  0.9014E+00  0.4854E+02
     10.312  0.9381E+00  0.4864E+02
     10.406  0.9617E+00  0.4874E+02
     10.500  0.8092E+00  0.4883E+02
     10.594  0.1019E+01  0.4894E+02
     10.688  0.8965E+00  0.4904E+02
     10.782  0.7809E+00  0.4913E+02
     10.877  0.1117E+01  0.4926E+02
     10.971  0.1099E+01  0.4938E+02
     11.065  0.9557E+00  0.4948E+02
     11.159  0.1083E+01  0.4960E+02
     11.253  0.9735E+00  0.4971E+02
     11.347  0.1146E+01  0.4983E+02
     11.442  0.1093E+01  0.4995E+02
     11.536  0.1293E+01  0.5009E+02
     11.630  0.1153E+01  0.5022E+02
     11.724  0.9895E+00  0.5033E+02
     11.818  0.1345E+01  0.5048E+02
     11.912  0.1195E+01  0.5061E+02
     12.007  0.1119E+01  0.5074E+02
     12.101  0.1280E+01  0.5088E+02
     12.195  0.1247E+01  0.5101E+02
     12.289  0.1135E+01  0.5114E+02
     12.383  0.1192E+01  0.5126E+02
     12.477  0.8416E+00  0.5136E+02
     12.571  0.1200E+01  0.5149E+02
     12.666  0.8898E+00  0.5159E+02
     12.760  0.8973E+00  0.5169E+02
     12.854  0.1014E+01  0.5180E+02
     12.948  0.8390E+00  0.5190E+02
     13.042  0.1000E+01  0.5200E+02
     13.136  0.7563E+00  0.5210E+02
     13.231  0.1042E+01  0.5221E+02
     13.325  0.9426E+00  0.5232E+02
     13.419  0.8655E+00  0.5241E+02
     13.513  0.1297E+01  0.5255E+02
     13.607  0.1056E+01  0.5267E+02
     13.701  0.1350E+01  0.5281E+02
     13.795  0.1033E+01  0.5293E+02
     13.890  0.1222E+01  0.5306E+02
     13.984  0.1087E+01  0.5319E+02
     14.078  0.1063E+01  0.5330E+02
     14.172  0.1342E+01  0.5345E+02
     14.266  0.1117E+01  0.5358E+02
     14.360  0.1162E+01  0.5371E+02
     14.455  0.1111E+01  0.5383E+02
     14.549  0.1234E+01  0.5397E+02
     14.643  0.1320E+01  0.5411E+02
     14.737  0.1102E+01  0.5424E+02
     14.831  0.1112E+01  0.5436E+02
     14.925  0.9920E+00  0.5447E+02
     15.019  0.1416E+01  0.5463E+02
     15.114  0.1179E+01  0.5477E+02
     15.208  0.1209E+01  0.5490E+02
     15.302  0.1198E+01  0.5503E+02
     15.396  0.1189E+01  0.5516E+02
     15.490  0.1031E+01  0.5527E+02
     15.584  0.1322E+01  0.5542E+02
     15.679  0.1295E+01  0.5556E+02
     15.773  0.1112E+01  0.5568E+02
     15.867  0.1261E+01  0.5582E+02
     15.961  0.1349E+01  0.5597E+02
     16.055  0.1541E+01  0.5615E+02
     16.149  0.1395E+01  0.5630E+02
     16.244  0.1516E+01  0.5648E+02
     16.338  0.1292E+01  0.5663E+02
     16.432  0.1585E+01  0.5681E+02
     16.526  0.1626E+01  0.5699E+02
     16.620  0.1830E+01  0.5718E+02
     16.714  0.1454E+01  0.5735E+02
     16.808  0.1793E+01  0.5755E+02
     16.903  0.1322E+01  0.5770E+02
     16.997  0.1560E+01  0.5787E+02
     17.091  0.1816E+01  0.5807E+02
     17.185  0.1736E+01  0.5826E+02
     17.279  0.1234E+01  0.5839E+02
     17.373  0.1732E+01  0.5858E+02
     17.468  0.1472E+01  0.5874E+02
     17.562  0.1490E+01  0.5891E+02
     17.656  0.1532E+01  0.5909E+02
     17.750  0.1507E+01  0.5927E+02
     17.844  0.1536E+01  0.5943E+02
     17.938  0.1516E+01  0.5960E+02
     18.032  0.1301E+01  0.5974E+02
     18.127  0.1642E+01  0.5993E+02
     18.221  0.1512E+01  0.6011E+02
     18.315  0.1295E+01  0.6025E+02
     18.409  0.1734E+01  0.6043E+02
     18.503  0.1408E+01  0.6058E+02
     18.597  0.1396E+01  0.6073E+02
     18.692  0.1691E+01  0.6092E+02
     18.786  0.1325E+01  0.6107E+02
     18.880  0.1353E+01  0.6122E+02
     18.974  0.1392E+01  0.6138E+02
     19.068  0.1384E+01  0.6152E+02
     19.162  0.1260E+01  0.6167E+02
     19.256  0.1322E+01  0.6181E+02
     19.351  0.1112E+01  0.6193E+02
     19.445  0.1215E+01  0.6206E+02
     19.539  0.1007E+01  0.6217E+02
     19.633  0.1030E+01  0.6228E+02
     19.727  0.9453E+00  0.6239E+02
     19.821  0.7736E+00  0.6248E+02
     19.916  0.9304E+00  0.6259E+02
     20.010  0.7835E+00  0.6268E+02
     20.104  0.8267E+00  0.6277E+02
     20.198  0.8984E+00  0.6287E+02
     20.292  0.8866E+00  0.6296E+02
     20.386  0.6319E+00  0.6302E+02
     20.481  0.8114E+00  0.6311E+02
     20.575  0.7525E+00  0.6319E+02
     20.669  0.7300E+00  0.6328E+02
     20.763  0.7800E+00  0.6336E+02
     20.857  0.1340E+01  0.6351E+02
     20.951  0.1578E+01  0.6369E+02
     21.045  0.9110E+00  0.6379E+02
     21.140  0.7539E+00  0.6387E+02
     21.234  0.6053E+00  0.6394E+02
     21.328  0.3624E+00  0.6398E+02
     21.422  0.5097E-01  0.6399E+02
     21.516  0.6556E-01  0.6400E+02
     21.610  0.3278E-01  0.6400E+02
     21.705  0.3642E-02  0.6400E+02
     21.799  0.0000E+00  0.6400E+02
     21.893  0.0000E+00  0.6400E+02
     21.987  0.0000E+00  0.6400E+02
     22.081  0.0000E+00  0.6400E+02
     22.175  0.0000E+00  0.6400E+02
     22.269  0.0000E+00  0.6400E+02
     22.364  0.0000E+00  0.6400E+02
     22.458  0.0000E+00  0.6400E+02
     22.552  0.0000E+00  0.6400E+02
     22.646  0.0000E+00  0.6400E+02
     22.740  0.0000E+00  0.6400E+02
     22.834  0.0000E+00  0.6400E+02
     22.929  0.0000E+00  0.6400E+02
