    4    4    1    1
  0.1658611E+02  0.4048258E-09  0.4048258E-09  0.4048258E-09  0.5000000E-15
  1.000000000000000E-004
  CAR 
 unknown system                          
   44 1330   32
 
  0.0000000E+00  0.0000000E+00  0.0000000E+00  0.2143347E-04
   1       -4.0341
   2       -1.2619
   3       -1.2619
   4       -1.2619
   5       -0.9397
   6       -0.9397
   7       -0.9397
   8        1.2174
   9        1.2174
  10        1.2174
  11        2.8115
  12        2.8115
  13        4.0263
  14        4.0263
  15        4.0263
  16        4.4093
  17        4.4093
  18        4.4093
  19        4.4093
  20        4.4093
  21        4.4093
  22        7.0672
  23        7.0672
  24        7.0672
  25       12.1584
  26       12.1584
  27       12.1584
  28       16.4273
  29       16.4273
  30       16.4273
  31       16.4273
  32       16.4273
 
  0.2777778E-01  0.0000000E+00  0.0000000E+00  0.1286008E-03
   1       -4.0249
   2       -1.2585
   3       -1.2556
   4       -1.2556
   5       -0.9362
   6       -0.9344
   7       -0.9344
   8        1.2124
   9        1.2217
  10        1.2217
  11        2.8062
  12        2.8137
  13        4.0186
  14        4.0186
  15        4.0238
  16        4.3695
  17        4.3695
  18        4.3999
  19        4.3999
  20        4.4093
  21        4.4093
  22        6.9963
  23        7.1132
  24        7.1132
  25       12.1487
  26       12.1487
  27       12.2449
  28       16.4124
  29       16.4124
  30       16.4177
  31       16.4177
  32       16.4469
 
  0.5555556E-01  0.0000000E+00  0.0000000E+00  0.1286008E-03
   1       -3.9970
   2       -1.2484
   3       -1.2367
   4       -1.2367
   5       -0.9259
   6       -0.9187
   7       -0.9187
   8        1.1976
   9        1.2345
  10        1.2345
  11        2.7902
  12        2.8200
  13        3.9957
  14        3.9957
  15        4.0163
  16        4.2577
  17        4.2577
  18        4.3718
  19        4.3718
  20        4.4093
  21        4.4093
  22        6.7969
  23        7.2436
  24        7.2436
  25       12.1201
  26       12.1201
  27       12.4909
  28       16.3680
  29       16.3680
  30       16.3900
  31       16.3900
  32       16.5055
 
  0.8333333E-01  0.0000000E+00  0.0000000E+00  0.1286008E-03
   1       -3.9507
   2       -1.2318
   3       -1.2054
   4       -1.2054
   5       -0.9087
   6       -0.8925
   7       -0.8925
   8        1.1730
   9        1.2558
  10        1.2558
  11        2.7638
  12        2.8306
  13        3.9578
  14        3.9578
  15        4.0038
  16        4.0911
  17        4.0911
  18        4.3258
  19        4.3258
  20        4.4094
  21        4.4094
  22        6.5000
  23        7.4412
  24        7.4412
  25       12.0738
  26       12.0738
  27       12.8659
  28       16.2943
  29       16.2943
  30       16.3469
  31       16.3469
  32       16.6022
 
  0.1111111E+00  0.0000000E+00  0.0000000E+00  0.1286008E-03
   1       -3.8861
   2       -1.2095
   3       -1.1621
   4       -1.1621
   5       -0.8847
   6       -0.8558
   7       -0.8558
   8        1.1391
   9        1.2856
  10        1.2856
  11        2.7274
  12        2.8453
  13        3.8877
  14        3.8877
  15        3.9052
  16        3.9052
  17        3.9864
  18        4.2628
  19        4.2628
  20        4.4095
  21        4.4095
  22        6.1388
  23        7.6877
  24        7.6877
  25       12.0120
  26       12.0120
  27       13.3370
  28       16.1920
  29       16.1920
  30       16.2923
  31       16.2923
  32       16.7361
 
  0.1388889E+00  0.0000000E+00  0.0000000E+00  0.1286008E-03
   1       -3.8036
   2       -1.1822
   3       -1.1073
   4       -1.1073
   5       -0.8540
   6       -0.8087
   7       -0.8087
   8        1.0962
   9        1.3237
  10        1.3237
  11        2.6816
  12        2.8640
  13        3.6617
  14        3.6617
  15        3.8386
  16        3.8386
  17        3.9644
  18        4.1843
  19        4.1843
  20        4.4097
  21        4.4097
  22        5.7396
  23        7.9689
  24        7.9689
  25       11.9375
  26       11.9375
  27       13.8784
  28       16.0622
  29       16.0622
  30       16.2302
  31       16.2302
  32       16.9053
 
  0.1666667E+00  0.0000000E+00  0.0000000E+00  0.1286008E-03
   1       -3.7034
   2       -1.1511
   3       -1.0418
   4       -1.0418
   5       -0.8169
   6       -0.7512
   7       -0.7512
   8        1.0449
   9        1.3702
  10        1.3702
  11        2.6271
  12        2.8867
  13        3.4229
  14        3.4229
  15        3.7589
  16        3.7589
  17        3.9379
  18        4.0918
  19        4.0918
  20        4.4098
  21        4.4098
  22        5.3214
  23        8.2748
  24        8.2748
  25       11.8533
  26       11.8533
  27       14.4720
  28       15.9060
  29       15.9060
  30       16.1647
  31       16.1647
  32       17.1082
 
  0.1944444E+00  0.0000000E+00  0.0000000E+00  0.1286008E-03
   1       -3.5862
   2       -1.1178
   3       -0.9663
   4       -0.9663
   5       -0.7733
   6       -0.6833
   7       -0.6833
   8        0.9858
   9        1.4249
  10        1.4249
  11        2.5649
  12        2.9132
  13        3.1776
  14        3.1776
  15        3.6671
  16        3.6671
  17        3.9073
  18        3.9871
  19        3.9871
  20        4.4100
  21        4.4100
  22        4.8979
  23        8.5986
  24        8.5986
  25       11.7629
  26       11.7629
  27       15.1052
  28       15.7246
  29       15.7246
  30       16.0989
  31       16.0989
  32       17.3427
 
  0.2222222E+00  0.0000000E+00  0.0000000E+00  0.1286008E-03
   1       -3.4524
   2       -1.0842
   3       -0.8822
   4       -0.8822
   5       -0.7236
   6       -0.6051
   7       -0.6051
   8        0.9196
   9        1.4877
  10        1.4877
  11        2.4960
  12        2.9304
  13        2.9304
  14        2.9433
  15        3.5649
  16        3.5649
  17        3.8721
  18        3.8721
  19        3.8727
  20        4.4101
  21        4.4101
  22        4.4788
  23        8.9356
  24        8.9356
  25       11.6696
  26       11.6696
  27       15.5196
  28       15.5196
  29       15.7698
  30       16.0353
  31       16.0353
  32       17.6064
 
  0.2500000E+00  0.0000000E+00  0.0000000E+00  0.1286008E-03
   1       -3.3031
   2       -1.0531
   3       -0.7909
   4       -0.7909
   5       -0.6680
   6       -0.5166
   7       -0.5166
   8        0.8470
   9        1.5584
  10        1.5584
  11        2.4220
  12        2.6842
  13        2.6842
  14        2.9769
  15        3.4542
  16        3.4542
  17        3.7485
  18        3.7485
  19        3.8346
  20        4.0720
  21        4.4103
  22        4.4103
  23        9.2824
  24        9.2824
  25       11.5767
  26       11.5767
  27       15.2925
  28       15.2925
  29       15.9755
  30       15.9755
  31       16.4598
  32       17.8972
 
  0.2777778E+00  0.0000000E+00  0.0000000E+00  0.1286008E-03
   1       -3.1390
   2       -1.0277
   3       -0.6943
   4       -0.6943
   5       -0.6068
   6       -0.4179
   7       -0.4179
   8        0.7689
   9        1.6369
  10        1.6369
  11        2.3445
  12        2.4411
  13        2.4411
  14        3.0137
  15        3.3374
  16        3.3374
  17        3.6181
  18        3.6181
  19        3.6841
  20        3.7932
  21        4.4105
  22        4.4105
  23        9.6366
  24        9.6366
  25       11.4870
  26       11.4870
  27       15.0450
  28       15.0450
  29       15.9209
  30       15.9209
  31       17.1708
  32       18.2126
 
  0.3055556E+00  0.0000000E+00  0.0000000E+00  0.1286008E-03
   1       -2.9616
   2       -1.0122
   3       -0.5945
   4       -0.5945
   5       -0.5402
   6       -0.3090
   7       -0.3090
   8        0.6860
   9        1.7229
  10        1.7229
  11        2.2025
  12        2.2025
  13        2.2655
  14        3.0536
  15        3.2174
  16        3.2174
  17        3.3217
  18        3.4827
  19        3.4827
  20        3.7489
  21        4.4107
  22        4.4107
  23        9.9960
  24        9.9960
  25       11.4030
  26       11.4030
  27       14.7789
  28       14.7789
  29       15.8719
  30       15.8719
  31       17.8995
  32       18.5503
 
  0.3333333E+00  0.0000000E+00  0.0000000E+00  0.1286008E-03
   1       -2.7726
   2       -1.0114
   3       -0.4946
   4       -0.4946
   5       -0.4686
   6       -0.1900
   7       -0.1900
   8        0.5991
   9        1.8163
  10        1.8163
  11        1.9696
  12        1.9696
  13        2.1873
  14        2.9911
  15        3.0961
  16        3.0978
  17        3.0978
  18        3.3438
  19        3.3438
  20        3.7022
  21        4.4109
  22        4.4109
  23       10.3590
  24       10.3590
  25       11.3269
  26       11.3269
  27       14.4958
  28       14.4958
  29       15.8292
  30       15.8292
  31       18.6425
  32       18.9079
 
  0.3611111E+00  0.0000000E+00  0.0000000E+00  0.1286008E-03
   1       -2.5740
   2       -1.0310
   3       -0.3979
   4       -0.3979
   5       -0.3924
   6       -0.0611
   7       -0.0611
   8        0.5092
   9        1.7433
  10        1.7433
  11        1.9166
  12        1.9166
  13        2.1129
  14        2.6988
  15        2.9829
  16        2.9829
  17        3.1412
  18        3.2029
  19        3.2029
  20        3.6534
  21        4.4110
  22        4.4110
  23       10.7242
  24       10.7242
  25       11.2602
  26       11.2602
  27       14.1975
  28       14.1975
  29       15.7929
  30       15.7929
  31       19.2829
  32       19.2840
 
  0.3888889E+00  0.0000000E+00  0.0000000E+00  0.1286008E-03
   1       -2.3687
   2       -1.0765
   3       -0.3121
   4       -0.3086
   5       -0.3086
   6        0.0777
   7        0.0777
   8        0.4171
   9        1.5242
  10        1.5242
  11        2.0237
  12        2.0237
  13        2.0459
  14        2.4509
  15        2.8775
  16        2.8775
  17        3.0613
  18        3.0613
  19        3.1885
  20        3.6029
  21        4.4111
  22        4.4111
  23       11.0901
  24       11.0901
  25       11.2042
  26       11.2042
  27       13.8857
  28       13.8857
  29       15.7632
  30       15.7632
  31       19.6729
  32       19.6729
 
  0.4166667E+00  0.0000000E+00  0.0000000E+00  0.1286008E-03
   1       -2.1602
   2       -1.1523
   3       -0.2314
   4       -0.2314
   5       -0.2280
   6        0.2262
   7        0.2262
   8        0.3234
   9        1.3128
  10        1.3128
  11        1.9906
  12        2.1371
  13        2.1371
  14        2.2520
  15        2.7869
  16        2.7869
  17        2.9203
  18        2.9203
  19        3.2376
  20        3.5511
  21        4.4112
  22        4.4112
  23       11.1598
  24       11.1598
  25       11.4555
  26       11.4555
  27       13.5620
  28       13.5620
  29       15.7400
  30       15.7400
  31       20.0753
  32       20.0753
 
  0.4444444E+00  0.0000000E+00  0.0000000E+00  0.1286008E-03
   1       -1.9531
   2       -1.2606
   3       -0.1714
   4       -0.1714
   5       -0.1407
   6        0.2291
   7        0.3844
   8        0.3844
   9        1.1095
  10        1.1095
  11        1.9522
  12        2.1041
  13        2.2563
  14        2.2563
  15        2.7169
  16        2.7169
  17        2.7808
  18        2.7808
  19        3.2882
  20        3.4986
  21        4.4113
  22        4.4113
  23       11.1277
  24       11.1277
  25       11.8190
  26       11.8190
  27       13.2279
  28       13.2279
  29       15.7234
  30       15.7234
  31       20.4875
  32       20.4875
 
  0.4722222E+00  0.0000000E+00  0.0000000E+00  0.1286008E-03
   1       -1.7529
   2       -1.4000
   3       -0.1331
   4       -0.1331
   5       -0.0507
   6        0.1349
   7        0.5520
   8        0.5520
   9        0.9148
  10        0.9148
  11        1.9371
  12        2.0059
  13        2.3809
  14        2.3809
  15        2.6439
  16        2.6439
  17        2.6725
  18        2.6725
  19        3.3400
  20        3.4456
  21        4.4114
  22        4.4114
  23       11.1082
  24       11.1082
  25       12.1793
  26       12.1793
  27       12.8852
  28       12.8852
  29       15.7135
  30       15.7135
  31       20.9065
  32       20.9065
 
  0.5000000E+00  0.0000000E+00  0.0000000E+00  0.6430041E-04
   1       -1.5662
   2       -1.5662
   3       -0.1199
   4       -0.1199
   5        0.0414
   6        0.0414
   7        0.7289
   8        0.7289
   9        0.7289
  10        0.7289
  11        1.9525
  12        1.9525
  13        2.5103
  14        2.5103
  15        2.5103
  16        2.5103
  17        2.6572
  18        2.6572
  19        3.3926
  20        3.3926
  21        4.4114
  22        4.4114
  23       11.1017
  24       11.1017
  25       12.5352
  26       12.5352
  27       12.5352
  28       12.5352
  29       15.7102
  30       15.7102
  31       21.3294
  32       21.3294
 
  0.2777778E-01  0.2777778E-01  0.0000000E+00  0.2572016E-03
   1       -4.0156
   2       -1.2522
   3       -1.2522
   4       -1.2494
   5       -0.9310
   6       -0.9310
   7       -0.9291
   8        1.2101
   9        1.2233
  10        1.2259
  11        2.8046
  12        2.8121
  13        4.0110
  14        4.0158
  15        4.0158
  16        4.3370
  17        4.3600
  18        4.3600
  19        4.3999
  20        4.3999
  21        4.4032
  22        7.0424
  23        7.0424
  24        7.1580
  25       12.1388
  26       12.2352
  27       12.2352
  28       16.3426
  29       16.4320
  30       16.4321
  31       16.4374
  32       16.4376
 
  0.5555556E-01  0.2777778E-01  0.0000000E+00  0.5144033E-03
   1       -3.9878
   2       -1.2420
   3       -1.2332
   4       -1.2307
   5       -0.9206
   6       -0.9153
   7       -0.9132
   8        1.1966
   9        1.2348
  10        1.2386
  11        2.7901
  12        2.8171
  13        3.9883
  14        3.9916
  15        4.0073
  16        4.2314
  17        4.2487
  18        4.3319
  19        4.3718
  20        4.3999
  21        4.3999
  22        6.8435
  23        7.1729
  24        7.2856
  25       12.1097
  26       12.2068
  27       12.4813
  28       16.2496
  29       16.3875
  30       16.4098
  31       16.4893
  32       16.4905
 
  0.8333333E-01  0.2777778E-01  0.0000000E+00  0.5144033E-03
   1       -3.9415
   2       -1.2254
   3       -1.2019
   4       -1.1999
   5       -0.9035
   6       -0.8891
   7       -0.8867
   8        1.1725
   9        1.2558
  10        1.2597
  11        2.7641
  12        2.8275
  13        3.9483
  14        3.9506
  15        3.9929
  16        4.0693
  17        4.0866
  18        4.2857
  19        4.3258
  20        4.3991
  21        4.4000
  22        6.5481
  23        7.3699
  24        7.4796
  25       12.0626
  26       12.1610
  27       12.8559
  28       16.1387
  29       16.3136
  30       16.3669
  31       16.4891
  32       16.5915
 
  0.1111111E+00  0.2777778E-01  0.0000000E+00  0.5144033E-03
   1       -3.8770
   2       -1.2031
   3       -1.1586
   4       -1.1572
   5       -0.8796
   6       -0.8525
   7       -0.8496
   8        1.1387
   9        1.2854
  10        1.2892
  11        2.7279
  12        2.8424
  13        3.8476
  14        3.8698
  15        3.8984
  16        3.9309
  17        3.9722
  18        4.2229
  19        4.2628
  20        4.3988
  21        4.4001
  22        6.1897
  23        7.6150
  24        7.7227
  25       11.9996
  26       12.1000
  27       13.3260
  28       16.0124
  29       16.2112
  30       16.3126
  31       16.4656
  32       16.7214
 
  0.1388889E+00  0.2777778E-01  0.0000000E+00  0.5144033E-03
   1       -3.7946
   2       -1.1757
   3       -1.1037
   4       -1.1032
   5       -0.8490
   6       -0.8054
   7       -0.8019
   8        1.0961
   9        1.3235
  10        1.3269
  11        2.6824
  12        2.8614
  13        3.6379
  14        3.6470
  15        3.8322
  16        3.8479
  17        3.9440
  18        4.1456
  19        4.1842
  20        4.3988
  21        4.4002
  22        5.7952
  23        7.8935
  24        8.0008
  25       11.9236
  26       12.0268
  27       13.8655
  28       15.8718
  29       16.0812
  30       16.2511
  31       16.4218
  32       16.8900
 
  0.1666667E+00  0.2777778E-01  0.0000000E+00  0.5144033E-03
   1       -3.6946
   2       -1.1445
   3       -1.0386
   4       -1.0381
   5       -0.8119
   6       -0.7480
   7       -0.7438
   8        1.0449
   9        1.3700
  10        1.3729
  11        2.6282
  12        2.8844
  13        3.4019
  14        3.4108
  15        3.7530
  16        3.7655
  17        3.9047
  18        4.0585
  19        4.0917
  20        4.3989
  21        4.4003
  22        5.3848
  23        8.1954
  24        8.3041
  25       11.8376
  26       11.9447
  27       14.4561
  28       15.7170
  29       15.9247
  30       16.1864
  31       16.3623
  32       17.0924
 
  0.1944444E+00  0.2777778E-01  0.0000000E+00  0.5144033E-03
   1       -3.5774
   2       -1.1111
   3       -0.9643
   4       -0.9626
   5       -0.7685
   6       -0.6802
   7       -0.6752
   8        0.9860
   9        1.4247
  10        1.4269
  11        2.5664
  12        2.9112
  13        3.1580
  14        3.1678
  15        3.6618
  16        3.6730
  17        3.8428
  18        3.9728
  19        3.9870
  20        4.3991
  21        4.4004
  22        4.9736
  23        8.5135
  24        8.6258
  25       11.7451
  26       11.8575
  27       15.0851
  28       15.5468
  29       15.7431
  30       16.1217
  31       16.2924
  32       17.3263
 
  0.2222222E+00  0.2777778E-01  0.0000000E+00  0.5144033E-03
   1       -3.4439
   2       -1.0775
   3       -0.8813
   4       -0.8784
   5       -0.7189
   6       -0.6021
   7       -0.5963
   8        0.9200
   9        1.4874
  10        1.4888
  11        2.4982
  12        2.9117
  13        2.9225
  14        2.9418
  15        3.5602
  16        3.5706
  17        3.7411
  18        3.8719
  19        3.9039
  20        4.3993
  21        4.4005
  22        4.5759
  23        8.8425
  24        8.9610
  25       11.6495
  26       11.7692
  27       15.3596
  28       15.5379
  29       15.7435
  30       16.0594
  31       16.2173
  32       17.6011
 
  0.2500000E+00  0.2777778E-01  0.0000000E+00  0.5144033E-03
   1       -3.2947
   2       -1.0463
   3       -0.7910
   4       -0.7869
   5       -0.6634
   6       -0.5137
   7       -0.5073
   8        0.8477
   9        1.5582
  10        1.5583
  11        2.4251
  12        2.6663
  13        2.6778
  14        2.9759
  15        3.4501
  16        3.4599
  17        3.5969
  18        3.7483
  19        3.8460
  20        4.2097
  21        4.3995
  22        4.4007
  23        9.1784
  24        9.3064
  25       11.5540
  26       11.6840
  27       15.1540
  28       15.3106
  29       16.0012
  30       16.1421
  31       16.4243
  32       17.8797
 
  0.2777778E+00  0.2777778E-01  0.0000000E+00  0.5144033E-03
   1       -3.1308
   2       -1.0208
   3       -0.6952
   4       -0.6901
   5       -0.6023
   6       -0.4152
   7       -0.4083
   8        0.7698
   9        1.6349
  10        1.6366
  11        2.3490
  12        2.4240
  13        2.4359
  14        3.0132
  15        3.3338
  16        3.3431
  17        3.4065
  18        3.6180
  19        3.7721
  20        3.9149
  21        4.3997
  22        4.4008
  23        9.5169
  24        9.6593
  25       11.4614
  26       11.6064
  27       14.9291
  28       15.0629
  29       15.9484
  30       16.0703
  31       17.1201
  32       18.1969
 
  0.3055556E+00  0.2777778E-01  0.0000000E+00  0.5144033E-03
   1       -2.9537
   2       -1.0051
   3       -0.5959
   4       -0.5902
   5       -0.5358
   6       -0.3065
   7       -0.2997
   8        0.6871
   9        1.7180
  10        1.7227
  11        2.1864
  12        2.1985
  13        2.2724
  14        3.0537
  15        3.1640
  16        3.2145
  17        3.2231
  18        3.4825
  19        3.6033
  20        3.7845
  21        4.3999
  22        4.4009
  23        9.8530
  24       10.0177
  25       11.3742
  26       11.5419
  27       14.6850
  28       14.7966
  29       15.9017
  30       16.0046
  31       17.8199
  32       18.5312
 
  0.3333333E+00  0.2777778E-01  0.0000000E+00  0.5144033E-03
   1       -2.7649
   2       -1.0043
   3       -0.4959
   4       -0.4901
   5       -0.4644
   6       -0.1877
   7       -0.1816
   8        0.6006
   9        1.8059
  10        1.8160
  11        1.9546
  12        1.9665
  13        2.1991
  14        2.8939
  15        3.0955
  16        3.0969
  17        3.1035
  18        3.3436
  19        3.4185
  20        3.7237
  21        4.4002
  22        4.4010
  23       10.1787
  24       10.3799
  25       11.2943
  26       11.4991
  27       14.4228
  28       14.5134
  29       15.8615
  30       15.9463
  31       18.4936
  32       18.8875
 
  0.3611111E+00  0.2777778E-01  0.0000000E+00  0.5144033E-03
   1       -2.5665
   2       -1.0240
   3       -0.3987
   4       -0.3932
   5       -0.3884
   6       -0.0590
   7       -0.0542
   8        0.5109
   9        1.7294
  10        1.7410
  11        1.8928
  12        1.9164
  13        2.1376
  14        2.6322
  15        2.9812
  16        2.9884
  17        3.1427
  18        3.2027
  19        3.2529
  20        3.6694
  21        4.4004
  22        4.4011
  23       10.4783
  24       10.7444
  25       11.2232
  26       11.4935
  27       14.1440
  28       14.2150
  29       15.8280
  30       15.8960
  31       19.0673
  32       19.2612
 
  0.3888889E+00  0.2777778E-01  0.0000000E+00  0.5144033E-03
   1       -2.3614
   2       -1.0695
   3       -0.3083
   4       -0.3082
   5       -0.3037
   6        0.0795
   7        0.0825
   8        0.4190
   9        1.5115
  10        1.5226
  11        1.9531
  12        2.0234
  13        2.1167
  14        2.4014
  15        2.8765
  16        2.8827
  17        3.0611
  18        3.0979
  19        3.1908
  20        3.6157
  21        4.4006
  22        4.4012
  23       10.7219
  24       11.1097
  25       11.1618
  26       11.5552
  27       13.8507
  28       13.9032
  29       15.8015
  30       15.8541
  31       19.5293
  32       19.6495
 
  0.4166667E+00  0.2777778E-01  0.0000000E+00  0.5144033E-03
   1       -2.1532
   2       -1.1454
   3       -0.2298
   4       -0.2263
   5       -0.2243
   6        0.2278
   7        0.2285
   8        0.3256
   9        1.3016
  10        1.3118
  11        1.9480
  12        2.1368
  13        2.1790
  14        2.2129
  15        2.7867
  16        2.7916
  17        2.9200
  18        2.9492
  19        3.2407
  20        3.5617
  21        4.4007
  22        4.4012
  23       10.8760
  24       11.1106
  25       11.4745
  26       11.7171
  27       13.5451
  28       13.5795
  29       15.7821
  30       15.8204
  31       19.9525
  32       20.0499
 
  0.4444444E+00  0.2777778E-01  0.0000000E+00  0.5144033E-03
   1       -1.9462
   2       -1.2537
   3       -0.1685
   4       -0.1662
   5       -0.1372
   6        0.2316
   7        0.3840
   8        0.3856
   9        1.1000
  10        1.1091
  11        1.9225
  12        2.0717
  13        2.2560
  14        2.2844
  15        2.7175
  16        2.7210
  17        2.7805
  18        2.8054
  19        3.2923
  20        3.5074
  21        4.4009
  22        4.4012
  23       10.9507
  24       11.0694
  25       11.8376
  26       11.9683
  27       13.2300
  28       13.2456
  29       15.7698
  30       15.7949
  31       20.3664
  32       20.4595
 
  0.4722222E+00  0.2777778E-01  0.0000000E+00  0.5144033E-03
   1       -1.7461
   2       -1.3932
   3       -0.1291
   4       -0.1280
   5       -0.0475
   6        0.1376
   7        0.5490
   8        0.5529
   9        0.9072
  10        0.9149
  11        1.9109
  12        1.9776
  13        2.3806
  14        2.4042
  15        2.6436
  16        2.6662
  17        2.6739
  18        2.6757
  19        3.3451
  20        3.4530
  21        4.4010
  22        4.4012
  23       10.9868
  24       11.0372
  25       12.1976
  26       12.2672
  27       12.9030
  28       12.9086
  29       15.7648
  30       15.7772
  31       20.7755
  32       20.8752
 
  0.5000000E+00  0.2777778E-01  0.0000000E+00  0.2572016E-03
   1       -1.5594
   2       -1.5594
   3       -0.1152
   4       -0.1152
   5        0.0443
   6        0.0443
   7        0.7234
   8        0.7234
   9        0.7294
  10        0.7294
  11        1.9263
  12        1.9263
  13        2.5101
  14        2.5101
  15        2.5322
  16        2.5322
  17        2.6595
  18        2.6595
  19        3.3988
  20        3.3988
  21        4.4011
  22        4.4011
  23       11.0115
  24       11.0115
  25       12.5532
  26       12.5532
  27       12.5852
  28       12.5852
  29       15.7672
  30       15.7672
  31       21.1767
  32       21.1793
 
  0.5555556E-01  0.5555556E-01  0.0000000E+00  0.2572016E-03
   1       -3.9600
   2       -1.2230
   3       -1.2230
   4       -1.2129
   5       -0.9050
   6       -0.9050
   7       -0.8967
   8        1.1886
   9        1.2410
  10        1.2509
  11        2.7840
  12        2.8142
  13        3.9660
  14        3.9787
  15        3.9787
  16        4.1447
  17        4.2223
  18        4.2223
  19        4.3718
  20        4.3718
  21        4.3851
  22        6.9748
  23        6.9748
  24        7.4059
  25       12.0790
  26       12.4530
  27       12.4530
  28       16.1062
  29       16.4457
  30       16.4457
  31       16.4688
  32       16.4688
 
  0.8333333E-01  0.5555556E-01  0.0000000E+00  0.5144033E-03
   1       -3.9139
   2       -1.2064
   3       -1.1916
   4       -1.1834
   5       -0.8880
   6       -0.8790
   7       -0.8693
   8        1.1680
   9        1.2586
  10        1.2714
  11        2.7624
  12        2.8210
  13        3.9195
  14        3.9291
  15        3.9558
  16        3.9999
  17        4.0738
  18        4.1802
  19        4.3257
  20        4.3718
  21        4.3763
  22        6.6822
  23        7.1714
  24        7.5906
  25       12.0294
  26       12.4076
  27       12.8265
  28       15.9521
  29       16.3715
  30       16.4266
  31       16.5419
  32       16.5664
 
  0.1111111E+00  0.5555556E-01  0.0000000E+00  0.5144033E-03
   1       -3.8497
   2       -1.1839
   3       -1.1481
   4       -1.1426
   5       -0.8642
   6       -0.8425
   7       -0.8310
   8        1.1362
   9        1.2867
  10        1.3000
  11        2.7281
  12        2.8351
  13        3.7849
  14        3.8139
  15        3.8779
  16        3.9197
  17        3.9504
  18        4.1260
  19        4.2627
  20        4.3719
  21        4.3720
  22        6.3294
  23        7.4135
  24        7.8243
  25       11.9630
  26       12.3474
  27       13.2935
  28       15.7907
  29       16.2685
  30       16.3735
  31       16.6675
  32       16.6749
 
  0.1388889E+00  0.5555556E-01  0.0000000E+00  0.5144033E-03
   1       -3.7676
   2       -1.1563
   3       -1.0931
   4       -1.0910
   5       -0.8338
   6       -0.7956
   7       -0.7818
   8        1.0946
   9        1.3241
  10        1.3365
  11        2.6838
  12        2.8544
  13        3.5773
  14        3.6018
  15        3.8130
  16        3.8647
  17        3.8650
  18        4.0657
  19        4.1841
  20        4.3699
  21        4.3719
  22        5.9444
  23        7.6863
  24        8.0941
  25       11.8825
  26       12.2758
  27       13.8274
  28       15.6240
  29       16.1379
  30       16.3138
  31       16.6720
  32       16.8431
 
  0.1666667E+00  0.5555556E-01  0.0000000E+00  0.5144033E-03
   1       -3.6679
   2       -1.1250
   3       -1.0291
   4       -1.0273
   5       -0.7970
   6       -0.7385
   7       -0.7218
   8        1.0444
   9        1.3701
  10        1.3809
  11        2.6308
  12        2.8781
  13        3.3444
  14        3.3741
  15        3.7353
  16        3.7802
  17        3.7839
  18        4.0061
  19        4.0915
  20        4.3688
  21        4.3719
  22        5.5481
  23        7.9792
  24        8.3903
  25       11.7912
  26       12.1967
  27       14.4094
  28       15.4529
  29       15.9807
  30       16.2516
  31       16.6509
  32       17.0450
 
  0.1944444E+00  0.5555556E-01  0.0000000E+00  0.5144033E-03
   1       -3.5513
   2       -1.0913
   3       -0.9577
   4       -0.9515
   5       -0.7538
   6       -0.6710
   7       -0.6514
   8        0.9863
   9        1.4245
  10        1.4329
  11        2.5704
  12        2.9060
  13        3.1026
  14        3.1380
  15        3.6457
  16        3.6735
  17        3.6871
  18        3.9498
  19        3.9867
  20        4.3683
  21        4.3719
  22        5.1567
  23        8.2848
  24        8.7060
  25       11.6925
  26       12.1144
  27       15.0259
  28       15.2767
  29       15.7984
  30       16.1902
  31       16.6080
  32       17.2773
 
  0.2222222E+00  0.5555556E-01  0.0000000E+00  0.5144033E-03
   1       -3.4182
   2       -1.0574
   3       -0.8778
   4       -0.8669
   5       -0.7045
   6       -0.5932
   7       -0.5708
   8        0.9211
   9        1.4871
  10        1.4921
  11        2.5040
  12        2.8583
  13        2.8983
  14        2.9378
  15        3.5335
  16        3.5458
  17        3.5848
  18        3.8716
  19        3.8941
  20        4.3681
  21        4.3719
  22        4.7849
  23        8.5974
  24        9.0362
  25       11.5899
  26       12.0338
  27       15.0941
  28       15.5925
  29       15.6666
  30       16.1320
  31       16.5480
  32       17.5390
 
  0.2500000E+00  0.5555556E-01  0.0000000E+00  0.5144033E-03
   1       -3.2696
   2       -1.0259
   3       -0.7905
   4       -0.7751
   5       -0.6494
   6       -0.5052
   7       -0.4805
   8        0.8495
   9        1.5577
  10        1.5579
  11        2.4335