       N       E                     dE             d eps       ncg     rms          rms(c)
DAV:   1    -0.984054873187E+02   -0.98405E+02   -0.35160E+00   432   0.404E+00    0.980E-01
DAV:   2    -0.983316421935E+02    0.73845E-01   -0.25998E-01   504   0.262E+00    0.458E-01
DAV:   3    -0.983280553838E+02    0.35868E-02   -0.31762E-02   444   0.775E-01    0.229E-01
DAV:   4    -0.983280336610E+02    0.21723E-04   -0.39115E-03   448   0.173E-01    0.115E-01
DAV:   5    -0.983280453296E+02   -0.11669E-04   -0.38780E-04   544   0.899E-02    0.376E-02
DAV:   6    -0.983280477501E+02   -0.24205E-05   -0.83506E-05   448   0.531E-02
   1 F= -.98328048E+02 E0= -.98270398E+02  d E =-.172948E+00
