  32  32   0   0
  0.1063590E+02  0.6981918E-09  0.6981918E-09  0.6981918E-09  0.5000000E-15
  1.000000000000000E-004
  CAR 
 unknown system                          
     16.66340595     -6.48406662  301      4.78513523      1.00000000
     -6.484  0.0000E+00  0.0000E+00
     -6.407  0.0000E+00  0.0000E+00
     -6.330  0.0000E+00  0.0000E+00
     -6.253  0.0000E+00  0.0000E+00
     -6.175  0.0000E+00  0.0000E+00
     -6.098  0.0000E+00  0.0000E+00
     -6.021  0.0000E+00  0.0000E+00
     -5.944  0.0000E+00  0.0000E+00
     -5.867  0.0000E+00  0.0000E+00
     -5.790  0.0000E+00  0.0000E+00
     -5.712  0.0000E+00  0.0000E+00
     -5.635  0.0000E+00  0.0000E+00
     -5.558  0.0000E+00  0.0000E+00
     -5.481  0.1441E-12  0.1112E-13
     -5.404  0.7557E-01  0.5831E-02
     -5.327  0.4534E+00  0.4082E-01
     -5.250  0.9102E+00  0.1110E+00
     -5.172  0.6689E+00  0.1627E+00
     -5.095  0.1656E+01  0.2904E+00
     -5.018  0.1784E+01  0.4700E+00
     -4.941  0.1606E-07  0.4723E+00
     -4.864  0.9070E+00  0.5423E+00
     -4.787  0.2294E+01  0.7193E+00
     -4.709  0.2424E+01  0.9064E+00
     -4.632  0.1746E+01  0.1041E+01
     -4.555  0.1813E+01  0.1184E+01
     -4.478  0.3627E+01  0.1464E+01
     -4.401  0.6877E-02  0.1464E+01
     -4.324  0.2342E+01  0.1645E+01
     -4.246  0.4376E+01  0.1982E+01
     -4.169  0.1814E+01  0.2128E+01
     -4.092  0.1828E+01  0.2269E+01
     -4.015  0.4624E+01  0.2626E+01
     -3.938  0.8029E+00  0.2688E+01
     -3.861  0.1814E+01  0.2828E+01
     -3.784  0.2327E+01  0.3008E+01
     -3.706  0.6725E+01  0.3526E+01
     -3.629  0.1032E+01  0.3609E+01
     -3.552  0.5442E+01  0.4029E+01
     -3.475  0.3627E+01  0.4309E+01
     -3.398  0.8275E+00  0.4373E+01
     -3.321  0.3791E+01  0.4671E+01
     -3.243  0.3967E+01  0.4978E+01
     -3.166  0.5379E+01  0.5393E+01
     -3.089  0.1891E+01  0.5539E+01
     -3.012  0.5364E+01  0.5953E+01
     -2.935  0.2279E+01  0.6129E+01
     -2.858  0.6833E+01  0.6658E+01
     -2.780  0.5381E+01  0.7073E+01
     -2.703  0.2810E+01  0.7290E+01
     -2.626  0.6174E+01  0.7766E+01
     -2.549  0.2503E+01  0.7959E+01
     -2.472  0.5428E+01  0.8378E+01
     -2.395  0.4765E+01  0.8764E+01
     -2.318  0.3606E+01  0.9047E+01
     -2.240  0.1060E+02  0.9865E+01
     -2.163  0.5247E+01  0.1030E+02
     -2.086  0.4363E+01  0.1064E+02
     -2.009  0.4604E+01  0.1100E+02
     -1.932  0.7255E+01  0.1156E+02
     -1.855  0.3980E+01  0.1187E+02
     -1.777  0.6679E+01  0.1250E+02
     -1.700  0.8305E+01  0.1314E+02
     -1.623  0.1130E+02  0.1401E+02
     -1.546  0.7858E+01  0.1472E+02
     -1.469  0.3840E+01  0.1502E+02
     -1.392  0.6620E+01  0.1554E+02
     -1.314  0.9771E+01  0.1632E+02
     -1.237  0.1821E+02  0.1774E+02
     -1.160  0.8345E+01  0.1842E+02
     -1.083  0.1351E+02  0.1951E+02
     -1.006  0.9194E+01  0.2023E+02
     -0.929  0.2233E+02  0.2196E+02
     -0.852  0.2341E+02  0.2377E+02
     -0.774  0.3939E+02  0.2680E+02
     -0.697  0.2089E+02  0.2844E+02
     -0.620  0.4051E+02  0.3163E+02
     -0.543  0.2972E+02  0.3393E+02
     -0.466  0.4233E+02  0.3728E+02
     -0.389  0.2951E+02  0.3958E+02
     -0.311  0.4247E+02  0.4295E+02
     -0.234  0.3977E+02  0.4625E+02
     -0.157  0.3709E+02  0.4928E+02
     -0.080  0.6534E+02  0.5439E+02
     -0.003  0.5588E+02  0.5884E+02
      0.074  0.6963E+02  0.6422E+02
      0.152  0.6906E+02  0.6977E+02
      0.229  0.5523E+02  0.7416E+02
      0.306  0.6531E+02  0.7943E+02
      0.383  0.4798E+02  0.8327E+02
      0.460  0.5909E+02  0.8791E+02
      0.537  0.6265E+02  0.9281E+02
      0.614  0.5232E+02  0.9690E+02
      0.692  0.4721E+02  0.1007E+03
      0.769  0.7482E+02  0.1065E+03
      0.846  0.6278E+02  0.1115E+03
      0.923  0.7902E+02  0.1177E+03
      1.000  0.6519E+02  0.1228E+03
      1.077  0.1051E+03  0.1310E+03
      1.155  0.7994E+02  0.1373E+03
      1.232  0.8207E+02  0.1438E+03
      1.309  0.1187E+03  0.1530E+03
      1.386  0.9602E+02  0.1605E+03
      1.463  0.1164E+03  0.1696E+03
      1.540  0.1149E+03  0.1787E+03
      1.618  0.1201E+03  0.1882E+03
      1.695  0.8581E+02  0.1950E+03
      1.772  0.8668E+02  0.2017E+03
      1.849  0.6801E+02  0.2071E+03
      1.926  0.6455E+02  0.2123E+03
      2.003  0.6440E+02  0.2173E+03
      2.080  0.8200E+02  0.2238E+03
      2.158  0.9635E+02  0.2313E+03
      2.235  0.1076E+03  0.2398E+03
      2.312  0.8730E+02  0.2468E+03
      2.389  0.1002E+03  0.2547E+03
      2.466  0.9249E+02  0.2619E+03
      2.543  0.7811E+02  0.2681E+03
      2.621  0.8466E+02  0.2747E+03
      2.698  0.9173E+02  0.2819E+03
      2.775  0.9585E+02  0.2895E+03
      2.852  0.8751E+02  0.2968E+03
      2.929  0.1496E+03  0.3085E+03
      3.006  0.1696E+03  0.3219E+03
      3.084  0.1003E+03  0.3300E+03
      3.161  0.5907E+02  0.3346E+03
      3.238  0.8420E+01  0.3354E+03
      3.315  0.2885E+02  0.3376E+03
      3.392  0.7139E+01  0.3382E+03
      3.469  0.7177E+01  0.3388E+03
      3.547  0.8418E+01  0.3395E+03
      3.624  0.1731E+02  0.3408E+03
      3.701  0.1059E+02  0.3417E+03
      3.778  0.7857E+01  0.3423E+03
      3.855  0.9178E+01  0.3431E+03
      3.932  0.6455E+01  0.3436E+03
      4.009  0.9537E+01  0.3444E+03
      4.087  0.1585E+02  0.3456E+03
      4.164  0.9297E+01  0.3463E+03
      4.241  0.1026E+02  0.3471E+03
      4.318  0.6243E+01  0.3476E+03
      4.395  0.1321E+02  0.3486E+03
      4.472  0.7131E+01  0.3492E+03
      4.550  0.9812E+01  0.3500E+03
      4.627  0.1086E+02  0.3509E+03
      4.704  0.6263E+01  0.3513E+03
      4.781  0.7797E+01  0.3519E+03
      4.858  0.5251E+01  0.3523E+03
      4.935  0.1293E+02  0.3534E+03
      5.013  0.4227E+01  0.3537E+03
      5.090  0.1144E+02  0.3546E+03
      5.167  0.1040E+02  0.3554E+03
      5.244  0.9469E+01  0.3562E+03
      5.321  0.1793E+02  0.3576E+03
      5.398  0.1438E+01  0.3577E+03
      5.475  0.8001E+00  0.3578E+03
      5.553  0.8133E+01  0.3584E+03
      5.630  0.1084E+02  0.3593E+03
      5.707  0.1882E+01  0.3594E+03
      5.784  0.8623E+01  0.3601E+03
      5.861  0.8559E+01  0.3608E+03
      5.938  0.2173E+02  0.3625E+03
      6.016  0.3623E+01  0.3627E+03
      6.093  0.2967E+01  0.3630E+03
      6.170  0.8866E+01  0.3637E+03
      6.247  0.9293E+01  0.3644E+03
      6.324  0.7899E+01  0.3651E+03
      6.401  0.5272E+01  0.3655E+03
      6.479  0.4026E+01  0.3658E+03
      6.556  0.6111E+01  0.3663E+03
      6.633  0.8353E+01  0.3670E+03
      6.710  0.1199E+02  0.3679E+03
      6.787  0.5440E+01  0.3684E+03
      6.864  0.1847E+00  0.3684E+03
      6.941  0.1705E+02  0.3697E+03
      7.019  0.3664E+01  0.3700E+03
      7.096  0.1256E+02  0.3709E+03
      7.173  0.1809E+01  0.3711E+03
      7.250  0.5467E+01  0.3715E+03
      7.327  0.7164E+01  0.3721E+03
      7.404  0.7254E+01  0.3726E+03
      7.482  0.2485E+01  0.3728E+03
      7.559  0.6607E-02  0.3728E+03
      7.636  0.1600E+02  0.3741E+03
      7.713  0.7049E+01  0.3746E+03
      7.790  0.5400E+01  0.3751E+03
      7.867  0.4074E-08  0.3751E+03
      7.945  0.5436E+01  0.3755E+03
      8.022  0.6847E+01  0.3760E+03
      8.099  0.1151E+02  0.3769E+03
      8.176  0.7025E+01  0.3775E+03
      8.253  0.0000E+00  0.3775E+03
      8.330  0.1866E+01  0.3776E+03
      8.407  0.5242E+01  0.3780E+03
      8.485  0.2856E+01  0.3782E+03
      8.562  0.5275E+01  0.3786E+03
      8.639  0.7254E+01  0.3792E+03
      8.716  0.2720E+01  0.3794E+03
      8.793  0.5439E+01  0.3798E+03
      8.870  0.7458E+01  0.3804E+03
      8.948  0.3339E+01  0.3807E+03
      9.025  0.1812E+01  0.3808E+03
      9.102  0.4116E+01  0.3811E+03
      9.179  0.5220E+01  0.3815E+03
      9.256  0.3618E+01  0.3818E+03
      9.333  0.1831E+02  0.3832E+03
      9.411  0.7633E+01  0.3838E+03
      9.488  0.5005E+01  0.3842E+03
      9.565  0.4855E+01  0.3846E+03
      9.642  0.7240E+01  0.3852E+03
      9.719  0.7549E+01  0.3858E+03
      9.796  0.1632E+02  0.3871E+03
      9.873  0.8252E+01  0.3878E+03
      9.951  0.8170E+01  0.3884E+03
     10.028  0.8598E+01  0.3891E+03
     10.105  0.1016E+02  0.3899E+03
     10.182  0.3502E+01  0.3901E+03
     10.259  0.7445E+01  0.3907E+03
     10.336  0.1194E+02  0.3916E+03
     10.414  0.1095E+02  0.3925E+03
     10.491  0.9828E+01  0.3933E+03
     10.568  0.3776E+01  0.3936E+03
     10.645  0.1617E+02  0.3949E+03
     10.722  0.1561E+01  0.3950E+03
     10.799  0.9065E+01  0.3957E+03
     10.877  0.1183E+02  0.3966E+03
     10.954  0.3149E+01  0.3969E+03
     11.031  0.6673E+01  0.3974E+03
     11.108  0.8908E+01  0.3981E+03
     11.185  0.9289E+01  0.3988E+03
     11.262  0.7043E+01  0.3994E+03
     11.339  0.1057E+02  0.4002E+03
     11.417  0.4571E+01  0.4006E+03
     11.494  0.1251E+02  0.4015E+03
     11.571  0.2312E+00  0.4015E+03
     11.648  0.8142E+01  0.4022E+03
     11.725  0.9820E+01  0.4029E+03
     11.802  0.7322E+01  0.4036E+03
     11.880  0.5300E+01  0.4040E+03
     11.957  0.5816E+01  0.4044E+03
     12.034  0.8614E+01  0.4051E+03
     12.111  0.6321E+01  0.4056E+03
     12.188  0.3860E+01  0.4059E+03
     12.265  0.9307E+01  0.4066E+03
     12.343  0.1462E+01  0.4068E+03
     12.420  0.1021E+02  0.4075E+03
     12.497  0.5575E+01  0.4080E+03
     12.574  0.9440E+01  0.4087E+03
     12.651  0.1138E+02  0.4096E+03
     12.728  0.9251E+01  0.4103E+03
     12.805  0.6121E+01  0.4109E+03
     12.883  0.6306E+01  0.4113E+03
     12.960  0.9474E+01  0.4121E+03
     13.037  0.9603E+01  0.4128E+03
     13.114  0.1946E+01  0.4130E+03
     13.191  0.1166E+02  0.4139E+03
     13.268  0.5803E+01  0.4143E+03
     13.346  0.1578E+02  0.4156E+03
     13.423  0.1294E+02  0.4167E+03
     13.500  0.1136E+02  0.4176E+03
     13.577  0.7253E+01  0.4182E+03
     13.654  0.5984E+01  0.4187E+03
     13.731  0.1236E+02  0.4196E+03
     13.809  0.3677E+01  0.4199E+03
     13.886  0.9489E+01  0.4207E+03
     13.963  0.1477E+02  0.4218E+03
     14.040  0.8334E+01  0.4224E+03
     14.117  0.1632E+02  0.4237E+03
     14.194  0.7224E+01  0.4243E+03
     14.272  0.9882E+01  0.4250E+03
     14.349  0.1141E+02  0.4260E+03
     14.426  0.6406E+01  0.4265E+03
     14.503  0.7413E+01  0.4271E+03
     14.580  0.1423E+02  0.4282E+03
     14.657  0.1088E+02  0.4290E+03
     14.734  0.4198E+01  0.4294E+03
     14.812  0.9609E+01  0.4301E+03
     14.889  0.3592E+01  0.4304E+03
     14.966  0.7649E+01  0.4310E+03
     15.043  0.4352E+01  0.4313E+03
     15.120  0.3522E+01  0.4316E+03
     15.197  0.0000E+00  0.4316E+03
     15.275  0.4838E-09  0.4316E+03
     15.352  0.3023E+01  0.4319E+03
     15.429  0.0000E+00  0.4319E+03
     15.506  0.0000E+00  0.4319E+03
     15.583  0.1403E-03  0.4319E+03
     15.660  0.1814E+01  0.4320E+03
     15.738  0.0000E+00  0.4320E+03
     15.815  0.0000E+00  0.4320E+03
     15.892  0.0000E+00  0.4320E+03
     15.969  0.0000E+00  0.4320E+03
     16.046  0.0000E+00  0.4320E+03
     16.123  0.0000E+00  0.4320E+03
     16.200  0.0000E+00  0.4320E+03
     16.278  0.0000E+00  0.4320E+03
     16.355  0.0000E+00  0.4320E+03
     16.432  0.0000E+00  0.4320E+03
     16.509  0.0000E+00  0.4320E+03
     16.586  0.0000E+00  0.4320E+03
     16.663  0.0000E+00  0.4320E+03
