   32   32    1    1
  0.1063590E+02  0.6981918E-09  0.6981918E-09  0.6981918E-09  0.5000000E-15
  1.000000000000000E-004
  CAR 
 unknown system                          
  352   20  216
 
  0.0000000E+00  0.0000000E+00  0.0000000E+00  0.2915452E-02
   1       -5.4319
   2       -2.4884
   3       -2.4884
   4       -2.4884
   5       -2.4884
   6       -2.4884
   7       -2.4884
   8       -0.9729
   9       -0.9729
  10       -0.9729
  11       -0.9729
  12       -0.8100
  13       -0.8100
  14       -0.8100
  15       -0.4961
  16       -0.4961
  17       -0.4961
  18       -0.4961
  19       -0.4961
  20       -0.4961
  21       -0.4961
  22       -0.4961
  23       -0.4961
  24       -0.4961
  25       -0.4961
  26       -0.4961
  27       -0.2850
  28       -0.2850
  29       -0.2850
  30        0.0306
  31        0.0306
  32        0.0306
  33        0.0306
  34        0.0306
  35        0.0306
  36        0.5074
  37        0.5074
  38        0.5074
  39        0.5074
  40        0.5074
  41        0.5074
  42        0.7510
  43        0.7510
  44        0.7510
  45        0.7510
  46        0.7510
  47        0.7510
  48        0.7510
  49        0.7510
  50        0.7510
  51        0.7510
  52        0.7510
  53        0.7510
  54        0.7562
  55        0.7562
  56        0.7562
  57        0.7562
  58        0.7562
  59        0.7562
  60        0.7562
  61        0.7562
  62        0.7562
  63        0.7562
  64        0.7562
  65        0.7562
  66        0.9931
  67        0.9931
  68        0.9931
  69        0.9931
  70        0.9931
  71        0.9931
  72        0.9931
  73        0.9931
  74        0.9931
  75        0.9931
  76        0.9931
  77        0.9931
  78        1.3138
  79        1.3138
  80        1.3138
  81        1.3138
  82        1.3138
  83        1.3138
  84        1.3138
  85        1.3138
  86        1.3527
  87        1.3527
  88        1.3527
  89        1.7879
  90        1.7879
  91        1.7879
  92        1.7879
  93        1.7879
  94        1.7879
  95        1.9383
  96        1.9383
  97        1.9383
  98        1.9383
  99        1.9383
 100        1.9383
 101        1.9383
 102        1.9383
 103        1.9383
 104        1.9383
 105        1.9383
 106        1.9383
 107        2.1269
 108        2.1269
 109        2.1269
 110        2.1269
 111        2.1269
 112        2.1269
 113        2.1269
 114        2.1269
 115        2.1269
 116        2.1269
 117        2.1269
 118        2.1269
 119        2.2747
 120        2.2747
 121        2.2747
 122        2.2747
 123        2.2747
 124        2.2747
 125        2.3169
 126        2.3169
 127        2.3169
 128        2.3169
 129        2.3169
 130        2.3169
 131        2.3169
 132        2.3169
 133        2.3169
 134        2.3169
 135        2.3169
 136        2.3169
 137        2.3270
 138        2.3270
 139        2.6460
 140        2.6460
 141        2.6460
 142        2.6460
 143        2.6460
 144        2.6460
 145        2.9728
 146        2.9728
 147        2.9728
 148        2.9894
 149        2.9894
 150        2.9894
 151        2.9894
 152        2.9894
 153        2.9894
 154        2.9894
 155        2.9894
 156        3.1547
 157        3.1547
 158        3.1547
 159        3.1547
 160        3.1547
 161        3.1547
 162        3.1556
 163        3.1556
 164        3.1556
 165        3.1556
 166        3.1556
 167        3.1556
 168        3.4331
 169        3.4331
 170        3.4331
 171        3.4331
 172        4.4784
 173        4.4784
 174        4.4784
 175        4.4784
 176        4.4784
 177        4.4784
 178        4.4784
 179        4.4784
 180        4.4784
 181        4.4784
 182        4.4784
 183        4.4784
 184        6.1841
 185        6.1841
 186        6.1841
 187        9.0595
 188        9.0595
 189        9.0595
 190        9.0595
 191       11.3872
 192       11.3872
 193       11.3872
 194       11.3872
 195       11.3872
 196       11.3872
 197       11.3872
 198       11.3872
 199       11.3872
 200       11.3872
 201       11.3872
 202       11.3872
 203       12.6332
 204       12.6332
 205       12.6332
 206       13.6058
 207       13.6058
 208       13.6058
 209       13.6058
 210       13.6058
 211       13.6058
 212       14.6185
 213       14.6185
 214       14.6185
 215       14.6185
 216       14.6185
 
  0.1428571E+00  0.0000000E+00  0.0000000E+00  0.1749271E-01
   1       -5.3649
   2       -3.1798
   3       -2.4346
   4       -2.4346
   5       -2.4346
   6       -2.4346
   7       -1.8259
   8       -0.9558
   9       -0.9558
  10       -0.9558
  11       -0.9558
  12       -0.8835
  13       -0.8835
  14       -0.8835
  15       -0.8835
  16       -0.8081
  17       -0.7769
  18       -0.7769
  19       -0.5322
  20       -0.5322
  21       -0.5322
  22       -0.5322
  23       -0.2657
  24       -0.2645
  25       -0.2645
  26       -0.1663
  27       -0.1663
  28       -0.1663
  29       -0.1663
  30       -0.0248
  31       -0.0248
  32        0.0568
  33        0.0568
  34        0.0568
  35        0.0568
  36        0.3267
  37        0.4712
  38        0.4712
  39        0.5157
  40        0.5157
  41        0.5157
  42        0.5157
  43        0.6907
  44        0.7206
  45        0.7206
  46        0.7206
  47        0.7206
  48        0.7243
  49        0.7243
  50        0.7243
  51        0.7243
  52        0.7539
  53        0.7539
  54        0.7539
  55        0.7539
  56        0.7776
  57        0.7776
  58        0.7776
  59        0.7776
  60        0.8314
  61        0.8314
  62        0.8314
  63        0.8314
  64        0.8380
  65        0.8380
  66        0.8380
  67        0.8380
  68        1.0125
  69        1.0125
  70        1.0125
  71        1.0125
  72        1.0754
  73        1.0754
  74        1.1077
  75        1.1077
  76        1.1077
  77        1.1077
  78        1.2992
  79        1.2992
  80        1.2992
  81        1.2992
  82        1.3309
  83        1.3326
  84        1.3326
  85        1.3326
  86        1.3326
  87        1.3700
  88        1.3700
  89        1.6989
  90        1.6989
  91        1.6989
  92        1.6989
  93        1.8230
  94        1.8666
  95        1.8666
  96        1.8666
  97        1.8666
  98        1.8954
  99        1.9373
 100        1.9373
 101        1.9519
 102        1.9519
 103        1.9519
 104        1.9519
 105        2.0001
 106        2.0001
 107        2.0001
 108        2.0001
 109        2.1268
 110        2.1268
 111        2.1268
 112        2.1268
 113        2.1976
 114        2.1976
 115        2.1976
 116        2.1976
 117        2.2316
 118        2.2316
 119        2.2316
 120        2.2316
 121        2.2744
 122        2.2744
 123        2.2744
 124        2.2744
 125        2.3071
 126        2.3233
 127        2.3233
 128        2.3286
 129        2.3286
 130        2.3349
 131        2.3910
 132        2.3910
 133        2.3910
 134        2.3910
 135        2.4344
 136        2.4344
 137        2.4344
 138        2.4344
 139        2.5743
 140        2.6702
 141        2.6702
 142        2.6702
 143        2.6702
 144        2.6822
 145        2.6822
 146        2.6822
 147        2.6822
 148        2.7180
 149        2.9471
 150        2.9471
 151        2.9645
 152        2.9682
 153        2.9682
 154        2.9682
 155        2.9682
 156        3.0168
 157        3.0168
 158        3.1230
 159        3.1230
 160        3.1230
 161        3.1230
 162        3.1244
 163        3.1244
 164        3.1547
 165        3.1547
 166        3.1555
 167        3.1555
 168        3.6815
 169        3.6815
 170        3.6815
 171        3.6815
 172        3.9931
 173        3.9931
 174        3.9931
 175        3.9931
 176        4.4655
 177        4.4655
 178        4.4655
 179        4.4655
 180        5.1005
 181        5.1005
 182        5.1005
 183        5.1005
 184        5.7924
 185        6.3801
 186        6.3801
 187        9.2322
 188        9.2322
 189        9.2322
 190        9.2322
 191       10.3303
 192       10.3303
 193       10.6036
 194       10.6036
 195       10.6036
 196       10.6036
 197       11.4791
 198       11.4791
 199       11.4791
 200       11.4791
 201       12.5023
 202       12.5023
 203       12.6539
 204       12.6539
 205       13.1516
 206       13.4580
 207       13.4580
 208       14.0072
 209       14.0072
 210       14.0072
 211       14.0072
 212       14.1773
 213       14.1775
 214       14.1776
 215       14.1811
 216       14.2754
 
  0.2857143E+00  0.0000000E+00  0.0000000E+00  0.1749271E-01
   1       -5.1650
   2       -3.8259
   3       -2.2759
   4       -2.2759
   5       -2.2759
   6       -2.2759
   7       -1.3003
   8       -1.2938
   9       -1.2938
  10       -1.2938
  11       -1.2938
  12       -0.9056
  13       -0.9056
  14       -0.9056
  15       -0.9056
  16       -0.8113
  17       -0.6812
  18       -0.6812
  19       -0.6207
  20       -0.6207
  21       -0.6207
  22       -0.6207
  23       -0.2087
  24       -0.2029
  25       -0.2029
  26       -0.1681
  27       -0.1681
  28        0.0916
  29        0.0916
  30        0.0916
  31        0.0916
  32        0.1318
  33        0.1318
  34        0.1318
  35        0.1318
  36        0.1574
  37        0.2366
  38        0.2366
  39        0.5399
  40        0.5399
  41        0.5399
  42        0.5399
  43        0.6495
  44        0.6495
  45        0.6495
  46        0.6495
  47        0.6629
  48        0.6629
  49        0.6629
  50        0.6629
  51        0.6744
  52        0.6744
  53        0.6744
  54        0.6744
  55        0.7617
  56        0.7617
  57        0.7617
  58        0.7617
  59        0.7849
  60        0.7849
  61        0.7849
  62        0.7849
  63        0.8674
  64        1.0207
  65        1.0207
  66        1.0207
  67        1.0207
  68        1.0844
  69        1.0844
  70        1.0844
  71        1.0844
  72        1.1951
  73        1.1951
  74        1.1951
  75        1.1951
  76        1.2574
  77        1.2574
  78        1.2574
  79        1.2574
  80        1.2665
  81        1.3880
  82        1.3880
  83        1.3880
  84        1.3880
  85        1.4213
  86        1.4213
  87        1.4418
  88        1.4418
  89        1.5460
  90        1.5460
  91        1.5460
  92        1.5460
  93        1.7309
  94        1.7309
  95        1.7309
  96        1.7309
  97        1.7672
  98        1.7672
  99        1.9236
 100        2.0334
 101        2.0334
 102        2.0334
 103        2.0334
 104        2.0978
 105        2.0978
 106        2.0978
 107        2.0978
 108        2.1274
 109        2.1274
 110        2.1274
 111        2.1274
 112        2.1767
 113        2.1767
 114        2.1767
 115        2.1767
 116        2.2166
 117        2.2166
 118        2.2166
 119        2.2166
 120        2.2490
 121        2.2528
 122        2.2608
 123        2.2608
 124        2.2608
 125        2.2608
 126        2.2679
 127        2.2679
 128        2.2679
 129        2.2679
 130        2.3582
 131        2.4475
 132        2.4475
 133        2.5066
 134        2.5327
 135        2.5327
 136        2.5334
 137        2.5334
 138        2.5334
 139        2.5334
 140        2.5788
 141        2.5788
 142        2.5788
 143        2.5788
 144        2.6813
 145        2.6813
 146        2.7795
 147        2.7795
 148        2.7795
 149        2.7795
 150        2.7868
 151        2.8716
 152        2.8716
 153        2.9062
 154        2.9062
 155        2.9062
 156        2.9062
 157        2.9401
 158        3.0312
 159        3.0312
 160        3.0312
 161        3.0312
 162        3.0367
 163        3.0367
 164        3.1548
 165        3.1548
 166        3.1554
 167        3.1554
 168        3.6018
 169        3.6018
 170        3.6018
 171        3.6018
 172        3.9832
 173        3.9832
 174        3.9832
 175        3.9832
 176        4.4233
 177        4.4233
 178        4.4233
 179        4.4233
 180        4.8878
 181        5.8949
 182        5.8949
 183        5.8949
 184        5.8949
 185        6.8898
 186        6.8898
 187        9.2990
 188        9.2990
 189        9.2990
 190        9.2990
 191        9.3382
 192        9.3382
 193        9.7371
 194        9.7371
 195        9.7371
 196        9.7371
 197       11.7490
 198       11.7490
 199       11.7490
 200       11.7490
 201       12.7176
 202       12.7176
 203       12.8185
 204       12.8185
 205       12.8185
 206       12.8185
 207       13.2081
 208       13.2081
 209       13.4623
 210       13.4623
 211       13.4623
 212       13.4623
 213       13.6689
 214       13.6689
 215       14.2946
 216       14.2946
 
  0.4285714E+00  0.0000000E+00  0.0000000E+00  0.1749271E-01
   1       -4.8361
   2       -4.3855
   3       -2.0207
   4       -2.0207
   5       -2.0207
   6       -2.0207
   7       -1.6849
   8       -1.6849
   9       -1.6849
  10       -1.6849
  11       -0.9859
  12       -0.8503
  13       -0.8267
  14       -0.8267
  15       -0.8267
  16       -0.8267
  17       -0.7270
  18       -0.7270
  19       -0.7270
  20       -0.7270
  21       -0.5331
  22       -0.5331
  23       -0.3520
  24       -0.3520
  25       -0.1163
  26       -0.0995
  27       -0.0995
  28        0.0075
  29        0.0466
  30        0.0466
  31        0.2366
  32        0.2366
  33        0.2366
  34        0.2366
  35        0.2599
  36        0.2599
  37        0.2599
  38        0.2599
  39        0.5208
  40        0.5208
  41        0.5208
  42        0.5208
  43        0.5466
  44        0.5466
  45        0.5466
  46        0.5466
  47        0.5775
  48        0.5775
  49        0.5775
  50        0.5775
  51        0.6243
  52        0.6243
  53        0.6243
  54        0.6243
  55        0.7721
  56        0.7721
  57        0.7721
  58        0.7721
  59        0.7814
  60        0.7814
  61        0.7814
  62        0.7814
  63        1.0279
  64        1.1202
  65        1.1202
  66        1.1202
  67        1.1202
  68        1.1635
  69        1.1946
  70        1.1946
  71        1.1946
  72        1.1946
  73        1.2873
  74        1.2873
  75        1.2873
  76        1.2873
  77        1.3701
  78        1.3701
  79        1.3701
  80        1.3701
  81        1.4035
  82        1.4035
  83        1.4035
  84        1.4035
  85        1.4770
  86        1.4770
  87        1.4770
  88        1.4770
  89        1.5059
  90        1.5059
  91        1.5944
  92        1.5944
  93        1.5944
  94        1.5944
  95        1.6221
  96        1.6221
  97        1.7649
  98        1.7649
  99        1.7649
 100        1.7649
 101        1.8438
 102        1.8438
 103        2.0442
 104        2.1321
 105        2.1321
 106        2.1321
 107        2.1321
 108        2.1401
 109        2.1401
 110        2.1401
 111        2.1401
 112        2.1462
 113        2.1462
 114        2.1462
 115        2.1462
 116        2.1581
 117        2.1858
 118        2.1858
 119        2.1858
 120        2.1858
 121        2.2296
 122        2.2296
 123        2.2296
 124        2.2296
 125        2.2424
 126        2.2424
 127        2.2424
 128        2.2424
 129        2.2674
 130        2.2674
 131        2.3959
 132        2.4462
 133        2.6032
 134        2.6032
 135        2.6795
 136        2.6795
 137        2.6795
 138        2.6795
 139        2.7278
 140        2.7278
 141        2.7385
 142        2.7385
 143        2.7385
 144        2.7385
 145        2.7525
 146        2.7525
 147        2.8076
 148        2.8076
 149        2.8076
 150        2.8076
 151        2.8488
 152        2.8961
 153        2.8961
 154        2.8962
 155        2.8962
 156        2.9003
 157        2.9003
 158        2.9008
 159        2.9255
 160        2.9932
 161        2.9932
 162        2.9932
 163        2.9932
 164        3.1550
 165        3.1550
 166        3.1552
 167        3.1552
 168        3.2726
 169        3.2726
 170        3.2726
 171        3.2726
 172        3.8542
 173        4.2013
 174        4.2013
 175        4.2013
 176        4.2013
 177        4.3411
 178        4.3411
 179        4.3411
 180        4.3411
 181        6.8734
 182        6.8734
 183        6.8734
 184        6.8734
 185        7.5932
 186        7.5932
 187        8.0211
 188        8.0211
 189        8.0211
 190        8.0211
 191        8.4204
 192        8.4204
 193       10.5372
 194       10.5372
 195       10.5372
 196       10.5372
 197       11.5820
 198       11.5820
 199       11.5820
 200       11.5820
 201       12.1821
 202       12.1821
 203       12.1821
 204       12.1821
 205       12.7594
 206       12.7594
 207       12.7594
 208       12.7594
 209       12.8282
 210       12.8282
 211       12.9910
 212       12.9910
 213       14.5685
 214       14.5685
 215       14.5685
 216       14.5685
 
  0.1428571E+00  0.1428571E+00  0.0000000E+00  0.3498542E-01
   1       -5.2981
   2       -3.1222
   3       -3.1222
   4       -2.3820
   5       -2.3820
   6       -1.7763
   7       -1.7763
   8       -1.3717
   9       -0.9911
  10       -0.9911
  11       -0.8934
  12       -0.8934
  13       -0.8934
  14       -0.8934
  15       -0.8894
  16       -0.8894
  17       -0.7745
  18       -0.7745
  19       -0.7445
  20       -0.4423
  21       -0.4423
  22       -0.2455
  23       -0.2455
  24       -0.2445
  25       -0.2251
  26       -0.2251
  27       -0.2251
  28       -0.2251
  29       -0.0036
  30       -0.0036
  31        0.0030
  32        0.0030
  33        0.0370
  34        0.0835
  35        0.0835
  36        0.3379
  37        0.3379
  38        0.4578
  39        0.4578
  40        0.4791
  41        0.4791
  42        0.5248
  43        0.5248
  44        0.6603
  45        0.6603
  46        0.6808
  47        0.6808
  48        0.6960
  49        0.6960
  50        0.7060
  51        0.7460
  52        0.7808
  53        0.7808
  54        0.7808
  55        0.7808
  56        0.7954
  57        0.7954
  58        0.8237
  59        0.8237
  60        0.8237
  61        0.8237
  62        0.8668
  63        0.8978
  64        0.8978
  65        0.8978
  66        0.8978
  67        0.9444
  68        0.9444
  69        1.0381
  70        1.0381
  71        1.0716
  72        1.0716
  73        1.1215
  74        1.1215
  75        1.1215
  76        1.1215
  77        1.2418
  78        1.2554
  79        1.2554
  80        1.3050
  81        1.3050
  82        1.3183
  83        1.3461
  84        1.3461
  85        1.3646
  86        1.3646
  87        1.3782
  88        1.3859
  89        1.6433
  90        1.6433
  91        1.7217
  92        1.7217
  93        1.7730
  94        1.7730
  95        1.8652
  96        1.8652
  97        1.8652
  98        1.8652
  99        1.9155
 100        1.9335
 101        1.9335
 102        1.9335
 103        1.9335
 104        1.9375
 105        1.9375
 106        2.0266
 107        2.0302
 108        2.0302
 109        2.0512
 110        2.0512
 111        2.0666
 112        2.0666
 113        2.1122
 114        2.2700
 115        2.2700
 116        2.3014
 117        2.3080
 118        2.3080
 119        2.3179
 120        2.3179
 121        2.3245
 122        2.3245
 123        2.3245
 124        2.3245
 125        2.3272
 126        2.3272
 127        2.3282
 128        2.3282
 129        2.3298
 130        2.3813
 131        2.3813
 132        2.4155
 133        2.4155
 134        2.4204
 135        2.4204
 136        2.4997
 137        2.4997
 138        2.4997
 139        2.4997
 140        2.5154
 141        2.5622
 142        2.5622
 143        2.5883
 144        2.5883
 145        2.6816
 146        2.6816
 147        2.7598
 148        2.7598
 149        2.9120
 150        2.9203
 151        2.9203
 152        2.9221
 153        2.9790
 154        2.9790
 155        2.9818
 156        2.9818
 157        2.9994
 158        2.9994
 159        3.0951
 160        3.0951
 161        3.1225
 162        3.1225
 163        3.1234
 164        3.1234
 165        3.1243
 166        3.1243
 167        3.1354
 168        3.4569
 169        3.4569
 170        3.5945
 171        3.9772
 172        3.9772
 173        3.9772
 174        3.9772
 175        4.1441
 176        4.1441
 177        4.5217
 178        4.5217
 179        5.0946
 180        5.0946
 181        5.0946
 182        5.0946
 183        5.8111
 184        5.9875
 185        5.9875
 186        6.5625
 187        9.0904
 188        9.0904
 189        9.6625
 190        9.6625
 191        9.6829
 192        9.6829
 193       10.4282
 194       10.4282
 195       10.4469
 196       10.4469
 197       10.9569
 198       10.9569
 199       11.5815
 200       11.5815
 201       12.5899
 202       12.5899
 203       12.6742
 204       13.1789
 205       13.1789
 206       13.3374
 207       13.3374
 208       13.3374
 209       13.3374
 210       13.3411
 211       13.6778
 212       13.6778
 213       14.1354
 214       14.1354
 215       14.6983
 216       14.6983
 
  0.2857143E+00  0.1428571E+00  0.0000000E+00  0.6997085E-01
   1       -5.0989
   2       -3.7652
   3       -2.9516
   4       -2.2272
   5       -2.2272
   6       -1.8591
   7       -1.6306
   8       -1.2807
   9       -1.2807
  10       -1.2547
  11       -0.9982
  12       -0.9982
  13       -0.9195
  14       -0.9195
  15       -0.7917
  16       -0.7917
  17       -0.7761
  18       -0.7687
  19       -0.6771
  20       -0.6502
  21       -0.3607
  22       -0.3607
  23       -0.1893
  24       -0.1847
  25       -0.1845
  26       -0.1527
  27       -0.1415
  28       -0.0949
  29        0.0220
  30        0.0220
  31        0.0534
  32        0.0839
  33        0.1597
  34        0.1597
  35        0.1713
  36        0.1780
  37        0.2367
  38        0.2483
  39        0.3712
  40        0.4193
  41        0.5021
  42        0.5436
  43        0.5514
  44        0.5514
  45        0.5590
  46        0.5590
  47        0.5851
  48        0.6328
  49        0.6637
  50        0.6637
  51        0.7103
  52        0.7160
  53        0.7160
  54        0.7542
  55        0.7950
  56        0.8333
  57        0.8333
  58        0.8695
  59        0.8885
  60        0.8885
  61        0.8983
  62        0.8983
  63        0.9371
  64        0.9413
  65        0.9583
  66        0.9583
  67        1.0541
  68        1.0593
  69        1.0970
  70        1.0970
  71        1.1604
  72        1.1604
  73        1.1841
  74        1.1841
  75        1.2045
  76        1.2045
  77        1.2598
  78        1.2869
  79        1.2869
  80        1.3325
  81        1.3929
  82        1.3929
  83        1.3961
  84        1.4247
  85        1.4290
  86        1.4320
  87        1.4320
  88        1.4332
  89        1.5229
  90        1.5229
  91        1.5631
  92        1.5938
  93        1.7086
  94        1.7217
  95        1.7217
  96        1.7678
  97        1.7996
  98        1.7996
  99        1.9112
 100        1.9112
 101        1.9400
 102        1.9560
 103        1.9814
 104        2.0208
 105        2.0254
 106        2.0254
 107        2.0278
 108        2.0364
 109        2.0364
 110        2.0707
 111        2.0707
 112        2.1056
 113        2.1105
 114        2.1218
 115        2.1218
 116        2.1584
 117        2.1677
 118        2.2504
 119        2.2520
 120        2.2520
 121        2.2985
 122        2.3105
 123        2.3105
 124        2.3277
 125        2.3304
 126        2.3502
 127        2.3504
 128        2.4047
 129        2.4047
 130        2.4371
 131        2.4536
 132        2.4548
 133        2.4859
 134        2.4859
 135        2.5128
 136        2.5323
 137        2.5514
 138        2.6131
 139        2.6225
 140        2.6257
 141        2.6296
 142        2.6296
 143        2.6325
 144        2.6325
 145        2.6542
 146        2.6671
 147        2.7675
 148        2.7675
 149        2.8261
 150        2.8490
 151        2.8799
 152        2.8913
 153        2.9148
 154        2.9148
 155        2.9493
 156        2.9493
 157        2.9520
 158        2.9610
 159        3.0173
 160        3.0173
 161        3.0312
 162        3.0320
 163        3.0365
 164        3.1220
 165        3.1238
 166        3.1243
 167        3.1249
 168        3.2787
 169        3.5605
 170        3.5605
 171        3.5857
 172        3.5857
 173        3.9281
 174        3.9281
 175        4.0404
 176        4.5675
 177        4.5675
 178        5.0697
 179        5.0697
 180        5.0940
 181        5.2286
 182        5.8985
 183        5.8985
 184        6.4839
 185        6.6790
 186        7.0464
 187        8.4465
 188        8.7667
 189        9.3009
 190        9.3009
 191        9.3108
 192        9.3108
 193        9.4446
 194       10.2136
 195       10.3929
 196       10.3929
 197       10.7147
 198       11.0529
 199       11.0529
 200       12.0205
 201       12.0205
 202       12.5032
 203       12.5442
 204       12.5941
 205       12.5941
 206       12.7354
 207       12.8482
 208       13.2625
 209       13.4544
 210       13.7206
 211       13.7206
 212       13.7539
 213       13.8605
 214       13.8909
 215       14.4796
 216       14.5044
 
  0.4285714E+00  0.1428571E+00  0.0000000E+00  0.6997085E-01
   1       -4.7713
   2       -4.3224
   3       -2.6746
   4       -2.3036
   5       -1.9791
   6       -1.9791
   7       -1.6548
   8       -1.6548
   9       -1.3993
  10       -1.1017
  11       -0.9827
  12       -0.9827
  13       -0.9530
  14       -0.9530
  15       -0.9444
  16       -0.8124
  17       -0.6654
  18       -0.6654
  19       -0.5264
  20       -0.5172
  21       -0.5172
  22       -0.5044
  23       -0.3415
  24       -0.3253
  25       -0.0983
  26       -0.0842
  27       -0.0828
  28        0.0237
  29        0.0565
  30        0.0612
  31        0.1019
  32        0.1173
  33        0.2101
  34        0.2112
  35        0.2112
  36        0.2603
  37        0.2603
  38        0.2792
  39        0.3600
  40        0.3716
  41        0.4253
  42        0.4498
  43        0.4498
  44        0.4952
  45        0.4952
  46        0.4979
  47        0.5379
  48        0.5831
  49        0.5944
  50        0.5944
  51        0.6509
  52        0.6509
  53        0.7294
  54        0.7314
  55        0.7466
  56        0.8074
  57        0.8612
  58        0.8612
  59        0.8800
  60        0.8800
  61        0.9918
  62        0.9918
  63        0.9975
  64        1.0271
  65        1.0358
  66        1.0924
  67        1.0924
  68        1.1599
  69        1.1856
  70        1.1856
  71        1.1908
  72        1.2485
  73        1.2485
  74        1.2747
  75        1.2747
  76        1.2906
  77        1.2906
  78        1.3620
  79        1.3786
  80        1.3786
  81        1.3973
  82        1.3973
  83        1.4041
  84        1.4696
  85        1.4696
  86        1.4870
  87        1.5079
  88        1.5101
  89        1.5294
  90        1.5294
  91        1.5880
  92        1.5880
  93        1.6106
  94        1.6233
  95        1.6598
  96        1.6598
  97        1.6623
  98        1.6623
  99        1.7153
 100        1.7153
 101        1.7914
 102        1.8187
 103        1.9501
 104        1.9605
 105        1.9605
 106        1.9762
 107        1.9959
 108        1.9959
 109        2.0371
 110        2.0612
 111        2.1049
 112        2.1363
 113        2.1363
 114        2.1643
 115        2.1921
 116        2.2100
 117        2.2100
 118        2.2105
 119        2.2247
 120        2.2583
 121        2.2610
 122        2.2825
 123        2.3139
 124        2.3289
 125        2.3349
 126        2.3444
 127        2.3444
 128        2.3745
 129        2.3909
 130        2.3913
 131        2.3950
 132        2.3950
 133        2.4460
 134        2.5883
 135        2.6098
 136        2.6489
 137        2.6489
 138        2.6512
 139        2.7273
 140        2.7280
 141        2.7335
 142        2.7590
 143        2.7595
 144        2.7619
 145        2.7619
 146        2.7716
 147        2.7716
 148        2.7956
 149        2.7956
 150        2.8023
 151        2.8319
 152        2.8728
 153        2.8728
 154        2.8943
 155        2.9000
 156        2.9020
 157        2.9041
 158        2.9041
 159        2.9087
 160        2.9773
 161        2.9773
 162        3.0166
 163        3.1219
 164        3.1224
 165        3.1240
 166        3.1242
 167        3.2570
 168        3.2570
 169        3.2614
 170        3.3038
 171        3.6261
 172        3.7169
 173        3.7169
 174        3.8424
 175        3.8424
 176        4.1065
 177        4.8517
 178        4.8517
 179        5.0029
 180        5.0029
 181        6.1354
 182        6.8854
 183        6.8854
 184        7.1531
 185        7.2256
 186        7.7117
 187        7.7275
 188        7.9248
 189        8.0360
 190        8.0360
 191        8.5384
 192        8.8990
 193        9.9112
 194        9.9112
 195       10.8428
 196       10.8428
 197       11.1709
 198       11.3235
 199       11.3235
 200       11.4331
 201       11.4331
 202       11.7742
 203       11.9549
 204       11.9549
 205       12.4428
 206       12.4428
 207       12.8358
 208       12.9373
 209       13.2644
 210       13.4072
 211       13.6184
 212       13.8220
 213       13.9285
 214       14.0874
 215       14.3972
 216       14.9641
 
  0.2857143E+00  0.2857143E+00  0.0000000E+00  0.3498542E-01
   1       -4.9019
   2       -3.5848
   3       -3.5848
   4       -2.4054
   5       -2.0845
   6       -2.0845
   7       -1.2452
   8       -1.2452
   9       -1.2452
  10       -1.2452
  11       -1.1216
  12       -1.1216
  13       -1.0738
  14       -1.0738
  15       -0.6739
  16       -0.6739
  17       -0.6543
  18       -0.6543
  19       -0.5606
  20       -0.3586
  21       -0.3586
  22       -0.1358
  23       -0.1358
  24       -0.1358
  25       -0.1358
  26       -0.1311
  27       -0.1311
  28       -0.1295
  29       -0.1146
  30       -0.1146