       N       E                     dE             d eps       ncg     rms          rms(c)
DAV:   1     0.339414792904E+04    0.33941E+04   -0.14303E+05  8648   0.253E+03
DAV:   2     0.361867463924E+03   -0.30323E+04   -0.29002E+04  8640   0.566E+02
DAV:   3    -0.116315722551E+03   -0.47818E+03   -0.43473E+03  8640   0.225E+02
DAV:   4    -0.144507291617E+03   -0.28192E+02   -0.27602E+02  9120   0.663E+01
DAV:   5    -0.144745146225E+03   -0.23785E+00   -0.23754E+00  9184   0.659E+00    0.399E+01
DAV:   6    -0.123680282067E+03    0.21065E+02   -0.22926E+02  9320   0.889E+01    0.137E+01
DAV:   7    -0.116689488184E+03    0.69908E+01   -0.34904E+01  9600   0.349E+01    0.362E+00
DAV:   8    -0.116286510207E+03    0.40298E+00   -0.37214E-01  8976   0.200E+00    0.180E+00
DAV:   9    -0.116218001491E+03    0.68509E-01   -0.11651E-01 10288   0.195E+00    0.764E-02
DAV:  10    -0.116218994296E+03   -0.99281E-03   -0.72814E-03  9032   0.245E-01    0.579E-02
DAV:  11    -0.116218893387E+03    0.10091E-03   -0.41591E-04  9192   0.112E-01    0.999E-03
DAV:  12    -0.116218941390E+03   -0.48003E-04   -0.75163E-06  9736   0.137E-02    0.424E-03
DAV:  13    -0.116218942496E+03   -0.11053E-05   -0.82351E-07  9240   0.495E-03    0.785E-04
DAV:  14    -0.116218942206E+03    0.28928E-06   -0.44147E-08  7536   0.632E-04    0.130E-04
DAV:  15    -0.116218942102E+03    0.10446E-06   -0.68737E-10  4816   0.902E-05    0.765E-05
DAV:  16    -0.116218942008E+03    0.93540E-07   -0.67218E-11  4776   0.400E-05    0.382E-05
DAV:  17    -0.116218941994E+03    0.13984E-07   -0.56069E-11  4776   0.481E-05    0.512E-05
DAV:  18    -0.116218941990E+03    0.43001E-08    0.10634E-11  4800   0.102E-05
   1 F= -.11621894E+03 E0= -.11621856E+03  d E =-.762467E-03
