   4   4   0   0
  0.1432269E+02  0.3855034E-09  0.3855034E-09  0.3855034E-09  0.5000000E-15
  1.000000000000000E-004
  CAR 
 unknown system                          
     22.98313903     -7.04634157  301      2.30417754      1.00000000
     -7.046  0.0000E+00  0.0000E+00
     -6.946  0.0000E+00  0.0000E+00
     -6.846  0.0000E+00  0.0000E+00
     -6.746  0.0000E+00  0.0000E+00
     -6.646  0.0000E+00  0.0000E+00
     -6.546  0.0000E+00  0.0000E+00
     -6.446  0.0000E+00  0.0000E+00
     -6.346  0.0000E+00  0.0000E+00
     -6.246  0.0000E+00  0.0000E+00
     -6.145  0.0000E+00  0.0000E+00
     -6.045  0.0000E+00  0.0000E+00
     -5.945  0.0000E+00  0.0000E+00
     -5.845  0.0000E+00  0.0000E+00
     -5.745  0.0000E+00  0.0000E+00
     -5.645  0.1624E-01  0.1626E-02
     -5.545  0.8349E-01  0.1183E-01
     -5.445  0.1271E+00  0.2837E-01
     -5.345  0.1636E+00  0.4806E-01
     -5.245  0.1975E+00  0.7177E-01
     -5.144  0.2036E+00  0.9716E-01
     -5.044  0.2424E+00  0.1260E+00
     -4.944  0.2799E+00  0.1597E+00
     -4.844  0.2597E+00  0.1906E+00
     -4.744  0.2948E+00  0.2278E+00
     -4.644  0.3181E+00  0.2654E+00
     -4.544  0.3065E+00  0.3052E+00
     -4.444  0.4095E+00  0.3517E+00
     -4.344  0.3232E+00  0.3918E+00
     -4.244  0.3698E+00  0.4425E+00
     -4.143  0.4102E+00  0.4908E+00
     -4.043  0.4378E+00  0.5446E+00
     -3.943  0.3982E+00  0.5956E+00
     -3.843  0.5057E+00  0.6558E+00
     -3.743  0.4851E+00  0.7136E+00
     -3.643  0.4634E+00  0.7699E+00
     -3.543  0.5232E+00  0.8379E+00
     -3.443  0.5030E+00  0.9007E+00
     -3.343  0.5798E+00  0.9723E+00
     -3.243  0.5631E+00  0.1044E+01
     -3.143  0.5805E+00  0.1116E+01
     -3.042  0.6113E+00  0.1197E+01
     -2.942  0.5991E+00  0.1277E+01
     -2.842  0.6882E+00  0.1368E+01
     -2.742  0.7453E+00  0.1459E+01
     -2.642  0.7678E+00  0.1556E+01
     -2.542  0.7882E+00  0.1658E+01
     -2.442  0.9204E+00  0.1767E+01
     -2.342  0.9675E+00  0.1888E+01
     -2.242  0.1076E+01  0.2021E+01
     -2.142  0.1150E+01  0.2161E+01
     -2.041  0.1389E+01  0.2329E+01
     -1.941  0.1508E+01  0.2510E+01
     -1.841  0.1829E+01  0.2744E+01
     -1.741  0.2761E+01  0.3076E+01
     -1.641  0.2949E+01  0.3435E+01
     -1.541  0.3985E+01  0.3935E+01
     -1.441  0.4641E+01  0.4510E+01
     -1.341  0.4809E+01  0.5108E+01
     -1.241  0.5225E+01  0.5762E+01
     -1.141  0.7567E+01  0.6673E+01
     -1.040  0.9018E+01  0.7774E+01
     -0.940  0.1001E+02  0.9020E+01
     -0.840  0.8367E+01  0.1008E+02
     -0.740  0.9190E+01  0.1122E+02
     -0.640  0.8623E+01  0.1233E+02
     -0.540  0.1061E+02  0.1360E+02
     -0.440  0.1282E+02  0.1516E+02
     -0.340  0.1382E+02  0.1689E+02
     -0.240  0.1621E+02  0.1887E+02
     -0.140  0.1788E+02  0.2107E+02
     -0.039  0.1974E+02  0.2354E+02
      0.061  0.1275E+02  0.2517E+02
      0.161  0.1112E+02  0.2657E+02
      0.261  0.1367E+02  0.2822E+02
      0.361  0.1638E+02  0.3024E+02
      0.461  0.1523E+02  0.3222E+02
      0.561  0.1366E+02  0.3397E+02
      0.661  0.1471E+02  0.3579E+02
      0.761  0.1977E+02  0.3816E+02
      0.861  0.2227E+02  0.4113E+02
      0.962  0.4781E+01  0.4188E+02
      1.062  0.1740E+01  0.4209E+02
      1.162  0.1461E+01  0.4229E+02
      1.262  0.1437E+01  0.4247E+02
      1.362  0.1344E+01  0.4264E+02
      1.462  0.1222E+01  0.4279E+02
      1.562  0.1127E+01  0.4295E+02
      1.662  0.1193E+01  0.4309E+02
      1.762  0.1386E+01  0.4326E+02
      1.862  0.9736E+00  0.4339E+02
      1.963  0.1322E+01  0.4354E+02
      2.063  0.1020E+01  0.4367E+02
      2.163  0.1379E+01  0.4383E+02
      2.263  0.8955E+00  0.4394E+02
      2.363  0.1288E+01  0.4410E+02
      2.463  0.9942E+00  0.4421E+02
      2.563  0.1212E+01  0.4435E+02
      2.663  0.8855E+00  0.4447E+02
      2.763  0.9784E+00  0.4459E+02
      2.863  0.1081E+01  0.4473E+02
      2.963  0.7761E+00  0.4483E+02
      3.064  0.1151E+01  0.4497E+02
      3.164  0.9390E+00  0.4509E+02
      3.264  0.8346E+00  0.4519E+02
      3.364  0.1063E+01  0.4533E+02
      3.464  0.7204E+00  0.4543E+02
      3.564  0.9252E+00  0.4554E+02
      3.664  0.8717E+00  0.4566E+02
      3.764  0.7246E+00  0.4576E+02
      3.864  0.8616E+00  0.4587E+02
      3.964  0.8980E+00  0.4599E+02
      4.065  0.8437E+00  0.4610E+02
      4.165  0.1043E+01  0.4621E+02
      4.265  0.8253E+00  0.4632E+02
      4.365  0.7437E+00  0.4641E+02
      4.465  0.7780E+00  0.4651E+02
      4.565  0.9292E+00  0.4662E+02
      4.665  0.6594E+00  0.4670E+02
      4.765  0.7355E+00  0.4679E+02
      4.865  0.7803E+00  0.4688E+02
      4.965  0.6299E+00  0.4697E+02
      5.066  0.6094E+00  0.4705E+02
      5.166  0.7770E+00  0.4713E+02
      5.266  0.8743E+00  0.4724E+02
      5.366  0.9214E+00  0.4735E+02
      5.466  0.9501E+00  0.4747E+02
      5.566  0.1013E+01  0.4761E+02
      5.666  0.1053E+01  0.4774E+02
      5.766  0.8784E+00  0.4786E+02
      5.866  0.1037E+01  0.4799E+02
      5.966  0.1190E+01  0.4813E+02
      6.067  0.1017E+01  0.4825E+02
      6.167  0.8350E+00  0.4837E+02
      6.267  0.1066E+01  0.4851E+02
      6.367  0.9803E+00  0.4864E+02
      6.467  0.9226E+00  0.4875E+02
      6.567  0.9979E+00  0.4888E+02
      6.667  0.1052E+01  0.4900E+02
      6.767  0.8433E+00  0.4911E+02
      6.867  0.9368E+00  0.4924E+02
      6.967  0.7329E+00  0.4935E+02
      7.068  0.9221E+00  0.4947E+02
      7.168  0.9873E+00  0.4960E+02
      7.268  0.9341E+00  0.4971E+02
      7.368  0.7491E+00  0.4980E+02
      7.468  0.1033E+01  0.4993E+02
      7.568  0.8996E+00  0.5003E+02
      7.668  0.6639E+00  0.5013E+02
      7.768  0.1000E+01  0.5025E+02
      7.868  0.8314E+00  0.5035E+02
      7.968  0.8295E+00  0.5046E+02
      8.068  0.8130E+00  0.5055E+02
      8.169  0.7974E+00  0.5065E+02
      8.269  0.9409E+00  0.5077E+02
      8.369  0.1080E+01  0.5091E+02
      8.469  0.1072E+01  0.5104E+02
      8.569  0.1117E+01  0.5117E+02
      8.669  0.1131E+01  0.5131E+02
      8.769  0.1048E+01  0.5146E+02
      8.869  0.1047E+01  0.5160E+02
      8.969  0.1203E+01  0.5175E+02
      9.069  0.1081E+01  0.5189E+02
      9.170  0.1307E+01  0.5205E+02
      9.270  0.1173E+01  0.5219E+02
      9.370  0.1156E+01  0.5234E+02
      9.470  0.1252E+01  0.5250E+02
      9.570  0.1264E+01  0.5265E+02
      9.670  0.1120E+01  0.5280E+02
      9.770  0.1154E+01  0.5295E+02
      9.870  0.1310E+01  0.5310E+02
      9.970  0.1344E+01  0.5327E+02
     10.070  0.1299E+01  0.5342E+02
     10.171  0.1289E+01  0.5357E+02
     10.271  0.1171E+01  0.5372E+02
     10.371  0.1212E+01  0.5387E+02
     10.471  0.1284E+01  0.5403E+02
     10.571  0.1358E+01  0.5420E+02
     10.671  0.1212E+01  0.5436E+02
     10.771  0.1274E+01  0.5452E+02
     10.871  0.1118E+01  0.5466E+02
     10.971  0.1343E+01  0.5482E+02
     11.071  0.1291E+01  0.5499E+02
     11.172  0.1253E+01  0.5515E+02
     11.272  0.1447E+01  0.5532E+02
     11.372  0.1279E+01  0.5548E+02
     11.472  0.1251E+01  0.5564E+02
     11.572  0.1264E+01  0.5579E+02
     11.672  0.1463E+01  0.5596E+02
     11.772  0.1456E+01  0.5613E+02
     11.872  0.1313E+01  0.5631E+02
     11.972  0.1174E+01  0.5645E+02
     12.072  0.1392E+01  0.5662E+02
     12.173  0.1160E+01  0.5678E+02
     12.273  0.1363E+01  0.5696E+02
     12.373  0.1430E+01  0.5713E+02
     12.473  0.1292E+01  0.5729E+02
     12.573  0.1473E+01  0.5748E+02
     12.673  0.1390E+01  0.5766E+02
     12.773  0.1212E+01  0.5781E+02
     12.873  0.1504E+01  0.5798E+02
     12.973  0.1458E+01  0.5817E+02
     13.073  0.1224E+01  0.5834E+02
     13.174  0.1379E+01  0.5851E+02
     13.274  0.1605E+01  0.5870E+02
     13.374  0.1297E+01  0.5887E+02
     13.474  0.1654E+01  0.5906E+02
     13.574  0.1356E+01  0.5923E+02
     13.674  0.1514E+01  0.5941E+02
     13.774  0.1654E+01  0.5961E+02
     13.874  0.1383E+01  0.5980E+02
     13.974  0.1635E+01  0.5999E+02
     14.074  0.1753E+01  0.6020E+02
     14.174  0.1385E+01  0.6037E+02
     14.275  0.1467E+01  0.6055E+02
     14.375  0.1348E+01  0.6073E+02
     14.475  0.1351E+01  0.6090E+02
     14.575  0.1300E+01  0.6107E+02
     14.675  0.1329E+01  0.6124E+02
     14.775  0.1300E+01  0.6140E+02
     14.875  0.1132E+01  0.6154E+02
     14.975  0.1134E+01  0.6168E+02
     15.075  0.9586E+00  0.6181E+02
     15.175  0.1152E+01  0.6195E+02
     15.276  0.9772E+00  0.6206E+02
     15.376  0.7996E+00  0.6216E+02
     15.476  0.8089E+00  0.6227E+02
     15.576  0.6253E+00  0.6235E+02
     15.676  0.6141E+00  0.6244E+02
     15.776  0.7343E+00  0.6252E+02
     15.876  0.6286E+00  0.6260E+02
     15.976  0.5255E+00  0.6268E+02
     16.076  0.6515E+00  0.6276E+02
     16.176  0.5097E+00  0.6282E+02
     16.277  0.4351E+00  0.6288E+02
     16.377  0.5332E+00  0.6295E+02
     16.477  0.4496E+00  0.6300E+02
     16.577  0.4546E+00  0.6306E+02
     16.677  0.4293E+00  0.6311E+02
     16.777  0.3956E+00  0.6317E+02
     16.877  0.3676E+00  0.6321E+02
     16.977  0.3976E+00  0.6326E+02
     17.077  0.3569E+00  0.6330E+02
     17.177  0.2816E+00  0.6334E+02
     17.278  0.2629E+00  0.6338E+02
     17.378  0.3162E+00  0.6342E+02
     17.478  0.2753E+00  0.6345E+02
     17.578  0.2764E+00  0.6348E+02
     17.678  0.2518E+00  0.6351E+02
     17.778  0.2647E+00  0.6354E+02
     17.878  0.2016E+00  0.6357E+02
     17.978  0.2597E+00  0.6360E+02
     18.078  0.1765E+00  0.6362E+02
     18.178  0.1988E+00  0.6365E+02
     18.279  0.1595E+00  0.6367E+02
     18.379  0.1901E+00  0.6370E+02
     18.479  0.1097E+00  0.6371E+02
     18.579  0.2239E+00  0.6374E+02
     18.679  0.1692E+00  0.6376E+02
     18.779  0.1833E+00  0.6377E+02
     18.879  0.8652E-01  0.6379E+02
     18.979  0.1116E+00  0.6381E+02
     19.079  0.1335E+00  0.6382E+02
     19.179  0.1341E+00  0.6384E+02
     19.280  0.1225E+00  0.6386E+02
     19.380  0.4321E-01  0.6386E+02
     19.480  0.1309E+00  0.6388E+02
     19.580  0.6168E-01  0.6389E+02
     19.680  0.1700E+00  0.6390E+02
     19.780  0.1100E-01  0.6391E+02
     19.880  0.1376E+00  0.6392E+02
     19.980  0.1741E-01  0.6393E+02
     20.080  0.1131E+00  0.6394E+02
     20.180  0.4101E-01  0.6394E+02
     20.280  0.9315E-01  0.6395E+02
     20.381  0.5139E-01  0.6396E+02
     20.481  0.5015E-01  0.6396E+02
     20.581  0.1026E-01  0.6397E+02
     20.681  0.7132E-01  0.6398E+02
     20.781  0.1742E-01  0.6398E+02
     20.881  0.5139E-01  0.6398E+02
     20.981  0.2417E-01  0.6399E+02
     21.081  0.1028E-01  0.6399E+02
     21.181  0.3083E-01  0.6399E+02
     21.281  0.1117E-01  0.6399E+02
     21.382  0.1120E-01  0.6400E+02
     21.482  0.1381E-01  0.6400E+02
     21.582  0.1028E-01  0.6400E+02
     21.682  0.1713E-02  0.6400E+02
     21.782  0.0000E+00  0.6400E+02
     21.882  0.0000E+00  0.6400E+02
     21.982  0.0000E+00  0.6400E+02
     22.082  0.0000E+00  0.6400E+02
     22.182  0.0000E+00  0.6400E+02
     22.282  0.0000E+00  0.6400E+02
     22.383  0.0000E+00  0.6400E+02
     22.483  0.0000E+00  0.6400E+02
     22.583  0.0000E+00  0.6400E+02
     22.683  0.0000E+00  0.6400E+02
     22.783  0.0000E+00  0.6400E+02
     22.883  0.0000E+00  0.6400E+02
     22.983  0.0000E+00  0.6400E+02
