    4    4    1    1
  0.1432269E+02  0.3855034E-09  0.3855034E-09  0.3855034E-09  0.5000000E-15
  1.000000000000000E-004
  CAR 
 unknown system                          
   44 1330   32
 
  0.0000000E+00  0.0000000E+00  0.0000000E+00  0.2143347E-04
   1       -5.6814
   2       -1.5935
   3       -1.5935
   4       -1.5935
   5       -1.2529
   6       -1.2529
   7       -1.2529
   8       -0.2261
   9       -0.2261
  10       -0.2261
  11        0.3867
  12        0.3867
  13        0.7954
  14        0.7954
  15        0.7954
  16        0.9096
  17        0.9096
  18        0.9096
  19        0.9096
  20        0.9096
  21        0.9096
  22        3.9467
  23        3.9467
  24        3.9467
  25        8.1574
  26        8.1574
  27        8.1574
  28       14.0175
  29       14.0175
  30       14.0175
  31       14.0175
  32       14.0175
 
  0.2777778E-01  0.0000000E+00  0.0000000E+00  0.1286008E-03
   1       -5.6732
   2       -1.5938
   3       -1.5900
   4       -1.5900
   5       -1.2510
   6       -1.2509
   7       -1.2509
   8       -0.2282
   9       -0.2245
  10       -0.2245
  11        0.3849
  12        0.3875
  13        0.7931
  14        0.7931
  15        0.7946
  16        0.8981
  17        0.8981
  18        0.9068
  19        0.9068
  20        0.9096
  21        0.9096
  22        3.8788
  23        3.9657
  24        3.9657
  25        8.1610
  26        8.1610
  27        8.2423
  28       13.9528
  29       13.9528
  30       13.9729
  31       13.9729
  32       14.0290
 
  0.5555556E-01  0.0000000E+00  0.0000000E+00  0.1286008E-03
   1       -5.6486
   2       -1.5947
   3       -1.5796
   4       -1.5796
   5       -1.2453
   6       -1.2449
   7       -1.2449
   8       -0.2342
   9       -0.2194
  10       -0.2194
  11        0.3794
  12        0.3898
  13        0.7860
  14        0.7860
  15        0.7923
  16        0.8646
  17        0.8646
  18        0.8983
  19        0.8983
  20        0.9096
  21        0.9096
  22        3.6903
  23        4.0220
  24        4.0220
  25        8.1719
  26        8.1719
  27        8.4822
  28       13.7714
  29       13.7714
  30       13.8448
  31       13.8448
  32       14.0636
 
  0.8333333E-01  0.0000000E+00  0.0000000E+00  0.1286008E-03
   1       -5.6077
   2       -1.5968
   3       -1.5624
   4       -1.5624
   5       -1.2360
   6       -1.2349
   7       -1.2349
   8       -0.2442
   9       -0.2111
  10       -0.2111
  11        0.3703
  12        0.3936
  13        0.7743
  14        0.7743
  15        0.7883
  16        0.8114
  17        0.8114
  18        0.8844
  19        0.8844
  20        0.9096
  21        0.9096
  22        3.4147
  23        4.1131
  24        4.1131
  25        8.1902
  26        8.1902
  27        8.8439
  28       13.5024
  29       13.5024
  30       13.6480
  31       13.6480
  32       14.1211
 
  0.1111111E+00  0.0000000E+00  0.0000000E+00  0.1286008E-03
   1       -5.5506
   2       -1.6010
   3       -1.5387
   4       -1.5387
   5       -1.2230
   6       -1.2209
   7       -1.2209
   8       -0.2582
   9       -0.1994
  10       -0.1994
  11        0.3578
  12        0.3988
  13        0.7418
  14        0.7418
  15        0.7580
  16        0.7580
  17        0.7829
  18        0.8652
  19        0.8652
  20        0.9096
  21        0.9096
  22        3.0858
  23        4.2358
  24        4.2358
  25        8.2160
  26        8.2160
  27        9.2944
  28       13.1751
  29       13.1751
  30       13.4006
  31       13.4006
  32       14.2012
 
  0.1388889E+00  0.0000000E+00  0.0000000E+00  0.1286008E-03
   1       -5.4774
   2       -1.6086
   3       -1.5088
   4       -1.5088
   5       -1.2064
   6       -1.2028
   7       -1.2028
   8       -0.2758
   9       -0.1845
  10       -0.1845
  11        0.3420
  12        0.4056
  13        0.6595
  14        0.6595
  15        0.7374
  16        0.7374
  17        0.7760
  18        0.8410
  19        0.8410
  20        0.9097
  21        0.9097
  22        2.7295
  23        4.3863
  24        4.3863
  25        8.2496
  26        8.2496
  27        9.8089
  28       12.8118
  29       12.8118
  30       13.1192
  31       13.1192
  32       14.3037
 
  0.1666667E+00  0.0000000E+00  0.0000000E+00  0.1286008E-03
   1       -5.3881
   2       -1.6214
   3       -1.4734
   4       -1.4734
   5       -1.1864
   6       -1.1807
   7       -1.1807
   8       -0.2972
   9       -0.1663
  10       -0.1663
  11        0.3231
  12        0.4137
  13        0.5678
  14        0.5678
  15        0.7127
  16        0.7127
  17        0.7676
  18        0.8122
  19        0.8122
  20        0.9097
  21        0.9097
  22        2.3641
  23        4.5612
  24        4.5612
  25        8.2912
  26        8.2912
  27       10.3709
  28       12.4274
  29       12.4274
  30       12.8176
  31       12.8176
  32       14.4281
 
  0.1944444E+00  0.0000000E+00  0.0000000E+00  0.1286008E-03
   1       -5.2831
   2       -1.6421
   3       -1.4330
   4       -1.4330
   5       -1.1630
   6       -1.1544
   7       -1.1544
   8       -0.3219
   9       -0.1449
  10       -0.1449
  11        0.3013
  12        0.4231
  13        0.4698
  14        0.4698
  15        0.6842
  16        0.6842
  17        0.7579
  18        0.7790
  19        0.7790
  20        0.9098
  21        0.9098
  22        2.0025
  23        4.7575
  24        4.7575
  25        8.3412
  26        8.3412
  27       10.9698
  28       12.0318
  29       12.0318
  30       12.5062
  31       12.5062
  32       14.5740
 
  0.2222222E+00  0.0000000E+00  0.0000000E+00  0.1286008E-03
   1       -5.1625
   2       -1.6741
   3       -1.3885
   4       -1.3885
   5       -1.1365
   6       -1.1239
   7       -1.1239
   8       -0.3500
   9       -0.1205
  10       -0.1205
  11        0.2771
  12        0.3679
  13        0.3679
  14        0.4338
  15        0.6523
  16        0.6523
  17        0.7421
  18        0.7421
  19        0.7469
  20        0.9098
  21        0.9098
  22        1.6547
  23        4.9725
  24        4.9725
  25        8.4001
  26        8.4001
  27       11.5984
  28       11.6312
  29       11.6312
  30       12.1925
  31       12.1925
  32       14.7408
 
  0.2500000E+00  0.0000000E+00  0.0000000E+00  0.1286008E-03
   1       -5.0267
   2       -1.7214
   3       -1.3407
   4       -1.3407
   5       -1.1071
   6       -1.0892
   7       -1.0892
   8       -0.3810
   9       -0.0930
  10       -0.0930
  11        0.2509
  12        0.2643
  13        0.2643
  14        0.4457
  15        0.6175
  16        0.6175
  17        0.7019
  18        0.7019
  19        0.7347
  20        0.9098
  21        0.9098
  22        1.3293
  23        5.2042
  24        5.2042
  25        8.4681
  26        8.4681
  27       11.2297
  28       11.2297
  29       11.8821
  30       11.8821
  31       12.2522
  32       14.9281
 
  0.2777778E+00  0.0000000E+00  0.0000000E+00  0.1286008E-03
   1       -4.8760
   2       -1.7891
   3       -1.2908
   4       -1.2908
   5       -1.0748
   6       -1.0502
   7       -1.0502
   8       -0.4148
   9       -0.0625
  10       -0.0625
  11        0.1604
  12        0.1604
  13        0.2232
  14        0.4587
  15        0.5807
  16        0.5807
  17        0.6587
  18        0.6587
  19        0.7214
  20        0.9099
  21        0.9099
  22        1.0341
  23        5.4509
  24        5.4509
  25        8.5459
  26        8.5459
  27       10.8301
  28       10.8301
  29       11.5789
  30       11.5789
  31       12.9278
  32       15.1351
 
  0.3055556E+00  0.0000000E+00  0.0000000E+00  0.1286008E-03
   1       -4.7109
   2       -1.8820
   3       -1.2402
   4       -1.2402
   5       -1.0401
   6       -1.0069
   7       -1.0069
   8       -0.4511
   9       -0.0293
  10       -0.0293
  11        0.0575
  12        0.0575
  13        0.1945
  14        0.4727
  15        0.5427
  16        0.5427
  17        0.6132
  18        0.6132
  19        0.7071
  20        0.7759
  21        0.9099
  22        0.9099
  23        5.7114
  24        5.7114
  25        8.6339
  26        8.6339
  27       10.4344
  28       10.4344
  29       11.2860
  30       11.2860
  31       13.6228
  32       15.3613
 
  0.3333333E+00  0.0000000E+00  0.0000000E+00  0.1286008E-03
   1       -4.5321
   2       -2.0042
   3       -1.1902
   4       -1.1902
   5       -1.0030
   6       -0.9591
   7       -0.9591
   8       -0.4896
   9       -0.0435
  10       -0.0435
  11        0.0066
  12        0.0066
  13        0.1658
  14        0.4876
  15        0.5047
  16        0.5047
  17        0.5600
  18        0.5658
  19        0.5658
  20        0.6919
  21        0.9100
  22        0.9100
  23        5.9845
  24        5.9845
  25        8.7327
  26        8.7327
  27       10.0438
  28       10.0438
  29       11.0053
  30       11.0053
  31       14.3353
  32       15.6061
 
  0.3611111E+00  0.0000000E+00  0.0000000E+00  0.1286008E-03
   1       -4.3402
   2       -2.1569
   3       -1.1428
   4       -1.1428
   5       -0.9639
   6       -0.9070
   7       -0.9070
   8       -0.5300
   9       -0.1418
  10       -0.1418
  11        0.0451
  12        0.0451
  13        0.1378
  14        0.3884
  15        0.4681
  16        0.4681
  17        0.5033
  18        0.5171
  19        0.5171
  20        0.6760
  21        0.9100
  22        0.9100
  23        6.2695
  24        6.2695
  25        8.8425
  26        8.8425
  27        9.6595
  28        9.6595
  29       10.7385
  30       10.7385
  31       15.0639
  32       15.8688
 
  0.3888889E+00  0.0000000E+00  0.0000000E+00  0.1286008E-03
   1       -4.1363
   2       -2.3381
   3       -1.0998
   4       -1.0998
   5       -0.9231
   6       -0.8503
   7       -0.8503
   8       -0.5719
   9       -0.2370
  10       -0.2370
  11        0.0859
  12        0.0859
  13        0.1117
  14        0.2597
  15        0.4344
  16        0.4344
  17        0.4674
  18        0.4674
  19        0.5197
  20        0.6594
  21        0.9100
  22        0.9100
  23        6.5656
  24        6.5656
  25        8.9637
  26        8.9637
  27        9.2820
  28        9.2820
  29       10.4870
  30       10.4870
  31       15.8071
  32       16.1489
 
  0.4166667E+00  0.0000000E+00  0.0000000E+00  0.1286008E-03
   1       -3.9216
   2       -2.5427
   3       -1.0633
   4       -1.0633
   5       -0.8809
   6       -0.7891
   7       -0.7891
   8       -0.6151
   9       -0.3284
  10       -0.3284
  11        0.0890
  12        0.1289
  13        0.1289
  14        0.1691
  15        0.4055
  16        0.4055
  17        0.4173
  18        0.4173
  19        0.5366
  20        0.6424
  21        0.9101
  22        0.9101
  23        6.8723
  24        6.8723
  25        8.9121
  26        8.9121
  27        9.0960
  28        9.0960
  29       10.2521
  30       10.2521
  31       16.4456
  32       16.4461
 
  0.4444444E+00  0.0000000E+00  0.0000000E+00  0.1286008E-03
   1       -3.6977
   2       -2.7641
   3       -1.0354
   4       -1.0354
   5       -0.8375
   6       -0.7234
   7       -0.7234
   8       -0.6592
   9       -0.4160
  10       -0.4160
  11        0.0715
  12        0.1103
  13        0.1738
  14        0.1738
  15        0.3671
  16        0.3671
  17        0.3832
  18        0.3832
  19        0.5539
  20        0.6249
  21        0.9101
  22        0.9101
  23        7.1891
  24        7.1891
  25        8.5501
  26        8.5501
  27        9.2378
  28        9.2378
  29       10.0365
  30       10.0365
  31       16.7584
  32       16.7584
 
  0.4722222E+00  0.0000000E+00  0.0000000E+00  0.1286008E-03
   1       -3.4667
   2       -2.9957
   3       -1.0178
   4       -1.0178
   5       -0.7933
   6       -0.7038
   7       -0.6532
   8       -0.6532
   9       -0.4994
  10       -0.4994
  11        0.0614
  12        0.0765
  13        0.2203
  14        0.2203
  15        0.3173
  16        0.3173
  17        0.3690
  18        0.3690
  19        0.5716
  20        0.6072
  21        0.9101
  22        0.9101
  23        7.5156
  24        7.5156
  25        8.1965
  26        8.1965
  27        9.3799
  28        9.3799
  29        9.8499
  30        9.8499
  31       17.0868
  32       17.0868
 
  0.5000000E+00  0.0000000E+00  0.0000000E+00  0.6430041E-04
   1       -3.2314
   2       -3.2314
   3       -1.0118
   4       -1.0118
   5       -0.7486
   6       -0.7486
   7       -0.5786
   8       -0.5786
   9       -0.5786
  10       -0.5786
  11        0.0618
  12        0.0618
  13        0.2683
  14        0.2683
  15        0.2683
  16        0.2683
  17        0.3641
  18        0.3641
  19        0.5894
  20        0.5894
  21        0.9101
  22        0.9101
  23        7.8516
  24        7.8516
  25        7.8516
  26        7.8516
  27        9.4641
  28        9.4641
  29        9.7508
  30        9.7508
  31       17.4300
  32       17.4300
 
  0.2777778E-01  0.2777778E-01  0.0000000E+00  0.2572016E-03
   1       -5.6650
   2       -1.5902
   3       -1.5902
   4       -1.5865
   5       -1.2490
   6       -1.2490
   7       -1.2489
   8       -0.2293
   9       -0.2237
  10       -0.2228
  11        0.3844
  12        0.3870
  13        0.7907
  14        0.7922
  15        0.7922
  16        0.8886
  17        0.8953
  18        0.8953
  19        0.9068
  20        0.9068
  21        0.9078
  22        3.8978
  23        3.8978
  24        3.9847
  25        8.1646
  26        8.2461
  27        8.2461
  28       13.7858
  29       13.9642
  30       13.9642
  31       13.9843
  32       13.9843
 
  0.5555556E-01  0.2777778E-01  0.0000000E+00  0.5144033E-03
   1       -5.6404
   2       -1.5912
   3       -1.5798
   4       -1.5761
   5       -1.2434
   6       -1.2430
   7       -1.2429
   8       -0.2349
   9       -0.2191
  10       -0.2178
  11        0.3794
  12        0.3888
  13        0.7837
  14        0.7847
  15        0.7895
  16        0.8565
  17        0.8621
  18        0.8870
  19        0.8983
  20        0.9068
  21        0.9068
  22        3.7090
  23        3.9537
  24        4.0406
  25        8.1756
  26        8.2576
  27        8.4865
  28       13.5298
  29       13.7826
  30       13.8560
  31       13.9985
  32       14.0097
 
  0.8333333E-01  0.2777778E-01  0.0000000E+00  0.5144033E-03
   1       -5.5996
   2       -1.5932
   3       -1.5625
   4       -1.5590
   5       -1.2340
   6       -1.2331
   7       -1.2330
   8       -0.2448
   9       -0.2109
  10       -0.2096
  11        0.3705
  12        0.3925
  13        0.7711
  14        0.7720
  15        0.7849
  16        0.8041
  17        0.8105
  18        0.8733
  19        0.8844
  20        0.9065
  21        0.9068
  22        3.4332
  23        4.0441
  24        4.1311
  25        8.1939
  26        8.2768
  27        8.8487
  28       13.2174
  29       13.5133
  30       13.6589
  31       13.8808
  32       14.0555
 
  0.1111111E+00  0.2777778E-01  0.0000000E+00  0.5144033E-03
   1       -5.5425
   2       -1.5973
   3       -1.5388
   4       -1.5353
   5       -1.2210
   6       -1.2191
   7       -1.2190
   8       -0.2586
   9       -0.1992
  10       -0.1980
  11        0.3580
  12        0.3979
  13        0.7321
  14        0.7353
  15        0.7559
  16        0.7634
  17        0.7784
  18        0.8546
  19        0.8652
  20        0.9064
  21        0.9068
  22        3.1044
  23        4.1656
  24        4.2531
  25        8.2198
  26        8.3039
  27        9.2996
  28       12.8685
  29       13.1857
  30       13.4111
  31       13.6756
  32       14.1349
 
  0.1388889E+00  0.2777778E-01  0.0000000E+00  0.5144033E-03
   1       -5.4692
   2       -1.6048
   3       -1.5088
   4       -1.5056
   5       -1.2045
   6       -1.2011
   7       -1.2010
   8       -0.2762
   9       -0.1843
  10       -0.1833
  11        0.3423
  12        0.4047
  13        0.6529
  14        0.6537
  15        0.7353
  16        0.7395
  17        0.7695
  18        0.8316
  19        0.8410
  20        0.9064
  21        0.9068
  22        2.7486
  23        4.3146
  24        4.4029
  25        8.2534
  26        8.3393
  27        9.8145
  28       12.4974
  29       12.8221
  30       13.1294
  31       13.4170
  32       14.2425
 
  0.1666667E+00  0.2777778E-01  0.0000000E+00  0.5144033E-03
   1       -5.3800
   2       -1.6175
   3       -1.4733
   4       -1.4703
   5       -1.1845
   6       -1.1789
   7       -1.1789
   8       -0.2975
   9       -0.1662
  10       -0.1653
  11        0.3235
  12        0.4129
  13        0.5617
  14        0.5628
  15        0.7107
  16        0.7141
  17        0.7570
  18        0.8056
  19        0.8121
  20        0.9065
  21        0.9069
  22        2.3841
  23        4.4874
  24        4.5771
  25        8.2951
  26        8.3831
  27       10.3768
  28       12.1141
  29       12.4376
  30       12.8275
  31       13.1247
  32       14.3601
 
  0.1944444E+00  0.2777778E-01  0.0000000E+00  0.5144033E-03
   1       -5.2750
   2       -1.6381
   3       -1.4328
   4       -1.4301
   5       -1.1612
   6       -1.1527
   7       -1.1527
   8       -0.3222
   9       -0.1448
  10       -0.1442
  11        0.3019
  12        0.4225
  13        0.4638
  14        0.4655
  15        0.6823
  16        0.6853
  17        0.7378
  18        0.7790
  19        0.7801
  20        0.9065
  21        0.9069
  22        2.0240
  23        4.6810
  24        4.7726
  25        8.3453
  26        8.4358
  27       10.9759
  28       11.7252
  29       12.0419
  30       12.5157
  31       12.8134
  32       14.5042
 
  0.2222222E+00  0.2777778E-01  0.0000000E+00  0.5144033E-03
   1       -5.1545
   2       -1.6698
   3       -1.3881
   4       -1.3857
   5       -1.1348
   6       -1.1224
   7       -1.1223
   8       -0.3501
   9       -0.1204
  10       -0.1201
  11        0.2779
  12        0.3621
  13        0.3643
  14        0.4333
  15        0.6505
  16        0.6533
  17        0.7078
  18        0.7421
  19        0.7593
  20        0.9065
  21        0.9069
  22        1.6790
  23        4.8929
  24        4.9870
  25        8.4042
  26        8.4977
  27       11.3350
  28       11.6046
  29       11.6411
  30       12.2018
  31       12.4939
  32       14.6688
 
  0.2500000E+00  0.2777778E-01  0.0000000E+00  0.5144033E-03
   1       -5.0187
   2       -1.7169
   3       -1.3401
   4       -1.3380
   5       -1.1054
   6       -1.0878
   7       -1.0877
   8       -0.3811
   9       -0.0931
  10       -0.0929
  11        0.2520
  12        0.2585
  13        0.2613
  14        0.4454
  15        0.6160
  16        0.6185
  17        0.6674
  18        0.7018
  19        0.7422
  20        0.9066
  21        0.9070
  22        1.3583
  23        5.1208
  24        5.2181
  25        8.4725
  26        8.5695
  27       10.9465
  28       11.2396
  29       11.8911
  30       12.1736
  31       12.2585
  32       14.8541
 
  0.2777778E+00  0.2777778E-01  0.0000000E+00  0.5144033E-03
   1       -4.8681
   2       -1.7844
   3       -1.2901
   4       -1.2882
   5       -1.0732
   6       -1.0491
   7       -1.0488
   8       -0.4148
   9       -0.0634
  10       -0.0625
  11        0.1548
  12        0.1579
  13        0.2248
  14        0.4586
  15        0.5793
  16        0.5817
  17        0.6178
  18        0.6587
  19        0.7260
  20        0.9067
  21        0.9070
  22        1.0723
  23        5.3630
  24        5.4644
  25        8.5504
  26        8.6515
  27       10.5615
  28       10.8400
  29       11.5877
  30       11.8579
  31       12.9342
  32       15.0585
 
  0.3055556E+00  0.2777778E-01  0.0000000E+00  0.5144033E-03
   1       -4.7032
   2       -1.8771
   3       -1.2392
   4       -1.2376
   5       -1.0385
   6       -1.0060
   7       -1.0055
   8       -0.4510
   9       -0.0312
  10       -0.0292
  11        0.0521
  12        0.0555
  13        0.1970
  14        0.4728
  15        0.5415
  16        0.5437
  17        0.5542
  18        0.6131
  19        0.7082
  20        0.8356
  21        0.9067
  22        0.9070
  23        5.6184
  24        5.7243
  25        8.6386
  26        8.7443
  27       10.1814
  28       10.4443
  29       11.2946
  30       11.5509
  31       13.6292
  32       15.2818
 
  0.3333333E+00  0.2777778E-01  0.0000000E+00  0.5144033E-03
   1       -4.5244
   2       -1.9990
   3       -1.1891
   4       -1.1877
   5       -1.0016
   6       -0.9587
   7       -0.9579
   8       -0.4894
   9       -0.0487
  10       -0.0451
  11        0.0028
  12        0.0067
  13        0.1699
  14        0.4620
  15        0.4879
  16        0.5037
  17        0.5057
  18        0.5658
  19        0.6527
  20        0.7046
  21        0.9068
  22        0.9070
  23        5.8856
  24        5.9970
  25        8.7375
  26        8.8485
  27        9.8069
  28       10.0538
  29       11.0138
  30       11.2552
  31       14.3419
  32       15.5463
 
  0.3611111E+00  0.2777778E-01  0.0000000E+00  0.5144033E-03
   1       -4.3327
   2       -2.1514
   3       -1.1414
   4       -1.1403
   5       -0.9626
   6       -0.9070
   7       -0.9058
   8       -0.5297
   9       -0.1467
  10       -0.1430
  11        0.0371
  12        0.0451
  13        0.1459
  14        0.3426
  15        0.4672
  16        0.4690
  17        0.5038
  18        0.5170
  19        0.5585
  20        0.6818
  21        0.9068
  22        0.9070
  23        6.1639
  24        6.2816
  25        8.8472
  26        8.9644
  27        9.4389
  28        9.6695
  29       10.7471
  30       10.9731
  31       15.0705
  32       15.7829
 
  0.3888889E+00  0.2777778E-01  0.0000000E+00  0.5144033E-03
   1       -4.1289
   2       -2.3323
   3       -1.0981
   4       -1.0972
   5       -0.9219
   6       -0.8509
   7       -0.8493
   8       -0.5715
   9       -0.2416
  10       -0.2378
  11        0.0647
  12        0.0859
  13        0.1328
  14        0.2330
  15        0.4337
  16        0.4352
  17        0.4674
  18        0.4911
  19        0.5205
  20        0.6637
  21        0.9069
  22        0.9071
  23        6.4525
  24        6.5774
  25        8.9642
  26        9.0819
  27        9.0922
  28        9.2922
  29       10.4958
  30       10.7062
  31       15.8137
  32       16.0580
 
  0.4166667E+00  0.2777778E-01  0.0000000E+00  0.5144033E-03
   1       -3.9143
   2       -2.5366
   3       -1.0614
   4       -1.0607
   5       -0.8797
   6       -0.7903
   7       -0.7883
   8       -0.6146
   9       -0.3327
  10       -0.3289
  11        0.0687
  12        0.1289
  13        0.1489
  14        0.1508
  15        0.4050
  16        0.4062
  17        0.4172
  18        0.4333
  19        0.5377
  20        0.6458
  21        0.9069
  22        0.9071
  23        6.7509
  24        6.8838
  25        8.7190
  26        8.9224
  27        9.1055
  28        9.2314
  29       10.2619
  30       10.4560
  31       16.3496
  32       16.3802
 
  0.4444444E+00  0.2777778E-01  0.0000000E+00  0.5144033E-03
   1       -3.6905
   2       -2.7578
   3       -1.0332
   4       -1.0327
   5       -0.8364
   6       -0.7252
   7       -0.7228
   8       -0.6585
   9       -0.4199
  10       -0.4162
  11        0.0584
  12        0.0962
  13        0.1738
  14        0.1863
  15        0.3671
  16        0.3794
  17        0.3828
  18        0.3837
  19        0.5553
  20        0.6278
  21        0.9070
  22        0.9071
  23        7.0584
  24        7.2003
  25        8.3721
  26        8.5605
  27        9.2487
  28        9.3784
  29       10.0497
  30       10.2245
  31       16.6567
  32       16.6900
 
  0.4722222E+00  0.2777778E-01  0.0000000E+00  0.5144033E-03
   1       -3.4597
   2       -2.9891
   3       -1.0154
   4       -1.0151
   5       -0.7923
   6       -0.7030
   7       -0.6556
   8       -0.6528
   9       -0.5029
  10       -0.4994
  11        0.0503
  12        0.0646
  13        0.2203
  14        0.2305
  15        0.3173
  16        0.3277
  17        0.3689
  18        0.3693
  19        0.5732
  20        0.6096
  21        0.9070
  22        0.9070
  23        7.3747
  24        7.5266
  25        8.0319
  26        8.2071
  27        9.3988
  28        9.5139
  29        9.8794
  30       10.0170
  31       16.9783
  32       17.0149
 
  0.5000000E+00  0.2777778E-01  0.0000000E+00  0.2572016E-03
   1       -3.2246
   2       -3.2246
   3       -1.0092
   4       -1.0092
   5       -0.7477
   6       -0.7477
   7       -0.5815
   8       -0.5815
   9       -0.5783
  10       -0.5783
  11        0.0509
  12        0.0509
  13        0.2683
  14        0.2683
  15        0.2780
  16        0.2780
  17        0.3642
  18        0.3642
  19        0.5914
  20        0.5914
  21        0.9070
  22        0.9070
  23        7.6993
  24        7.6993
  25        7.8623
  26        7.8623
  27        9.5285
  28        9.5285
  29        9.8606
  30        9.8606
  31       17.3139
  32       17.3303
 
  0.5555556E-01  0.5555556E-01  0.0000000E+00  0.2572016E-03
   1       -5.6159
   2       -1.5806
   3       -1.5806
   4       -1.5658
   5       -1.2374
   6       -1.2374
   7       -1.2370
   8       -0.2387
   9       -0.2163
  10       -0.2130
  11        0.3774
  12        0.3879
  13        0.7767
  14        0.7806
  15        0.7806
  16        0.8289
  17        0.8546
  18        0.8546
  19        0.8983
  20        0.8983
  21        0.9023
  22        3.7641
  23        3.7641
  24        4.0954
  25        8.1866
  26        8.4993
  27        8.4993
  28       13.2019
  29       13.8161
  30       13.8161
  31       13.8897
  32       13.8897
 
  0.8333333E-01  0.5555556E-01  0.0000000E+00  0.5144033E-03
   1       -5.5751
   2       -1.5825
   3       -1.5632
   4       -1.5488
   5       -1.2282
   6       -1.2275
   7       -1.2272
   8       -0.2474
   9       -0.2092
  10       -0.2050
  11        0.3699
  12        0.3904
  13        0.7615
  14        0.7652
  15        0.7733
  16        0.7805
  17        0.8078
  18        0.8426
  19        0.8844
  20        0.8983
  21        0.8997
  22        3.4877
  23        3.8529
  24        4.1844
  25        8.2050
  26        8.5208
  27        8.8631
  28       12.8388
  29       13.5458
  30       13.6916
  31       13.8717
  32       13.9456
 
  0.1111111E+00  0.5555556E-01  0.0000000E+00  0.5144033E-03
   1       -5.5181
   2       -1.5864
   3       -1.5392
   4       -1.5254
   5       -1.2153
   6       -1.2136
   7       -1.2133
   8       -0.2605
   9       -0.1981
  10       -0.1939
  11        0.3581
  12        0.3954
  13        0.7129
  14        0.7149
  15        0.7493
  16        0.7620
  17        0.7695
  18        0.8272
  19        0.8652
  20        0.8983
  21        0.8984
  22        3.1589
  23        3.9720
  24        4.3044
  25        8.2311
  26        8.5511
  27        9.3154
  28       12.4553
  29       13.2174
  30       13.4427
  31       13.9492
  32       13.9886
 
  0.1388889E+00  0.5555556E-01  0.0000000E+00  0.5144033E-03
   1       -5.4449
   2       -1.5936
   3       -1.5090
   4       -1.4960
   5       -1.1988
   6       -1.1957
   7       -1.1955
   8       -0.2778
   9       -0.1835
  10       -0.1797
  11        0.3428
  12        0.4024
  13        0.6349
  14        0.6360
  15        0.7291
  16        0.7436
  17        0.7450
  18        0.8100
  19        0.8409
  20        0.8977
  21        0.8983
  22        2.8042
  23        4.1173
  24        4.4522
  25        8.2650
  26        8.5906
  27        9.8314
  28       12.0613
  29       12.8531
  30       13.1600
  31       13.7991
  32       14.0482
 
  0.1666667E+00  0.5555556E-01  0.0000000E+00  0.5144033E-03
   1       -5.3558
   2       -1.6059
   3       -1.4731
   4       -1.4610
   5       -1.1790
   6       -1.1738
   7       -1.1737
   8       -0.2987
   9       -0.1655
  10       -0.1624
  11        0.3244
  12        0.4108
  13        0.5442
  14        0.5476
  15        0.7048
  16        0.7174
  17        0.7206
  18        0.7927
  19        0.8121
  20        0.8974
  21        0.8983
  22        2.4419
  23        4.2854
  24        4.6243
  25        8.3070
  26        8.6396
  27       10.3945
  28       11.6635
  29       12.4681
  30       12.8570
  31       13.5534
  32       14.1684
 
  0.1944444E+00  0.5555556E-01  0.0000000E+00  0.5144033E-03
   1       -5.2509
   2       -1.6260
   3       -1.4322
   4       -1.4212
   5       -1.1558
   6       -1.1478
   7       -1.1477
   8       -0.3231
   9       -0.1443
  10       -0.1422
  11        0.3033
  12        0.4208
  13        0.4465
  14        0.4525
  15        0.6767
  16        0.6878
  17        0.6882
  18        0.7762
  19        0.7789
  20        0.8973
  21        0.8983
  22        2.0857
  23        4.4730
  24        4.8178
  25        8.3575
  26        8.6984
  27       10.9941
  28       11.2663
  29       12.0720
  30       12.5444
  31       13.2722
  32       14.3091
 
  0.2222222E+00  0.5555556E-01  0.0000000E+00  0.5144033E-03
   1       -5.1306
   2       -1.6572
   3       -1.3870
   4       -1.3772
   5       -1.1296
   6       -1.1178
   7       -1.1175
   8       -0.3508
   9       -0.1199
  10       -0.1191
  11        0.2800
  12        0.3449
  13        0.3534
  14        0.4321
  15        0.6454
  16        0.6464
  17        0.6560
  18        0.7420
  19        0.7600
  20        0.8972
  21        0.8983
  22        1.7466
  23        4.6775
  24        5.0303
  25        8.4168
  26        8.7675
  27       10.8728
  28       11.6233
  29       11.6710
  30       12.2295
  31       12.9705
  32       14.4698
 
  0.2500000E+00  0.5555556E-01  0.0000000E+00  0.5144033E-03
   1       -4.9950
   2       -1.7036
   3       -1.3386
   4       -1.3299
   5       -1.1004
   6       -1.0837
   7       -1.0831
   8       -0.3814
   9       -0.0936
  10       -0.0925
  11        0.2417