   4   4   0   0
  0.1313628E+02  0.3745508E-09  0.3745508E-09  0.3745508E-09  0.5000000E-15
  1.000000000000000E-004
  CAR 
 unknown system                          
     24.51249936     -7.07571793  301      2.91045120      1.00000000
     -7.076  0.0000E+00  0.0000E+00
     -6.970  0.0000E+00  0.0000E+00
     -6.865  0.0000E+00  0.0000E+00
     -6.760  0.0000E+00  0.0000E+00
     -6.655  0.0000E+00  0.0000E+00
     -6.549  0.0000E+00  0.0000E+00
     -6.444  0.0000E+00  0.0000E+00
     -6.339  0.0000E+00  0.0000E+00
     -6.233  0.0000E+00  0.0000E+00
     -6.128  0.0000E+00  0.0000E+00
     -6.023  0.0000E+00  0.0000E+00
     -5.917  0.0000E+00  0.0000E+00
     -5.812  0.0000E+00  0.0000E+00
     -5.707  0.0000E+00  0.0000E+00
     -5.602  0.8647E-02  0.9105E-03
     -5.496  0.1482E+00  0.1651E-01
     -5.391  0.6959E-01  0.2462E-01
     -5.286  0.2073E+00  0.5187E-01
     -5.180  0.2075E+00  0.7374E-01
     -5.075  0.1038E+00  0.8466E-01
     -4.970  0.4562E+00  0.1327E+00
     -4.865  0.2123E+00  0.1562E+00
     -4.759  0.2075E+00  0.1848E+00
     -4.654  0.4150E+00  0.2285E+00
     -4.549  0.6514E-01  0.2354E+00
     -4.443  0.3112E+00  0.3104E+00
     -4.338  0.3870E+00  0.3512E+00
     -4.233  0.4695E+00  0.4036E+00
     -4.127  0.8487E-04  0.4197E+00
     -4.022  0.2566E+00  0.4685E+00
     -3.917  0.7927E+00  0.5523E+00
     -3.812  0.1364E+00  0.5779E+00
     -3.706  0.4150E+00  0.6727E+00
     -3.601  0.1036E+00  0.6836E+00
     -3.496  0.8097E+00  0.7689E+00
     -3.390  0.6558E+00  0.8401E+00
     -3.285  0.6249E+00  0.9079E+00
     -3.180  0.1014E-01  0.9305E+00
     -3.075  0.6510E+00  0.1042E+01
     -2.969  0.2286E+00  0.1106E+01
     -2.864  0.6312E+00  0.1193E+01
     -2.759  0.6916E-01  0.1243E+01
     -2.653  0.1072E+01  0.1355E+01
     -2.548  0.4262E+00  0.1413E+01
     -2.443  0.1554E+01  0.1597E+01
     -2.337  0.5267E+00  0.1664E+01
     -2.232  0.6225E+00  0.1761E+01
     -2.127  0.3036E+00  0.1837E+01
     -2.022  0.1290E+01  0.2028E+01
     -1.916  0.1413E+01  0.2200E+01
     -1.811  0.1245E+01  0.2342E+01
     -1.706  0.9248E+00  0.2440E+01
     -1.600  0.2855E+01  0.2774E+01
     -1.495  0.1214E+01  0.3106E+01
     -1.390  0.3138E+01  0.3505E+01
     -1.285  0.4211E+01  0.4030E+01
     -1.179  0.3145E+01  0.4497E+01
     -1.074  0.5481E+01  0.5234E+01
     -0.969  0.4181E+01  0.5720E+01
     -0.863  0.5696E+01  0.6653E+01
     -0.758  0.8720E+01  0.7714E+01
     -0.653  0.9033E+01  0.8921E+01
     -0.547  0.7254E+01  0.9914E+01
     -0.442  0.7117E+01  0.1100E+02
     -0.337  0.7672E+01  0.1200E+02
     -0.232  0.6903E+01  0.1302E+02
     -0.126  0.9145E+01  0.1428E+02
     -0.021  0.1043E+02  0.1582E+02
      0.084  0.1147E+02  0.1741E+02
      0.190  0.1598E+02  0.1956E+02
      0.295  0.1355E+02  0.2140E+02
      0.400  0.1561E+02  0.2364E+02
      0.505  0.1095E+02  0.2518E+02
      0.611  0.8983E+01  0.2641E+02
      0.716  0.1029E+02  0.2779E+02
      0.821  0.1227E+02  0.2961E+02
      0.927  0.1276E+02  0.3153E+02
      1.032  0.1173E+02  0.3321E+02
      1.137  0.1104E+02  0.3474E+02
      1.243  0.1277E+02  0.3650E+02
      1.348  0.2206E+02  0.3923E+02
      1.453  0.1348E+02  0.4136E+02
      1.558  0.4084E+01  0.4204E+02
      1.664  0.4537E-01  0.4213E+02
      1.769  0.6315E+00  0.4226E+02
      1.874  0.1885E+01  0.4255E+02
      1.980  0.8961E+00  0.4268E+02
      2.085  0.8045E+00  0.4277E+02
      2.190  0.2386E+01  0.4303E+02
      2.295  0.1169E+01  0.4317E+02
      2.401  0.3512E+00  0.4324E+02
      2.506  0.1117E+01  0.4341E+02
      2.611  0.1765E+01  0.4363E+02
      2.717  0.9186E+00  0.4376E+02
      2.822  0.9912E+00  0.4390E+02
      2.927  0.1234E+01  0.4403E+02
      3.033  0.2330E+00  0.4406E+02
      3.138  0.1076E+01  0.4423E+02
      3.243  0.1107E+01  0.4438E+02
      3.348  0.1245E+01  0.4459E+02
      3.454  0.7969E+00  0.4468E+02
      3.559  0.1033E+01  0.4479E+02
      3.664  0.4709E+00  0.4484E+02
      3.770  0.6259E+00  0.4492E+02
      3.875  0.2037E+01  0.4518E+02
      3.980  0.1731E-02  0.4525E+02
      4.085  0.9164E+00  0.4539E+02
      4.191  0.5621E+00  0.4549E+02
      4.296  0.8212E+00  0.4563E+02
      4.401  0.4160E+00  0.4569E+02
      4.507  0.2094E+00  0.4576E+02
      4.612  0.1032E+01  0.4587E+02
      4.717  0.1037E+01  0.4600E+02
      4.823  0.2120E+01  0.4622E+02
      4.928  0.4150E+00  0.4632E+02
      5.033  0.2075E+00  0.4634E+02
      5.138  0.1347E+01  0.4648E+02
      5.244  0.1069E+01  0.4659E+02
      5.349  0.4149E+00  0.4666E+02
      5.454  0.3512E+00  0.4669E+02
      5.560  0.7682E+00  0.4678E+02
      5.665  0.1141E+01  0.4693E+02
      5.770  0.7260E+00  0.4701E+02
      5.875  0.1185E+01  0.4713E+02
      5.981  0.4248E+00  0.4720E+02
      6.086  0.2073E-01  0.4725E+02
      6.191  0.4002E-01  0.4727E+02
      6.297  0.1243E+01  0.4742E+02
      6.402  0.8300E+00  0.4753E+02
      6.507  0.7260E+00  0.4761E+02
      6.613  0.9601E+00  0.4771E+02
      6.718  0.2037E+01  0.4793E+02
      6.823  0.1246E+01  0.4809E+02
      6.928  0.6201E+00  0.4820E+02
      7.034  0.7801E+00  0.4829E+02
      7.139  0.1037E+01  0.4844E+02
      7.244  0.1191E+01  0.4857E+02
      7.350  0.7231E+00  0.4865E+02
      7.455  0.1094E+01  0.4877E+02
      7.560  0.2105E+01  0.4903E+02
      7.665  0.1621E+00  0.4911E+02
      7.771  0.8299E+00  0.4920E+02
      7.876  0.4289E+00  0.4924E+02
      7.981  0.2429E+00  0.4935E+02
      8.087  0.1141E+01  0.4949E+02
      8.192  0.1661E+01  0.4967E+02
      8.297  0.5280E+00  0.4977E+02
      8.403  0.9285E+00  0.4991E+02
      8.508  0.1034E+01  0.5005E+02
      8.613  0.4211E+00  0.5009E+02
      8.718  0.7432E+00  0.5019E+02
      8.824  0.8287E+00  0.5031E+02
      8.929  0.5879E+00  0.5037E+02
      9.034  0.1245E+01  0.5051E+02
      9.140  0.8300E+00  0.5061E+02
      9.245  0.1037E+01  0.5072E+02
      9.350  0.1165E+01  0.5085E+02
      9.455  0.1033E+01  0.5099E+02
      9.561  0.1424E+00  0.5103E+02
      9.666  0.2080E+01  0.5130E+02
      9.771  0.6225E+00  0.5137E+02
      9.877  0.7269E+00  0.5145E+02
      9.982  0.4942E+00  0.5152E+02
     10.087  0.8958E+00  0.5167E+02
     10.193  0.7458E+00  0.5187E+02
     10.298  0.6638E+00  0.5207E+02
     10.403  0.5167E+00  0.5221E+02
     10.508  0.1372E+01  0.5239E+02
     10.614  0.1543E+01  0.5262E+02
     10.719  0.1038E+01  0.5273E+02
     10.824  0.3180E+00  0.5283E+02
     10.930  0.1949E+00  0.5293E+02
     11.035  0.1165E+01  0.5312E+02
     11.140  0.1603E+01  0.5329E+02
     11.245  0.7929E-01  0.5337E+02
     11.351  0.1231E+01  0.5353E+02
     11.456  0.1233E+01  0.5372E+02
     11.561  0.2204E+01  0.5396E+02
     11.667  0.5162E+00  0.5409E+02
     11.772  0.9190E+00  0.5424E+02
     11.877  0.2942E-01  0.5440E+02
     11.983  0.1727E+01  0.5462E+02
     12.088  0.1222E+01  0.5475E+02
     12.193  0.1913E+01  0.5496E+02
     12.298  0.1365E+01  0.5512E+02
     12.404  0.8364E+00  0.5526E+02
     12.509  0.3192E+00  0.5530E+02
     12.614  0.1341E+01  0.5546E+02
     12.720  0.1627E+01  0.5568E+02
     12.825  0.1627E+00  0.5585E+02
     12.930  0.1306E+01  0.5599E+02
     13.035  0.1092E+01  0.5614E+02
     13.141  0.1447E+01  0.5637E+02
     13.246  0.6152E+00  0.5648E+02
     13.351  0.1844E+01  0.5670E+02
     13.457  0.1042E+01  0.5689E+02
     13.562  0.1032E+01  0.5702E+02
     13.667  0.1261E+01  0.5720E+02
     13.773  0.1206E+01  0.5734E+02
     13.878  0.1390E+01  0.5754E+02
     13.983  0.1732E+01  0.5780E+02
     14.088  0.8391E+00  0.5797E+02
     14.194  0.6246E+00  0.5810E+02
     14.299  0.1067E+01  0.5823E+02
     14.404  0.7961E+00  0.5837E+02
     14.510  0.1071E+01  0.5853E+02
     14.615  0.2480E+01  0.5888E+02
     14.720  0.3161E+00  0.5891E+02
     14.825  0.2001E+01  0.5915E+02
     14.931  0.1163E+01  0.5932E+02
     15.036  0.7893E+00  0.5944E+02
     15.141  0.1519E+01  0.5964E+02
     15.247  0.1338E+01  0.5984E+02
     15.352  0.2136E+01  0.6012E+02
     15.457  0.7214E+00  0.6025E+02
     15.563  0.1258E+01  0.6042E+02
     15.668  0.1252E+01  0.6064E+02
     15.773  0.1300E+01  0.6081E+02
     15.878  0.1271E+01  0.6100E+02
     15.984  0.1783E+01  0.6123E+02
     16.089  0.7885E+00  0.6132E+02
     16.194  0.1700E+01  0.6155E+02
     16.300  0.4174E+00  0.6159E+02
     16.405  0.1543E+01  0.6178E+02
     16.510  0.2097E+00  0.6185E+02
     16.615  0.1452E+01  0.6202E+02
     16.721  0.4154E+00  0.6206E+02
     16.826  0.2691E+00  0.6211E+02
     16.931  0.8611E+00  0.6229E+02
     17.037  0.1159E+00  0.6237E+02
     17.142  0.7571E+00  0.6252E+02
     17.247  0.5985E+00  0.6264E+02
     17.353  0.3243E-04  0.6264E+02
     17.458  0.8140E+00  0.6273E+02
     17.563  0.6092E-01  0.6276E+02
     17.668  0.4798E+00  0.6283E+02
     17.774  0.4539E+00  0.6288E+02
     17.879  0.8300E+00  0.6301E+02
     17.984  0.6225E+00  0.6307E+02
     18.090  0.1303E+00  0.6309E+02
     18.195  0.0000E+00  0.6314E+02
     18.300  0.7422E-13  0.6314E+02
     18.405  0.4175E+00  0.6318E+02
     18.511  0.1038E+00  0.6324E+02
     18.616  0.8301E+00  0.6332E+02
     18.721  0.0000E+00  0.6337E+02
     18.827  0.1934E+00  0.6339E+02
     18.932  0.9895E-02  0.6339E+02
     19.037  0.2510E+00  0.6344E+02
     19.143  0.1763E-13  0.6348E+02
     19.248  0.2075E+00  0.6350E+02
     19.353  0.4842E+00  0.6355E+02
     19.458  0.3929E+00  0.6359E+02
     19.564  0.0000E+00  0.6359E+02
     19.669  0.2164E-05  0.6359E+02
     19.774  0.5194E+00  0.6365E+02
     19.880  0.2868E-02  0.6368E+02
     19.985  0.0000E+00  0.6372E+02
     20.090  0.0000E+00  0.6372E+02
     20.195  0.0000E+00  0.6372E+02
     20.301  0.4036E-08  0.6372E+02
     20.406  0.4150E+00  0.6377E+02
     20.511  0.6225E+00  0.6383E+02
     20.617  0.0000E+00  0.6383E+02
     20.722  0.0000E+00  0.6383E+02
     20.827  0.0000E+00  0.6383E+02
     20.933  0.5278E-01  0.6384E+02
     21.038  0.4137E+00  0.6390E+02
     21.143  0.9983E-16  0.6390E+02
     21.248  0.6916E-01  0.6391E+02
     21.354  0.0000E+00  0.6391E+02
     21.459  0.0000E+00  0.6391E+02
     21.564  0.1933E-02  0.6391E+02
     21.670  0.0000E+00  0.6395E+02
     21.775  0.0000E+00  0.6395E+02
     21.880  0.0000E+00  0.6395E+02
     21.985  0.0000E+00  0.6395E+02
     22.091  0.0000E+00  0.6395E+02
     22.196  0.0000E+00  0.6395E+02
     22.301  0.2016E+00  0.6397E+02
     22.407  0.0000E+00  0.6397E+02
     22.512  0.0000E+00  0.6397E+02
     22.617  0.0000E+00  0.6397E+02
     22.723  0.5567E-06  0.6397E+02
     22.828  0.2075E+00  0.6399E+02
     22.933  0.0000E+00  0.6399E+02
     23.038  0.2121E-08  0.6399E+02
     23.144  0.6916E-01  0.6400E+02
     23.249  0.0000E+00  0.6400E+02
     23.354  0.0000E+00  0.6400E+02
     23.460  0.0000E+00  0.6400E+02
     23.565  0.0000E+00  0.6400E+02
     23.670  0.0000E+00  0.6400E+02
     23.775  0.0000E+00  0.6400E+02
     23.881  0.0000E+00  0.6400E+02
     23.986  0.0000E+00  0.6400E+02
     24.091  0.0000E+00  0.6400E+02
     24.197  0.0000E+00  0.6400E+02
     24.302  0.0000E+00  0.6400E+02
     24.407  0.0000E+00  0.6400E+02
     24.512  0.0000E+00  0.6400E+02
