    4    4    1    1
  0.1313628E+02  0.3745508E-09  0.3745508E-09  0.3745508E-09  0.5000000E-15
  1.000000000000000E-004
  CAR 
 unknown system                          
   44   84   32
 
  0.0000000E+00  0.0000000E+00  0.0000000E+00  0.4551661E-03
   1       -5.6399
   2       -1.3794
   3       -1.3794
   4       -1.3794
   5       -0.9915
   6       -0.9915
   7       -0.9915
   8        0.1862
   9        0.1862
  10        0.1862
  11        0.8879
  12        0.8879
  13        1.3548
  14        1.3548
  15        1.3548
  16        1.4855
  17        1.4855
  18        1.4855
  19        1.4855
  20        1.4855
  21        1.4855
  22        4.5167
  23        4.5167
  24        4.5167
  25        9.3310
  26        9.3310
  27        9.3310
  28       15.2764
  29       15.2764
  30       15.2764
  31       15.2764
  32       15.2764
 
  0.7692308E-01  0.0000000E+00  0.0000000E+00  0.2730997E-02
   1       -5.5732
   2       -1.3813
   3       -1.3498
   4       -1.3498
   5       -0.9751
   6       -0.9742
   7       -0.9742
   8        0.1684
   9        0.2008
  10        0.2008
  11        0.8717
  12        0.8945
  13        1.3339
  14        1.3339
  15        1.3479
  16        1.3841
  17        1.3841
  18        1.4607
  19        1.4607
  20        1.4856
  21        1.4856
  22        4.0610
  23        4.6791
  24        4.6791
  25        9.3588
  26        9.3588
  27        9.9240
  28       14.8061
  29       14.8061
  30       14.9576
  31       14.9576
  32       15.3721
 
  0.1538462E+00  0.0000000E+00  0.0000000E+00  0.2730997E-02
   1       -5.3741
   2       -1.3983
   3       -1.2646
   4       -1.2646
   5       -0.9268
   6       -0.9219
   7       -0.9219
   8        0.1160
   9        0.2443
  10        0.2443
  11        0.8247
  12        0.9141
  13        1.1309
  14        1.1309
  15        1.2729
  16        1.2729
  17        1.3276
  18        1.3892
  19        1.3892
  20        1.4857
  21        1.4857
  22        3.0967
  23        5.1148
  24        5.1148
  25        9.4441
  26        9.4441
  27       11.3096
  28       13.7915
  29       13.7915
  30       14.2081
  31       14.2081
  32       15.6559
 
  0.2307692E+00  0.0000000E+00  0.0000000E+00  0.2730997E-02
   1       -5.0460
   2       -1.4697
   3       -1.1351
   4       -1.1351
   5       -0.8490
   6       -0.8339
   7       -0.8339
   8        0.0325
   9        0.3157
  10        0.3157
  11        0.7520
  12        0.8120
  13        0.8120
  14        0.9456
  15        1.1773
  16        1.1773
  17        1.2788
  18        1.2788
  19        1.2951
  20        1.4858
  21        1.4858
  22        2.0828
  23        5.7369
  24        5.7369
  25        9.5932
  26        9.5932
  27       12.6335
  28       12.6335
  29       13.0624
  30       13.3256
  31       13.3256
  32       16.1188
 
  0.3076923E+00  0.0000000E+00  0.0000000E+00  0.2730997E-02
   1       -4.5960
   2       -1.6753
   3       -0.9815
   4       -0.9815
   5       -0.7457
   6       -0.7091
   7       -0.7091
   8       -0.0768
   9        0.4132
  10        0.4132
  11        0.4838
  12        0.4838
  13        0.6630
  14        0.9872
  15        1.0597
  16        1.0597
  17        1.1404
  18        1.1404
  19        1.2525
  20        1.2527
  21        1.4860
  22        1.4860
  23        6.4874
  24        6.4874
  25        9.8161
  26        9.8161
  27       11.4689
  28       11.4689
  29       12.4693
  30       12.4693
  31       15.0188
  32       16.7477
 
  0.3846154E+00  0.0000000E+00  0.0000000E+00  0.2730997E-02
   1       -4.0369
   2       -2.1004
   3       -0.8364
   4       -0.8364
   5       -0.6225
   6       -0.5462
   7       -0.5462
   8       -0.2050
   9        0.1744
  10        0.1744
  11        0.5341
  12        0.5341
  13        0.5740
  14        0.7419
  15        0.9445
  16        0.9445
  17        0.9861
  18        0.9861
  19        1.0366
  20        1.2022
  21        1.4861
  22        1.4861
  23        7.3363
  24        7.3363
  25       10.1254
  26       10.1254
  27       10.3425
  28       10.3425
  29       11.7065
  30       11.7065
  31       17.1110
  32       17.5278
 
  0.4615385E+00  0.0000000E+00  0.0000000E+00  0.2730997E-02
   1       -3.3933
   2       -2.7152
   3       -0.7442
   4       -0.7442
   5       -0.4861
   6       -0.3444
   7       -0.3444
   8       -0.3442
   9       -0.1036
  10       -0.1036
  11        0.5139
  12        0.5367
  13        0.6742
  14        0.6742
  15        0.8275
  16        0.8275
  17        0.8692
  18        0.8692
  19        1.0910
  20        1.1473
  21        1.4862
  22        1.4862
  23        8.2677
  24        8.2677
  25        9.2723
  26        9.2723
  27       10.5346
  28       10.5346
  29       11.0624
  30       11.0624
  31       18.4439
  32       18.4439
 
  0.7692308E-01  0.7692308E-01  0.0000000E+00  0.5461994E-02
   1       -5.5066
   2       -1.3511
   3       -1.3511
   4       -1.3209
   5       -0.9581
   6       -0.9581
   7       -0.9573
   8        0.1585
   9        0.2077
  10        0.2141
  11        0.8673
  12        0.8907
  13        1.3074
  14        1.3101
  15        1.3101
  16        1.3138
  17        1.3719
  18        1.3719
  19        1.4607
  20        1.4607
  21        1.4696
  22        4.2196
  23        4.2196
  24        4.8328
  25        9.3870
  26        9.9599
  27        9.9599
  28       13.8274
  29       14.8964
  30       14.8964
  31       15.0488
  32       15.0488
 
  0.1538462E+00  0.7692308E-01  0.0000000E+00  0.1092399E-01
   1       -5.3082
   2       -1.3660
   3       -1.2640
   4       -1.2377
   5       -0.9105
   6       -0.9066
   7       -0.9065
   8        0.1112
   9        0.2470
  10        0.2537
  11        0.8263
  12        0.9082
  13        1.0808
  14        1.0812
  15        1.2305
  16        1.2549
  17        1.2809
  18        1.3431
  19        1.3890
  20        1.4607
  21        1.4610
  22        3.2620
  23        4.6360
  24        5.2509
  25        9.4736
  26       10.0701
  27       11.3550
  28       12.6502
  29       13.8758
  30       14.2908
  31       15.1637
  32       15.2478
 
  0.2307692E+00  0.7692308E-01  0.0000000E+00  0.1092399E-01
   1       -4.9814
   2       -1.4338
   3       -1.1312
   4       -1.1109
   5       -0.8340
   6       -0.8214
   7       -0.8201
   8        0.0304
   9        0.3172
  10        0.3173
  11        0.7584
  12        0.7634
  13        0.7809
  14        0.9427
  15        1.0859
  16        1.1624
  17        1.1838
  18        1.2784
  19        1.3008
  20        1.4590
  21        1.4605
  22        2.2866
  23        5.2156
  24        5.8565
  25        9.6242
  26       10.2619
  27       11.4851
  28       12.7154
  29       13.1127
  30       13.4003
  31       14.5219
  32       15.5977
 
  0.3076923E+00  0.7692308E-01  0.0000000E+00  0.1092399E-01
   1       -4.5331
   2       -1.6343
   3       -0.9732
   4       -0.9594
   5       -0.7326
   6       -0.7023
   7       -0.6974
   8       -0.0763
   9        0.3973
  10        0.4141
  11        0.4391
  12        0.4664
  13        0.6823
  14        0.8546
  15        0.9891
  16        1.0487
  17        1.0662
  18        1.1400
  19        1.2352
  20        1.4586
  21        1.4603
  22        1.5685
  23        5.9005
  24        6.5944
  25        9.8429
  26       10.3868
  27       10.5463
  28       11.5506
  29       12.5369
  30       13.6573
  31       15.0707
  32       16.1832
 
  0.3846154E+00  0.7692308E-01  0.0000000E+00  0.1092399E-01
   1       -3.9765
   2       -2.0537
   3       -0.8224
   4       -0.8137
   5       -0.6116
   6       -0.5505
   7       -0.5374
   8       -0.2019
   9        0.1359
  10        0.1667
  11        0.4558
  12        0.5345
  13        0.5876
  14        0.6498
  15        0.9376
  16        0.9500
  17        0.9857
  18        1.0446
  19        1.0845
  20        1.2678
  21        1.4588
  22        1.4600
  23        6.6626
  24        7.4340
  25        9.3358
  26       10.1757
  27       10.4258
  28       10.9361
  29       11.7674
  30       12.8193
  31       16.9022
  32       17.0390
 
  0.4615385E+00  0.7692308E-01  0.0000000E+00  0.1092399E-01
   1       -3.3364
   2       -2.6629
   3       -0.7241
   4       -0.7206
   5       -0.4777
   6       -0.3628
   7       -0.3395
   8       -0.3384
   9       -0.1336
  10       -0.1040
  11        0.4417
  12        0.4521
  13        0.6742
  14        0.7365
  15        0.8272
  16        0.8670
  17        0.8716
  18        0.8911
  19        1.1070
  20        1.1757
  21        1.4592
  22        1.4596
  23        7.4902
  24        8.3588
  25        8.3809
  26        9.3587
  27       10.5871
  28       11.1160
  29       11.4431
  30       12.0727
  31       17.7354
  32       17.9461
 
  0.1538462E+00  0.1538462E+00  0.0000000E+00  0.5461994E-02
   1       -5.1118
   2       -1.2729
   3       -1.2729
   4       -1.1601
   5       -0.8616
   6       -0.8616
   7       -0.8601
   8        0.0823
   9        0.2705
  10        0.2813
  11        0.8113
  12        0.9118
  13        0.9234
  14        0.9567
  15        0.9567
  16        1.2020
  17        1.2792
  18        1.2792
  19        1.3886
  20        1.3886
  21        1.4221
  22        3.6676
  23        3.6676
  24        5.6307
  25        9.5631
  26       11.3585
  27       11.4932
  28       11.4932
  29       14.1253
  30       14.1253
  31       14.5361
  32       14.5361
 
  0.2307692E+00  0.1538462E+00  0.0000000E+00  0.1092399E-01
   1       -4.7886
   2       -1.3299
   3       -1.1301
   4       -1.0419
   5       -0.7891
   6       -0.7831
   7       -0.7793
   8        0.0167
   9        0.3235
  10        0.3298
  11        0.6352
  12        0.6839
  13        0.7618
  14        0.7731
  15        0.9493
  16        1.1183
  17        1.1868
  18        1.2495
  19        1.2775
  20        1.3878
  21        1.3997
  22        2.7024
  23        4.2011
  24        6.1975
  25        9.7026
  26       10.1598
  27       11.7290
  28       12.9574
  29       13.2647
  30       13.6224
  31       14.5298
  32       14.9364
 
  0.3076923E+00  0.1538462E+00  0.0000000E+00  0.1092399E-01
   1       -4.3459
   2       -1.5155
   3       -0.9581
   4       -0.8980
   5       -0.6931
   6       -0.6798
   7       -0.6629
   8       -0.0788
   9        0.3210
  10        0.3664
  11        0.4122
  12        0.4209
  13        0.5509
  14        0.7083
  15        1.0103
  16        1.0150
  17        1.0722
  18        1.1389
  19        1.1842
  20        1.3868
  21        1.3897
  22        1.9641
  23        4.8149
  24        6.9037
  25        8.9988
  26        9.9802
  27       11.7922
  28       12.0686
  29       12.7388
  30       15.0754
  31       15.2212
  32       15.2899
 
  0.3846154E+00  0.1538462E+00  0.0000000E+00  0.1092399E-01
   1       -3.7972
   2       -1.9175
   3       -0.7893
   4       -0.7504
   5       -0.5789
   6       -0.5602
   7       -0.5117
   8       -0.1946
   9        0.0343
  10        0.1427
  11        0.3729
  12        0.3745
  13        0.5380
  14        0.7055
  15        0.9151
  16        0.9559
  17        0.9848
  18        1.0728
  19        1.0876
  20        1.3858
  21        1.3858
  22        1.5265
  23        5.4956
  24        7.7193
  25        7.9881
  26       10.3014
  27       10.6717
  28       11.9475
  29       12.5215
  30       14.5090
  31       15.7460
  32       16.1462
 
  0.4615385E+00  0.1538462E+00  0.0000000E+00  0.1092399E-01
   1       -3.1681
   2       -2.5094
   3       -0.6701
   4       -0.6523
   5       -0.4527
   6       -0.4156
   7       -0.3257
   8       -0.3220
   9       -0.2150
  10       -0.1063
  11        0.3121
  12        0.3364
  13        0.6755
  14        0.7871
  15        0.8271
  16        0.8564
  17        0.8718
  18        0.9240
  19        1.1817
  20        1.3077
  21        1.3847
  22        1.3849
  23        6.2449
  24        7.0719
  25        8.6262
  26        9.6132
  27       10.7315
  28       11.2783
  29       13.0840
  30       13.7540
  31       16.5264
  32       16.9387
 
  0.2307692E+00  0.2307692E+00  0.0000000E+00  0.5461994E-02
   1       -4.4718
   2       -1.1697
   3       -1.1697
   4       -0.9382
   5       -0.7188
   6       -0.7138
   7       -0.7138
   8       -0.0233
   9        0.3342
  10        0.3700
  11        0.4577
  12        0.4577
  13        0.5226
  14        0.7357
  15        0.9951
  16        1.0475
  17        1.1638
  18        1.1638
  19        1.2762
  20        1.2762
  21        1.3444
  22        3.1986
  23        3.1986
  24        6.7207
  25        8.8682
  26        9.9182
  27       13.3501
  28       13.3501
  29       13.5213
  30       13.5213
  31       13.9862
  32       13.9862
 
  0.3076923E+00  0.2307692E+00  0.0000000E+00  0.1092399E-01
   1       -4.0390
   2       -1.3315
   3       -0.9740
   4       -0.8123
   5       -0.6352
   6       -0.6274
   7       -0.6079
   8       -0.0941
   9        0.1677
  10        0.2798
  11        0.3183
  12        0.3392
  13        0.4452
  14        0.6977
  15        0.9587
  16        1.0550
  17        1.0795
  18        1.1032
  19        1.1376
  20        1.2749
  21        1.3083
  22        2.3957
  23        3.7528
  24        7.3882
  25        7.7422
  26       10.1681
  27       12.1841
  28       13.0695
  29       13.8806
  30       13.8859
  31       14.4832
  32       15.4978
 
  0.3846154E+00  0.2307692E+00  0.0000000E+00  0.1092399E-01
   1       -3.5049
   2       -1.7049
   3       -0.7749
   4       -0.6705
   5       -0.5580
   6       -0.5251
   7       -0.4713
   8       -0.1889
   9       -0.0893
  10        0.0994
  11        0.1800
  12        0.3122
  13        0.5517
  14        0.6978
  15        0.8733
  16        0.9415
  17        0.9847
  18        1.0022
  19        1.1916
  20        1.2741
  21        1.2885
  22        1.8557
  23        4.3687
  24        6.7335
  25        8.1723
  26       10.5173
  27       11.0701
  28       12.2498
  29       14.3598
  30       14.5348
  31       15.1056
  32       16.3156
 
  0.4615385E+00  0.2307692E+00  0.0000000E+00  0.1092399E-01
   1       -2.8964
   2       -2.2653
   3       -0.6168
   4       -0.5496
   5       -0.4952
   6       -0.4129
   7       -0.3115
   8       -0.3052
   9       -0.2982
  10       -0.1127
  11        0.1846
  12        0.2474
  13        0.6822
  14        0.7636
  15        0.8282
  16        0.8295
  17        0.8540
  18        0.8769
  19        1.2748
  20        1.2788
  21        1.3342
  22        1.5334
  23        5.0596
  24        5.8427
  25        9.0549
  26       10.0238
  27       10.9745
  28       11.5501
  29       14.9393
  30       15.2998
  31       15.6079
  32       15.8453
 
  0.3076923E+00  0.3076923E+00  0.0000000E+00  0.5461994E-02
   1       -3.6219
   2       -1.1055
   3       -1.1055
   4       -0.7247
   5       -0.5640
   6       -0.5358
   7       -0.5358
   8       -0.1316
   9        0.0445
  10        0.0445
  11        0.1882
  12        0.3130
  13        0.4986
  14        0.6620
  15        0.8849
  16        1.0003
  17        1.0003
  18        1.1372
  19        1.1372
  20        1.1955
  21        1.2389
  22        2.8720
  23        2.8720
  24        6.6107
  25        8.0184
  26       10.4488
  27       12.7135
  28       12.7135
  29       13.5281
  30       13.5281
  31       15.8700
  32       15.8700
 
  0.3846154E+00  0.3076923E+00  0.0000000E+00  0.1092399E-01
   1       -3.1112
   2       -1.4403
   3       -0.8740
   4       -0.6496
   5       -0.4836
   6       -0.4517
   7       -0.4196
   8       -0.1930
   9       -0.1525
  10        0.0202
  11        0.0342
  12        0.2649
  13        0.5852
  14        0.6502
  15        0.8120
  16        0.8918
  17        0.9070
  18        0.9874
  19        1.1392
  20        1.1907
  21        1.3469
  22        2.2317
  23        3.4095
  24        5.6166
  25        8.7702
  26       10.8299
  27       11.6070
  28       12.6708
  29       13.3668
  30       14.1081
  31       15.9657
  32       16.3503
 
  0.4615385E+00  0.3076923E+00  0.0000000E+00  0.1092399E-01
   1       -2.5367
   2       -1.9512
   3       -0.6900
   4       -0.6141
   5       -0.4119
   6       -0.3614
   7       -0.3074
   8       -0.2815
   9       -0.2725
  10       -0.1270
  11        0.0836
  12        0.1804
  13        0.6973
  14        0.7011
  15        0.7756
  16        0.7940
  17        0.8055
  18        0.8383
  19        1.1462
  20        1.1616
  21        1.5411
  22        1.8130
  23        4.0307
  24        4.7600
  25        9.6264
  26       10.5750
  27       11.3218
  28       11.9339
  29       14.1323
  30       14.8059
  31       15.0007
  32       15.6187
 
  0.3846154E+00  0.3846154E+00  0.0000000E+00  0.5461994E-02
   1       -2.6365
   2       -1.1628
   3       -1.1628
   4       -0.6841
   5       -0.3707
   6       -0.3615
   7       -0.3615
   8       -0.2134
   9       -0.1029
  10       -0.1029
  11       -0.0520
  12        0.2115
  13        0.6120
  14        0.6471
  15        0.7446
  16        0.8059
  17        0.8059
  18        0.9963
  19        0.9963
  20        1.1095
  21        1.5438
  22        2.6699
  23        2.6699
  24        4.6543
  25        9.4924
  26       11.2476
  27       12.2687
  28       12.2687
  29       13.2104
  30       13.2104
  31       14.8969
  32       15.5374
 
  0.4615385E+00  0.3846154E+00  0.0000000E+00  0.1092399E-01
   1       -2.1153
   2       -1.6009
   3       -0.9242
   4       -0.7658
   5       -0.3031
   6       -0.2733
   7       -0.2594
   8       -0.2515
   9       -0.1936
  10       -0.1530
  11        0.0077
  12        0.1243
  13        0.6291
  14        0.7051
  15        0.7052
  16        0.7275
  17        0.7399
  18        0.8592
  19        1.0159
  20        1.0518
  21        1.7970
  22        2.1502
  23        3.1989
  24        3.8517
  25       10.3233
  26       11.2516
  27       11.7794
  28       12.4326
  29       13.0432
  30       13.8682
  31       13.9214
  32       14.6441
 
  0.4615385E+00  0.4615385E+00  0.0000000E+00  0.5461994E-02
   1       -1.6730
   2       -1.2611
   3       -1.2611
   4       -0.9770
   5       -0.2445
   6       -0.2445
   7       -0.2413
   8       -0.1927
   9       -0.1502
  10       -0.0604
  11       -0.0604
  12        0.0508
  13        0.6036
  14        0.6453
  15        0.6453
  16        0.6475
  17        0.8051
  18        0.8987
  19        0.8987
  20        0.9624
  21        2.1254
  22        2.5741
  23        2.5741
  24        3.1282
  25       11.1316
  26       12.0408
  27       12.0408
  28       12.3536
  29       12.9331
  30       13.0492
  31       13.0492
  32       13.7862
 
  0.7692308E-01  0.7692308E-01  0.7692308E-01  0.3641329E-02
   1       -5.4404
   2       -1.3216
   3       -1.3216
   4       -1.3216
   5       -0.9414
   6       -0.9414
   7       -0.9414
   8        0.1493
   9        0.2203
  10        0.2203
  11        0.8754
  12        0.8754
  13        1.2741
  14        1.2741
  15        1.2741
  16        1.2968
  17        1.2968
  18        1.2968
  19        1.4563
  20        1.4563
  21        1.4563
  22        4.3677
  23        4.3677
  24        4.3677
  25        9.9964
  26        9.9964
  27        9.9964
  28       13.9122
  29       13.9122
  30       13.9122
  31       15.5575
  32       15.5575
 
  0.1538462E+00  0.7692308E-01  0.7692308E-01  0.1092399E-01
   1       -5.2426
   2       -1.3348
   3       -1.2367
   4       -1.2367
   5       -0.8946
   6       -0.8914
   7       -0.8914
   8        0.1062
   9        0.2543
  10        0.2578
  11        0.8319
  12        0.8995
  13        1.0372
  14        1.0372
  15        1.1730
  16        1.2437
  17        1.2437
  18        1.2443
  19        1.4209
  20        1.4489
  21        1.4489
  22        3.4093
  23        4.7636
  24        4.7636
  25       10.1082
  26       10.1082
  27       11.4009
  28       12.7311
  29       12.7311
  30       14.1632
  31       15.3356
  32       15.3356
 
  0.2307692E+00  0.7692308E-01  0.7692308E-01  0.1092399E-01
   1       -4.9170
   2       -1.3994
   3       -1.1072
   4       -1.1072
   5       -0.8192
   6       -0.8076
   7       -0.8076
   8        0.0287
   9        0.3166
  10        0.3197
  11        0.7355
  12        0.7355
  13        0.7678
  14        0.9381
  15        0.9979
  16        1.1566
  17        1.1580
  18        1.1580
  19        1.3717
  20        1.4431
  21        1.4431
  22        2.4427
  23        5.3246
  24        5.3246
  25       10.3023
  26       10.3023
  27       11.5636
  28       11.5636
  29       13.1632
  30       14.5709
  31       14.6008
  32       14.6008
 
  0.3076923E+00  0.7692308E-01  0.7692308E-01  0.1092399E-01
   1       -4.4707
   2       -1.5952
   3       -0.9520
   4       -0.9520
   5       -0.7193
   6       -0.6907
   7       -0.6907
   8       -0.0752
   9        0.3905
  10        0.4047
  11        0.4247
  12        0.4247
  13        0.7045
  14        0.7479
  15        0.9888
  16        1.0403
  17        1.0483
  18        1.0483
  19        1.3141
  20        1.4397
  21        1.4397
  22        1.7095
  23        5.9948
  24        5.9948
  25       10.4476
  26       10.4476
  27       10.6006
  28       10.6006
  29       13.7293
  30       13.7293
  31       15.0916
  32       15.1543
 
  0.3846154E+00  0.7692308E-01  0.7692308E-01  0.1092399E-01
   1       -3.9168
   2       -2.0088
   3       -0.8007
   4       -0.8007
   5       -0.6001
   6       -0.5438
   7       -0.5438
   8       -0.1980
   9        0.1332
  10        0.1332
  11        0.4279
  12        0.5088
  13        0.5104
  14        0.7032
  15        0.9070
  16        0.9383
  17        0.9383
  18        1.0487
  19        1.2504
  20        1.2698
  21        1.4379
  22        1.4379
  23        6.7442
  24        6.7442
  25        9.4272
  26        9.4272
  27       10.9867
  28       10.9867
  29       12.8856
  30       12.8856
  31       15.7966
  32       17.2247
 
  0.4615385E+00  0.7692308E-01  0.7692308E-01  0.1092399E-01
   1       -3.2805
   2       -2.6121
   3       -0.7004
   4       -0.7004
   5       -0.4684
   6       -0.3713
   7       -0.3713
   8       -0.3317
   9       -0.1190
  10       -0.1190
  11        0.4013
  12        0.4029
  13        0.6334
  14        0.7681
  15        0.8144
  16        0.8654
  17        0.8654
  18        1.0014
  19        1.1146
  20        1.1830
  21        1.4372
  22        1.4372
  23        7.5493
  24        7.5493
  25        8.4869
  26        8.4869
  27       11.4977
  28       11.4977
  29       12.1343
  30       12.1343
  31       16.5869
  32       17.4773
 
  0.1538462E+00  0.1538462E+00  0.7692308E-01  0.1092399E-01
   1       -5.0471
   2       -1.2447
   3       -1.2447
   4       -1.1584
   5       -0.8467
   6       -0.8467
   7       -0.8454
   8        0.0789
   9        0.2762
  10        0.2826
  11        0.8250
  12        0.8844
  13        0.8990
  14        0.9168
  15        0.9168
  16        1.1719
  17        1.1979
  18        1.1979
  19        1.4175
  20        1.4175
  21        1.4258
  22        3.7854
  23        3.7854
  24        5.1157
  25       10.2243
  26       11.4376
  27       11.5404
  28       11.5404
  29       12.9705
  30       12.9705
  31       15.5962
  32       15.5962
 
  0.2307692E+00  0.1538462E+00  0.7692308E-01  0.2184797E-01
   1       -4.7253
   2       -1.3001
   3       -1.1070
   4       -1.0392
   5       -0.7746
   6       -0.7692
   7       -0.7665
   8        0.0165
   9        0.3224
  10        0.3281
  11        0.6128
  12        0.6456
  13        0.7319
  14        0.7797
  15        0.9402
  16        1.0919
  17        1.1101
  18        1.1301
  19        1.3723
  20        1.4015
  21        1.4038
  22        2.8092
  23        4.2964
  24        5.6323
  25       10.2048
  26       10.4429
  27       11.7781
  28       11.7962
  29       13.3160
  30       13.3594
  31       14.8353
  32       16.0121
 
  0.3076923E+00  0.1538462E+00  0.7692308E-01  0.2184797E-01
   1       -4.2849
   2       -1.4825
   3       -0.9407
   4       -0.8941
   5       -0.6790
   6       -0.6680
   7       -0.6556
   8       -0.0755
   9        0.3143
  10        0.3633
  11        0.3793
  12        0.4040
  13        0.5117
  14        0.7393
  15        0.9921
  16        0.9974
  17        1.0042
  18        1.0344
  19        1.3104
  20        1.3881
  21        1.3882
  22        2.0417
  23        4.8943
  24        6.2628
  25        9.1018
  26       10.6880
  27       10.7312
  28       12.1209
  29       13.8854
  30       13.9437
  31       15.2827
  32       15.3633
 
  0.3846154E+00  0.1538462E+00  0.7692308E-01  0.2184797E-01
   1       -3.7396
   2       -1.8787
   3       -0.7733
   4       -0.7423
   5       -0.5655
   6       -0.5574
   7       -0.5225
   8       -0.1879
   9        0.0461
  10        0.1230
  11        0.3438
  12        0.3655
  13        0.4972
  14        0.7653
  15        0.8607
  16        0.9026
  17        0.9304
  18        1.0821
  19        1.2184
  20        1.3794
  21        1.3799
  22        1.5476
  23        5.5623
  24        6.9582
  25        8.1178
  26        9.6610
  27       11.1384
  28       12.5733
  29       13.0846
  30       14.5355
  31       14.5760
  32       17.1276
 
  0.4615385E+00  0.1538462E+00  0.7692308E-01  0.2184797E-01
   1       -3.1153
   2       -2.4631
   3       -0.6479
   4       -0.6315
   5       -0.4483
   6       -0.4408
   7       -0.4022
   8       -0.3124
   9       -0.1494
  10       -0.0925
  11        0.2925
  12        0.3222
  13        0.6061
  14        0.7290
  15        0.8434
  16        0.8541
  17        0.8849
  18        1.0627
  19        1.1729
  20        1.2954
  21        1.3757
  22        1.3760
  23        6.2965
  24        7.0665
  25        7.8974
  26        8.7194
  27       11.6647
  28       12.3142
  29       13.1430
  30       13.8163
  31       15.2981
  32       16.1642
 
  0.2307692E+00  0.2307692E+00  0.7692308E-01  0.1092399E-01
   1       -4.4105
   2       -1.1483
   3       -1.1483
   4       -0.9381
   5       -0.7045
   6       -0.6997
   7       -0.6997
   8       -0.0200
   9        0.3325
  10        0.3596
  11        0.4408
  12        0.4408
  13        0.4923
  14        0.7631
  15        0.9845
  16        1.0098
  17        1.0604
  18        1.0604
  19        1.3442
  20        1.3442
  21        1.3614
  22        3.2782
  23        3.2782
  24        6.0951
  25        8.9758
  26       10.6494
  27       12.1740
  28       12.1740
  29       13.5737
  30       13.5737
  31       15.2188
  32       15.2188
 
  0.3076923E+00  0.2307692E+00  0.7692308E-01  0.2184797E-01
   1       -3.9808
   2       -1.3102
   3       -0.9650
   4       -0.8174
   5       -0.6205
   6       -0.6110
   7       -0.5962
   8       -0.0865
   9        0.1711
  10        0.2694
  11        0.2988
  12        0.3370
  13        0.4176
  14        0.7408
  15        0.9237
  16        0.9525
  17        0.9855
  18        1.0692
  19        1.2701
  20        1.3151
  21        1.3258
  22        2.4494
  23        3.8164
  24        6.6474
  25        7.8891
  26       10.9666
  27       11.0603
  28       12.6861
  29       13.9397
  30       14.2962
  31       15.5411
  32       15.7499
 
  0.3846154E+00  0.2307692E+00  0.7692308E-01  0.2184797E-01
   1       -3.4513
   2       -1.6776
   3       -0.7787
   4       -0.6844
   5       -0.5464
   6       -0.5070
   7       -0.4775
   8       -0.1770
   9       -0.0558
  10        0.1000
  11        0.1747
  12        0.3092
  13        0.4942
  14        0.7723
  15        0.8260
  16        0.8440
  17        0.8948
  18        1.1667
  19        1.1801
  20        1.2960
  21        1.3016
  22        1.8737
  23        4.4212
  24        6.6761
  25        7.5469
  26       10.0326
  27       11.3959
  28       13.3208
  29       13.4105
  30       14.4157
  31       15.8775
  32       16.3836
 
  0.4615385E+00  0.2307692E+00  0.7692308E-01  0.2184797E-01
   1       -2.8496
   2       -2.2278
   3       -0.6228
   4       -0.5517
   5       -0.5248
   6       -0.4254
   7       -0.3951
   8       -0.2826
   9       -0.1672
  10       -0.0722
  11        0.1811
  12        0.2441
  13        0.5878
  14        0.7001
  15        0.7997
  16        0.8200
  17        0.8791
  18        1.0274
  19        1.2877
  20        1.2894
  21        1.3209
  22        1.5259
  23        5.1019
  24        5.8679
  25        8.2461
  26        9.0934
  27       11.9458
  28       12.6195
  29       14.0684
  30       14.9221
  31       14.9977
  32       15.6696
 
  0.3076923E+00  0.3076923E+00  0.7692308E-01  0.1092399E-01
   1       -3.5680
   2       -1.1038
   3       -1.1038
   4       -0.7458
   5       -0.5439
   6       -0.5156
   7       -0.5156
   8       -0.1180
   9        0.0557
  10        0.0557
  11        0.1871
  12        0.3121
  13        0.4486
  14        0.7257
  15        0.8425
  16        0.8959
  17        0.8959
  18        1.1835
  19        1.2259
  20        1.2259
  21        1.2669
  22        2.9135
  23        2.9135
  24        6.5339
  25        7.4298
  26       11.3085
  27       11.5643
  28       11.5643
  29       14.7801
  30       14.7801
  31       15.7778
  32       15.9246
 
  0.3846154E+00  0.3076923E+00  0.7692308E-01  0.2184797E-01
   1       -3.0640
   2       -1.4324
   3       -0.9007
   4       -0.6919
   5       -0.4599
   6       -0.4242
   7       -0.4016
   8       -0.1729
   9       -0.1115
  10        0.0304
  11        0.0599