 vasp.4.6.28 25Jul05 complex 
 executed on             LinuxIFC date 2016.07.06  18:27:29
 running on    8 nodes
 distr:  one band on    1 nodes,    8 groups


--------------------------------------------------------------------------------------------------------


 INCAR:
 POTCAR:   PAW_PBE Cu 05Jan2001                   
 POTCAR:   PAW_PBE Cu 05Jan2001                   
   VRHFIN =Cu: d10 p1                                                           
   LEXCH  = PE                                                                  
   EATOM  =  1390.9800 eV,  102.2341 Ry                                         
                                                                                
   TITEL  = PAW_PBE Cu 05Jan2001                                                
   LULTRA =        F    use ultrasoft PP ?                                      
   IUNSCR =        1    unscreen: 0-lin 1-nonlin 2-no                           
   RPACOR =    2.000    partial core radius                                     
   POMASS =   63.546; ZVAL   =   11.000    mass and valenz                      
   RCORE  =    2.300    outmost cutoff radius                                   
   RWIGS  =    2.480; RWIGS  =    1.312    wigner-seitz radius (au A)           
   ENMAX  =  273.214; ENMIN  =  204.910 eV                                      
   RCLOC  =    1.712    cutoff for local pot                                    
   LCOR   =        T    correct aug charges                                     
   LPAW   =        T    paw PP                                                  
   EAUG   =  516.456                                                            
   DEXC   =    -.008                                                            
   RMAX   =    2.789    core radius for proj-oper                               
   RAUG   =    1.300    factor for augmentation sphere                          
   RDEP   =    2.302    radius for radial grids                                 
   QCUT   =   -4.481; QGAM   =    8.962    optimization parameters              
                                                                                
   Description                                                                  
     l     E      TYP  RCUT    TYP  RCUT                                        
     2   .000     23  2.300                                                     
     2   .000     23  2.300                                                     
     0   .000     23  2.300                                                     
     0   .000     23  2.300                                                     
     1  -.200     23  2.300                                                     
     1   .000     23  2.300                                                     
     3   .000      7   .000                                                     
  local pseudopotential read in
  partial core-charges read in
  atomic valenz-charges read in
  non local Contribution for L=           2  read in
    real space projection operators read in
  non local Contribution for L=           2  read in
    real space projection operators read in
  non local Contribution for L=           0  read in
    real space projection operators read in
  non local Contribution for L=           0  read in
    real space projection operators read in
  non local Contribution for L=           1  read in
    real space projection operators read in
  non local Contribution for L=           1  read in
    real space projection operators read in
    PAW grid and wavefunctions read in
 
   number of l-projection  operators is LMAX  =           6
   number of lm-projection operators is LMMAX =          18
 
 PAW_PBE Cu 05Jan2001                   :
 energy of atom  1       EATOM=-1390.9800
 kinetic energy error for atom=    0.0032 (will be added to EATOM!!)
 
 EXHCAR: internal setup
 exchange correlation table for  LEXCH =        8
   RHO(1)=    0.500       N(1)  =     2000
   RHO(2)=  100.500       N(2)  =     4000
 
 POSCAR: Cu                                      
  positions in direct lattice
  velocities in cartesian coordinates
 


--------------------------------------------------------------------------------------------------------


 ion  position               nearest neighbor table
   1  0.000  0.000  0.000-   2 2.65   3 2.65   4 2.65   3 2.65   4 2.65   2 2.65   4 2.65   4 2.65
                             2 2.65   3 2.65   3 2.65   2 2.65
   2  0.500  0.500  0.000-   1 2.65   3 2.65   4 2.65   3 2.65   4 2.65   1 2.65   3 2.65   3 2.65
                             1 2.65   4 2.65   4 2.65   1 2.65
   3  0.500  0.000  0.500-   1 2.65   2 2.65   4 2.65   1 2.65   2 2.65   2 2.65   4 2.65   2 2.65
                             1 2.65   4 2.65   1 2.65   4 2.65
   4  0.000  0.500  0.500-   1 2.65   2 2.65   3 2.65   1 2.65   2 2.65   1 2.65   3 2.65   1 2.65
                             2 2.65   3 2.65   2 2.65   3 2.65
 
  LATTYP: Found a simple cubic cell.
 ALAT       =     3.7455082861
  
  Lattice vectors:
  
 A1 = (   3.7455082861,   0.0000000000,   0.0000000000)
 A2 = (   0.0000000000,   3.7455082861,   0.0000000000)
 A3 = (   0.0000000000,   0.0000000000,   3.7455082861)
 Subroutine PRICEL returns following result:
 
  LATTYP: Found a face centered cubic cell.
 ALAT       =     3.7455082861
  
  Lattice vectors:
  
 A1 = (   1.8727541430,   1.8727541430,  -0.0000000000)
 A2 = (   1.8727541430,   0.0000000000,  -1.8727541430)
 A3 = (   0.0000000000,   1.8727541430,  -1.8727541430)
 
   4 primitive cells build up your supercell.
 

Analysis of symmetry for initial positions (statically):

 Routine SETGRP: Setting up the symmetry group for a 
 simple cubic supercell.


 Subroutine GETGRP returns: Found 48 space group operations
 (whereof 48 operations were pure point group operations)
 out of a pool of 48 trial point group operations.


The static configuration has the point symmetry O_h .

Analysis of symmetry for dynamics (positions and initial velocities):

 Subroutine DYNSYM returns: Found 48 space group operations
 (whereof 48 operations were pure point group operations)
 out of a pool of 48 trial space group operations
 (whereof 48 operations were pure point group operations)
 and found also     4 'primitive' translations


The dynamic configuration has the point symmetry O_h .
 
 
 KPOINTS: Automatic mesh                          

Automatic generation of k-mesh.
 generate k-points for:  13  13  13
 
 Subroutine IBZKPT returns following result:
 ===========================================
 
 Found     84 irreducible k-points:
 
 Following reciprocal coordinates:
            Coordinates               Weight
  0.000000  0.000000  0.000000      1.000000
  0.076923  0.000000  0.000000      6.000000
  0.153846  0.000000  0.000000      6.000000
  0.230769  0.000000  0.000000      6.000000
  0.307692  0.000000  0.000000      6.000000
  0.384615  0.000000  0.000000      6.000000
  0.461538  0.000000  0.000000      6.000000
  0.076923  0.076923  0.000000     12.000000
  0.153846  0.076923  0.000000     24.000000
  0.230769  0.076923  0.000000     24.000000
  0.307692  0.076923  0.000000     24.000000
  0.384615  0.076923  0.000000     24.000000
  0.461538  0.076923  0.000000     24.000000
  0.153846  0.153846  0.000000     12.000000
  0.230769  0.153846  0.000000     24.000000
  0.307692  0.153846  0.000000     24.000000
  0.384615  0.153846  0.000000     24.000000
  0.461538  0.153846  0.000000     24.000000
  0.230769  0.230769  0.000000     12.000000
  0.307692  0.230769  0.000000     24.000000
  0.384615  0.230769  0.000000     24.000000
  0.461538  0.230769  0.000000     24.000000
  0.307692  0.307692  0.000000     12.000000
  0.384615  0.307692  0.000000     24.000000
  0.461538  0.307692  0.000000     24.000000
  0.384615  0.384615  0.000000     12.000000
  0.461538  0.384615  0.000000     24.000000
  0.461538  0.461538  0.000000     12.000000
  0.076923  0.076923  0.076923      8.000000
  0.153846  0.076923  0.076923     24.000000
  0.230769  0.076923  0.076923     24.000000
  0.307692  0.076923  0.076923     24.000000
  0.384615  0.076923  0.076923     24.000000
  0.461538  0.076923  0.076923     24.000000
  0.153846  0.153846  0.076923     24.000000
  0.230769  0.153846  0.076923     48.000000
  0.307692  0.153846  0.076923     48.000000
  0.384615  0.153846  0.076923     48.000000
  0.461538  0.153846  0.076923     48.000000
  0.230769  0.230769  0.076923     24.000000
  0.307692  0.230769  0.076923     48.000000
  0.384615  0.230769  0.076923     48.000000
  0.461538  0.230769  0.076923     48.000000
  0.307692  0.307692  0.076923     24.000000
  0.384615  0.307692  0.076923     48.000000
  0.461538  0.307692  0.076923     48.000000
  0.384615  0.384615  0.076923     24.000000
  0.461538  0.384615  0.076923     48.000000
  0.461538  0.461538  0.076923     24.000000
  0.153846  0.153846  0.153846      8.000000
  0.230769  0.153846  0.153846     24.000000
  0.307692  0.153846  0.153846     24.000000
  0.384615  0.153846  0.153846     24.000000
  0.461538  0.153846  0.153846     24.000000
  0.230769  0.230769  0.153846     24.000000
  0.307692  0.230769  0.153846     48.000000
  0.384615  0.230769  0.153846     48.000000
  0.461538  0.230769  0.153846     48.000000
  0.307692  0.307692  0.153846     24.000000
  0.384615  0.307692  0.153846     48.000000
  0.461538  0.307692  0.153846     48.000000
  0.384615  0.384615  0.153846     24.000000
  0.461538  0.384615  0.153846     48.000000
  0.461538  0.461538  0.153846     24.000000
  0.230769  0.230769  0.230769      8.000000
  0.307692  0.230769  0.230769     24.000000
  0.384615  0.230769  0.230769     24.000000
  0.461538  0.230769  0.230769     24.000000
  0.307692  0.307692  0.230769     24.000000
  0.384615  0.307692  0.230769     48.000000
  0.461538  0.307692  0.230769     48.000000
  0.384615  0.384615  0.230769     24.000000
  0.461538  0.384615  0.230769     48.000000
  0.461538  0.461538  0.230769     24.000000
  0.307692  0.307692  0.307692      8.000000
  0.384615  0.307692  0.307692     24.000000
  0.461538  0.307692  0.307692     24.000000
  0.384615  0.384615  0.307692     24.000000
  0.461538  0.384615  0.307692     48.000000
  0.461538  0.461538  0.307692     24.000000
  0.384615  0.384615  0.384615      8.000000
  0.461538  0.384615  0.384615     24.000000
  0.461538  0.461538  0.384615     24.000000
  0.461538  0.461538  0.461538      8.000000
 
 Following cartesian coordinates:
            Coordinates               Weight
  0.000000  0.000000  0.000000      1.000000
  0.021154  0.000000  0.000000      6.000000
  0.042307  0.000000  0.000000      6.000000
  0.063461  0.000000  0.000000      6.000000
  0.084614  0.000000  0.000000      6.000000
  0.105768  0.000000  0.000000      6.000000
  0.126921  0.000000  0.000000      6.000000
  0.021154  0.021154  0.000000     12.000000
  0.042307  0.021154  0.000000     24.000000
  0.063461  0.021154  0.000000     24.000000
  0.084614  0.021154  0.000000     24.000000
  0.105768  0.021154  0.000000     24.000000
  0.126921  0.021154  0.000000     24.000000
  0.042307  0.042307  0.000000     12.000000
  0.063461  0.042307  0.000000     24.000000
  0.084614  0.042307  0.000000     24.000000
  0.105768  0.042307  0.000000     24.000000
  0.126921  0.042307  0.000000     24.000000
  0.063461  0.063461  0.000000     12.000000
  0.084614  0.063461  0.000000     24.000000
  0.105768  0.063461  0.000000     24.000000
  0.126921  0.063461  0.000000     24.000000
  0.084614  0.084614  0.000000     12.000000
  0.105768  0.084614  0.000000     24.000000
  0.126921  0.084614  0.000000     24.000000
  0.105768  0.105768  0.000000     12.000000
  0.126921  0.105768  0.000000     24.000000
  0.126921  0.126921  0.000000     12.000000
  0.021154  0.021154  0.021154      8.000000
  0.042307  0.021154  0.021154     24.000000
  0.063461  0.021154  0.021154     24.000000
  0.084614  0.021154  0.021154     24.000000
  0.105768  0.021154  0.021154     24.000000
  0.126921  0.021154  0.021154     24.000000
  0.042307  0.042307  0.021154     24.000000
  0.063461  0.042307  0.021154     48.000000
  0.084614  0.042307  0.021154     48.000000
  0.105768  0.042307  0.021154     48.000000
  0.126921  0.042307  0.021154     48.000000
  0.063461  0.063461  0.021154     24.000000
  0.084614  0.063461  0.021154     48.000000
  0.105768  0.063461  0.021154     48.000000
  0.126921  0.063461  0.021154     48.000000
  0.084614  0.084614  0.021154     24.000000
  0.105768  0.084614  0.021154     48.000000
  0.126921  0.084614  0.021154     48.000000
  0.105768  0.105768  0.021154     24.000000
  0.126921  0.105768  0.021154     48.000000
  0.126921  0.126921  0.021154     24.000000
  0.042307  0.042307  0.042307      8.000000
  0.063461  0.042307  0.042307     24.000000
  0.084614  0.042307  0.042307     24.000000
  0.105768  0.042307  0.042307     24.000000
  0.126921  0.042307  0.042307     24.000000
  0.063461  0.063461  0.042307     24.000000
  0.084614  0.063461  0.042307     48.000000
  0.105768  0.063461  0.042307     48.000000
  0.126921  0.063461  0.042307     48.000000
  0.084614  0.084614  0.042307     24.000000
  0.105768  0.084614  0.042307     48.000000
  0.126921  0.084614  0.042307     48.000000
  0.105768  0.105768  0.042307     24.000000
  0.126921  0.105768  0.042307     48.000000
  0.126921  0.126921  0.042307     24.000000
  0.063461  0.063461  0.063461      8.000000
  0.084614  0.063461  0.063461     24.000000
  0.105768  0.063461  0.063461     24.000000
  0.126921  0.063461  0.063461     24.000000
  0.084614  0.084614  0.063461     24.000000
  0.105768  0.084614  0.063461     48.000000
  0.126921  0.084614  0.063461     48.000000
  0.105768  0.105768  0.063461     24.000000
  0.126921  0.105768  0.063461     48.000000
  0.126921  0.126921  0.063461     24.000000
  0.084614  0.084614  0.084614      8.000000
  0.105768  0.084614  0.084614     24.000000
  0.126921  0.084614  0.084614     24.000000
  0.105768  0.105768  0.084614     24.000000
  0.126921  0.105768  0.084614     48.000000
  0.126921  0.126921  0.084614     24.000000
  0.105768  0.105768  0.105768      8.000000
  0.126921  0.105768  0.105768     24.000000
  0.126921  0.126921  0.105768     24.000000
  0.126921  0.126921  0.126921      8.000000
 


--------------------------------------------------------------------------------------------------------




 Dimension of arrays:
   k-Points           NKPTS =     84   number of bands    NBANDS=     32
   number of dos      NEDOS =    301   number of ions     NIONS =      4
   non local maximal  LDIM  =      6   non local SUM 2l+1 LMDIM =     18
   total plane-waves  NPLWV =  21952
   max r-space proj   IRMAX =      1   max aug-charges    IRDMAX= 117486
   dimension x,y,z NGX =    28 NGY =   28 NGZ =   28
   dimension x,y,z NGXF=    56 NGYF=   56 NGZF=   56
   support grid    NGXF=   112 NGYF=  112 NGZF=  112
   ions per type =               4
 NGX,Y,Z   is equivalent  to a cutoff of  12.43, 12.43, 12.43 a.u.
 NGXF,Y,Z  is equivalent  to a cutoff of  24.86, 24.86, 24.86 a.u.


 I would recommend the setting:
   dimension x,y,z NGX =    27 NGY =   27 NGZ =   27
 SYSTEM =  unknown system                          
 POSCAR =  Cu                                      

 Startparameter for this run:
   NWRITE =      2    write-flag & timer
   PREC   = accura    medium, high low
   ISTART =      0    job   : 0-new  1-cont  2-samecut
   ICHARG =      2    charge: 1-file 2-atom 10-const
   ISPIN  =      1    spin polarized calculation?
   LNONCOLLINEAR =      F non collinear calculations
   LSORBIT =      F    spin-orbit coupling
   INIWAV =      1    electr: 0-lowe 1-rand  2-diag
   LASPH  =      F    aspherical Exc in radial PAW
   METAGGA=      F    non-selfconsistent MetaGGA calc.

 Electronic Relaxation 1
   ENCUT  =  500.0 eV  36.75 Ry    6.06 a.u.   6.83  6.83  6.83*2*pi/ulx,y,z
   ENINI  =  500.0     initial cutoff
   ENAUG  =  516.5 eV  augmentation charge cutoff
   NELM   =     60;   NELMIN=  2; NELMDL=  0     # of ELM steps 
   EDIFF  = 0.1E-07   stopping-criterion for ELM
   LREAL  =      F    real-space projection
   LCOMPAT=      F    compatible to vasp.4.4
   LREAL_COMPAT= F    compatible to vasp.4.5.1-3
   GGA_COMPAT  = T    GGA compatible to vasp.4.4-vasp.4.6
   LMAXPAW     = -100 max onsite density
   LMAXMIX     =    2 max onsite mixed and CHGCAR
   VOSKOWN=      0    Vosko Wilk Nusair interpolation
   ROPT   =    0.00000
 Ionic relaxation
   EDIFFG = 0.1E-06   stopping-criterion for IOM
   NSW    =      0    number of steps for IOM
   NBLOCK =      1;   KBLOCK =      1    inner block; outer block 
   IBRION =     -1    ionic relax: 0-MD 1-quasi-New 2-CG
   NFREE  =      0    steps in history (QN), initial steepest desc. (CG)
   ISIF   =      2    stress and relaxation
   IWAVPR =     10    prediction:  0-non 1-charg 2-wave 3-comb
   ISYM   =      2    0-nonsym 1-usesym 2-fastsym
   LCORR  =      T    Harris-Foulkes like correction to forces

   POTIM  =   0.50    time-step for ionic-motion
   TEIN   =    0.0    initial temperature
   TEBEG  =    0.0;   TEEND  =   0.0 temperature during run
   SMASS  =  -3.00    Nose mass-parameter (am)
   estimated Nose-frequenzy (Omega)   =  0.10E-29 period in steps =****** mass=  -0.321E-27a.u.
   NPACO  =    256;   APACO  = 16.0  distance and # of slots for P.C.
   PSTRESS=    0.0 pullay stress

  Mass of Ions in am
   POMASS =  63.55
  Ionic Valenz
   ZVAL   =  11.00
  Atomic Wigner-Seitz radii
   RWIGS  =  -1.00
   NELECT =      44.0000    total number of electrons
   NUPDOWN=      -1.0000    fix difference up-down

 DOS related values:
   EMIN   =  10.00;   EMAX   =-10.00  energy-range for DOS
   ISMEAR =     0;   SIGMA  =   0.01  broadening in eV -4-tet -1-fermi 0-gaus

 Electronic relaxation 2 (details)
   IALGO  =     38    algorithm
   LDIAG  =      T    sub-space diagonalisation
   IMIX   =      4    mixing-type and parameters
     AMIX     =   0.40;   BMIX     =  1.00
     AMIX_MAG =   1.60;   BMIX_MAG =  1.00
     AMIN     =   0.10
     WC   =   100.;   INIMIX=   1;  MIXPRE=   1

 Intra band minimization:
   WEIMIN = 0.0000     energy-eigenvalue tresh-hold
   EBREAK =  0.96E-10  absolut break condition
   DEPER  =   0.30     relativ break condition  

   TIME   =   0.10     timestep for ELM

  volume/ion in A,a.u.               =      13.14        88.65
  Fermi-wavevector in a.u.,eV,Ry     =   1.543056 32.395760  2.381021

 Second variation
   LSECVAR=     F    do a second variation
 
 Write flags
   LWAVE  =      F    write WAVECAR
   LCHARG =      F    write CHGCAR
   LVTOT  =      F    write LOCPOT, local potential
   LELF   =      F    write electronic localiz. function (ELF)
   LORBIT =      0    0 simple, 1 ext, 2 COOP (PROOUT)


 Dipole corrections
   IDIPOL =      0    1-x, 2-y, 3-z
   LDIPOL =      F    correct potential



--------------------------------------------------------------------------------------------------------


 Static calculation
 charge density will be updated during run
 non-spin polarized calculation
 Variant of blocked Davidson
 Davidson routine will perform the subspace rotation
 performe sub-space diagonalisation
    after iterative eigenvector-optimisation
 modified Broyden-mixing scheme, WC =      100.0
 initial mixing is a Kerker type mixing with AMIX =  0.4000 and BMIX =      1.0000
 Hartree-type preconditioning will be used
 using additional bands           10
 reciprocal scheme for non local part
 use partial core corrections
 calculate Harris-corrections to forces 
   (improved forces if not selfconsistent)
 use gradient corrections 
 use of overlap-Matrix (Vanderbilt PP)
 Gauss-broadening in eV      SIGMA  =   0.01


--------------------------------------------------------------------------------------------------------


  energy-cutoff  :      500.00
  volume of cell :       52.55
      direct lattice vectors                 reciprocal lattice vectors
     3.745508286  0.000000000  0.000000000     0.266986460  0.000000000  0.000000000
     0.000000000  3.745508286  0.000000000     0.000000000  0.266986460  0.000000000
     0.000000000  0.000000000  3.745508286     0.000000000  0.000000000  0.266986460

  length of vectors
     3.745508286  3.745508286  3.745508286     0.266986460  0.266986460  0.266986460


 
 k-points in units of 2pi/SCALE and weight: Automatic mesh                          
   0.00000000  0.00000000  0.00000000       0.000
   0.02115354  0.00000000  0.00000000       0.003
   0.04230709  0.00000000  0.00000000       0.003
   0.06346063  0.00000000  0.00000000       0.003
   0.08461417  0.00000000  0.00000000       0.003
   0.10576771  0.00000000  0.00000000       0.003
   0.12692126  0.00000000  0.00000000       0.003
   0.02115354  0.02115354  0.00000000       0.005
   0.04230709  0.02115354  0.00000000       0.011
   0.06346063  0.02115354  0.00000000       0.011
   0.08461417  0.02115354  0.00000000       0.011
   0.10576771  0.02115354  0.00000000       0.011
   0.12692126  0.02115354  0.00000000       0.011
   0.04230709  0.04230709  0.00000000       0.005
   0.06346063  0.04230709  0.00000000       0.011
   0.08461417  0.04230709  0.00000000       0.011
   0.10576771  0.04230709  0.00000000       0.011
   0.12692126  0.04230709  0.00000000       0.011
   0.06346063  0.06346063  0.00000000       0.005
   0.08461417  0.06346063  0.00000000       0.011
   0.10576771  0.06346063  0.00000000       0.011
   0.12692126  0.06346063  0.00000000       0.011
   0.08461417  0.08461417  0.00000000       0.005
   0.10576771  0.08461417  0.00000000       0.011
   0.12692126  0.08461417  0.00000000       0.011
   0.10576771  0.10576771  0.00000000       0.005
   0.12692126  0.10576771  0.00000000       0.011
   0.12692126  0.12692126  0.00000000       0.005
   0.02115354  0.02115354  0.02115354       0.004
   0.04230709  0.02115354  0.02115354       0.011
   0.06346063  0.02115354  0.02115354       0.011
   0.08461417  0.02115354  0.02115354       0.011
   0.10576771  0.02115354  0.02115354       0.011
   0.12692126  0.02115354  0.02115354       0.011
   0.04230709  0.04230709  0.02115354       0.011
   0.06346063  0.04230709  0.02115354       0.022
   0.08461417  0.04230709  0.02115354       0.022
   0.10576771  0.04230709  0.02115354       0.022
   0.12692126  0.04230709  0.02115354       0.022
   0.06346063  0.06346063  0.02115354       0.011
   0.08461417  0.06346063  0.02115354       0.022
   0.10576771  0.06346063  0.02115354       0.022
   0.12692126  0.06346063  0.02115354       0.022
   0.08461417  0.08461417  0.02115354       0.011
   0.10576771  0.08461417  0.02115354       0.022
   0.12692126  0.08461417  0.02115354       0.022
   0.10576771  0.10576771  0.02115354       0.011
   0.12692126  0.10576771  0.02115354       0.022
   0.12692126  0.12692126  0.02115354       0.011
   0.04230709  0.04230709  0.04230709       0.004
   0.06346063  0.04230709  0.04230709       0.011
   0.08461417  0.04230709  0.04230709       0.011
   0.10576771  0.04230709  0.04230709       0.011
   0.12692126  0.04230709  0.04230709       0.011
   0.06346063  0.06346063  0.04230709       0.011
   0.08461417  0.06346063  0.04230709       0.022
   0.10576771  0.06346063  0.04230709       0.022
   0.12692126  0.06346063  0.04230709       0.022
   0.08461417  0.08461417  0.04230709       0.011
   0.10576771  0.08461417  0.04230709       0.022
   0.12692126  0.08461417  0.04230709       0.022
   0.10576771  0.10576771  0.04230709       0.011
   0.12692126  0.10576771  0.04230709       0.022
   0.12692126  0.12692126  0.04230709       0.011
   0.06346063  0.06346063  0.06346063       0.004
   0.08461417  0.06346063  0.06346063       0.011
   0.10576771  0.06346063  0.06346063       0.011
   0.12692126  0.06346063  0.06346063       0.011
   0.08461417  0.08461417  0.06346063       0.011
   0.10576771  0.08461417  0.06346063       0.022
   0.12692126  0.08461417  0.06346063       0.022
   0.10576771  0.10576771  0.06346063       0.011
   0.12692126  0.10576771  0.06346063       0.022
   0.12692126  0.12692126  0.06346063       0.011
   0.08461417  0.08461417  0.08461417       0.004
   0.10576771  0.08461417  0.08461417       0.011
   0.12692126  0.08461417  0.08461417       0.011
   0.10576771  0.10576771  0.08461417       0.011
   0.12692126  0.10576771  0.08461417       0.022
   0.12692126  0.12692126  0.08461417       0.011
   0.10576771  0.10576771  0.10576771       0.004
   0.12692126  0.10576771  0.10576771       0.011
   0.12692126  0.12692126  0.10576771       0.011
   0.12692126  0.12692126  0.12692126       0.004
 
 k-points in reciprocal lattice and weights: Automatic mesh                          
   0.00000000  0.00000000  0.00000000       0.000
   0.07692308  0.00000000  0.00000000       0.003
   0.15384615  0.00000000  0.00000000       0.003
   0.23076923  0.00000000  0.00000000       0.003
   0.30769231  0.00000000  0.00000000       0.003
   0.38461538  0.00000000  0.00000000       0.003
   0.46153846  0.00000000  0.00000000       0.003
   0.07692308  0.07692308  0.00000000       0.005
   0.15384615  0.07692308  0.00000000       0.011
   0.23076923  0.07692308  0.00000000       0.011
   0.30769231  0.07692308  0.00000000       0.011
   0.38461538  0.07692308  0.00000000       0.011
   0.46153846  0.07692308  0.00000000       0.011
   0.15384615  0.15384615  0.00000000       0.005
   0.23076923  0.15384615  0.00000000       0.011
   0.30769231  0.15384615  0.00000000       0.011
   0.38461538  0.15384615  0.00000000       0.011
   0.46153846  0.15384615  0.00000000       0.011
   0.23076923  0.23076923  0.00000000       0.005
   0.30769231  0.23076923  0.00000000       0.011
   0.38461538  0.23076923  0.00000000       0.011
   0.46153846  0.23076923  0.00000000       0.011
   0.30769231  0.30769231  0.00000000       0.005
   0.38461538  0.30769231  0.00000000       0.011
   0.46153846  0.30769231  0.00000000       0.011
   0.38461538  0.38461538  0.00000000       0.005
   0.46153846  0.38461538  0.00000000       0.011
   0.46153846  0.46153846  0.00000000       0.005
   0.07692308  0.07692308  0.07692308       0.004
   0.15384615  0.07692308  0.07692308       0.011
   0.23076923  0.07692308  0.07692308       0.011
   0.30769231  0.07692308  0.07692308       0.011
   0.38461538  0.07692308  0.07692308       0.011
   0.46153846  0.07692308  0.07692308       0.011
   0.15384615  0.15384615  0.07692308       0.011
   0.23076923  0.15384615  0.07692308       0.022
   0.30769231  0.15384615  0.07692308       0.022
   0.38461538  0.15384615  0.07692308       0.022
   0.46153846  0.15384615  0.07692308       0.022
   0.23076923  0.23076923  0.07692308       0.011
   0.30769231  0.23076923  0.07692308       0.022
   0.38461538  0.23076923  0.07692308       0.022
   0.46153846  0.23076923  0.07692308       0.022
   0.30769231  0.30769231  0.07692308       0.011
   0.38461538  0.30769231  0.07692308       0.022
   0.46153846  0.30769231  0.07692308       0.022
   0.38461538  0.38461538  0.07692308       0.011
   0.46153846  0.38461538  0.07692308       0.022
   0.46153846  0.46153846  0.07692308       0.011
   0.15384615  0.15384615  0.15384615       0.004
   0.23076923  0.15384615  0.15384615       0.011
   0.30769231  0.15384615  0.15384615       0.011
   0.38461538  0.15384615  0.15384615       0.011
   0.46153846  0.15384615  0.15384615       0.011
   0.23076923  0.23076923  0.15384615       0.011
   0.30769231  0.23076923  0.15384615       0.022
   0.38461538  0.23076923  0.15384615       0.022
   0.46153846  0.23076923  0.15384615       0.022
   0.30769231  0.30769231  0.15384615       0.011
   0.38461538  0.30769231  0.15384615       0.022
   0.46153846  0.30769231  0.15384615       0.022
   0.38461538  0.38461538  0.15384615       0.011
   0.46153846  0.38461538  0.15384615       0.022
   0.46153846  0.46153846  0.15384615       0.011
   0.23076923  0.23076923  0.23076923       0.004
   0.30769231  0.23076923  0.23076923       0.011
   0.38461538  0.23076923  0.23076923       0.011
   0.46153846  0.23076923  0.23076923       0.011
   0.30769231  0.30769231  0.23076923       0.011
   0.38461538  0.30769231  0.23076923       0.022
   0.46153846  0.30769231  0.23076923       0.022
   0.38461538  0.38461538  0.23076923       0.011
   0.46153846  0.38461538  0.23076923       0.022
   0.46153846  0.46153846  0.23076923       0.011
   0.30769231  0.30769231  0.30769231       0.004
   0.38461538  0.30769231  0.30769231       0.011
   0.46153846  0.30769231  0.30769231       0.011
   0.38461538  0.38461538  0.30769231       0.011
   0.46153846  0.38461538  0.30769231       0.022
   0.46153846  0.46153846  0.30769231       0.011
   0.38461538  0.38461538  0.38461538       0.004
   0.46153846  0.38461538  0.38461538       0.011
   0.46153846  0.46153846  0.38461538       0.011
   0.46153846  0.46153846  0.46153846       0.004
 
 position of ions in fractional coordinates (direct lattice) 
   0.00000000  0.00000000  0.00000000
   0.50000000  0.50000000  0.00000000
   0.50000000  0.00000000  0.50000000
   0.00000000  0.50000000  0.50000000
 
 position of ions in cartesian coordinates  (Angst):
   0.00000000  0.00000000  0.00000000
   1.87275414  1.87275414  0.00000000
   1.87275414  0.00000000  1.87275414
   0.00000000  1.87275414  1.87275414
 


--------------------------------------------------------------------------------------------------------


 k-point  1 :  0.00000.00000.0000  plane waves:   1357
 k-point  2 :  0.07690.00000.0000  plane waves:   1349
 k-point  3 :  0.15380.00000.0000  plane waves:   1337
 k-point  4 :  0.23080.00000.0000  plane waves:   1330
 k-point  5 :  0.30770.00000.0000  plane waves:   1322
 k-point  6 :  0.38460.00000.0000  plane waves:   1326
 k-point  7 :  0.46150.00000.0000  plane waves:   1334
 k-point  8 :  0.07690.07690.0000  plane waves:   1345
 k-point  9 :  0.15380.07690.0000  plane waves:   1329
 k-point 10 :  0.23080.07690.0000  plane waves:   1327
 k-point 11 :  0.30770.07690.0000  plane waves:   1328
 k-point 12 :  0.38460.07690.0000  plane waves:   1342
 k-point 13 :  0.46150.07690.0000  plane waves:   1332
 k-point 14 :  0.15380.15380.0000  plane waves:   1325
 k-point 15 :  0.23080.15380.0000  plane waves:   1327
 k-point 16 :  0.30770.15380.0000  plane waves:   1332
 k-point 17 :  0.38460.15380.0000  plane waves:   1339
 k-point 18 :  0.46150.15380.0000  plane waves:   1333
 k-point 19 :  0.23080.23080.0000  plane waves:   1332
 k-point 20 :  0.30770.23080.0000  plane waves:   1335
 k-point 21 :  0.38460.23080.0000  plane waves:   1333
 k-point 22 :  0.46150.23080.0000  plane waves:   1330
 k-point 23 :  0.30770.30770.0000  plane waves:   1328
 k-point 24 :  0.38460.30770.0000  plane waves:   1335
 k-point 25 :  0.46150.30770.0000  plane waves:   1334
 k-point 26 :  0.38460.38460.0000  plane waves:   1322
 k-point 27 :  0.46150.38460.0000  plane waves:   1330
 k-point 28 :  0.46150.46150.0000  plane waves:   1332
 k-point 29 :  0.07690.07690.0769  plane waves:   1340
 k-point 30 :  0.15380.07690.0769  plane waves:   1328
 k-point 31 :  0.23080.07690.0769  plane waves:   1328
 k-point 32 :  0.30770.07690.0769  plane waves:   1335
 k-point 33 :  0.38460.07690.0769  plane waves:   1337
 k-point 34 :  0.46150.07690.0769  plane waves:   1330
 k-point 35 :  0.15380.15380.0769  plane waves:   1331
 k-point 36 :  0.23080.15380.0769  plane waves:   1332
 k-point 37 :  0.30770.15380.0769  plane waves:   1332
 k-point 38 :  0.38460.15380.0769  plane waves:   1333
 k-point 39 :  0.46150.15380.0769  plane waves:   1332
 k-point 40 :  0.23080.23080.0769  plane waves:   1329
 k-point 41 :  0.30770.23080.0769  plane waves:   1332
 k-point 42 :  0.38460.23080.0769  plane waves:   1337
 k-point 43 :  0.46150.23080.0769  plane waves:   1331
 k-point 44 :  0.30770.30770.0769  plane waves:   1336
 k-point 45 :  0.38460.30770.0769  plane waves:   1338
 k-point 46 :  0.46150.30770.0769  plane waves:   1337
 k-point 47 :  0.38460.38460.0769  plane waves:   1328
 k-point 48 :  0.46150.38460.0769  plane waves:   1331
 k-point 49 :  0.46150.46150.0769  plane waves:   1334
 k-point 50 :  0.15380.15380.1538  plane waves:   1325
 k-point 51 :  0.23080.15380.1538  plane waves:   1331
 k-point 52 :  0.30770.15380.1538  plane waves:   1334
 k-point 53 :  0.38460.15380.1538  plane waves:   1334
 k-point 54 :  0.46150.15380.1538  plane waves:   1326
 k-point 55 :  0.23080.23080.1538  plane waves:   1335
 k-point 56 :  0.30770.23080.1538  plane waves:   1336
 k-point 57 :  0.38460.23080.1538  plane waves:   1335
 k-point 58 :  0.46150.23080.1538  plane waves:   1331
 k-point 59 :  0.30770.30770.1538  plane waves:   1329
 k-point 60 :  0.38460.30770.1538  plane waves:   1330
 k-point 61 :  0.46150.30770.1538  plane waves:   1334
 k-point 62 :  0.38460.38460.1538  plane waves:   1338
 k-point 63 :  0.46150.38460.1538  plane waves:   1339
 k-point 64 :  0.46150.46150.1538  plane waves:   1335
 k-point 65 :  0.23080.23080.2308  plane waves:   1334
 k-point 66 :  0.30770.23080.2308  plane waves:   1331
 k-point 67 :  0.38460.23080.2308  plane waves:   1330
 k-point 68 :  0.46150.23080.2308  plane waves:   1334
 k-point 69 :  0.30770.30770.2308  plane waves:   1338
 k-point 70 :  0.38460.30770.2308  plane waves:   1330
 k-point 71 :  0.46150.30770.2308  plane waves:   1344
 k-point 72 :  0.38460.38460.2308  plane waves:   1340
 k-point 73 :  0.46150.38460.2308  plane waves:   1337
 k-point 74 :  0.46150.46150.2308  plane waves:   1342
 k-point 75 :  0.30770.30770.3077  plane waves:   1337
 k-point 76 :  0.38460.30770.3077  plane waves:   1334
 k-point 77 :  0.46150.30770.3077  plane waves:   1340
 k-point 78 :  0.38460.38460.3077  plane waves:   1341
 k-point 79 :  0.46150.38460.3077  plane waves:   1345
 k-point 80 :  0.46150.46150.3077  plane waves:   1343
 k-point 81 :  0.38460.38460.3846  plane waves:   1349
 k-point 82 :  0.46150.38460.3846  plane waves:   1341
 k-point 83 :  0.46150.46150.3846  plane waves:   1349
 k-point 84 :  0.46150.46150.4615  plane waves:   1352

 maximum and minimum number of plane-waves per node :   1357  1322

 maximum number of plane-waves:   1357
 maximal index in each direction: 
   IXMAX=  6   IYMAX=  6   IZMAX=  6
   IXMIN= -7   IYMIN= -7   IZMIN= -7

 NGX is ok and might be reduce to  28
 NGY is ok and might be reduce to  28
 NGZ is ok and might be reduce to  28

 parallel 3dFFT wavefunction:
    minimum data exchange during FFTs selected (reduces bandwidth)
 parallel 3dFFT charge:
    minimum data exchange during FFTs selected (reduces bandwidth)

 For storing wavefunctions   57.39 MBYTES are necessary
 For predicting wavefunctions    1.74 MBYTES are necessary
Broyden mixing: mesh for mixing (old mesh)
   NGX = 13   NGY = 13   NGZ = 13
  (NGX  = 56   NGY  = 56   NGZ  = 56)
 gives a total of   2197 points
 initial charge density was supplied:
 charge density of overlapping atoms calculated
 number of electron   44.0000000 magnetization 
 keeping initial charge density in first step


--------------------------------------------------------------------------------------------------------


 Maximum index for augmentation-charges        14187 (set IRDMAX)


--------------------------------------------------------------------------------------------------------


 First call to EWALD:  gamma=   0.473
 Maximum number of real-space cells 3x 3x 3
 Maximum number of reciprocal cells 3x 3x 3

    FEWALD:  VPU time    0.00: CPU time    0.00


----------------------------------------- Iteration    1(   1)  ---------------------------------------


    POTLOK:  VPU time    0.01: CPU time    0.01
    SETDIJ:  VPU time    0.02: CPU time    0.02
    EDDAV :  VPU time    1.35: CPU time    1.35
    DOS   :  VPU time    0.00: CPU time   -0.00
    ------------------------------------------
      LOOP:  VPU time    1.39: CPU time    1.39

 eigenvalue-minimisations  :  5496
 total energy-change (2. order) : 0.2782063E+03  (-0.2027774E+04)
 number of electron   44.0000000 magnetization 
 augmentation part    44.0000000 magnetization 

 Free energy of the ion-electron system (eV)
  ---------------------------------------------------
  alpha Z        PSCENC =       389.03717917
  Ewald energy   TEWEN  =     -4265.66707610
  -1/2 Hartree   DENC   =     -1387.32969698
  -V(xc)+E(xc)   XCENC  =       174.47804341
  PAW double counting   =      4328.20916945    -4904.30802700
  entropy T*S    EENTRO =        -0.00018728
  eigenvalues    EBANDS =       379.87959385
  atomic energy  EATOM  =      5563.90732063
  ---------------------------------------------------
  free energy    TOTEN  =       278.20631913 eV

  energy without entropy =      278.20650641  energy(sigma->0) =      278.20641277


--------------------------------------------------------------------------------------------------------




----------------------------------------- Iteration    1(   2)  ---------------------------------------


    EDDAV :  VPU time    1.31: CPU time    1.31
    DOS   :  VPU time    0.00: CPU time   -0.00
    ------------------------------------------
      LOOP:  VPU time    1.31: CPU time    1.31

 eigenvalue-minimisations  :  5384
 total energy-change (2. order) :-0.2780394E+03  (-0.2638887E+03)
 number of electron   44.0000000 magnetization 
 augmentation part    44.0000000 magnetization 

 Free energy of the ion-electron system (eV)
  ---------------------------------------------------
  alpha Z        PSCENC =       389.03717917
  Ewald energy   TEWEN  =     -4265.66707610
  -1/2 Hartree   DENC   =     -1387.32969698
  -V(xc)+E(xc)   XCENC  =       174.47804341
  PAW double counting   =      4328.20916945    -4904.30802700
  entropy T*S    EENTRO =        -0.00018951
  eigenvalues    EBANDS =       101.84022917
  atomic energy  EATOM  =      5563.90732063
  ---------------------------------------------------
  free energy    TOTEN  =         0.16695222 eV

  energy without entropy =        0.16714173  energy(sigma->0) =        0.16704697


--------------------------------------------------------------------------------------------------------




----------------------------------------- Iteration    1(   3)  ---------------------------------------


    EDDAV :  VPU time    1.43: CPU time    1.43
    DOS   :  VPU time    0.00: CPU time   -0.00
    ------------------------------------------
      LOOP:  VPU time    1.44: CPU time    1.44

 eigenvalue-minimisations  :  6064
 total energy-change (2. order) :-0.1799962E+02  (-0.1763093E+02)
 number of electron   44.0000000 magnetization 
 augmentation part    44.0000000 magnetization 

 Free energy of the ion-electron system (eV)
  ---------------------------------------------------
  alpha Z        PSCENC =       389.03717917
  Ewald energy   TEWEN  =     -4265.66707610
  -1/2 Hartree   DENC   =     -1387.32969698
  -V(xc)+E(xc)   XCENC  =       174.47804341
  PAW double counting   =      4328.20916945    -4904.30802700
  entropy T*S    EENTRO =        -0.00013983
  eigenvalues    EBANDS =        83.84055864
  atomic energy  EATOM  =      5563.90732063
  ---------------------------------------------------
  free energy    TOTEN  =       -17.83266863 eV

  energy without entropy =      -17.83252880  energy(sigma->0) =      -17.83259871


--------------------------------------------------------------------------------------------------------




----------------------------------------- Iteration    1(   4)  ---------------------------------------


    EDDAV :  VPU time    1.39: CPU time    1.39
    DOS   :  VPU time    0.00: CPU time   -0.00
    ------------------------------------------
      LOOP:  VPU time    1.39: CPU time    1.39

 eigenvalue-minimisations  :  5824
 total energy-change (2. order) :-0.1968655E+00  (-0.1967740E+00)
 number of electron   44.0000000 magnetization 
 augmentation part    44.0000000 magnetization 

 Free energy of the ion-electron system (eV)
  ---------------------------------------------------
  alpha Z        PSCENC =       389.03717917
  Ewald energy   TEWEN  =     -4265.66707610
  -1/2 Hartree   DENC   =     -1387.32969698
  -V(xc)+E(xc)   XCENC  =       174.47804341
  PAW double counting   =      4328.20916945    -4904.30802700
  entropy T*S    EENTRO =        -0.00014317
  eigenvalues    EBANDS =        83.64369646
  atomic energy  EATOM  =      5563.90732063
  ---------------------------------------------------
  free energy    TOTEN  =       -18.02953415 eV

  energy without entropy =      -18.02939098  energy(sigma->0) =      -18.02946256


--------------------------------------------------------------------------------------------------------




----------------------------------------- Iteration    1(   5)  ---------------------------------------


    EDDAV :  VPU time    1.46: CPU time    1.46
    DOS   :  VPU time    0.00: CPU time   -0.00
    CHARGE:  VPU time    0.08: CPU time    0.09
    MIXING:  VPU time    0.00: CPU time    0.00
    ------------------------------------------
      LOOP:  VPU time    1.55: CPU time    1.55

 eigenvalue-minimisations  :  6184
 total energy-change (2. order) :-0.3613758E-03  (-0.3613720E-03)
 number of electron   44.0000003 magnetization 
 augmentation part    26.8340820 magnetization 

 Broyden mixing:
  rms(total) = 0.13670E+01    rms(broyden)= 0.13669E+01
  rms(prec ) = 0.32412E+01
  weight for this iteration     100.00

 Free energy of the ion-electron system (eV)
  ---------------------------------------------------
  alpha Z        PSCENC =       389.03717917
  Ewald energy   TEWEN  =     -4265.66707610
  -1/2 Hartree   DENC   =     -1387.32969698
  -V(xc)+E(xc)   XCENC  =       174.47804341
  PAW double counting   =      4328.20916945    -4904.30802700
  entropy T*S    EENTRO =        -0.00014317
  eigenvalues    EBANDS =        83.64333509
  atomic energy  EATOM  =      5563.90732063
  ---------------------------------------------------
  free energy    TOTEN  =       -18.02989552 eV

  energy without entropy =      -18.02975235  energy(sigma->0) =      -18.02982394


--------------------------------------------------------------------------------------------------------




----------------------------------------- Iteration    1(   6)  ---------------------------------------


    POTLOK:  VPU time    0.01: CPU time    0.01
    SETDIJ:  VPU time    0.02: CPU time    0.02
    EDDAV :  VPU time    1.39: CPU time    1.39
    DOS   :  VPU time    0.00: CPU time   -0.00
    CHARGE:  VPU time    0.08: CPU time    0.08
    MIXING:  VPU time    0.00: CPU time    0.00
    ------------------------------------------
      LOOP:  VPU time    1.50: CPU time    1.51

 eigenvalue-minimisations  :  5880
 total energy-change (2. order) : 0.1733110E+01  (-0.2572523E+01)
 number of electron   44.0000003 magnetization 
 augmentation part    30.0486653 magnetization 

 Broyden mixing:
  rms(total) = 0.72098E+00    rms(broyden)= 0.72092E+00
  rms(prec ) = 0.15555E+01
  weight for this iteration     100.00

 eigenvalues of (default mixing * dielectric matrix)
  average eigenvalue GAMMA=   0.6556
  0.6556

 Free energy of the ion-electron system (eV)
  ---------------------------------------------------
  alpha Z        PSCENC =       389.03717917
  Ewald energy   TEWEN  =     -4265.66707610
  -1/2 Hartree   DENC   =     -1285.75600362
  -V(xc)+E(xc)   XCENC  =       169.39650587
  PAW double counting   =      4203.64431242    -4746.38319683
  entropy T*S    EENTRO =        -0.00015135
  eigenvalues    EBANDS =       -44.47567589
  atomic energy  EATOM  =      5563.90732063
  ---------------------------------------------------
  free energy    TOTEN  =       -16.29678572 eV

  energy without entropy =      -16.29663436  energy(sigma->0) =      -16.29671004


--------------------------------------------------------------------------------------------------------




----------------------------------------- Iteration    1(   7)  ---------------------------------------


    POTLOK:  VPU time    0.01: CPU time    0.01
    SETDIJ:  VPU time    0.01: CPU time    0.02
    EDDAV :  VPU time    1.43: CPU time    1.43
    DOS   :  VPU time    0.00: CPU time   -0.00
    CHARGE:  VPU time    0.08: CPU time    0.08
    MIXING:  VPU time    0.00: CPU time    0.00
    ------------------------------------------
      LOOP:  VPU time    1.54: CPU time    1.54

 eigenvalue-minimisations  :  6112
 total energy-change (2. order) : 0.1530478E+01  (-0.5226693E+00)
 number of electron   44.0000003 magnetization 
 augmentation part    28.8139890 magnetization 

 Broyden mixing:
  rms(total) = 0.93027E-01    rms(broyden)= 0.92993E-01
  rms(prec ) = 0.23239E+00
  weight for this iteration     100.00

 eigenvalues of (default mixing * dielectric matrix)
  average eigenvalue GAMMA=   1.2671
  1.8996  0.6346

 Free energy of the ion-electron system (eV)
  ---------------------------------------------------
  alpha Z        PSCENC =       389.03717917
  Ewald energy   TEWEN  =     -4265.66707610
  -1/2 Hartree   DENC   =     -1317.30674084
  -V(xc)+E(xc)   XCENC  =       171.04456961
  PAW double counting   =      4285.71776934    -4852.81562359
  entropy T*S    EENTRO =        -0.00010624
  eigenvalues    EBANDS =        11.31640074
  atomic energy  EATOM  =      5563.90732063
  ---------------------------------------------------
  free energy    TOTEN  =       -14.76630728 eV

  energy without entropy =      -14.76620104  energy(sigma->0) =      -14.76625416


--------------------------------------------------------------------------------------------------------




----------------------------------------- Iteration    1(   8)  ---------------------------------------


    POTLOK:  VPU time    0.01: CPU time    0.01
    SETDIJ:  VPU time    0.02: CPU time    0.02
    EDDAV :  VPU time    1.39: CPU time    1.39
    DOS   :  VPU time    0.00: CPU time   -0.00
    CHARGE:  VPU time    0.08: CPU time    0.08
    MIXING:  VPU time    0.00: CPU time    0.00
    ------------------------------------------
      LOOP:  VPU time    1.50: CPU time    1.50

 eigenvalue-minimisations  :  5872
 total energy-change (2. order) : 0.2302412E-01  (-0.5827716E-02)
 number of electron   44.0000003 magnetization 
 augmentation part    28.7517091 magnetization 

 Broyden mixing:
  rms(total) = 0.76559E-01    rms(broyden)= 0.76555E-01
  rms(prec ) = 0.18487E+00
  weight for this iteration     100.00

 eigenvalues of (default mixing * dielectric matrix)
  average eigenvalue GAMMA=   1.4148
  0.6617  1.0038  2.5787

 Free energy of the ion-electron system (eV)
  ---------------------------------------------------
  alpha Z        PSCENC =       389.03717917
  Ewald energy   TEWEN  =     -4265.66707610
  -1/2 Hartree   DENC   =     -1308.73860891
  -V(xc)+E(xc)   XCENC  =       170.67534864
  PAW double counting   =      4326.45470204    -4902.80455374
  entropy T*S    EENTRO =        -0.00010309
  eigenvalues    EBANDS =        12.39250822
  atomic energy  EATOM  =      5563.90732063
  ---------------------------------------------------
  free energy    TOTEN  =       -14.74328316 eV

  energy without entropy =      -14.74318007  energy(sigma->0) =      -14.74323161


--------------------------------------------------------------------------------------------------------




----------------------------------------- Iteration    1(   9)  ---------------------------------------


    POTLOK:  VPU time    0.02: CPU time    0.02
    SETDIJ:  VPU time    0.02: CPU time    0.02
    EDDAV :  VPU time    1.44: CPU time    1.44
    DOS   :  VPU time    0.00: CPU time   -0.00
    CHARGE:  VPU time    0.08: CPU time    0.08
    MIXING:  VPU time    0.00: CPU time    0.00
    ------------------------------------------
      LOOP:  VPU time    1.56: CPU time    1.56

 eigenvalue-minimisations  :  6168
 total energy-change (2. order) : 0.1144177E-01  (-0.2529948E-02)
 number of electron   44.0000003 magnetization 
 augmentation part    28.8591059 magnetization 

 Broyden mixing:
  rms(total) = 0.42251E-02    rms(broyden)= 0.42219E-02
  rms(prec ) = 0.91412E-02
  weight for this iteration     100.00

 eigenvalues of (default mixing * dielectric matrix)
  average eigenvalue GAMMA=   1.6050
  0.6670  0.9194  2.6901  2.1434

 Free energy of the ion-electron system (eV)
  ---------------------------------------------------
  alpha Z        PSCENC =       389.03717917
  Ewald energy   TEWEN  =     -4265.66707610
  -1/2 Hartree   DENC   =     -1302.41104983
  -V(xc)+E(xc)   XCENC  =       170.37585085
  PAW double counting   =      4334.92882602    -4912.51268373
  entropy T*S    EENTRO =        -0.00015556
  eigenvalues    EBANDS =         7.60994717
  atomic energy  EATOM  =      5563.90732063
  ---------------------------------------------------
  free energy    TOTEN  =       -14.73184139 eV

  energy without entropy =      -14.73168582  energy(sigma->0) =      -14.73176360


--------------------------------------------------------------------------------------------------------




----------------------------------------- Iteration    1(  10)  ---------------------------------------


    POTLOK:  VPU time    0.02: CPU time    0.02
    SETDIJ:  VPU time    0.02: CPU time    0.02
    EDDAV :  VPU time    1.38: CPU time    1.38
    DOS   :  VPU time    0.00: CPU time   -0.00
    CHARGE:  VPU time    0.08: CPU time    0.08
    MIXING:  VPU time    0.00: CPU time    0.00
    ------------------------------------------
      LOOP:  VPU time    1.51: CPU time    1.51

 eigenvalue-minimisations  :  5816
 total energy-change (2. order) :-0.6115774E-04  (-0.6440076E-04)
 number of electron   44.0000003 magnetization 
 augmentation part    28.8547824 magnetization 

 Broyden mixing:
  rms(total) = 0.10356E-02    rms(broyden)= 0.10355E-02
  rms(prec ) = 0.15402E-02
  weight for this iteration     100.00

 eigenvalues of (default mixing * dielectric matrix)
  average eigenvalue GAMMA=   1.4978
  2.5052  2.5052  0.6654  0.9066  0.9066

 Free energy of the ion-electron system (eV)
  ---------------------------------------------------
  alpha Z        PSCENC =       389.03717917
  Ewald energy   TEWEN  =     -4265.66707610
  -1/2 Hartree   DENC   =     -1302.70534507
  -V(xc)+E(xc)   XCENC  =       170.39008730
  PAW double counting   =      4336.07743931    -4913.57705204
  entropy T*S    EENTRO =        -0.00015064
  eigenvalues    EBANDS =         7.80569491
  atomic energy  EATOM  =      5563.90732063
  ---------------------------------------------------
  free energy    TOTEN  =       -14.73190254 eV

  energy without entropy =      -14.73175190  energy(sigma->0) =      -14.73182722


--------------------------------------------------------------------------------------------------------




----------------------------------------- Iteration    1(  11)  ---------------------------------------


    POTLOK:  VPU time    0.01: CPU time    0.01
    SETDIJ:  VPU time    0.01: CPU time    0.02
    EDDAV :  VPU time    1.45: CPU time    1.45
    DOS   :  VPU time    0.00: CPU time   -0.00
    CHARGE:  VPU time    0.08: CPU time    0.08
    MIXING:  VPU time    0.00: CPU time    0.00
    ------------------------------------------
      LOOP:  VPU time    1.57: CPU time    1.57

 eigenvalue-minimisations  :  6224
 total energy-change (2. order) : 0.1554729E-05  (-0.6994593E-06)
 number of electron   44.0000003 magnetization 
 augmentation part    28.8541780 magnetization 

 Broyden mixing:
  rms(total) = 0.53291E-03    rms(broyden)= 0.53288E-03
  rms(prec ) = 0.12951E-02
  weight for this iteration     100.00

 eigenvalues of (default mixing * dielectric matrix)
  average eigenvalue GAMMA=   1.4979
  2.5933  2.4845  0.6661  0.9431  1.1501  1.1501

 Free energy of the ion-electron system (eV)
  ---------------------------------------------------
  alpha Z        PSCENC =       389.03717917
  Ewald energy   TEWEN  =     -4265.66707610
  -1/2 Hartree   DENC   =     -1302.84521932
  -V(xc)+E(xc)   XCENC  =       170.39636015
  PAW double counting   =      4337.04930224    -4914.44125325
  entropy T*S    EENTRO =        -0.00014999
  eigenvalues    EBANDS =         7.83163550
  atomic energy  EATOM  =      5563.90732063
  ---------------------------------------------------
  free energy    TOTEN  =       -14.73190099 eV

  energy without entropy =      -14.73175100  energy(sigma->0) =      -14.73182599


--------------------------------------------------------------------------------------------------------




----------------------------------------- Iteration    1(  12)  ---------------------------------------


    POTLOK:  VPU time    0.01: CPU time    0.01
    SETDIJ:  VPU time    0.01: CPU time    0.02
    EDDAV :  VPU time    1.48: CPU time    1.48
    DOS   :  VPU time    0.00: CPU time   -0.00
    CHARGE:  VPU time    0.08: CPU time    0.08
    MIXING:  VPU time    0.00: CPU time    0.00
    ------------------------------------------
      LOOP:  VPU time    1.59: CPU time    1.60

 eigenvalue-minimisations  :  6392
 total energy-change (2. order) :-0.4514848E-05  (-0.3880053E-07)
 number of electron   44.0000003 magnetization 
 augmentation part    28.8546423 magnetization 

 Broyden mixing:
  rms(total) = 0.60203E-04    rms(broyden)= 0.60184E-04
  rms(prec ) = 0.13980E-03
  weight for this iteration     100.00

 eigenvalues of (default mixing * dielectric matrix)
  average eigenvalue GAMMA=   1.6161
  2.6243  2.5391  2.5391  0.6660  0.9465  0.9988  0.9988

 Free energy of the ion-electron system (eV)
  ---------------------------------------------------
  alpha Z        PSCENC =       389.03717917
  Ewald energy   TEWEN  =     -4265.66707610
  -1/2 Hartree   DENC   =     -1302.77205962
  -V(xc)+E(xc)   XCENC  =       170.39297766
  PAW double counting   =      4337.32685128    -4914.76371092
  entropy T*S    EENTRO =        -0.00015057
  eigenvalues    EBANDS =         7.80676297
  atomic energy  EATOM  =      5563.90732063
  ---------------------------------------------------
  free energy    TOTEN  =       -14.73190550 eV

  energy without entropy =      -14.73175494  energy(sigma->0) =      -14.73183022


--------------------------------------------------------------------------------------------------------




----------------------------------------- Iteration    1(  13)  ---------------------------------------


    POTLOK:  VPU time    0.01: CPU time    0.01
    SETDIJ:  VPU time    0.02: CPU time    0.02
    EDDAV :  VPU time    1.24: CPU time    1.24
    DOS   :  VPU time    0.00: CPU time   -0.00
    CHARGE:  VPU time    0.08: CPU time    0.08
    MIXING:  VPU time    0.00: CPU time    0.00
    ------------------------------------------
      LOOP:  VPU time    1.35: CPU time    1.35

 eigenvalue-minimisations  :  4920
 total energy-change (2. order) :-0.4338381E-06  (-0.1933004E-08)
 number of electron   44.0000003 magnetization 
 augmentation part    28.8546070 magnetization 

 Broyden mixing:
  rms(total) = 0.17196E-04    rms(broyden)= 0.17193E-04
  rms(prec ) = 0.36637E-04
  weight for this iteration     100.00

 eigenvalues of (default mixing * dielectric matrix)
  average eigenvalue GAMMA=   1.6133
  2.8018  2.5850  2.5461  0.6660  1.3790  0.9523  0.9883  0.9883

 Free energy of the ion-electron system (eV)
  ---------------------------------------------------
  alpha Z        PSCENC =       389.03717917
  Ewald energy   TEWEN  =     -4265.66707610
  -1/2 Hartree   DENC   =     -1302.77588550
  -V(xc)+E(xc)   XCENC  =       170.39309960
  PAW double counting   =      4337.34141175    -4914.77726294
  entropy T*S    EENTRO =        -0.00015052
  eigenvalues    EBANDS =         7.80945798
  atomic energy  EATOM  =      5563.90732063
  ---------------------------------------------------
  free energy    TOTEN  =       -14.73190594 eV

  energy without entropy =      -14.73175542  energy(sigma->0) =      -14.73183068


--------------------------------------------------------------------------------------------------------




----------------------------------------- Iteration    1(  14)  ---------------------------------------


    POTLOK:  VPU time    0.01: CPU time    0.01
    SETDIJ:  VPU time    0.02: CPU time    0.02
    EDDAV :  VPU time    0.98: CPU time    0.98
    DOS   :  VPU time    0.00: CPU time   -0.00
    CHARGE:  VPU time    0.08: CPU time    0.08
    MIXING:  VPU time    0.00: CPU time    0.00
    ------------------------------------------
      LOOP:  VPU time    1.10: CPU time    1.10

 eigenvalue-minimisations  :  3384
 total energy-change (2. order) :-0.2937941E-07  (-0.2035530E-09)
 number of electron   44.0000003 magnetization 
 augmentation part    28.8546096 magnetization 

 Broyden mixing:
  rms(total) = 0.26433E-05    rms(broyden)= 0.26425E-05
  rms(prec ) = 0.37809E-05
  weight for this iteration     100.00

 eigenvalues of (default mixing * dielectric matrix)
  average eigenvalue GAMMA=   1.6425
  2.7033  2.6173  2.6173  2.2381  0.6660  1.0244  1.0244  0.9458  0.9458

 Free energy of the ion-electron system (eV)
  ---------------------------------------------------
  alpha Z        PSCENC =       389.03717917
  Ewald energy   TEWEN  =     -4265.66707610
  -1/2 Hartree   DENC   =     -1302.77805210
  -V(xc)+E(xc)   XCENC  =       170.39317733
  PAW double counting   =      4337.34500200    -4914.77926747
  entropy T*S    EENTRO =        -0.00015051
  eigenvalues    EBANDS =         7.80996109
  atomic energy  EATOM  =      5563.90732063
  ---------------------------------------------------
  free energy    TOTEN  =       -14.73190597 eV

  energy without entropy =      -14.73175546  energy(sigma->0) =      -14.73183071


--------------------------------------------------------------------------------------------------------




----------------------------------------- Iteration    1(  15)  ---------------------------------------


    POTLOK:  VPU time    0.01: CPU time    0.01
    SETDIJ:  VPU time    0.01: CPU time    0.02
    EDDAV :  VPU time    0.96: CPU time    0.96
    DOS   :  VPU time    0.00: CPU time   -0.00
    CHARGE:  VPU time    0.08: CPU time    0.08
    MIXING:  VPU time    0.00: CPU time    0.00
    ------------------------------------------
      LOOP:  VPU time    1.07: CPU time    1.07

 eigenvalue-minimisations  :  3272
 total energy-change (2. order) : 0.1285298E-07  (-0.2372267E-10)
 number of electron   44.0000003 magnetization 
 augmentation part    28.8546029 magnetization 

 Broyden mixing:
  rms(total) = 0.25870E-05    rms(broyden)= 0.25869E-05
  rms(prec ) = 0.62429E-05
  weight for this iteration     100.00

 eigenvalues of (default mixing * dielectric matrix)
  average eigenvalue GAMMA=   1.5987
  2.7645  2.5284  2.5284  2.5425  0.6660  0.9766  0.9766  0.9736  1.0151  1.0151

 Free energy of the ion-electron system (eV)
  ---------------------------------------------------
  alpha Z        PSCENC =       389.03717917
  Ewald energy   TEWEN  =     -4265.66707610
  -1/2 Hartree   DENC   =     -1302.77803014
  -V(xc)+E(xc)   XCENC  =       170.39317807
  PAW double counting   =      4337.34359220    -4914.77809637
  entropy T*S    EENTRO =        -0.00015050
  eigenvalues    EBANDS =         7.81017710
  atomic energy  EATOM  =      5563.90732063
  ---------------------------------------------------
  free energy    TOTEN  =       -14.73190595 eV

  energy without entropy =      -14.73175545  energy(sigma->0) =      -14.73183070


--------------------------------------------------------------------------------------------------------




----------------------------------------- Iteration    1(  16)  ---------------------------------------


    POTLOK:  VPU time    0.01: CPU time    0.01
    SETDIJ:  VPU time    0.01: CPU time    0.02
    EDDAV :  VPU time    0.95: CPU time    0.96
    DOS   :  VPU time    0.00: CPU time   -0.00
    CHARGE:  VPU time    0.08: CPU time    0.08
    MIXING:  VPU time    0.00: CPU time    0.00
    ------------------------------------------
      LOOP:  VPU time    1.07: CPU time    1.07

 eigenvalue-minimisations  :  3232
 total energy-change (2. order) : 0.1542776E-07  (-0.7898915E-11)
 number of electron   44.0000003 magnetization 
 augmentation part    28.8546080 magnetization 

 Broyden mixing:
  rms(total) = 0.86904E-06    rms(broyden)= 0.86890E-06
  rms(prec ) = 0.15847E-05
  weight for this iteration     100.00

 eigenvalues of (default mixing * dielectric matrix)
  average eigenvalue GAMMA=   1.6045
  2.8307  2.6193  2.6193  2.4943  0.6660  1.4703  0.9559  0.9559  1.0172  1.0106
  1.0106

 Free energy of the ion-electron system (eV)
  ---------------------------------------------------
  alpha Z        PSCENC =       389.03717917
  Ewald energy   TEWEN  =     -4265.66707610
  -1/2 Hartree   DENC   =     -1302.77790653
  -V(xc)+E(xc)   XCENC  =       170.39317207
  PAW double counting   =      4337.34280654    -4914.77721803
  entropy T*S    EENTRO =        -0.00015051
  eigenvalues    EBANDS =         7.80996682
  atomic energy  EATOM  =      5563.90732063
  ---------------------------------------------------
  free energy    TOTEN  =       -14.73190594 eV

  energy without entropy =      -14.73175543  energy(sigma->0) =      -14.73183068


--------------------------------------------------------------------------------------------------------




----------------------------------------- Iteration    1(  17)  ---------------------------------------


    POTLOK:  VPU time    0.01: CPU time    0.01
    SETDIJ:  VPU time    0.02: CPU time    0.02
    EDDAV :  VPU time    0.93: CPU time    0.93
    DOS   :  VPU time    0.00: CPU time   -0.00
    ------------------------------------------
      LOOP:  VPU time    0.96: CPU time    0.96

 eigenvalue-minimisations  :  3096
 total energy-change (2. order) : 0.2792149E-09  (-0.9133098E-12)
 number of electron   44.0000003 magnetization 
 augmentation part    28.8546080 magnetization 

 Free energy of the ion-electron system (eV)
  ---------------------------------------------------
  alpha Z        PSCENC =       389.03717917
  Ewald energy   TEWEN  =     -4265.66707610
  -1/2 Hartree   DENC   =     -1302.77790684
  -V(xc)+E(xc)   XCENC  =       170.39317208
  PAW double counting   =      4337.34280717    -4914.77721872
  entropy T*S    EENTRO =        -0.00015051
  eigenvalues    EBANDS =         7.80996719
  atomic energy  EATOM  =      5563.90732063
  ---------------------------------------------------
  free energy    TOTEN  =       -14.73190594 eV

  energy without entropy =      -14.73175543  energy(sigma->0) =      -14.73183068


--------------------------------------------------------------------------------------------------------




 average (electrostatic) potential at core
  the test charge radii are     1.0053
  (the norm of the test charge is              1.0000)
       1 -40.5611       2 -40.5611       3 -40.5611       4 -40.5611
 
 
 
 E-fermi :   2.9105     XC(G=0): -12.1891     alpha+bet : -8.6587
   add alpha+bet to get absolut eigen values

 k-point   1 :       0.0000    0.0000    0.0000
  band No.  band energies     occupation 
      1      -5.6399      2.00000
      2      -1.3794      2.00000
      3      -1.3794      2.00000
      4      -1.3794      2.00000
      5      -0.9915      2.00000
      6      -0.9915      2.00000
      7      -0.9915      2.00000
      8       0.1862      2.00000
      9       0.1862      2.00000
     10       0.1862      2.00000
     11       0.8879      2.00000
     12       0.8879      2.00000
     13       1.3548      2.00000
     14       1.3548      2.00000
     15       1.3548      2.00000
     16       1.4855      2.00000
     17       1.4855      2.00000
     18       1.4855      2.00000
     19       1.4855      2.00000
     20       1.4855      2.00000
     21       1.4855      2.00000
     22       4.5167      0.00000
     23       4.5167      0.00000
     24       4.5167      0.00000
     25       9.3310      0.00000
     26       9.3310      0.00000
     27       9.3310      0.00000
     28      15.2764      0.00000
     29      15.2764      0.00000
     30      15.2764      0.00000
     31      15.2764      0.00000
     32      15.2764      0.00000

 k-point   2 :       0.0769    0.0000    0.0000
  band No.  band energies     occupation 
      1      -5.5732      2.00000
      2      -1.3813      2.00000
      3      -1.3498      2.00000
      4      -1.3498      2.00000
      5      -0.9751      2.00000
      6      -0.9742      2.00000
      7      -0.9742      2.00000
      8       0.1684      2.00000
      9       0.2008      2.00000
     10       0.2008      2.00000
     11       0.8717      2.00000
     12       0.8945      2.00000
     13       1.3339      2.00000
     14       1.3339      2.00000
     15       1.3479      2.00000
     16       1.3841      2.00000
     17       1.3841      2.00000
     18       1.4607      2.00000
     19       1.4607      2.00000
     20       1.4856      2.00000
     21       1.4856      2.00000
     22       4.0610      0.00000
     23       4.6791      0.00000
     24       4.6791      0.00000
     25       9.3588      0.00000
     26       9.3588      0.00000
     27       9.9240      0.00000
     28      14.8061      0.00000
     29      14.8061      0.00000
     30      14.9576      0.00000
     31      14.9576      0.00000
     32      15.3721      0.00000

 k-point   3 :       0.1538    0.0000    0.0000
  band No.  band energies     occupation 
      1      -5.3741      2.00000
      2      -1.3983      2.00000
      3      -1.2646      2.00000
      4      -1.2646      2.00000
      5      -0.9268      2.00000
      6      -0.9219      2.00000
      7      -0.9219      2.00000
      8       0.1160      2.00000
      9       0.2443      2.00000
     10       0.2443      2.00000
     11       0.8247      2.00000
     12       0.9141      2.00000
     13       1.1309      2.00000
     14       1.1309      2.00000
     15       1.2729      2.00000
     16       1.2729      2.00000
     17       1.3276      2.00000
     18       1.3892      2.00000
     19       1.3892      2.00000
     20       1.4857      2.00000
     21       1.4857      2.00000
     22       3.0967      0.00000
     23       5.1148      0.00000
     24       5.1148      0.00000
     25       9.4441      0.00000
     26       9.4441      0.00000
     27      11.3096      0.00000
     28      13.7915      0.00000
     29      13.7915      0.00000
     30      14.2081      0.00000
     31      14.2081      0.00000
     32      15.6559      0.00000

 k-point   4 :       0.2308    0.0000    0.0000
  band No.  band energies     occupation 
      1      -5.0460      2.00000
      2      -1.4697      2.00000
      3      -1.1351      2.00000
      4      -1.1351      2.00000
      5      -0.8490      2.00000
      6      -0.8339      2.00000
      7      -0.8339      2.00000
      8       0.0325      2.00000
      9       0.3157      2.00000
     10       0.3157      2.00000
     11       0.7520      2.00000
     12       0.8120      2.00000
     13       0.8120      2.00000
     14       0.9456      2.00000
     15       1.1773      2.00000
     16       1.1773      2.00000
     17       1.2788      2.00000
     18       1.2788      2.00000
     19       1.2951      2.00000
     20       1.4858      2.00000
     21       1.4858      2.00000
     22       2.0828      2.00000
     23       5.7369      0.00000
     24       5.7369      0.00000
     25       9.5932      0.00000
     26       9.5932      0.00000
     27      12.6335      0.00000
     28      12.6335      0.00000
     29      13.0624      0.00000
     30      13.3256      0.00000
     31      13.3256      0.00000
     32      16.1188      0.00000

 k-point   5 :       0.3077    0.0000    0.0000
  band No.  band energies     occupation 
      1      -4.5960      2.00000
      2      -1.6753      2.00000
      3      -0.9815      2.00000
      4      -0.9815      2.00000
      5      -0.7457      2.00000
      6      -0.7091      2.00000
      7      -0.7091      2.00000
      8      -0.0768      2.00000
      9       0.4132      2.00000
     10       0.4132      2.00000
     11       0.4838      2.00000
     12       0.4838      2.00000
     13       0.6630      2.00000
     14       0.9872      2.00000
     15       1.0597      2.00000
     16       1.0597      2.00000
     17       1.1404      2.00000
     18       1.1404      2.00000
     19       1.2525      2.00000
     20       1.2527      2.00000
     21       1.4860      2.00000
     22       1.4860      2.00000
     23       6.4874      0.00000
     24       6.4874      0.00000
     25       9.8161      0.00000
     26       9.8161      0.00000
     27      11.4689      0.00000
     28      11.4689      0.00000
     29      12.4693      0.00000
     30      12.4693      0.00000
     31      15.0188      0.00000
     32      16.7477      0.00000

 k-point   6 :       0.3846    0.0000    0.0000
  band No.  band energies     occupation 
      1      -4.0369      2.00000
      2      -2.1004      2.00000
      3      -0.8364      2.00000
      4      -0.8364      2.00000
      5      -0.6225      2.00000
      6      -0.5462      2.00000
      7      -0.5462      2.00000
      8      -0.2050      2.00000
      9       0.1744      2.00000
     10       0.1744      2.00000
     11       0.5341      2.00000
     12       0.5341      2.00000
     13       0.5740      2.00000
     14       0.7419      2.00000
     15       0.9445      2.00000
     16       0.9445      2.00000
     17       0.9861      2.00000
     18       0.9861      2.00000
     19       1.0366      2.00000
     20       1.2022      2.00000
     21       1.4861      2.00000
     22       1.4861      2.00000
     23       7.3363      0.00000
     24       7.3363      0.00000
     25      10.1254      0.00000
     26      10.1254      0.00000
     27      10.3425      0.00000
     28      10.3425      0.00000
     29      11.7065      0.00000
     30      11.7065      0.00000
     31      17.1110      0.00000
     32      17.5278      0.00000

 k-point   7 :       0.4615    0.0000    0.0000
  band No.  band energies     occupation 
      1      -3.3933      2.00000
      2      -2.7152      2.00000
      3      -0.7442      2.00000
      4      -0.7442      2.00000
      5      -0.4861      2.00000
      6      -0.3444      2.00000
      7      -0.3444      2.00000
      8      -0.3442      2.00000
      9      -0.1036      2.00000
     10      -0.1036      2.00000
     11       0.5139      2.00000
     12       0.5367      2.00000
     13       0.6742      2.00000
     14       0.6742      2.00000
     15       0.8275      2.00000
     16       0.8275      2.00000
     17       0.8692      2.00000
     18       0.8692      2.00000
     19       1.0910      2.00000
     20       1.1473      2.00000
     21       1.4862      2.00000
     22       1.4862      2.00000
     23       8.2677      0.00000
     24       8.2677      0.00000
     25       9.2723      0.00000
     26       9.2723      0.00000
     27      10.5346      0.00000
     28      10.5346      0.00000
     29      11.0624      0.00000
     30      11.0624      0.00000
     31      18.4439      0.00000
     32      18.4439      0.00000

 k-point   8 :       0.0769    0.0769    0.0000
  band No.  band energies     occupation 
      1      -5.5066      2.00000
      2      -1.3511      2.00000
      3      -1.3511      2.00000
      4      -1.3209      2.00000
      5      -0.9581      2.00000
      6      -0.9581      2.00000
      7      -0.9573      2.00000
      8       0.1585      2.00000
      9       0.2077      2.00000
     10       0.2141      2.00000
     11       0.8673      2.00000
     12       0.8907      2.00000
     13       1.3074      2.00000
     14       1.3101      2.00000
     15       1.3101      2.00000
     16       1.3138      2.00000
     17       1.3719      2.00000
     18       1.3719      2.00000
     19       1.4607      2.00000
     20       1.4607      2.00000
     21       1.4696      2.00000
     22       4.2196      0.00000
     23       4.2196      0.00000
     24       4.8328      0.00000
     25       9.3870      0.00000
     26       9.9599      0.00000
     27       9.9599      0.00000
     28      13.8274      0.00000
     29      14.8964      0.00000
     30      14.8964      0.00000
     31      15.0488      0.00000
     32      15.0488      0.00000

 k-point   9 :       0.1538    0.0769    0.0000
  band No.  band energies     occupation 
      1      -5.3082      2.00000
      2      -1.3660      2.00000
      3      -1.2640      2.00000
      4      -1.2377      2.00000
      5      -0.9105      2.00000
      6      -0.9066      2.00000
      7      -0.9065      2.00000
      8       0.1112      2.00000
      9       0.2470      2.00000
     10       0.2537      2.00000
     11       0.8263      2.00000
     12       0.9082      2.00000
     13       1.0808      2.00000
     14       1.0812      2.00000
     15       1.2305      2.00000
     16       1.2549      2.00000
     17       1.2809      2.00000
     18       1.3431      2.00000
     19       1.3890      2.00000
     20       1.4607      2.00000
     21       1.4610      2.00000
     22       3.2620      0.00000
     23       4.6360      0.00000
     24       5.2509      0.00000
     25       9.4736      0.00000
     26      10.0701      0.00000
     27      11.3550      0.00000
     28      12.6502      0.00000
     29      13.8758      0.00000
     30      14.2908      0.00000
     31      15.1637      0.00000
     32      15.2478      0.00000

 k-point  10 :       0.2308    0.0769    0.0000
  band No.  band energies     occupation 
      1      -4.9814      2.00000
      2      -1.4338      2.00000
      3      -1.1312      2.00000
      4      -1.1109      2.00000
      5      -0.8340      2.00000
      6      -0.8214      2.00000
      7      -0.8201      2.00000
      8       0.0304      2.00000
      9       0.3172      2.00000
     10       0.3173      2.00000
     11       0.7584      2.00000
     12       0.7634      2.00000
     13       0.7809      2.00000
     14       0.9427      2.00000
     15       1.0859      2.00000
     16       1.1624      2.00000
     17       1.1838      2.00000
     18       1.2784      2.00000
     19       1.3008      2.00000
     20       1.4590      2.00000
     21       1.4605      2.00000
     22       2.2866      2.00000
     23       5.2156      0.00000
     24       5.8565      0.00000
     25       9.6242      0.00000
     26      10.2619      0.00000
     27      11.4851      0.00000
     28      12.7154      0.00000
     29      13.1127      0.00000
     30      13.4003      0.00000
     31      14.5219      0.00000
     32      15.5977      0.00000

 k-point  11 :       0.3077    0.0769    0.0000
  band No.  band energies     occupation 
      1      -4.5331      2.00000
      2      -1.6343      2.00000
      3      -0.9732      2.00000
      4      -0.9594      2.00000
      5      -0.7326      2.00000
      6      -0.7023      2.00000
      7      -0.6974      2.00000
      8      -0.0763      2.00000
      9       0.3973      2.00000
     10       0.4141      2.00000
     11       0.4391      2.00000
     12       0.4664      2.00000
     13       0.6823      2.00000
     14       0.8546      2.00000
     15       0.9891      2.00000
     16       1.0487      2.00000
     17       1.0662      2.00000
     18       1.1400      2.00000
     19       1.2352      2.00000
     20       1.4586      2.00000
     21       1.4603      2.00000
     22       1.5685      2.00000
     23       5.9005      0.00000
     24       6.5944      0.00000
     25       9.8429      0.00000
     26      10.3868      0.00000
     27      10.5463      0.00000
     28      11.5506      0.00000
     29      12.5369      0.00000
     30      13.6573      0.00000
     31      15.0707      0.00000
     32      16.1832      0.00000

 k-point  12 :       0.3846    0.0769    0.0000
  band No.  band energies     occupation 
      1      -3.9765      2.00000
      2      -2.0537      2.00000
      3      -0.8224      2.00000
      4      -0.8137      2.00000
      5      -0.6116      2.00000
      6      -0.5505      2.00000
      7      -0.5374      2.00000
      8      -0.2019      2.00000
      9       0.1359      2.00000
     10       0.1667      2.00000
     11       0.4558      2.00000
     12       0.5345      2.00000
     13       0.5876      2.00000
     14       0.6498      2.00000
     15       0.9376      2.00000
     16       0.9500      2.00000
     17       0.9857      2.00000
     18       1.0446      2.00000
     19       1.0845      2.00000
     20       1.2678      2.00000
     21       1.4588      2.00000
     22       1.4600      2.00000
     23       6.6626      0.00000
     24       7.4340      0.00000
     25       9.3358      0.00000
     26      10.1757      0.00000
     27      10.4258      0.00000
     28      10.9361      0.00000
     29      11.7674      0.00000
     30      12.8193      0.00000
     31      16.9022      0.00000
     32      17.0390      0.00000

 k-point  13 :       0.4615    0.0769    0.0000
  band No.  band energies     occupation 
      1      -3.3364      2.00000
      2      -2.6629      2.00000
      3      -0.7241      2.00000
      4      -0.7206      2.00000
      5      -0.4777      2.00000
      6      -0.3628      2.00000
      7      -0.3395      2.00000
      8      -0.3384      2.00000
      9      -0.1336      2.00000
     10      -0.1040      2.00000
     11       0.4417      2.00000
     12       0.4521      2.00000
     13       0.6742      2.00000
     14       0.7365      2.00000
     15       0.8272      2.00000
     16       0.8670      2.00000
     17       0.8716      2.00000
     18       0.8911      2.00000
     19       1.1070      2.00000
     20       1.1757      2.00000
     21       1.4592      2.00000
     22       1.4596      2.00000
     23       7.4902      0.00000
     24       8.3588      0.00000
     25       8.3809      0.00000
     26       9.3587      0.00000
     27      10.5871      0.00000
     28      11.1160      0.00000
     29      11.4431      0.00000
     30      12.0727      0.00000
     31      17.7354      0.00000
     32      17.9461      0.00000

 k-point  14 :       0.1538    0.1538    0.0000
  band No.  band energies     occupation 
      1      -5.1118      2.00000
      2      -1.2729      2.00000
      3      -1.2729      2.00000
      4      -1.1601      2.00000
      5      -0.8616      2.00000
      6      -0.8616      2.00000
      7      -0.8601      2.00000
      8       0.0823      2.00000
      9       0.2705      2.00000
     10       0.2813      2.00000
     11       0.8113      2.00000
     12       0.9118      2.00000
     13       0.9234      2.00000
     14       0.9567      2.00000
     15       0.9567      2.00000
     16       1.2020      2.00000
     17       1.2792      2.00000
     18       1.2792      2.00000
     19       1.3886      2.00000
     20       1.3886      2.00000
     21       1.4221      2.00000
     22       3.6676      0.00000
     23       3.6676      0.00000
     24       5.6307      0.00000
     25       9.5631      0.00000
     26      11.3585      0.00000
     27      11.4932      0.00000
     28      11.4932      0.00000
     29      14.1253      0.00000
     30      14.1253      0.00000
     31      14.5361      0.00000
     32      14.5361      0.00000

 k-point  15 :       0.2308    0.1538    0.0000
  band No.  band energies     occupation 
      1      -4.7886      2.00000
      2      -1.3299      2.00000
      3      -1.1301      2.00000
      4      -1.0419      2.00000
      5      -0.7891      2.00000
      6      -0.7831      2.00000
      7      -0.7793      2.00000
      8       0.0167      2.00000
      9       0.3235      2.00000
     10       0.3298      2.00000
[...]
     24       3.5243      0.00000
     25       7.9090      0.00000
     26       7.9090      0.00000
     27       7.9090      0.00000
     28      11.9681      0.00000
     29      16.7409      0.00000
     30      16.7409      0.00000
     31      16.7409      0.00000
     32      19.2880      0.00000

 k-point  76 :       0.3846    0.3077    0.3077
  band No.  band energies     occupation 
      1      -2.4427      2.00000
      2      -1.3760      2.00000
      3      -1.1456      2.00000
      4      -1.1456      2.00000
      5      -0.1545      2.00000
      6      -0.1545      2.00000
      7      -0.0862      2.00000
      8       0.1813      2.00000
      9       0.2150      2.00000
     10       0.2470      2.00000
     11       0.2764      2.00000
     12       0.2828      2.00000
     13       0.2828      2.00000
     14       0.4267      2.00000
     15       0.4617      2.00000
     16       0.4617      2.00000
     17       1.1448      2.00000
     18       1.1894      2.00000
     19       1.3644      2.00000
     20       1.3644      2.00000
     21       1.3810      2.00000
     22       2.6074      2.00000
     23       3.8374      0.00000
     24       3.8374      0.00000
     25       7.0553      0.00000
     26       7.0553      0.00000
     27       8.4872      0.00000
     28      10.9247      0.00000
     29      17.2361      0.00000
     30      17.2361      0.00000
     31      18.8161      0.00000
     32      19.1946      0.00000

 k-point  77 :       0.4615    0.3077    0.3077
  band No.  band energies     occupation 
      1      -2.0503      2.00000
      2      -1.6859      2.00000
      3      -1.1556      2.00000
      4      -1.1556      2.00000
      5      -0.1183      2.00000
      6      -0.1183      2.00000
      7       0.0589      2.00000
      8       0.1739      2.00000
      9       0.2282      2.00000
     10       0.2292      2.00000
     11       0.2994      2.00000
     12       0.3504      2.00000
     13       0.3558      2.00000
     14       0.3558      2.00000
     15       0.4271      2.00000
     16       0.4271      2.00000
     17       1.2785      2.00000
     18       1.3373      2.00000
     19       1.3373      2.00000
     20       1.3437      2.00000
     21       1.3965      2.00000
     22       1.8880      2.00000
     23       4.0840      0.00000
     24       4.0840      0.00000
     25       6.5331      0.00000
     26       6.5331      0.00000
     27       9.1843      0.00000
     28       9.9969      0.00000
     29      17.8314      0.00000
     30      17.8314      0.00000
     31      18.5378      0.00000
     32      18.5378      0.00000

 k-point  78 :       0.3846    0.3846    0.3077
  band No.  band energies     occupation 
      1      -2.1480      2.00000
      2      -1.3560      2.00000
      3      -1.3560      2.00000
      4      -1.2225      2.00000
      5      -0.0746      2.00000
      6      -0.0217      2.00000
      7      -0.0217      2.00000
      8       0.2282      2.00000
      9       0.2463      2.00000
     10       0.3463      2.00000
     11       0.3463      2.00000
     12       0.3813      2.00000
     13       0.3838      2.00000
     14       0.3931      2.00000
     15       0.3931      2.00000
     16       0.4303      2.00000
     17       1.1507      2.00000
     18       1.3179      2.00000
     19       1.3525      2.00000
     20       1.3627      2.00000
     21       1.3627      2.00000
     22       2.8996      1.87460
     23       2.8996      1.87460
     24       3.8672      0.00000
     25       6.4761      0.00000
     26       7.5604      0.00000
     27       7.5604      0.00000
     28       9.8959      0.00000
     29      17.7401      0.00000
     30      19.2800      0.00000
     31      19.2800      0.00000
     32      19.7986      0.00000

 k-point  79 :       0.4615    0.3846    0.3077
  band No.  band energies     occupation 
      1      -1.8583      2.00000
      2      -1.5927      2.00000
      3      -1.3269      2.00000
      4      -1.2833      2.00000
      5      -0.0246      2.00000
      6      -0.0067      2.00000
      7       0.0929      2.00000
      8       0.1766      2.00000
      9       0.2564      2.00000
     10       0.2964      2.00000
     11       0.3352      2.00000
     12       0.3419      2.00000
     13       0.4543      2.00000
     14       0.4846      2.00000
     15       0.5059      2.00000
     16       0.5233      2.00000
     17       1.2362      2.00000
     18       1.3227      2.00000
     19       1.3286      2.00000
     20       1.3310      2.00000
     21       1.5814      2.00000
     22       2.1211      2.00000
     23       3.2720      0.00000
     24       3.6504      0.00000
     25       6.4277      0.00000
     26       6.8440      0.00000
     27       8.2111      0.00000
     28       8.9909      0.00000
     29      18.3516      0.00000
     30      19.0461      0.00000
     31      19.8970      0.00000
     32      20.4562      0.00000

 k-point  80 :       0.4615    0.4615    0.3077
  band No.  band energies     occupation 
      1      -1.6738      2.00000
      2      -1.4982      2.00000
      3      -1.4982      2.00000
      4      -1.3968      2.00000
      5       0.0466      2.00000
      6       0.0859      2.00000
      7       0.0859      2.00000
      8       0.1495      2.00000
      9       0.2443      2.00000
     10       0.2740      2.00000
     11       0.2740      2.00000
     12       0.2889      2.00000
     13       0.6265      2.00000
     14       0.6265      2.00000
     15       0.6386      2.00000
     16       0.6532      2.00000
     17       1.2254      2.00000
     18       1.2851      2.00000
     19       1.2851      2.00000
     20       1.2957      2.00000
     21       1.9346      2.00000
     22       2.5122      2.00000
     23       2.5122      2.00000
     24       3.0526      0.00000
     25       6.7790      0.00000
     26       7.3996      0.00000
     27       7.3996      0.00000
     28       8.1225      0.00000
     29      18.9780      0.00000
     30      19.7001      0.00000
     31      19.7001      0.00000
     32      20.4495      0.00000

 k-point  81 :       0.3846    0.3846    0.3846
  band No.  band energies     occupation 
      1      -1.9521      2.00000
      2      -1.4003      2.00000
      3      -1.4003      2.00000
      4      -1.4003      2.00000
      5       0.0315      2.00000
      6       0.0315      2.00000
      7       0.0315      2.00000
      8       0.2142      2.00000
      9       0.2142      2.00000
     10       0.3004      2.00000
     11       0.3004      2.00000
     12       0.3004      2.00000
     13       0.5958      2.00000
     14       0.5958      2.00000
     15       0.5958      2.00000
     16       0.7484      2.00000
     17       1.2494      2.00000
     18       1.2494      2.00000
     19       1.3752      2.00000
     20       1.3752      2.00000
     21       1.3752      2.00000
     22       3.0279      0.00000
     23       3.0279      0.00000
     24       3.0279      0.00000
     25       6.7733      0.00000
     26       6.7733      0.00000
     27       6.7733      0.00000
     28       8.8931      0.00000
     29      19.7742      0.00000
     30      19.7742      0.00000
     31      19.7742      0.00000
     32      21.1989      0.00000

 k-point  82 :       0.4615    0.3846    0.3846
  band No.  band energies     occupation 
      1      -1.7616      2.00000
      2      -1.5788      2.00000
      3      -1.4239      2.00000
      4      -1.4239      2.00000
      5       0.0595      2.00000
      6       0.0595      2.00000
      7       0.1179      2.00000
      8       0.1786      2.00000
      9       0.2128      2.00000
     10       0.2421      2.00000
     11       0.2642      2.00000
     12       0.2642      2.00000
     13       0.7502      2.00000
     14       0.7502      2.00000
     15       0.7596      2.00000
     16       0.8855      2.00000
     17       1.3224      2.00000
     18       1.3579      2.00000
     19       1.3579      2.00000
     20       1.3651      2.00000
     21       1.5364      2.00000
     22       2.2117      2.00000
     23       3.1281      0.00000
     24       3.1281      0.00000
     25       6.3281      0.00000
     26       6.3281      0.00000
     27       7.3162      0.00000
     28       8.0303      0.00000
     29      20.3405      0.00000
     30      20.3405      0.00000
     31      21.0185      0.00000
     32      21.0185      0.00000

 k-point  83 :       0.4615    0.4615    0.3846
  band No.  band energies     occupation 
      1      -1.6601      2.00000
      2      -1.5489      2.00000
      3      -1.5489      2.00000
      4      -1.4980      2.00000
      5       0.1067      2.00000
      6       0.1259      2.00000
      7       0.1259      2.00000
      8       0.1688      2.00000
      9       0.1919      2.00000
     10       0.2127      2.00000
     11       0.2127      2.00000
     12       0.2200      2.00000
     13       0.9394      2.00000
     14       0.9620      2.00000
     15       0.9620      2.00000
     16       1.0970      2.00000
     17       1.3045      2.00000
     18       1.3478      2.00000
     19       1.3478      2.00000
     20       1.3482      2.00000
     21       1.8417      2.00000
     22       2.4552      2.00000
     23       2.4552      2.00000
     24       2.8146      2.00000
     25       6.2830      0.00000
     26       6.6491      0.00000
     27       6.6491      0.00000
     28       7.2397      0.00000
     29      20.9372      0.00000
     30      21.5827      0.00000
     31      21.5827      0.00000
     32      22.2879      0.00000

 k-point  84 :       0.4615    0.4615    0.4615
  band No.  band energies     occupation 
      1      -1.6289      2.00000
      2      -1.5756      2.00000
      3      -1.5756      2.00000
      4      -1.5756      2.00000
      5       0.1491      2.00000
      6       0.1491      2.00000
      7       0.1491      2.00000
      8       0.1699      2.00000
      9       0.1699      2.00000
     10       0.1795      2.00000
     11       0.1795      2.00000
     12       0.1795      2.00000
     13       1.2075      2.00000
     14       1.2075      2.00000
     15       1.2075      2.00000
     16       1.3531      2.00000
     17       1.3531      2.00000
     18       1.3680      2.00000
     19       1.3680      2.00000
     20       1.3680      2.00000
     21       1.9467      2.00000
     22       2.3961      2.00000
     23       2.3961      2.00000
     24       2.3961      2.00000
     25       6.2390      0.00000
     26       6.2390      0.00000
     27       6.2390      0.00000
     28       6.5895      0.00000
     29      22.7547      0.00000
     30      22.7547      0.00000
     31      22.7547      0.00000
     32      23.0767      0.00000


--------------------------------------------------------------------------------------------------------


 soft charge-density along one line, spin component           1
         0         1         2         3         4         5         6         7         8         9
 total charge-density along one line
 
 pseudopotential strength for first ion, spin component:           1
 -6.890   0.000  -0.000   0.000   0.000  -0.053  -0.000   0.000
  0.000  -6.890  -0.000   0.000  -0.000  -0.000  -0.053   0.000
 -0.000  -0.000  -6.874  -0.000   0.000   0.000   0.000  -0.060
  0.000   0.000  -0.000  -6.890   0.000  -0.000  -0.000   0.000
  0.000  -0.000   0.000   0.000  -6.874  -0.000   0.000  -0.000
 -0.053  -0.000   0.000  -0.000  -0.000   1.592   0.000  -0.000
 -0.000  -0.053   0.000  -0.000   0.000   0.000   1.592  -0.000
  0.000   0.000  -0.060   0.000  -0.000  -0.000  -0.000   1.595
 -0.000  -0.000   0.000  -0.053  -0.000   0.000   0.000  -0.000
 -0.000   0.000  -0.000  -0.000  -0.060   0.000  -0.000   0.000
 -0.000  -0.000  -0.000  -0.000  -0.000  -0.000  -0.000  -0.000
  0.000   0.000   0.000   0.000  -0.000  -0.000  -0.000  -0.000
  0.000   0.000  -0.000  -0.000  -0.000  -0.000  -0.000   0.000
 -0.000   0.000   0.000   0.000   0.000  -0.000  -0.000  -0.000
  0.000  -0.000  -0.000   0.000   0.000  -0.000  -0.000   0.000
 -0.000  -0.000   0.000   0.000   0.000   0.000   0.000  -0.000
  0.000  -0.000  -0.000  -0.000  -0.000  -0.000   0.000   0.000
 -0.000   0.000   0.000  -0.000  -0.000   0.000  -0.000  -0.000
 total augmentation occupancy for first ion, spin component:           1
  1.857  -0.009  -0.012  -0.004  -0.011  -0.005   0.006  -0.003  -0.000   0.011   0.030  -0.006  -0.000  -0.000   0.000  -0.000
 -0.009   1.927  -0.001  -0.007  -0.005   0.006  -0.061   0.002   0.008  -0.002   0.048   0.006   0.000   0.000   0.000   0.000
 -0.012  -0.001   1.895   0.004  -0.015  -0.003   0.002  -0.035  -0.003   0.027  -0.010  -0.047   0.000  -0.000   0.000   0.000
 -0.004  -0.007   0.004   1.916   0.002  -0.000   0.008  -0.003  -0.033   0.004   0.025   0.001   0.000  -0.000   0.000   0.000
 -0.011  -0.005  -0.015   0.002   1.927   0.011  -0.002   0.027   0.004  -0.101   0.058   0.032   0.000   0.000   0.000   0.000
 -0.005   0.006  -0.003  -0.000   0.011   0.076  -0.003   0.017   0.001  -0.007   0.022   0.015  -0.000   0.000  -0.000  -0.000
  0.006  -0.061   0.002   0.008  -0.002  -0.003   0.059  -0.003  -0.005   0.008  -0.014   0.009  -0.000   0.000   0.000   0.000
 -0.003   0.002  -0.035  -0.003   0.027   0.017  -0.003   0.062   0.000  -0.004   0.102  -0.012   0.000   0.000   0.000   0.000
 -0.000   0.008  -0.003  -0.033   0.004   0.001  -0.005   0.000   0.047  -0.009   0.001   0.008   0.000  -0.000   0.000  -0.000
  0.011  -0.002   0.027   0.004  -0.101  -0.007   0.008  -0.004  -0.009   0.052  -0.073   0.014   0.000   0.000   0.000  -0.000
  0.030   0.048  -0.010   0.025   0.058   0.022  -0.014   0.102   0.001  -0.073   1.135  -0.308  -0.000  -0.000   0.000   0.000
 -0.006   0.006  -0.047   0.001   0.032   0.015   0.009  -0.012   0.008   0.014  -0.308   0.122  -0.000   0.000   0.000   0.000
 -0.000   0.000   0.000   0.000   0.000  -0.000  -0.000   0.000   0.000   0.000  -0.000  -0.000   0.148   0.016  -0.016  -0.010
 -0.000   0.000  -0.000  -0.000   0.000   0.000   0.000   0.000  -0.000   0.000  -0.000   0.000   0.016   0.103  -0.002  -0.001
  0.000   0.000   0.000   0.000   0.000  -0.000   0.000   0.000   0.000   0.000   0.000   0.000  -0.016  -0.002   0.226  -0.000
 -0.000   0.000   0.000   0.000   0.000  -0.000   0.000   0.000  -0.000  -0.000   0.000   0.000  -0.010  -0.001  -0.000   0.001
 -0.000   0.000  -0.000  -0.000   0.000   0.000   0.000   0.000  -0.000   0.000  -0.000   0.000  -0.001  -0.006  -0.001   0.000
  0.000   0.000   0.000   0.000   0.000   0.000   0.000   0.000   0.000  -0.000   0.000  -0.000  -0.000  -0.001  -0.016   0.000


------------------------ aborting loop because EDIFF is reached ----------------------------------------




--------------------------------------------------------------------------------------------------------


    CHARGE:  VPU time    0.08: CPU time    0.08
    FORLOC:  VPU time    0.00: CPU time    0.00
    FORNL :  VPU time    0.25: CPU time    0.25
    STRESS:  VPU time    0.62: CPU time    0.62
    FORCOR:  VPU time    0.01: CPU time    0.01
    FORHAR:  VPU time    0.00: CPU time    0.00
    MIXING:  VPU time    0.00: CPU time    0.00


--------------------------------------------------------------------------------------------------------



  FREE ENERGIE OF THE ION-ELECTRON SYSTEM (eV)
  ---------------------------------------------------
  free  energy   TOTEN  =       -14.731906 eV

  energy  without entropy=      -14.731755  energy(sigma->0) =      -14.731831
 

  FORCE on cell =-STRESS in cart. coord.  units (eV/reduce length):
  Direction    X        Y        Z        XY       YZ       ZX
  --------------------------------------------------------------------------------------
  Alpha Z    389.04    389.04    389.04
  Ewald    -1421.89  -1421.89  -1421.89      0.00     -0.00     -0.00
  Hartree    434.26    434.26    434.26     -0.00     -0.00     -0.00
  E(xc)     -249.91   -249.91   -249.91     -0.00     -0.00     -0.00
  Local      457.59    457.59    457.59     -0.00     -0.00      0.00
  n-local   -145.75   -151.39   -152.52      0.20      1.80      0.67
  augment    225.62    225.62    225.62     -0.00     -0.00     -0.00
  Kinetic    319.44    311.11    305.49     -3.26      0.15     -1.27
  -------------------------------------------------------------------------------------
  Total       -3.17     -3.17     -3.17     -0.00      0.00      0.00
  in kB      -96.75    -96.75    -96.75     -0.00      0.00      0.00
  external pressure =      -96.75 kB  Pullay stress =        0.00 kB


 VOLUME and BASIS-vectors are now :
 -----------------------------------------------------------------------------
  energy-cutoff  :      500.00
  volume of cell :       52.55
      direct lattice vectors                 reciprocal lattice vectors
     3.745508286  0.000000000  0.000000000     0.266986460  0.000000000  0.000000000
     0.000000000  3.745508286  0.000000000     0.000000000  0.266986460  0.000000000
     0.000000000  0.000000000  3.745508286     0.000000000  0.000000000  0.266986460

  length of vectors
     3.745508286  3.745508286  3.745508286     0.266986460  0.266986460  0.266986460


 FORCES acting on ions
    electron-ion (+dipol)            ewald-force                    non-local-force                 convergence-correction
 -----------------------------------------------------------------------------------------------
   -.477E-13 -.479E-13 -.470E-13   -.390E-14 0.423E-15 -.988E-14   -.600E-26 0.228E-26 0.131E-25   -.538E-13 -.133E-14 0.527E-15
   0.515E-12 0.365E-11 0.226E-11   0.138E-13 0.957E-14 -.977E-14   0.370E-26 -.663E-26 -.116E-25   -.436E-14 0.362E-14 -.503E-14
   0.511E-12 -.473E-13 0.766E-11   -.234E-14 -.940E-14 0.991E-14   -.954E-26 0.218E-25 -.137E-25   -.553E-15 0.754E-14 -.843E-13
   -.474E-13 0.513E-12 0.502E-12   -.559E-14 -.255E-15 0.100E-13   0.142E-25 -.395E-26 -.106E-25   -.554E-13 0.164E-14 -.842E-13
 -----------------------------------------------------------------------------------------------
   0.931E-12 0.407E-11 0.104E-10   0.199E-14 0.335E-15 0.279E-15   0.236E-26 0.135E-25 -.228E-25   -.114E-12 0.115E-13 -.173E-12
 
 
 POSITION                                       TOTAL-FORCE (eV/Angst)
 -----------------------------------------------------------------------------------
      0.00000      0.00000      0.00000        -0.000000     -0.000000     -0.000000
      1.87275      1.87275      0.00000         0.000000      0.000000     -0.000000
      1.87275      0.00000      1.87275         0.000000      0.000000      0.000000
      0.00000      1.87275      1.87275        -0.000000     -0.000000      0.000000
 -----------------------------------------------------------------------------------
    total drift:                                0.000000      0.000000      0.000000


--------------------------------------------------------------------------------------------------------



 mean value of Nose-termostat <S>:     1.000 mean value of <T> :     0.000
 mean temperature <T/S>/<1/S>  :     0.000

     LOOP+:  VPU time   24.38: CPU time   24.41
  
  
 General timing and accounting informations for this job:
 ========================================================
  
                  Total CPU time used (sec):       25.304
                            User time (sec):       17.094
                          System time (sec):        8.210
                         Elapsed time (sec):       25.346
  
                   Maximum memory used (kb):      336316.
                   Average memory used (kb):           0.
  
                          Minor page faults:        45598
                          Major page faults:            0
                 Voluntary context switches:          928
