 running on    8 nodes
 distr:  one band on    1 nodes,    8 groups
 vasp.4.6.28 25Jul05 complex 
 POSCAR found :  1 types and    4 ions
 WARNING: PSMAXN for non-local potential too small
 LDA part: xc-table for Pade appr. of Perdew
 POSCAR, INCAR and KPOINTS ok, starting setup
 FFT: planning ...           1
 reading WAVECAR
 WARNING: random wavefunctions but no delay for mixing, default for NELMDL
 entering main loop
       N       E                     dE             d eps       ncg     rms          rms(c)
DAV:   1     0.581639886204E+03    0.58164E+03   -0.30857E+04 85120   0.226E+03
DAV:   2     0.724801115201E+01   -0.57439E+03   -0.52929E+03 85144   0.490E+02
DAV:   3    -0.134104852836E+02   -0.20658E+02   -0.20176E+02100432   0.110E+02
DAV:   4    -0.136243863575E+02   -0.21390E+00   -0.21374E+00 92456   0.977E+00
DAV:   5    -0.136261796409E+02   -0.17933E-02   -0.17931E-02101760   0.845E-01    0.536E+00
DAV:   6    -0.127585958251E+02    0.86758E+00   -0.21528E+00 96168   0.132E+01    0.130E+00
DAV:   7    -0.127260559947E+02    0.32540E-01   -0.97137E-02 96832   0.213E+00    0.625E-01
DAV:   8    -0.127196827562E+02    0.63732E-02   -0.63738E-03 92560   0.723E-01    0.433E-02
DAV:   9    -0.127197885168E+02   -0.10576E-03   -0.24385E-04101128   0.115E-01    0.269E-02
DAV:  10    -0.127197886618E+02   -0.14504E-06   -0.24652E-05 94800   0.314E-02    0.236E-03
DAV:  11    -0.127197897372E+02   -0.10753E-05   -0.71885E-07 99640   0.597E-03    0.964E-04
DAV:  12    -0.127197892324E+02    0.50475E-06   -0.59045E-08 95360   0.213E-03    0.943E-05
DAV:  13    -0.127197891966E+02    0.35803E-07   -0.56934E-10 62280   0.209E-04    0.248E-05
DAV:  14    -0.127197892081E+02   -0.11533E-07   -0.19065E-10 55896   0.117E-04    0.118E-05
DAV:  15    -0.127197892036E+02    0.45061E-08   -0.31234E-11 55072   0.522E-05
   1 F= -.12719789E+02 E0= -.12719761E+02  d E =-.562156E-04
