   4   4   0   0
  0.2044228E+02  0.4340400E-09  0.4340400E-09  0.4340400E-09  0.5000000E-15
  1.000000000000000E-004
  CAR 
 unknown system                          
     19.57606232     -5.59980085  301      3.61839757      1.00000000
     -5.600  0.0000E+00  0.0000E+00
     -5.516  0.0000E+00  0.0000E+00
     -5.432  0.0000E+00  0.0000E+00
     -5.348  0.0000E+00  0.0000E+00
     -5.264  0.0000E+00  0.0000E+00
     -5.180  0.0000E+00  0.0000E+00
     -5.096  0.0000E+00  0.0000E+00
     -5.012  0.0000E+00  0.0000E+00
     -4.928  0.0000E+00  0.0000E+00
     -4.845  0.0000E+00  0.0000E+00
     -4.761  0.0000E+00  0.0000E+00
     -4.677  0.0000E+00  0.0000E+00
     -4.593  0.0000E+00  0.0000E+00
     -4.509  0.1092E-16  0.9161E-18
     -4.425  0.1639E-01  0.1375E-02
     -4.341  0.1063E+00  0.1049E-01
     -4.257  0.1530E+00  0.2366E-01
     -4.173  0.1825E+00  0.4068E-01
     -4.089  0.2152E+00  0.5937E-01
     -4.005  0.2630E+00  0.8295E-01
     -3.921  0.2947E+00  0.1083E+00
     -3.837  0.3158E+00  0.1352E+00
     -3.754  0.3551E+00  0.1663E+00
     -3.670  0.3814E+00  0.1991E+00
     -3.586  0.3741E+00  0.2334E+00
     -3.502  0.4279E+00  0.2708E+00
     -3.418  0.3825E+00  0.3080E+00
     -3.334  0.5085E+00  0.3522E+00
     -3.250  0.4757E+00  0.3947E+00
     -3.166  0.5695E+00  0.4439E+00
     -3.082  0.5654E+00  0.4947E+00
     -2.998  0.6345E+00  0.5502E+00
     -2.914  0.6232E+00  0.6058E+00
     -2.830  0.7282E+00  0.6702E+00
     -2.747  0.7045E+00  0.7347E+00
     -2.663  0.8034E+00  0.8042E+00
     -2.579  0.9005E+00  0.8856E+00
     -2.495  0.9165E+00  0.9691E+00
     -2.411  0.9987E+00  0.1061E+01
     -2.327  0.1300E+01  0.1174E+01
     -2.243  0.1616E+01  0.1322E+01
     -2.159  0.2749E+01  0.1561E+01
     -2.075  0.3018E+01  0.1827E+01
     -1.991  0.3003E+01  0.2099E+01
     -1.907  0.3634E+01  0.2426E+01
     -1.823  0.4836E+01  0.2849E+01
     -1.740  0.6035E+01  0.3391E+01
     -1.656  0.7255E+01  0.4042E+01
     -1.572  0.8717E+01  0.4818E+01
     -1.488  0.9389E+01  0.5657E+01
     -1.404  0.8853E+01  0.6457E+01
     -1.320  0.8277E+01  0.7207E+01
     -1.236  0.7833E+01  0.7908E+01
     -1.152  0.7546E+01  0.8586E+01
     -1.068  0.7413E+01  0.9254E+01
     -0.984  0.6363E+01  0.9826E+01
     -0.900  0.5321E+01  0.1030E+02
     -0.816  0.7101E+01  0.1094E+02
     -0.732  0.8512E+01  0.1170E+02
     -0.649  0.9898E+01  0.1258E+02
     -0.565  0.1059E+02  0.1352E+02
     -0.481  0.1057E+02  0.1446E+02
     -0.397  0.1005E+02  0.1536E+02
     -0.313  0.9779E+01  0.1624E+02
     -0.229  0.1112E+02  0.1723E+02
     -0.145  0.1218E+02  0.1832E+02
     -0.061  0.1355E+02  0.1953E+02
      0.023  0.1933E+02  0.2123E+02
      0.107  0.1383E+02  0.2248E+02
      0.191  0.1014E+02  0.2342E+02
      0.275  0.8347E+01  0.2418E+02
      0.358  0.8772E+01  0.2496E+02
      0.442  0.8246E+01  0.2570E+02
      0.526  0.8744E+01  0.2647E+02
      0.610  0.9857E+01  0.2735E+02
      0.694  0.1075E+02  0.2830E+02
      0.778  0.1078E+02  0.2926E+02
      0.862  0.1193E+02  0.3033E+02
      0.946  0.1016E+02  0.3125E+02
      1.030  0.9380E+01  0.3210E+02
      1.114  0.8726E+01  0.3288E+02
      1.198  0.8718E+01  0.3366E+02
      1.282  0.8719E+01  0.3444E+02
      1.366  0.8776E+01  0.3523E+02
      1.449  0.9032E+01  0.3605E+02
      1.533  0.1018E+02  0.3696E+02
      1.617  0.1234E+02  0.3806E+02
      1.701  0.1633E+02  0.3951E+02
      1.785  0.1291E+02  0.4068E+02
      1.869  0.8354E+01  0.4143E+02
      1.953  0.5185E+01  0.4190E+02
      2.037  0.1181E+01  0.4203E+02
      2.121  0.1504E+01  0.4215E+02
      2.205  0.9114E+00  0.4223E+02
      2.289  0.1363E+01  0.4235E+02
      2.373  0.1091E+01  0.4245E+02
      2.456  0.1165E+01  0.4256E+02
      2.540  0.1198E+01  0.4267E+02
      2.624  0.1030E+01  0.4276E+02
      2.708  0.1388E+01  0.4288E+02
      2.792  0.8681E+00  0.4296E+02
      2.876  0.1429E+01  0.4308E+02
      2.960  0.9685E+00  0.4317E+02
      3.044  0.1304E+01  0.4328E+02
      3.128  0.1096E+01  0.4338E+02
      3.212  0.1097E+01  0.4348E+02
      3.296  0.1212E+01  0.4359E+02
      3.380  0.1012E+01  0.4368E+02
      3.464  0.1239E+01  0.4380E+02
      3.547  0.1114E+01  0.4390E+02
      3.631  0.1322E+01  0.4401E+02
      3.715  0.1183E+01  0.4412E+02
      3.799  0.1128E+01  0.4422E+02
      3.883  0.1261E+01  0.4433E+02
      3.967  0.1104E+01  0.4443E+02
      4.051  0.1223E+01  0.4454E+02
      4.135  0.1172E+01  0.4464E+02
      4.219  0.1198E+01  0.4475E+02
      4.303  0.1189E+01  0.4485E+02
      4.387  0.1217E+01  0.4496E+02
      4.471  0.1099E+01  0.4506E+02
      4.554  0.1123E+01  0.4516E+02
      4.638  0.1214E+01  0.4527E+02
      4.722  0.1114E+01  0.4536E+02
      4.806  0.1144E+01  0.4547E+02
      4.890  0.1178E+01  0.4557E+02
      4.974  0.1175E+01  0.4568E+02
      5.058  0.1080E+01  0.4577E+02
      5.142  0.1257E+01  0.4588E+02
      5.226  0.1044E+01  0.4598E+02
      5.310  0.1307E+01  0.4609E+02
      5.394  0.1179E+01  0.4619E+02
      5.478  0.1184E+01  0.4630E+02
      5.561  0.1054E+01  0.4639E+02
      5.645  0.1175E+01  0.4649E+02
      5.729  0.1061E+01  0.4659E+02
      5.813  0.1160E+01  0.4669E+02
      5.897  0.1609E+01  0.4684E+02
      5.981  0.1866E+01  0.4700E+02
      6.065  0.1768E+01  0.4716E+02
      6.149  0.1595E+01  0.4730E+02
      6.233  0.1572E+01  0.4744E+02
      6.317  0.1306E+01  0.4757E+02
      6.401  0.1528E+01  0.4770E+02
      6.485  0.1302E+01  0.4782E+02
      6.569  0.1339E+01  0.4794E+02
      6.652  0.1209E+01  0.4805E+02
      6.736  0.1211E+01  0.4816E+02
      6.820  0.1225E+01  0.4827E+02
      6.904  0.1151E+01  0.4837E+02
      6.988  0.1148E+01  0.4847E+02
      7.072  0.1072E+01  0.4857E+02
      7.156  0.9543E+00  0.4866E+02
      7.240  0.1113E+01  0.4876E+02
      7.324  0.9129E+00  0.4884E+02
      7.408  0.9819E+00  0.4893E+02
      7.492  0.9850E+00  0.4901E+02
      7.576  0.9988E+00  0.4910E+02
      7.659  0.8685E+00  0.4918E+02
      7.743  0.1257E+01  0.4929E+02
      7.827  0.1270E+01  0.4941E+02
      7.911  0.1504E+01  0.4954E+02
      7.995  0.1642E+01  0.4968E+02
      8.079  0.1610E+01  0.4983E+02
      8.163  0.1538E+01  0.4996E+02
      8.247  0.1503E+01  0.5010E+02
      8.331  0.1706E+01  0.5025E+02
      8.415  0.1511E+01  0.5038E+02
      8.499  0.1430E+01  0.5052E+02
      8.583  0.1209E+01  0.5063E+02
      8.667  0.1503E+01  0.5077E+02
      8.750  0.1581E+01  0.5090E+02
      8.834  0.1343E+01  0.5102E+02
      8.918  0.1454E+01  0.5115E+02
      9.002  0.1301E+01  0.5127E+02
      9.086  0.1372E+01  0.5139E+02
      9.170  0.1311E+01  0.5151E+02
      9.254  0.1252E+01  0.5162E+02
      9.338  0.1350E+01  0.5174E+02
      9.422  0.1010E+01  0.5184E+02
      9.506  0.1126E+01  0.5194E+02
      9.590  0.1134E+01  0.5204E+02
      9.674  0.1030E+01  0.5213E+02
      9.757  0.1316E+01  0.5224E+02
      9.841  0.1263E+01  0.5236E+02
      9.925  0.1181E+01  0.5246E+02
     10.009  0.1388E+01  0.5259E+02
     10.093  0.1303E+01  0.5270E+02
     10.177  0.1522E+01  0.5284E+02
     10.261  0.1278E+01  0.5296E+02
     10.345  0.1359E+01  0.5308E+02
     10.429  0.1362E+01  0.5320E+02
     10.513  0.1609E+01  0.5334E+02
     10.597  0.1243E+01  0.5346E+02
     10.681  0.1444E+01  0.5358E+02
     10.765  0.1186E+01  0.5369E+02
     10.848  0.1545E+01  0.5383E+02
     10.932  0.1591E+01  0.5397E+02
     11.016  0.1503E+01  0.5411E+02
     11.100  0.1185E+01  0.5421E+02
     11.184  0.1259E+01  0.5433E+02
     11.268  0.1378E+01  0.5445E+02
     11.352  0.1905E+01  0.5462E+02
     11.436  0.1318E+01  0.5474E+02
     11.520  0.1224E+01  0.5485E+02
     11.604  0.1287E+01  0.5497E+02
     11.688  0.1538E+01  0.5511E+02
     11.772  0.1412E+01  0.5524E+02
     11.855  0.1549E+01  0.5538E+02
     11.939  0.1324E+01  0.5550E+02
     12.023  0.1344E+01  0.5562E+02
     12.107  0.1441E+01  0.5575E+02
     12.191  0.1515E+01  0.5589E+02
     12.275  0.1981E+01  0.5606E+02
     12.359  0.1409E+01  0.5619E+02
     12.443  0.1541E+01  0.5633E+02
     12.527  0.1613E+01  0.5647E+02
     12.611  0.1861E+01  0.5664E+02
     12.695  0.1870E+01  0.5680E+02
     12.779  0.1848E+01  0.5697E+02
     12.862  0.1648E+01  0.5712E+02
     12.946  0.1990E+01  0.5729E+02
     13.030  0.1888E+01  0.5746E+02
     13.114  0.1754E+01  0.5762E+02
     13.198  0.2188E+01  0.5782E+02
     13.282  0.2243E+01  0.5801E+02
     13.366  0.1694E+01  0.5817E+02
     13.450  0.2145E+01  0.5836E+02
     13.534  0.1855E+01  0.5853E+02
     13.618  0.2248E+01  0.5873E+02
     13.702  0.1982E+01  0.5890E+02
     13.786  0.1897E+01  0.5907E+02
     13.870  0.1910E+01  0.5924E+02
     13.953  0.1977E+01  0.5942E+02
     14.037  0.1762E+01  0.5958E+02
     14.121  0.2002E+01  0.5976E+02
     14.205  0.1952E+01  0.5993E+02
     14.289  0.1618E+01  0.6008E+02
     14.373  0.2108E+01  0.6027E+02
     14.457  0.1545E+01  0.6040E+02
     14.541  0.1611E+01  0.6055E+02
     14.625  0.2428E+01  0.6076E+02
     14.709  0.1607E+01  0.6090E+02
     14.793  0.1410E+01  0.6103E+02
     14.877  0.2236E+01  0.6122E+02
     14.960  0.1357E+01  0.6135E+02
     15.044  0.1714E+01  0.6150E+02
     15.128  0.1685E+01  0.6165E+02
     15.212  0.1572E+01  0.6179E+02
     15.296  0.1237E+01  0.6190E+02
     15.380  0.1379E+01  0.6203E+02
     15.464  0.1283E+01  0.6214E+02
     15.548  0.9925E+00  0.6223E+02
     15.632  0.1239E+01  0.6235E+02
     15.716  0.9596E+00  0.6243E+02
     15.800  0.8415E+00  0.6251E+02
     15.884  0.1111E+01  0.6261E+02
     15.968  0.8191E+00  0.6268E+02
     16.051  0.9540E+00  0.6277E+02
     16.135  0.9133E+00  0.6285E+02
     16.219  0.5602E+00  0.6290E+02
     16.303  0.8466E+00  0.6298E+02
     16.387  0.7320E+00  0.6305E+02
     16.471  0.4648E+00  0.6310E+02
     16.555  0.7498E+00  0.6316E+02
     16.639  0.5179E+00  0.6321E+02
     16.723  0.5479E+00  0.6326E+02
     16.807  0.7702E+00  0.6332E+02
     16.891  0.4467E+00  0.6336E+02
     16.975  0.5281E+00  0.6341E+02
     17.058  0.5052E+00  0.6346E+02
     17.142  0.3255E+00  0.6349E+02
     17.226  0.6054E+00  0.6354E+02
     17.310  0.3533E+00  0.6357E+02
     17.394  0.4333E+00  0.6361E+02
     17.478  0.4366E+00  0.6365E+02
     17.562  0.3688E+00  0.6368E+02
     17.646  0.3482E+00  0.6371E+02
     17.730  0.3640E+00  0.6374E+02
     17.814  0.3785E+00  0.6378E+02
     17.898  0.3915E+00  0.6381E+02
     17.982  0.3907E+00  0.6384E+02
     18.066  0.3950E+00  0.6388E+02
     18.149  0.8300E+00  0.6395E+02
     18.233  0.4028E+00  0.6399E+02
     18.317  0.1126E+00  0.6400E+02
     18.401  0.3633E-01  0.6400E+02
     18.485  0.4086E-02  0.6400E+02
     18.569  0.0000E+00  0.6400E+02
     18.653  0.0000E+00  0.6400E+02
     18.737  0.0000E+00  0.6400E+02
     18.821  0.0000E+00  0.6400E+02
     18.905  0.0000E+00  0.6400E+02
     18.989  0.0000E+00  0.6400E+02
     19.073  0.0000E+00  0.6400E+02
     19.156  0.0000E+00  0.6400E+02
     19.240  0.0000E+00  0.6400E+02
     19.324  0.0000E+00  0.6400E+02
     19.408  0.0000E+00  0.6400E+02
     19.492  0.0000E+00  0.6400E+02
     19.576  0.0000E+00  0.6400E+02
