    4    4    1    1
  0.2044228E+02  0.4340400E-09  0.4340400E-09  0.4340400E-09  0.5000000E-15
  1.000000000000000E-004
  CAR 
 unknown system                          
   44 1330   32
 
  0.0000000E+00  0.0000000E+00  0.0000000E+00  0.2143347E-04
   1       -4.4554
   2       -1.9778
   3       -1.9778
   4       -1.9778
   5       -1.7584
   6       -1.7584
   7       -1.7584
   8       -0.2478
   9       -0.2478
  10       -0.2478
  11        0.8491
  12        0.8491
  13        1.6833
  14        1.6833
  15        1.6833
  16        1.9493
  17        1.9493
  18        1.9493
  19        1.9493
  20        1.9493
  21        1.9493
  22        5.1352
  23        5.1352
  24        5.1352
  25        8.1178
  26        8.1178
  27        8.1178
  28       13.2209
  29       13.2209
  30       13.2209
  31       13.2209
  32       13.2209
 
  0.2777778E-01  0.0000000E+00  0.0000000E+00  0.1286008E-03
   1       -4.4478
   2       -1.9755
   3       -1.9730
   4       -1.9730
   5       -1.7559
   6       -1.7546
   7       -1.7546
   8       -0.2511
   9       -0.2447
  10       -0.2447
  11        0.8456
  12        0.8506
  13        1.6784
  14        1.6784
  15        1.6816
  16        1.9288
  17        1.9288
  18        1.9432
  19        1.9432
  20        1.9493
  21        1.9493
  22        5.0484
  23        5.1616
  24        5.1616
  25        8.1129
  26        8.1129
  27        8.2183
  28       13.2034
  29       13.2035
  30       13.2049
  31       13.2050
  32       13.2356
 
  0.5555556E-01  0.0000000E+00  0.0000000E+00  0.1286008E-03
   1       -4.4247
   2       -1.9685
   3       -1.9588
   4       -1.9588
   5       -1.7484
   6       -1.7432
   7       -1.7432
   8       -0.2610
   9       -0.2355
  10       -0.2355
  11        0.8352
  12        0.8550
  13        1.6639
  14        1.6639
  15        1.6765
  16        1.8695
  17        1.8695
  18        1.9252
  19        1.9252
  20        1.9493
  21        1.9493
  22        4.8170
  23        5.2388
  24        5.2388
  25        8.0984
  26        8.0984
  27        8.4909
  28       13.1515
  29       13.1515
  30       13.1587
  31       13.1587
  32       13.2795
 
  0.8333333E-01  0.0000000E+00  0.0000000E+00  0.1286008E-03
   1       -4.3863
   2       -1.9571
   3       -1.9352
   4       -1.9352
   5       -1.7358
   6       -1.7241
   7       -1.7241
   8       -0.2775
   9       -0.2203
  10       -0.2203
  11        0.8180
  12        0.8624
  13        1.6398
  14        1.6398
  15        1.6680
  16        1.7765
  17        1.7765
  18        1.8955
  19        1.8955
  20        1.9493
  21        1.9493
  22        4.4955
  23        5.3614
  24        5.3614
  25        8.0746
  26        8.0746
  27        8.8811
  28       13.0662
  29       13.0662
  30       13.0868
  31       13.0868
  32       13.3523
 
  0.1111111E+00  0.0000000E+00  0.0000000E+00  0.1286008E-03
   1       -4.3328
   2       -1.9419
   3       -1.9026
   4       -1.9026
   5       -1.7184
   6       -1.6974
   7       -1.6974
   8       -0.3002
   9       -0.1989
  10       -0.1989
  11        0.7943
  12        0.8727
  13        1.6063
  14        1.6063
  15        1.6564
  16        1.6568
  17        1.6568
  18        1.8548
  19        1.8548
  20        1.9494
  21        1.9494
  22        4.1274
  23        5.5225
  24        5.5225
  25        8.0425
  26        8.0425
  27        9.3460
  28       12.9495
  29       12.9495
  30       12.9956
  31       12.9956
  32       13.4532
 
  0.1388889E+00  0.0000000E+00  0.0000000E+00  0.1286008E-03
   1       -4.2644
   2       -1.9234
   3       -1.8613
   4       -1.8613
   5       -1.6962
   6       -1.6631
   7       -1.6631
   8       -0.3290
   9       -0.1716
  10       -0.1716
  11        0.7645
  12        0.8858
  13        1.5173
  14        1.5173
  15        1.5639
  16        1.5639
  17        1.6415
  18        1.8038
  19        1.8038
  20        1.9495
  21        1.9495
  22        3.7388
  23        5.7152
  24        5.7152
  25        8.0030
  26        8.0030
  27        9.8596
  28       12.8038
  29       12.8038
  30       12.8920
  31       12.8920
  32       13.5814
 
  0.1666667E+00  0.0000000E+00  0.0000000E+00  0.1286008E-03
   1       -4.1812
   2       -1.9025
   3       -1.8120
   4       -1.8120
   5       -1.6692
   6       -1.6212
   7       -1.6212
   8       -0.3635
   9       -0.1383
  10       -0.1383
  11        0.7290
  12        0.9016
  13        1.3639
  14        1.3639
  15        1.5129
  16        1.5129
  17        1.6237
  18        1.7434
  19        1.7434
  20        1.9496
  21        1.9496
  22        3.3450
  23        5.9331
  24        5.9331
  25        7.9574
  26        7.9574
  27       10.4077
  28       12.6318
  29       12.6318
  30       12.7823
  31       12.7823
  32       13.7358
 
  0.1944444E+00  0.0000000E+00  0.0000000E+00  0.1286008E-03
   1       -4.0836
   2       -1.8806
   3       -1.7553
   4       -1.7553
   5       -1.6376
   6       -1.5718
   7       -1.5718
   8       -0.4034
   9       -0.0992
  10       -0.0992
  11        0.6885
  12        0.9201
  13        1.2015
  14        1.2015
  15        1.4540
  16        1.4540
  17        1.6030
  18        1.6746
  19        1.6746
  20        1.9497
  21        1.9497
  22        2.9552
  23        6.1714
  24        6.1714
  25        7.9073
  26        7.9073
  27       10.9817
  28       12.4361
  29       12.4361
  30       12.6718
  31       12.6718
  32       13.9152
 
  0.2222222E+00  0.0000000E+00  0.0000000E+00  0.1286008E-03
   1       -3.9721
   2       -1.8591
   3       -1.6921
   4       -1.6921
   5       -1.6017
   6       -1.5148
   7       -1.5148
   8       -0.4482
   9       -0.0544
  10       -0.0544
  11        0.6437
  12        0.9411
  13        1.0338
  14        1.0338
  15        1.3882
  16        1.3882
  17        1.5797
  18        1.5986
  19        1.5986
  20        1.9498
  21        1.9498
  22        2.5757
  23        6.4261
  24        6.4261
  25        7.8544
  26        7.8544
  27       11.5767
  28       12.2197
  29       12.2197
  30       12.5645
  31       12.5645
  32       14.1182
 
  0.2500000E+00  0.0000000E+00  0.0000000E+00  0.1286008E-03
   1       -3.8473
   2       -1.8403
   3       -1.6235
   4       -1.6235
   5       -1.5615
   6       -1.4503
   7       -1.4503
   8       -0.4975
   9       -0.0039
  10       -0.0039
  11        0.5955
  12        0.8637
  13        0.8637
  14        0.9645
  15        1.3164
  16        1.3164
  17        1.5164
  18        1.5164
  19        1.5539
  20        1.9499
  21        1.9499
  22        2.2114
  23        6.6940
  24        6.6940
  25        7.8003
  26        7.8003
  27       11.9850
  28       11.9850
  29       12.1893
  30       12.4636
  31       12.4636
  32       14.3435
 
  0.2777778E+00  0.0000000E+00  0.0000000E+00  0.1286008E-03
   1       -3.7099
   2       -1.8268
   3       -1.5510
   4       -1.5510
   5       -1.5173
   6       -1.3783
   7       -1.3783
   8       -0.5508
   9        0.0521
  10        0.0521
  11        0.5452
  12        0.6933
  13        0.6933
  14        0.9902
  15        1.2403
  16        1.2403
  17        1.4292
  18        1.4292
  19        1.5258
  20        1.8668
  21        1.9500
  22        1.9500
  23        6.9726
  24        6.9726
  25        7.7467
  26        7.7467
  27       11.7345
  28       11.7345
  29       12.3710
  30       12.3710
  31       12.8173
  32       14.5895
 
  0.3055556E+00  0.0000000E+00  0.0000000E+00  0.1286008E-03
   1       -3.5607
   2       -1.8220
   3       -1.4762
   4       -1.4762
   5       -1.4694
   6       -1.2988
   7       -1.2988
   8       -0.6075
   9        0.1133
  10        0.1133
  11        0.4941
  12        0.5243
  13        0.5243
  14        1.0179
  15        1.1616
  16        1.1616
  17        1.3379
  18        1.3379
  19        1.4957
  20        1.5463
  21        1.9501
  22        1.9501
  23        7.2600
  24        7.2600
  25        7.6953
  26        7.6953
  27       11.4706
  28       11.4706
  29       12.2881
  30       12.2881
  31       13.4591
  32       14.8548
 
  0.3333333E+00  0.0000000E+00  0.0000000E+00  0.1286008E-03
   1       -3.4011
   2       -1.8301
   3       -1.4180
   4       -1.4013
   5       -1.4013
   6       -1.2120
   7       -1.2120
   8       -0.6671
   9        0.1797
  10        0.1797
  11        0.3580
  12        0.3580
  13        0.4438
  14        1.0475
  15        1.0826
  16        1.0826
  17        1.2438
  18        1.2438
  19        1.2547
  20        1.4640
  21        1.9502
  22        1.9502
  23        7.5544
  24        7.5544
  25        7.6477
  26        7.6477
  27       11.1953
  28       11.1953
  29       12.2158
  30       12.2158
  31       14.1133
  32       15.1377
 
  0.3611111E+00  0.0000000E+00  0.0000000E+00  0.1286008E-03
   1       -3.2327
   2       -1.8558
   3       -1.3635
   4       -1.3289
   5       -1.3289
   6       -1.1179
   7       -1.1179
   8       -0.7291
   9        0.1954
  10        0.1954
  11        0.2509
  12        0.2509
  13        0.3967
  14        0.9970
  15        1.0062
  16        1.0062
  17        1.0787
  18        1.1478
  19        1.1478
  20        1.4307
  21        1.9502
  22        1.9502
  23        7.6051
  24        7.6051
  25        7.8545
  26        7.8545
  27       10.9104
  28       10.9104
  29       12.1545
  30       12.1545
  31       14.7789
  32       15.4368
 
  0.3888889E+00  0.0000000E+00  0.0000000E+00  0.1286008E-03
   1       -3.0575
   2       -1.9038
   3       -1.3060
   4       -1.2620
   5       -1.2620
   6       -1.0165
   7       -1.0165
   8       -0.7929
   9        0.0371
  10        0.0371
  11        0.3267
  12        0.3267
  13        0.3551
  14        0.7781
  15        0.9356
  16        0.9356
  17        1.0508
  18        1.0508
  19        1.1114
  20        1.3963
  21        1.9503
  22        1.9503
  23        7.5686
  24        7.5686
  25        8.1590
  26        8.1590
  27       10.6178
  28       10.6178
  29       12.1043
  30       12.1043
  31       15.4546
  32       15.7505
 
  0.4166667E+00  0.0000000E+00  0.0000000E+00  0.1286008E-03
   1       -2.8783
   2       -1.9780
   3       -1.2461
   4       -1.2042
   5       -1.2042
   6       -0.9080
   7       -0.9080
   8       -0.8580
   9       -0.1161
  10       -0.1161
  11        0.3224
  12        0.4068
  13        0.4068
  14        0.6016
  15        0.8747
  16        0.8747
  17        0.9537
  18        0.9537
  19        1.1454
  20        1.3609
  21        1.9504
  22        1.9504
  23        7.5393
  24        7.5393
  25        8.4666
  26        8.4666
  27       10.3188
  28       10.3188
  29       12.0653
  30       12.0653
  31       16.0771
  32       16.0777
 
  0.4444444E+00  0.0000000E+00  0.0000000E+00  0.1286008E-03
   1       -2.6987
   2       -2.0799
   3       -1.1841
   4       -1.1592
   5       -1.1592
   6       -0.9238
   7       -0.7925
   8       -0.7925
   9       -0.2638
  10       -0.2638
  11        0.3028
  12        0.4688
  13        0.4908
  14        0.4908
  15        0.8273
  16        0.8273
  17        0.8572
  18        0.8572
  19        1.1804
  20        1.3249
  21        1.9504
  22        1.9504
  23        7.5179
  24        7.5179
  25        8.7764
  26        8.7764
  27       10.0150
  28       10.0150
  29       12.0376
  30       12.0376
  31       16.4150
  32       16.4150
 
  0.4722222E+00  0.0000000E+00  0.0000000E+00  0.1286008E-03
   1       -2.5233
   2       -2.2078
   3       -1.1305
   4       -1.1305
   5       -1.1205
   6       -0.9898
   7       -0.6702
   8       -0.6702
   9       -0.4055
  10       -0.4055
  11        0.3014
  12        0.3779
  13        0.5783
  14        0.5783
  15        0.7620
  16        0.7620
  17        0.7970
  18        0.7970
  19        1.2160
  20        1.2886
  21        1.9504
  22        1.9504
  23        7.5049
  24        7.5049
  25        9.0873
  26        9.0873
  27        9.7077
  28        9.7077
  29       12.0209
  30       12.0209
  31       16.7624
  32       16.7624
 
  0.5000000E+00  0.0000000E+00  0.0000000E+00  0.6430041E-04
   1       -2.3576
   2       -2.3576
   3       -1.1206
   4       -1.1206
   5       -1.0555
   6       -1.0555
   7       -0.5411
   8       -0.5411
   9       -0.5411
  10       -0.5411
  11        0.3242
  12        0.3242
  13        0.6689
  14        0.6689
  15        0.6689
  16        0.6689
  17        0.7866
  18        0.7866
  19        1.2522
  20        1.2522
  21        1.9504
  22        1.9504
  23        7.5005
  24        7.5005
  25        9.3981
  26        9.3981
  27        9.3981
  28        9.3981
  29       12.0154
  30       12.0154
  31       17.1176
  32       17.1176
 
  0.2777778E-01  0.2777778E-01  0.0000000E+00  0.2572016E-03
   1       -4.4401
   2       -1.9707
   3       -1.9707
   4       -1.9684
   5       -1.7521
   6       -1.7521
   7       -1.7507
   8       -0.2525
   9       -0.2435
  10       -0.2417
  11        0.8446
  12        0.8496
  13        1.6736
  14        1.6765
  15        1.6765
  16        1.9127
  17        1.9228
  18        1.9228
  19        1.9432
  20        1.9432
  21        1.9452
  22        5.0745
  23        5.0745
  24        5.1877
  25        8.1079
  26        8.2137
  27        8.2137
  28       13.1277
  29       13.2181
  30       13.2181
  31       13.2196
  32       13.2196
 
  0.5555556E-01  0.2777778E-01  0.0000000E+00  0.5144033E-03
   1       -4.4170
   2       -1.9637
   3       -1.9564
   4       -1.9543
   5       -1.7446
   6       -1.7407
   7       -1.7391
   8       -0.2614
   9       -0.2353
  10       -0.2326
  11        0.8352
  12        0.8532
  13        1.6591
  14        1.6613
  15        1.6708
  16        1.8563
  17        1.8638
  18        1.9049
  19        1.9252
  20        1.9431
  21        1.9432
  22        4.8425
  23        5.1506
  24        5.2641
  25        8.0932
  26        8.2002
  27        8.4869
  28       13.0231
  29       13.1661
  30       13.1734
  31       13.2596
  32       13.2623
 
  0.8333333E-01  0.2777778E-01  0.0000000E+00  0.5144033E-03
   1       -4.3787
   2       -1.9523
   3       -1.9328
   4       -1.9311
   5       -1.7321
   6       -1.7216
   7       -1.7198
   8       -0.2776
   9       -0.2203
  10       -0.2174
  11        0.8183
  12        0.8605
  13        1.6351
  14        1.6352
  15        1.6613
  16        1.7650
  17        1.7725
  18        1.8757
  19        1.8955
  20        1.9426
  21        1.9433
  22        4.5210
  23        5.2712
  24        5.3856
  25        8.0690
  26        8.1783
  27        8.8773
  28       12.8949
  29       13.0807
  30       13.1016
  31       13.2369
  32       13.3346
 
  0.1111111E+00  0.2777778E-01  0.0000000E+00  0.5144033E-03
   1       -4.3253
   2       -1.9370
   3       -1.9001
   4       -1.8991
   5       -1.7147
   6       -1.6950
   7       -1.6927
   8       -0.3002
   9       -0.1990
  10       -0.1963
  11        0.7947
  12        0.8709
  13        1.5926
  14        1.6019
  15        1.6469
  16        1.6478
  17        1.6616
  18        1.8357
  19        1.8548
  20        1.9424
  21        1.9433
  22        4.1536
  23        5.4290
  24        5.5455
  25        8.0363
  26        8.1491
  27        9.3417
  28       12.7479
  29       12.9638
  30       13.0107
  31       13.1834
  32       13.4353
 
  0.1388889E+00  0.2777778E-01  0.0000000E+00  0.5144033E-03
   1       -4.2569
   2       -1.9184
   3       -1.8588
   4       -1.8585
   5       -1.6925
   6       -1.6607
   7       -1.6579
   8       -0.3289
   9       -0.1717
  10       -0.1693
  11        0.7651
  12        0.8841
  13        1.4945
  14        1.5087
  15        1.5597
  16        1.5776
  17        1.6298
  18        1.7863
  19        1.8038
  20        1.9424
  21        1.9434
  22        3.7665
  23        5.6166
  24        5.7368
  25        7.9961
  26        8.1139
  27        9.8543
  28       12.5857
  29       12.8179
  30       12.9076
  31       13.1035
  32       13.5635
 
  0.1666667E+00  0.2777778E-01  0.0000000E+00  0.5144033E-03
   1       -4.1738
   2       -1.8975
   3       -1.8101
   4       -1.8094
   5       -1.6656
   6       -1.6189
   7       -1.6154
   8       -0.3633
   9       -0.1385
  10       -0.1364
  11        0.7298
  12        0.9002
  13        1.3475
  14        1.3566
  15        1.5090
  16        1.5201
  17        1.6060
  18        1.7294
  19        1.7434
  20        1.9425
  21        1.9434
  22        3.3751
  23        5.8272
  24        5.9536
  25        7.9497
  26        8.0745
  27       10.4006
  28       12.4110
  29       12.6456
  30       12.7985
  31       13.0034
  32       13.7172
 
  0.1944444E+00  0.2777778E-01  0.0000000E+00  0.5144033E-03
   1       -4.0763
   2       -1.8755
   3       -1.7543
   4       -1.7527
   5       -1.6341
   6       -1.5695
   7       -1.5653
   8       -0.4030
   9       -0.0994
  10       -0.0977
  11        0.6895
  12        0.9189
  13        1.1869
  14        1.1953
  15        1.4505
  16        1.4596
  17        1.5725
  18        1.6700
  19        1.6746
  20        1.9426
  21        1.9435
  22        2.9889
  23        6.0549
  24        6.1908
  25        7.8986
  26        8.0333
  27       10.9722
  28       12.2245
  29       12.4498
  30       12.6890
  31       12.8898
  32       13.8963
 
  0.2222222E+00  0.2777778E-01  0.0000000E+00  0.5144033E-03
   1       -3.9650
   2       -1.8540
   3       -1.6922
   4       -1.6894
   5       -1.5982
   6       -1.5126
   7       -1.5076
   8       -0.4477
   9       -0.0545
  10       -0.0535
  11        0.6452
  12        0.9402
  13        1.0201
  14        1.0287
  15        1.3850
  16        1.3931
  17        1.5209
  18        1.5985
  19        1.6168
  20        1.9427
  21        1.9436
  22        2.6150
  23        6.2942
  24        6.4445
  25        7.8443
  26        7.9935
  27       11.5637
  28       12.0259
  29       12.2331
  30       12.5830
  31       12.7700
  32       14.0987
 
  0.2500000E+00  0.2777778E-01  0.0000000E+00  0.5144033E-03
   1       -3.8403
   2       -1.8351
   3       -1.6246
   4       -1.6207
   5       -1.5581
   6       -1.4482
   7       -1.4424
   8       -0.4969
   9       -0.0041
  10       -0.0039
  11        0.5976
  12        0.8506
  13        0.8595
  14        0.9640
  15        1.3136
  16        1.3210
  17        1.4462
  18        1.5163
  19        1.5746
  20        1.9428
  21        1.9437
  22        2.2599
  23        6.5393
  24        6.7115
  25        7.7887
  26        7.9598
  27       11.8144
  28       11.9983
  29       12.1716
  30       12.4836
  31       12.6506
  32       14.3234
 
  0.2777778E+00  0.2777778E-01  0.0000000E+00  0.5144033E-03
   1       -3.7030
   2       -1.8215
   3       -1.5529
   4       -1.5480
   5       -1.5141
   6       -1.3763
   7       -1.3700
   8       -0.5500
   9        0.0508
  10        0.0519
  11        0.5483
  12        0.6809
  13        0.6899
  14        0.9900
  15        1.2378
  16        1.2448
  17        1.3519
  18        1.4290
  19        1.5375
  20        1.9316
  21        1.9430
  22        1.9437
  23        6.7820
  24        6.9894
  25        7.7334
  26        7.9392
  27       11.5892
  28       11.7477
  29       12.3929
  30       12.5371
  31       12.7929
  32       14.5686
 
  0.3055556E+00  0.2777778E-01  0.0000000E+00  0.5144033E-03
   1       -3.5540
   2       -1.8166
   3       -1.4786
   4       -1.4731
   5       -1.4663
   6       -1.2970
   7       -1.2907
   8       -0.6065
   9        0.1101
  10        0.1131
  11        0.4988
  12        0.5126
  13        0.5216
  14        1.0181
  15        1.1595
  16        1.1659
  17        1.2365
  18        1.3378
  19        1.4968
  20        1.6463
  21        1.9431
  22        1.9438
  23        7.0093
  24        7.2761
  25        7.6799
  26        7.9446
  27       11.3502
  28       11.4837
  29       12.3122
  30       12.4333
  31       13.4244
  32       14.8332
 
  0.3333333E+00  0.2777778E-01  0.0000000E+00  0.5144033E-03
   1       -3.3946
   2       -1.8246
   3       -1.4150
   4       -1.4037
   5       -1.3981
   6       -1.2104
   7       -1.2045
   8       -0.6660
   9        0.1727
  10        0.1795
  11        0.3470
  12        0.3559
  13        0.4520
  14        1.0482
  15        1.0810
  16        1.0869
  17        1.0884
  18        1.2437
  19        1.3857
  20        1.4883
  21        1.9432
  22        1.9438
  23        7.1987
  24        7.5699
  25        7.6298
  26        7.9983
  27       11.0982
  28       11.2083
  29       12.2425
  30       12.3416
  31       14.0614
  32       15.1148
 
  0.3611111E+00  0.2777778E-01  0.0000000E+00  0.5144033E-03
   1       -3.2264
   2       -1.8503
   3       -1.3605
   4       -1.3307
   5       -1.3255
   6       -1.1164
   7       -1.1116
   8       -0.7278
   9        0.1852
  10        0.1938
  11        0.2351
  12        0.2507
  13        0.4132
  14        0.9068
  15        1.0050
  16        1.0102
  17        1.0799
  18        1.1476
  19        1.2253
  20        1.4437
  21        1.9434
  22        1.9439
  23        7.3261
  24        7.5843
  25        7.8695
  26        8.1244
  27       10.8345
  28       10.9234
  29       12.1842
  30       12.2631
  31       14.6939
  32       15.4126
 
  0.3888889E+00  0.2777778E-01  0.0000000E+00  0.5144033E-03
   1       -3.0514
   2       -1.8983
   3       -1.3033
   4       -1.2628
   5       -1.2585
   6       -1.0152
   7       -1.0120
   8       -0.7914
   9        0.0279
  10        0.0360
  11        0.2821
  12        0.3265
  13        0.3999
  14        0.7222
  15        0.9349
  16        0.9394
  17        1.0506
  18        1.0976
  19        1.1132
  20        1.4059
  21        1.9435
  22        1.9439
  23        7.3916
  24        7.5444
  25        8.1735
  26        8.3224
  27       10.5611
  28       10.6307
  29       12.1376
  30       12.1982
  31       15.2942
  32       15.7248
 
  0.4166667E+00  0.2777778E-01  0.0000000E+00  0.5144033E-03
   1       -2.8724
   2       -1.9725
   3       -1.2435
   4       -1.2038
   5       -1.2005
   6       -0.9069
   7       -0.9056
   8       -0.8563
   9       -0.1243
  10       -0.1167
  11        0.2882
  12        0.4065
  13        0.4406
  14        0.5625
  15        0.8744
  16        0.8780
  17        0.9535
  18        0.9859
  19        1.1477
  20        1.3687
  21        1.9436
  22        1.9439
  23        7.4196
  24        7.5108
  25        8.4809
  26        8.5677
  27       10.2799
  28       10.3319
  29       12.1027
  30       12.1467
  31       15.8063
  32       16.0496
 
  0.4444444E+00  0.2777778E-01  0.0000000E+00  0.5144033E-03
   1       -2.6930
   2       -2.0744
   3       -1.1817
   4       -1.1576
   5       -1.1555
   6       -0.9220
   7       -0.7924
   8       -0.7916
   9       -0.2707
  10       -0.2640
  11        0.2789
  12        0.4389
  13        0.4905
  14        0.5137
  15        0.8276
  16        0.8301
  17        0.8570
  18        0.8819
  19        1.1833
  20        1.3314
  21        1.9437
  22        1.9439
  23        7.4317
  24        7.4839
  25        8.7903
  26        8.8383
  27        9.9930
  28       10.0282
  29       12.0797
  30       12.1083
  31       16.2222
  32       16.3853
 
  0.4722222E+00  0.2777778E-01  0.0000000E+00  0.5144033E-03
   1       -2.5177
   2       -2.2023
   3       -1.1279
   4       -1.1269
   5       -1.1181
   6       -0.9878
   7       -0.6721
   8       -0.6695
   9       -0.4111
  10       -0.4055
  11        0.2800
  12        0.3532
  13        0.5781
  14        0.5979
  15        0.7618
  16        0.7828
  17        0.7979
  18        0.7993
  19        1.2197
  20        1.2940
  21        1.9438
  22        1.9439
  23        7.4397
  24        7.4636
  25        9.1009
  26        9.1217
  27        9.7026
  28        9.7210
  29       12.0686
  30       12.0827
  31       16.5958
  32       16.7301
 
  0.5000000E+00  0.2777778E-01  0.0000000E+00  0.2572016E-03
   1       -2.3521
   2       -2.3521
   3       -1.1173
   4       -1.1173
   5       -1.0534
   6       -1.0534
   7       -0.5449
   8       -0.5449
   9       -0.5407
  10       -0.5407
  11        0.3023
  12        0.3023
  13        0.6686
  14        0.6686
  15        0.6881
  16        0.6881
  17        0.7882
  18        0.7882
  19        1.2567
  20        1.2567
  21        1.9438
  22        1.9438
  23        7.4493
  24        7.4493
  25        9.4112
  26        9.4112
  27        9.4115
  28        9.4115
  29       12.0695
  30       12.0695
  31       16.9559
  32       17.0423
 
  0.5555556E-01  0.5555556E-01  0.0000000E+00  0.2572016E-03
   1       -4.3941
   2       -1.9494
   3       -1.9494
   4       -1.9410
   5       -1.7332
   6       -1.7332
   7       -1.7270
   8       -0.2665
   9       -0.2309
  10       -0.2237
  11        0.8314
  12        0.8515
  13        1.6449
  14        1.6534
  15        1.6534
  16        1.8099
  17        1.8472
  18        1.8472
  19        1.9252
  20        1.9252
  21        1.9332
  22        4.9169
  23        4.9169
  24        5.3383
  25        8.0777
  26        8.4752
  27        8.4752
  28       12.8692
  29       13.2096
  30       13.2096
  31       13.2175
  32       13.2175
 
  0.8333333E-01  0.5555556E-01  0.0000000E+00  0.5144033E-03
   1       -4.3559
   2       -1.9379
   3       -1.9257
   4       -1.9190
   5       -1.7208
   6       -1.7142
   7       -1.7068
   8       -0.2800
   9       -0.2183
  10       -0.2090
  11        0.8174
  12        0.8564
  13        1.6209
  14        1.6214
  15        1.6396
  16        1.7270
  17        1.7610
  18        1.8203
  19        1.8955
  20        1.9252
  21        1.9275
  22        4.5949
  23        5.0340
  24        5.4568
  25        8.0524
  26        8.4564
  27        8.8661
  28       12.6990
  29       13.1238
  30       13.1462
  31       13.2818
  32       13.2907
 
  0.1111111E+00  0.5555556E-01  0.0000000E+00  0.5144033E-03
   1       -4.3026
   2       -1.9225
   3       -1.8929
   4       -1.8885
   5       -1.7035
   6       -1.6877
   7       -1.6786
   8       -0.3013
   9       -0.1982
  10       -0.1885
  11        0.7951
  12        0.8663
  13        1.5599
  14        1.5888
  15        1.6150
  16        1.6189
  17        1.6675
  18        1.7848
  19        1.8547
  20        1.9248
  21        1.9252
  22        4.2289
  23        5.1858
  24        5.6131
  25        8.0181
  26        8.4317
  27        9.3291
  28       12.5174
  29       13.0065
  30       13.0561
  31       13.3714
  32       13.3819
 
  0.1388889E+00  0.5555556E-01  0.0000000E+00  0.5144033E-03
   1       -4.2344
   2       -1.9038
   3       -1.8514
   4       -1.8500
   5       -1.6814
   6       -1.6536
   7       -1.6423
   8       -0.3292
   9       -0.1714
  10       -0.1623
  11        0.7662
  12        0.8798
  13        1.4493
  14        1.4819
  15        1.5473
  16        1.5890
  17        1.5952
  18        1.7433
  19        1.8037
  20        1.9235
  21        1.9252
  22        3.8454
  23        5.3644
  24        5.8008
  25        7.9758
  26        8.4029
  27        9.8384
  28       12.3285
  29       12.8600
  30       12.9543
  31       13.3401
  32       13.5090
 
  0.1666667E+00  0.5555556E-01  0.0000000E+00  0.5144033E-03
   1       -4.1516
   2       -1.8827
   3       -1.8040
   4       -1.8019
   5       -1.6547
   6       -1.6120
   7       -1.5982
   8       -0.3630
   9       -0.1385
  10       -0.1305
  11        0.7317
  12        0.8963
  13        1.3053
  14        1.3341
  15        1.4975
  16        1.5347
  17        1.5464
  18        1.6996
  19        1.7432
  20        1.9228
  21        1.9252
  22        3.4597
  23        5.5624
  24        6.0141
  25        7.9266
  26        8.3722
  27       10.3795
  28       12.1348
  29       12.6871
  30       12.8474
  31       13.2793
  32       13.6620
 
  0.1944444E+00  0.5555556E-01  0.0000000E+00  0.5144033E-03
   1       -4.0545
   2       -1.8605
   3       -1.7510
   4       -1.7448
   5       -1.6234
   6       -1.5628
   7       -1.5462
   8       -0.4023
   9       -0.0995
  10       -0.0933
  11        0.6924
  12        0.9158
  13        1.1468
  14        1.1765
  15        1.4399
  16        1.4724
  17        1.4879
  18        1.6573
  19        1.6744
  20        1.9225
  21        1.9252
  22        3.0819
  23        5.7735
  24        6.2481
  25        7.8722
  26        8.3426
  27       10.9436
  28       11.9379
  29       12.4907
  30       12.7408
  31       13.1947
  32       13.8396
 
  0.2222222E+00  0.5555556E-01  0.0000000E+00  0.5144033E-03
   1       -3.9435
   2       -1.8387
   3       -1.6916
   4       -1.6813
   5       -1.5878
   6       -1.5062
   7       -1.4867
   8       -0.4464
   9       -0.0548
  10       -0.0509
  11        0.6493
  12        0.9380
  13        0.9815
  14        1.0130
  15        1.3754
  16        1.4052
  17        1.4119
  18        1.5983
  19        1.6173
  20        1.9224
  21        1.9252
  22        2.7199
  23        5.9914
  24        6.4990
  25        7.8141
  26        8.3178
  27       11.5251
  28       11.7381
  29       12.2735
  30       12.6386
  31       13.0925
  32       14.0406
 
  0.2500000E+00  0.5555556E-01  0.0000000E+00  0.5144033E-03
   1       -3.8193
   2       -1.8195
   3       -1.6267
   4       -1.6123
   5       -1.5480
   6       -1.4421
   7       -1.4201
   8       -0.4951
   9       -0.0044
  10       -0.0038
  11        0.6035