   4   4   0   0
  0.1202155E+02  0.3636416E-09  0.3636416E-09  0.3636416E-09  0.5000000E-15
  1.000000000000000E-004
  CAR 
 unknown system                          
     14.20312701     -6.51481211  301      3.68033253      1.00000000
     -6.515  0.0000E+00  0.0000E+00
     -6.446  0.0000E+00  0.0000E+00
     -6.377  0.0000E+00  0.0000E+00
     -6.308  0.0000E+00  0.0000E+00
     -6.239  0.0000E+00  0.0000E+00
     -6.170  0.0000E+00  0.0000E+00
     -6.100  0.0000E+00  0.0000E+00
     -6.031  0.0000E+00  0.0000E+00
     -5.962  0.0000E+00  0.0000E+00
     -5.893  0.0000E+00  0.0000E+00
     -5.824  0.0000E+00  0.0000E+00
     -5.755  0.0000E+00  0.0000E+00
     -5.686  0.0000E+00  0.0000E+00
     -5.617  0.4299E-11  0.2969E-12
     -5.548  0.1676E-01  0.1157E-02
     -5.479  0.9410E-01  0.7656E-02
     -5.410  0.7123E-01  0.1258E-01
     -5.341  0.1375E+00  0.2207E-01
     -5.272  0.1330E+00  0.3125E-01
     -5.203  0.1006E+00  0.3819E-01
     -5.134  0.4022E+00  0.6597E-01
     -5.065  0.3890E+00  0.9284E-01
     -4.995  0.0000E+00  0.9375E-01
     -4.926  0.1060E-01  0.9448E-01
     -4.857  0.1908E+00  0.1077E+00
     -4.788  0.5025E+00  0.1424E+00
     -4.719  0.4022E+00  0.1701E+00
     -4.650  0.4020E+00  0.1979E+00
     -4.581  0.1320E+00  0.2070E+00
     -4.512  0.2632E+00  0.2253E+00
     -4.443  0.3057E+00  0.2465E+00
     -4.374  0.6378E+00  0.2905E+00
     -4.305  0.7431E-05  0.2905E+00
     -4.236  0.1006E+00  0.2975E+00
     -4.167  0.8044E+00  0.3530E+00
     -4.098  0.6033E+00  0.3947E+00
     -4.029  0.4019E+00  0.4224E+00
     -3.960  0.3830E+00  0.4489E+00
     -3.891  0.6779E+00  0.4971E+00
     -3.821  0.4964E+00  0.5313E+00
     -3.752  0.3236E-01  0.5336E+00
     -3.683  0.1189E+00  0.5418E+00
     -3.614  0.2889E+00  0.5617E+00
     -3.545  0.5080E+00  0.5968E+00
     -3.476  0.1263E+01  0.6840E+00
     -3.407  0.4692E+00  0.7164E+00
     -3.338  0.5006E-01  0.7199E+00
     -3.269  0.1157E+01  0.7998E+00
     -3.200  0.8044E+00  0.8553E+00
     -3.131  0.1587E-06  0.8553E+00
     -3.062  0.2018E+00  0.8693E+00
     -2.993  0.1187E+01  0.9513E+00
     -2.924  0.4024E+00  0.9803E+00
     -2.855  0.1129E+01  0.1058E+01
     -2.786  0.1955E+00  0.1072E+01
     -2.717  0.1102E+01  0.1148E+01
     -2.647  0.4900E+00  0.1182E+01
     -2.578  0.4689E+00  0.1214E+01
     -2.509  0.9734E+00  0.1281E+01
     -2.440  0.1685E+01  0.1398E+01
     -2.371  0.6654E-01  0.1404E+01
     -2.302  0.1177E+01  0.1485E+01
     -2.233  0.5315E+00  0.1524E+01
     -2.164  0.8040E+00  0.1580E+01
     -2.095  0.8942E+00  0.1642E+01
     -2.026  0.1212E+01  0.1726E+01
     -1.957  0.5395E+00  0.1763E+01
     -1.888  0.5065E+00  0.1798E+01
     -1.819  0.2876E+01  0.1997E+01
     -1.750  0.1259E+01  0.2083E+01
     -1.681  0.7246E+00  0.2134E+01
     -1.612  0.1536E+01  0.2240E+01
     -1.543  0.1269E+01  0.2327E+01
     -1.473  0.1087E+01  0.2404E+01
     -1.404  0.3305E+01  0.2632E+01
     -1.335  0.2615E+01  0.2813E+01
     -1.266  0.1687E+01  0.2929E+01
     -1.197  0.4621E+01  0.3250E+01
     -1.128  0.2975E+01  0.3455E+01
     -1.059  0.5050E+01  0.3804E+01
     -0.990  0.4389E+01  0.4109E+01
     -0.921  0.5723E+01  0.4505E+01
     -0.852  0.3502E+01  0.4749E+01
     -0.783  0.8175E+01  0.5315E+01
     -0.714  0.2409E+01  0.5485E+01
     -0.645  0.5485E+01  0.5863E+01
     -0.576  0.1137E+02  0.6649E+01
     -0.507  0.6923E+01  0.7128E+01
     -0.438  0.7292E+01  0.7632E+01
     -0.368  0.1131E+02  0.8413E+01
     -0.299  0.9986E+01  0.9106E+01
     -0.230  0.9142E+01  0.9739E+01
     -0.161  0.7778E+01  0.1028E+02
     -0.092  0.8711E+01  0.1089E+02
     -0.023  0.9809E+01  0.1157E+02
      0.046  0.6780E+01  0.1204E+02
      0.115  0.6680E+01  0.1250E+02
      0.184  0.1235E+02  0.1335E+02
      0.253  0.1013E+02  0.1405E+02
      0.322  0.1371E+02  0.1500E+02
      0.391  0.9456E+01  0.1565E+02
      0.460  0.1646E+02  0.1679E+02
      0.529  0.1291E+02  0.1769E+02
      0.598  0.1466E+02  0.1870E+02
      0.667  0.1577E+02  0.1980E+02
      0.736  0.1510E+02  0.2084E+02
      0.806  0.1977E+02  0.2221E+02
      0.875  0.1947E+02  0.2356E+02
      0.944  0.1408E+02  0.2454E+02
      1.013  0.1009E+02  0.2524E+02
      1.082  0.1004E+02  0.2593E+02
      1.151  0.1142E+02  0.2672E+02
      1.220  0.1202E+02  0.2756E+02
      1.289  0.1266E+02  0.2844E+02
      1.358  0.1426E+02  0.2942E+02
      1.427  0.1640E+02  0.3056E+02
      1.496  0.1488E+02  0.3159E+02
      1.565  0.1454E+02  0.3259E+02
      1.634  0.1298E+02  0.3349E+02
      1.703  0.1257E+02  0.3436E+02
      1.772  0.1531E+02  0.3542E+02
      1.841  0.1057E+02  0.3616E+02
      1.910  0.2173E+02  0.3766E+02
      1.980  0.2003E+02  0.3905E+02
      2.049  0.2393E+02  0.4071E+02
      2.118  0.1564E+02  0.4179E+02
      2.187  0.2466E+01  0.4197E+02
      2.256  0.1148E+01  0.4205E+02
      2.325  0.1124E+01  0.4213E+02
      2.394  0.1308E+01  0.4222E+02
      2.463  0.2921E+01  0.4242E+02
      2.532  0.1455E+01  0.4252E+02
      2.601  0.1922E+01  0.4265E+02
      2.670  0.9183E+00  0.4272E+02
      2.739  0.5347E+00  0.4275E+02
      2.808  0.1920E+01  0.4288E+02
      2.877  0.2202E+01  0.4304E+02
      2.946  0.1758E+01  0.4316E+02
      3.015  0.7282E+00  0.4321E+02
      3.084  0.1242E+01  0.4330E+02
      3.154  0.3662E+00  0.4332E+02
      3.223  0.1204E+01  0.4341E+02
      3.292  0.8486E+00  0.4346E+02
      3.361  0.9534E+00  0.4353E+02
      3.430  0.4835E+01  0.4386E+02
      3.499  0.4015E+00  0.4389E+02
      3.568  0.5680E+00  0.4393E+02
      3.637  0.7343E+00  0.4398E+02
      3.706  0.8389E+00  0.4404E+02
      3.775  0.1171E+01  0.4412E+02
      3.844  0.4299E+00  0.4415E+02
      3.913  0.1151E+01  0.4423E+02
      3.982  0.2048E+01  0.4437E+02
      4.051  0.1974E+01  0.4451E+02
      4.120  0.3969E+00  0.4454E+02
      4.189  0.1725E+01  0.4466E+02
      4.259  0.9634E+00  0.4472E+02
      4.328  0.9500E+00  0.4479E+02
      4.397  0.1590E+01  0.4490E+02
      4.466  0.1131E+01  0.4498E+02
      4.535  0.4601E+00  0.4501E+02
      4.604  0.1207E+01  0.4509E+02
      4.673  0.5028E+00  0.4513E+02
      4.742  0.5568E-01  0.4513E+02
      4.811  0.1751E+01  0.4525E+02
      4.880  0.1598E+01  0.4536E+02
      4.949  0.1669E+01  0.4548E+02
      5.018  0.1100E+01  0.4556E+02
      5.087  0.1648E+01  0.4567E+02
      5.156  0.4487E-02  0.4567E+02
      5.225  0.2726E+00  0.4569E+02
      5.294  0.2185E+01  0.4584E+02
      5.363  0.5086E-02  0.4584E+02
      5.433  0.2207E+01  0.4599E+02
      5.502  0.7848E+00  0.4605E+02
      5.571  0.7941E+00  0.4610E+02
      5.640  0.1962E+00  0.4612E+02
      5.709  0.4063E+00  0.4615E+02
      5.778  0.1530E+01  0.4625E+02
      5.847  0.2073E+01  0.4640E+02
      5.916  0.2432E-05  0.4640E+02
      5.985  0.2635E+00  0.4641E+02
      6.054  0.1496E+01  0.4652E+02
      6.123  0.2316E+01  0.4668E+02
      6.192  0.1480E+00  0.4669E+02
      6.261  0.7882E+00  0.4674E+02
      6.330  0.1640E+00  0.4675E+02
      6.399  0.1043E+01  0.4683E+02
      6.468  0.4983E-05  0.4683E+02
      6.537  0.4022E+00  0.4685E+02
      6.607  0.1839E+01  0.4698E+02
      6.676  0.7757E+00  0.4703E+02
      6.745  0.1005E+01  0.4710E+02
      6.814  0.2747E+00  0.4712E+02
      6.883  0.6996E+00  0.4717E+02
      6.952  0.3978E+00  0.4720E+02
      7.021  0.1242E+01  0.4728E+02
      7.090  0.8045E+00  0.4734E+02
      7.159  0.2810E+00  0.4736E+02
      7.228  0.5235E+00  0.4740E+02
      7.297  0.2508E+00  0.4741E+02
      7.366  0.1222E+01  0.4750E+02
      7.435  0.1372E+01  0.4759E+02
      7.504  0.5921E+00  0.4763E+02
      7.573  0.4064E+00  0.4766E+02
      7.642  0.1161E+01  0.4774E+02
      7.712  0.1713E+01  0.4786E+02
      7.781  0.3173E+00  0.4788E+02
      7.850  0.1433E+01  0.4798E+02
      7.919  0.6656E+00  0.4803E+02
      7.988  0.1813E+01  0.4815E+02
      8.057  0.1202E+01  0.4824E+02
      8.126  0.1606E+01  0.4835E+02
      8.195  0.4550E+00  0.4838E+02
      8.264  0.9534E+00  0.4844E+02
      8.333  0.1206E+01  0.4853E+02
      8.402  0.8043E+00  0.4858E+02
      8.471  0.2106E-02  0.4858E+02
      8.540  0.2411E+01  0.4875E+02
      8.609  0.2681E+00  0.4877E+02
      8.678  0.3394E+00  0.4879E+02
      8.747  0.2559E+01  0.4897E+02
      8.816  0.1328E+01  0.4906E+02
      8.886  0.7040E+00  0.4911E+02
      8.955  0.1706E+01  0.4923E+02
      9.024  0.7556E+00  0.4928E+02
      9.093  0.2689E-01  0.4928E+02
      9.162  0.1195E+01  0.4937E+02
      9.231  0.3866E+00  0.4939E+02
      9.300  0.2193E+00  0.4941E+02
      9.369  0.2144E+01  0.4956E+02
      9.438  0.4165E-01  0.4956E+02
      9.507  0.1592E+01  0.4967E+02
      9.576  0.2048E+00  0.4969E+02
      9.645  0.4221E+00  0.4971E+02
      9.714  0.1698E+01  0.4983E+02
      9.783  0.1086E+01  0.4991E+02
      9.852  0.5663E+00  0.4995E+02
      9.921  0.8060E+00  0.5000E+02
      9.990  0.1606E+01  0.5012E+02
     10.060  0.8045E+00  0.5017E+02
     10.129  0.0000E+00  0.5017E+02
     10.198  0.1022E-05  0.5017E+02
     10.267  0.7302E+00  0.5022E+02
     10.336  0.1106E+01  0.5030E+02
     10.405  0.8029E+00  0.5036E+02
     10.474  0.1168E+01  0.5044E+02
     10.543  0.4377E-02  0.5044E+02
     10.612  0.1968E+00  0.5045E+02
     10.681  0.9758E+00  0.5052E+02
     10.750  0.3892E+00  0.5055E+02
     10.819  0.1675E+01  0.5066E+02
     10.888  0.9464E+00  0.5073E+02
     10.957  0.7572E+00  0.5078E+02
     11.026  0.6533E+00  0.5083E+02
     11.095  0.4330E+00  0.5086E+02
     11.164  0.1889E+01  0.5099E+02
     11.234  0.1085E+01  0.5106E+02
     11.303  0.4615E+00  0.5109E+02
     11.372  0.3833E+00  0.5112E+02
     11.441  0.2239E+01  0.5128E+02
     11.510  0.1640E+01  0.5139E+02
     11.579  0.8318E+00  0.5145E+02
     11.648  0.4144E+00  0.5148E+02
     11.717  0.8111E+00  0.5153E+02
     11.786  0.1188E+01  0.5161E+02
     11.855  0.6698E-16  0.5161E+02
     11.924  0.1005E+01  0.5168E+02
     11.993  0.9820E+00  0.5175E+02
     12.062  0.4007E+00  0.5178E+02
     12.131  0.2668E-07  0.5178E+02
     12.200  0.6033E+00  0.5182E+02
     12.269  0.4160E+00  0.5185E+02
     12.339  0.7907E+00  0.5191E+02
     12.408  0.0000E+00  0.5191E+02
     12.477  0.2800E-05  0.5191E+02
     12.546  0.9686E+00  0.5197E+02
     12.615  0.1031E+00  0.5198E+02
     12.684  0.0000E+00  0.5198E+02
     12.753  0.0000E+00  0.5198E+02
     12.822  0.0000E+00  0.5198E+02
     12.891  0.0000E+00  0.5198E+02
     12.960  0.0000E+00  0.5198E+02
     13.029  0.1360E-01  0.5198E+02
     13.098  0.1875E+00  0.5199E+02
     13.167  0.0000E+00  0.5199E+02
     13.236  0.1926E-04  0.5199E+02
     13.305  0.1005E+00  0.5200E+02
     13.374  0.0000E+00  0.5200E+02
     13.443  0.0000E+00  0.5200E+02
     13.513  0.0000E+00  0.5200E+02
     13.582  0.0000E+00  0.5200E+02
     13.651  0.0000E+00  0.5200E+02
     13.720  0.0000E+00  0.5200E+02
     13.789  0.0000E+00  0.5200E+02
     13.858  0.0000E+00  0.5200E+02
     13.927  0.0000E+00  0.5200E+02
     13.996  0.0000E+00  0.5200E+02
     14.065  0.0000E+00  0.5200E+02
     14.134  0.0000E+00  0.5200E+02
     14.203  0.0000E+00  0.5200E+02
