    4    4    1    1
  0.1202155E+02  0.3636416E-09  0.3636416E-09  0.3636416E-09  0.5000000E-15
  1.000000000000000E-004
  CAR 
 unknown system                          
   44   84   26
 
  0.0000000E+00  0.0000000E+00  0.0000000E+00  0.5787037E-03
   1       -5.5731
   2       -1.1481
   3       -1.1481
   4       -1.1481
   5       -0.7066
   6       -0.7066
   7       -0.7066
   8        0.6472
   9        0.6472
  10        0.6472
  11        1.4529
  12        1.4529
  13        1.9881
  14        1.9881
  15        1.9881
  16        2.1382
  17        2.1382
  18        2.1382
  19        2.1382
  20        2.1382
  21        2.1382
  22        5.1658
  23        5.1658
  24        5.1658
  25       10.6378
  26       10.6378
 
  0.8333333E-01  0.0000000E+00  0.0000000E+00  0.3472222E-02
   1       -5.4897
   2       -1.1492
   3       -1.1095
   4       -1.1095
   5       -0.6847
   6       -0.6834
   7       -0.6834
   8        0.6230
   9        0.6668
  10        0.6668
  11        1.4309
  12        1.4618
  13        1.9597
  14        1.9597
  15        1.9788
  16        1.9959
  17        1.9959
  18        2.1046
  19        2.1046
  20        2.1383
  21        2.1383
  22        4.6451
  23        5.3829
  24        5.3829
  25       10.6693
  26       10.6693
 
  0.1666667E+00  0.0000000E+00  0.0000000E+00  0.3472222E-02
   1       -5.2411
   2       -1.1685
   3       -0.9991
   4       -0.9991
   5       -0.6202
   6       -0.6135
   7       -0.6135
   8        0.5521
   9        0.7249
  10        0.7249
  11        1.3674
  12        1.4881
  13        1.6570
  14        1.6570
  15        1.8770
  16        1.8770
  17        1.9515
  18        2.0084
  19        2.0084
  20        2.1384
  21        2.1384
  22        3.5562
  23        5.9458
  24        5.9458
  25       10.7668
  26       10.7668
 
  0.2500000E+00  0.0000000E+00  0.0000000E+00  0.3472222E-02
   1       -4.8333
   2       -1.2644
   3       -0.8341
   4       -0.8341
   5       -0.5170
   6       -0.4957
   7       -0.4957
   8        0.4401
   9        0.8201
  10        0.8201
  11        1.2511
  12        1.2511
  13        1.2706
  14        1.5299
  15        1.7497
  16        1.7497
  17        1.8619
  18        1.8619
  19        1.9083
  20        2.1386
  21        2.1386
  22        2.4427
  23        6.7234
  24        6.7234
  25       10.9387
  26       10.9387
 
  0.3333333E+00  0.0000000E+00  0.0000000E+00  0.3472222E-02
   1       -4.2781
   2       -1.5485
   3       -0.6469
   4       -0.6469
   5       -0.3811
   6       -0.3285
   7       -0.3285
   8        0.2955
   9        0.8491
  10        0.8491
  11        0.9497
  12        0.9497
  13        1.1563
  14        1.5846
  15        1.5910
  16        1.5999
  17        1.5999
  18        1.6821
  19        1.6821
  20        1.8522
  21        2.1388
  22        2.1388
  23        7.6428
  24        7.6428
  25       11.1977
  26       11.1977
 
  0.4166667E+00  0.0000000E+00  0.0000000E+00  0.3472222E-02
   1       -3.5984
   2       -2.1047
   3       -0.4890
   4       -0.4890
   5       -0.2211
   6       -0.1103
   7       -0.1103
   8        0.1291
   9        0.4812
  10        0.4812
  11        1.0529
  12        1.1090
  13        1.1090
  14        1.1397
  15        1.4694
  16        1.4694
  17        1.4865
  18        1.4865
  19        1.6486
  20        1.7871
  21        2.1389
  22        2.1389
  23        8.6704
  24        8.6704
  25       10.9899
  26       10.9899
 
  0.5000000E+00  0.0000000E+00  0.0000000E+00  0.1736111E-02
   1       -2.8412
   2       -2.8412
   3       -0.4250
   4       -0.4250
   5       -0.0472
   6       -0.0472
   7        0.1599
   8        0.1599
   9        0.1599
  10        0.1599
  11        1.0132
  12        1.0132
  13        1.2912
  14        1.2912
  15        1.2912
  16        1.2912
  17        1.4153
  18        1.4153
  19        1.7177
  20        1.7177
  21        2.1390
  22        2.1390
  23        9.7897
  24        9.7897
  25        9.7897
  26        9.7897
 
  0.8333333E-01  0.8333333E-01  0.0000000E+00  0.6944444E-02
   1       -5.4066
   2       -1.1096
   3       -1.1096
   4       -1.0718
   5       -0.6619
   6       -0.6619
   7       -0.6610
   8        0.6095
   9        0.6760
  10        0.6843
  11        1.4249
  12        1.4568
  13        1.8908
  14        1.9156
  15        1.9156
  16        1.9324
  17        1.9898
  18        1.9898
  19        2.1046
  20        2.1046
  21        2.1167
  22        4.8586
  23        4.8586
  24        5.5846
  25       10.7011
  26       11.3682
 
  0.1666667E+00  0.8333333E-01  0.0000000E+00  0.1388889E-01
   1       -5.1591
   2       -1.1261
   3       -0.9964
   4       -0.9641
   5       -0.5987
   6       -0.5935
   7       -0.5933
   8        0.5456
   9        0.7286
  10        0.7361
  11        1.3700
  12        1.4807
  13        1.5915
  14        1.5924
  15        1.7931
  16        1.8531
  17        1.8852
  18        1.9605
  19        2.0081
  20        2.1044
  21        2.1051
  22        3.7855
  23        5.3952
  24        6.1190
  25       10.7984
  26       11.4992
 
  0.2500000E+00  0.8333333E-01  0.0000000E+00  0.1388889E-01
   1       -4.7532
   2       -1.2169
   3       -0.8268
   4       -0.8027
   5       -0.4976
   6       -0.4808
   7       -0.4778
   8        0.4377
   9        0.8182
  10        0.8221
  11        1.1881
  12        1.2140
  13        1.2815
  14        1.5275
  15        1.5808
  16        1.7307
  17        1.7573
  18        1.8614
  19        1.9048
  20        2.1024
  21        2.1042
  22        2.7436
  23        6.1135
  24        6.8727
  25       10.9623
  26       11.7288
 
  0.3333333E+00  0.8333333E-01  0.0000000E+00  0.1388889E-01
   1       -4.2008
   2       -1.4944
   3       -0.6329
   4       -0.6172
   5       -0.3645
   6       -0.3239
   7       -0.3140
   8        0.2970
   9        0.7932
  10        0.8304
  11        0.9125
  12        0.9507
  13        1.1949
  14        1.2629
  15        1.5867
  16        1.5898
  17        1.6075
  18        1.6815
  19        1.8011
  20        2.0737
  21        2.1019
  22        2.1039
  23        6.9424
  24        7.7750
  25       10.9358
  26       11.3761
 
  0.4166667E+00  0.8333333E-01  0.0000000E+00  0.1388889E-01
   1       -3.5251
   2       -2.0435
   3       -0.4668
   4       -0.4577
   5       -0.2079
   6       -0.1235
   7       -0.1005
   8        0.1345
   9        0.4356
  10        0.4753
  11        0.9430
  12        0.9959
  13        1.1093
  14        1.2107
  15        1.4624
  16        1.4747
  17        1.4861
  18        1.5812
  19        1.6638
  20        1.8461
  21        2.1022
  22        2.1034
  23        7.8523
  24        8.7908
  25        9.8843
  26       11.0965
 
  0.5000000E+00  0.8333333E-01  0.0000000E+00  0.6944444E-02
   1       -2.7734
   2       -2.7734
   3       -0.3953
   4       -0.3953
   5       -0.0377
   6       -0.0377
   7        0.1281
   8        0.1281
   9        0.1631
  10        0.1631
  11        0.9188
  12        0.9188
  13        1.2910
  14        1.2910
  15        1.3644
  16        1.3644
  17        1.4152
  18        1.4152
  19        1.7469
  20        1.7469
  21        2.1028
  22        2.1028
  23        8.8335
  24        8.8335
  25        9.9018
  26        9.9018
 
  0.1666667E+00  0.1666667E+00  0.0000000E+00  0.6944444E-02
   1       -4.9150
   2       -1.0041
   3       -1.0041
   4       -0.8642
   5       -0.5340
   6       -0.5340
   7       -0.5335
   8        0.5073
   9        0.7599
  10        0.7689
  11        1.3502
  12        1.3937
  13        1.4244
  14        1.4244
  15        1.4888
  16        1.7832
  17        1.8796
  18        1.8796
  19        2.0074
  20        2.0074
  21        2.0527
  22        4.3066
  23        4.3066
  24        6.5957
  25       10.8844
  26       12.1690
 
  0.2500000E+00  0.1666667E+00  0.0000000E+00  0.1388889E-01
   1       -4.5149
   2       -1.0800
   3       -0.8200
   4       -0.7140
   5       -0.4392
   6       -0.4349
   7       -0.4253
   8        0.4208
   9        0.8165
  10        0.8386
  11        1.0243
  12        1.0987
  13        1.1837
  14        1.2878
  15        1.5439
  16        1.6744
  17        1.7580
  18        1.8345
  19        1.8602
  20        2.0063
  21        2.0225
  22        3.2635
  23        4.9582
  24        7.2951
  25       10.6383
  26       11.2366
 
  0.3333333E+00  0.1666667E+00  0.0000000E+00  0.1388889E-01
   1       -3.9714
   2       -1.3381
   3       -0.6057
   4       -0.5355
   5       -0.3147
   6       -0.3065
   7       -0.2715
   8        0.2965
   9        0.6491
  10        0.7722
  11        0.8527
  12        0.9264
  13        0.9594
  14        1.2354
  15        1.5457
  16        1.6120
  17        1.6308
  18        1.6802
  19        1.7375
  20        2.0049
  21        2.0093
  22        2.5153
  23        5.6912
  24        8.1556
  25        9.4803
  26       11.4398
 
  0.4166667E+00  0.1666667E+00  0.0000000E+00  0.1388889E-01
   1       -3.3086
   2       -1.8658
   3       -0.4127
   4       -0.3683
   5       -0.1686
   6       -0.1604
   7       -0.0723
   8        0.1485
   9        0.3175
  10        0.4562
  11        0.7775
  12        0.8288
  13        1.1134
  14        1.2710
  15        1.4376
  16        1.4769
  17        1.4855
  18        1.5813
  19        1.7410
  20        2.0037
  21        2.0043
  22        2.0983
  23        6.4982
  24        8.3787
  25        9.1407
  26       11.4098
 
  0.5000000E+00  0.1666667E+00  0.0000000E+00  0.6944444E-02
   1       -2.5744
   2       -2.5744
   3       -0.3126
   4       -0.3126
   5       -0.0105
   6       -0.0105
   7        0.0409
   8        0.0409
   9        0.1715
  10        0.1715
  11        0.7718
  12        0.7718
  13        1.2922
  14        1.2922
  15        1.4038
  16        1.4038
  17        1.4064
  18        1.4064
  19        1.8818
  20        1.8818
  21        2.0031
  22        2.0031
  23        7.3887
  24        7.3887
  25       10.2299
  26       10.2299
 
  0.2500000E+00  0.2500000E+00  0.0000000E+00  0.6944444E-02
   1       -4.1252
   2       -0.8716
   3       -0.8716
   4       -0.5835
   5       -0.3578
   6       -0.3415
   7       -0.3415
   8        0.3707
   9        0.8100
  10        0.8100
  11        0.8178
  12        0.8915
  13        0.9088
  14        1.2533
  15        1.5844
  16        1.6181
  17        1.7213
  18        1.7213
  19        1.8585
  20        1.8585
  21        1.9483
  22        3.8519
  23        3.8519
  24        7.9365
  25        9.3196
  26       11.3683
 
  0.3333333E+00  0.2500000E+00  0.0000000E+00  0.1388889E-01
   1       -3.5981
   2       -1.0990
   3       -0.6240
   4       -0.4285
   5       -0.2625
   6       -0.2322
   7       -0.2045
   8        0.2817
   9        0.4782
  10        0.6320
  11        0.6709
  12        0.8044
  13        0.9905
  14        1.2141
  15        1.4759
  16        1.5825
  17        1.6319
  18        1.6793
  19        1.7430
  20        1.8572
  21        1.9002
  22        3.0018
  23        4.5008
  24        8.0816
  25        8.7473
  26       11.6745
 
  0.4166667E+00  0.2500000E+00  0.0000000E+00  0.1388889E-01
   1       -2.9592
   2       -1.5898
   3       -0.3880
   4       -0.2537
   5       -0.1964
   6       -0.1050
   7       -0.0291
   8        0.1638
   9        0.1919
  10        0.4199
  11        0.5831
  12        0.7419
  13        1.1300
  14        1.2400
  15        1.3867
  16        1.4495
  17        1.4874
  18        1.4945
  19        1.8577
  20        1.8743
  21        1.9066
  22        2.4527
  23        5.2242
  24        6.9920
  25        9.6934
  26       11.9129
 
  0.5000000E+00  0.2500000E+00  0.0000000E+00  0.6944444E-02
   1       -2.2583
   2       -2.2583
   3       -0.2298
   4       -0.2298
   5       -0.0501
   6       -0.0501
   7        0.0307
   8        0.0307
   9        0.1816
  10        0.1816
  11        0.6457
  12        0.6457
  13        1.2996
  14        1.2996
  15        1.3462
  16        1.3462
  17        1.3713
  18        1.3713
  19        1.8621
  20        1.8621
  21        2.1235
  22        2.1235
  23        6.0460
  24        6.0460
  25       10.7532
  26       10.7532
 
  0.3333333E+00  0.3333333E+00  0.0000000E+00  0.6944444E-02
   1       -3.0969
   2       -0.8133
   3       -0.8133
   4       -0.3449
   5       -0.1712
   6       -0.1183
   7       -0.1183
   8        0.2404
   9        0.3850
  10        0.3850
  11        0.5294
  12        0.7577
  13        1.0594
  14        1.1666
  15        1.3862
  16        1.5016
  17        1.5016
  18        1.6809
  19        1.6809
  20        1.8076
  21        1.9149
  22        3.5431
  23        3.5431
  24        6.8455
  25        9.5115
  26       12.0265
 
  0.4166667E+00  0.3333333E+00  0.0000000E+00  0.1388889E-01
   1       -2.4977
   2       -1.2509
   3       -0.5399
   4       -0.3079
   5       -0.0606
   6       -0.0205
   7        0.0238
   8        0.1703
   9        0.1895
  10        0.3618
  11        0.4293
  12        0.6757
  13        1.1665
  14        1.1717
  15        1.3091
  16        1.3752
  17        1.3763
  18        1.4961
  19        1.6884
  20        1.7442
  21        2.1362
  22        2.8689
  23        4.1645
  24        5.7868
  25       10.4183
  26       12.5074
 
  0.5000000E+00  0.3333333E+00  0.0000000E+00  0.6944444E-02
   1       -1.8530
   2       -1.8530
   3       -0.3567
   4       -0.3567
   5        0.0471
   6        0.0471
   7        0.0794
   8        0.0794
   9        0.1876
  10        0.1876
  11        0.5507
  12        0.5507
  13        1.2467
  14        1.2467
  15        1.2986
  16        1.2986
  17        1.3213
  18        1.3213
  19        1.7071
  20        1.7071
  21        2.4314
  22        2.4314
  23        4.9007
  24        4.9007
  25       11.4470
  26       11.4470
 
  0.4166667E+00  0.4166667E+00  0.0000000E+00  0.6944444E-02
   1       -1.9602
   2       -0.9051
   3       -0.9051
   4       -0.4259
   5        0.0787
   6        0.0787
   7        0.0942
   8        0.1587
   9        0.2811
  10        0.3150
  11        0.3150
  12        0.5972
  13        1.1209
  14        1.2294
  15        1.2497
  16        1.2630
  17        1.2630
  18        1.5185
  19        1.5185
  20        1.6373
  21        2.4259
  22        3.3669
  23        3.3669
  24        4.7865
  25       11.2897
  26       13.0397
 
  0.5000000E+00  0.4166667E+00  0.0000000E+00  0.6944444E-02
   1       -1.4042
   2       -1.4042
   3       -0.6185
   4       -0.6185
   5        0.1266
   6        0.1266
   7        0.1832
   8        0.1832
   9        0.2165
  10        0.2165
  11        0.4711
  12        0.4711
  13        1.1583
  14        1.1583
  15        1.2032
  16        1.2032
  17        1.3675
  18        1.3675
  19        1.5629
  20        1.5629
  21        2.8121
  22        2.8121
  23        3.9900
  24        3.9900
  25       12.2888
  26       12.2888
 
  0.5000000E+00  0.5000000E+00  0.0000000E+00  0.1736111E-02
   1       -0.9743
   2       -0.9743
   3       -0.9743
   4       -0.9743
   5        0.1630
   6        0.1630
   7        0.1630
   8        0.1630
   9        0.3671
  10        0.3671
  11        0.3671
  12        0.3671
  13        1.1387
  14        1.1387
  15        1.1387
  16        1.1387
  17        1.4472
  18        1.4472
  19        1.4472
  20        1.4472
  21        3.3101
  22        3.3101
  23        3.3101
  24        3.3101
  25       13.2614
  26       13.2614
 
  0.8333333E-01  0.8333333E-01  0.8333333E-01  0.4629630E-02
   1       -5.3239
   2       -1.0711
   3       -1.0711
   4       -1.0711
   5       -0.6399
   6       -0.6399
   7       -0.6399
   8        0.5969
   9        0.6924
  10        0.6924
  11        1.4363
  12        1.4363
  13        1.8438
  14        1.8438
  15        1.8438
  16        1.9076
  17        1.9076
  18        1.9076
  19        2.1009
  20        2.1009
  21        2.1009
  22        5.0528
  23        5.0528
  24        5.0528
  25       11.4111
  26       11.4111
 
  0.1666667E+00  0.8333333E-01  0.8333333E-01  0.1388889E-01
   1       -5.0776
   2       -1.0851
   3       -0.9611
   4       -0.9611
   5       -0.5778
   6       -0.5736
   7       -0.5736
   8        0.5391
   9        0.7371
  10        0.7412
  11        1.3785
  12        1.4696
  13        1.5340
  14        1.5340
  15        1.7010
  16        1.8330
  17        1.8357
  18        1.8357
  19        2.0584
  20        2.0904
  21        2.0904
  22        3.9790
  23        5.5560
  24        5.5560
  25       11.5424
  26       11.5424
 
  0.2500000E+00  0.8333333E-01  0.8333333E-01  0.1388889E-01
   1       -4.6737
   2       -1.1717
   3       -0.7959
   4       -0.7959
   5       -0.4783
   6       -0.4630
   7       -0.4630
   8        0.4359
   9        0.8165
  10        0.8216
  11        1.1555
  12        1.1555
  13        1.2972
  14        1.4563
  15        1.5224
  16        1.7132
  17        1.7234
  18        1.7234
  19        1.9978
  20        2.0817
  21        2.0817
  22        2.9411
  23        6.2468
  24        6.2468
  25       11.7569
  26       11.7569
 
  0.3333333E+00  0.8333333E-01  0.8333333E-01  0.1388889E-01
   1       -4.1243
   2       -1.4432
   3       -0.6047
   4       -0.6047
   5       -0.3475
   6       -0.3103
   7       -0.3103
   8        0.2995
   9        0.7799
  10        0.7799
  11        0.8968
  12        0.9317
  13        1.1415
  14        1.2356
  15        1.5612
  16        1.5849
  17        1.5849
  18        1.5911
  19        1.9246
  20        2.0768
  21        2.0768
  22        2.2056
  23        7.0541
  24        7.0541
  25       11.1413
  26       11.1413
 
  0.4166667E+00  0.8333333E-01  0.8333333E-01  0.1388889E-01
   1       -3.4531
   2       -1.9850
   3       -0.4362
   4       -0.4362
   5       -0.1937
   6       -0.1210
   7       -0.1210
   8        0.1413
   9        0.4404
  10        0.4404
  11        0.9015
  12        0.9169
  13        1.0681
  14        1.2936
  15        1.3933
  16        1.4609
  17        1.4609
  18        1.6708
  19        1.7669
  20        1.8428
  21        2.0744
  22        2.0744
  23        7.9405
  24        7.9405
  25       10.0223
  26       10.0223
 
  0.5000000E+00  0.8333333E-01  0.8333333E-01  0.6944444E-02
   1       -2.7075
   2       -2.7075
   3       -0.3648
   4       -0.3648
   5       -0.0271
   6       -0.0271
   7        0.0544
   8        0.0544
   9        0.2103
  10        0.2103
  11        0.8654
  12        0.8654
  13        1.2249
  14        1.2249
  15        1.4088
  16        1.4088
  17        1.4824
  18        1.4824
  19        1.7565
  20        1.7565
  21        2.0737
  22        2.0737
  23        8.7109
  24        8.7109
  25        9.1742
  26        9.1742
 
  0.1666667E+00  0.1666667E+00  0.8333333E-01  0.1388889E-01
   1       -4.8348
   2       -0.9679
   3       -0.9679
   4       -0.8604
   5       -0.5148
   6       -0.5148
   7       -0.5143
   8        0.5033
   9        0.7649
  10        0.7700
  11        1.3421
  12        1.3706
  13        1.3729
  14        1.3729
  15        1.4722
  16        1.7408
  17        1.7696
  18        1.7696
  19        2.0524
  20        2.0524
  21        2.0607
  22        4.4514
  23        4.4514
  24        5.9922
  25       11.6522
  26       12.2826
 
  0.2500000E+00  0.1666667E+00  0.8333333E-01  0.2777778E-01
   1       -4.4372
   2       -1.0422
   3       -0.7915
   4       -0.7095
   5       -0.4203
   6       -0.4171
   7       -0.4099
   8        0.4219
   9        0.8148
  10        0.8308
  11        1.0005
  12        1.0514
  13        1.1341
  14        1.3168
  15        1.5320
  16        1.6374
  17        1.6505
  18        1.6824
  19        1.9949
  20        2.0282
  21        2.0306
  22        3.3857
  23        5.0703
  24        6.6181
  25       10.8480
  26       11.9731
 
  0.3333333E+00  0.1666667E+00  0.8333333E-01  0.2777778E-01
   1       -3.8977
   2       -1.2964
   3       -0.5847
   4       -0.5296
   5       -0.2960
   6       -0.2935
   7       -0.2677
   8        0.3029
   9        0.6496
  10        0.7368
  11        0.8471
  12        0.8856
  13        0.9259
  14        1.2893
  15        1.4982
  16        1.5205
  17        1.5627
  18        1.6219
  19        1.9100
  20        2.0090
  21        2.0093
  22        2.5853
  23        5.7806
  24        7.3603
  25        9.6447
  26       11.4520
 
  0.4166667E+00  0.1666667E+00  0.8333333E-01  0.2777778E-01
   1       -3.2406
   2       -1.8158
   3       -0.3900
   4       -0.3518
   5       -0.1724
   6       -0.1510
   7       -0.1117
   8        0.1597
   9        0.3560
  10        0.4485
  11        0.7503
  12        0.8160
  13        1.0426
  14        1.3360
  15        1.3710
  16        1.4175
  17        1.4440
  18        1.7305
  19        1.7720
  20        1.9979
  21        1.9983
  22        2.0984
  23        6.5667
  24        8.0137
  25        8.7513
  26       10.3242
 
  0.5000000E+00  0.1666667E+00  0.8333333E-01  0.1388889E-01
   1       -2.5145
   2       -2.5145
   3       -0.2806
   4       -0.2806
   5       -0.0608
   6       -0.0608
   7        0.0046
   8        0.0046
   9        0.2526
  10        0.2526
  11        0.7535
  12        0.7535
  13        1.1807
  14        1.1807
  15        1.3830
  16        1.3830
  17        1.5590
  18        1.5590
  19        1.8651
  20        1.8651
  21        1.9947
  22        1.9947
  23        7.4177
  24        7.4177
  25        9.3141
  26        9.3141
 
  0.2500000E+00  0.2500000E+00  0.8333333E-01  0.1388889E-01
   1       -4.0510
   2       -0.8476
   3       -0.8476
   4       -0.5850
   5       -0.3389
   6       -0.3231
   7       -0.3231
   8        0.3773
   9        0.7964
  10        0.7964
  11        0.8155
  12        0.8688
  13        0.8757
  14        1.2978
  15        1.5325
  16        1.5865
  17        1.5865
  18        1.6037
  19        1.9536
  20        1.9536
  21        1.9745
  22        3.9385
  23        3.9385
  24        7.1575
  25        9.4940
  26       12.2308
 
  0.3333333E+00  0.2500000E+00  0.8333333E-01  0.2777778E-01
   1       -3.5293
   2       -1.0759
   3       -0.6208
   4       -0.4426
   5       -0.2422
   6       -0.2090
   7       -0.1916
   8        0.2953
   9        0.4966
  10        0.6279
  11        0.6589
  12        0.8021
  13        0.9370
  14        1.2879
  15        1.4277
  16        1.4465
  17        1.4935
  18        1.7280
  19        1.8518
  20        1.9135
  21        1.9271
  22        3.0488
  23        4.5665
  24        7.6262
  25        8.4968
  26       11.9188
 
  0.4166667E+00  0.2500000E+00  0.8333333E-01  0.2777778E-01
   1       -2.8989
   2       -1.5565
   3       -0.4054
   4       -0.2958
   5       -0.1736
   6       -0.0789
   7       -0.0657
   8        0.1839
   9        0.2775
  10        0.4467
  11        0.5825
  12        0.7395
  13        1.0286
  14        1.2916
  15        1.3440
  16        1.3645
  17        1.3895
  18        1.7063
  19        1.8891
  20        1.8899
  21        1.8964
  22        2.4565
  23        5.2742
  24        6.9747
  25        8.8877
  26       10.7894
 
  0.5000000E+00  0.2500000E+00  0.8333333E-01  0.1388889E-01
   1       -2.2101
   2       -2.2101
   3       -0.2564
   4       -0.2564
   5       -0.1018
   6       -0.1018
   7        0.0555
   8        0.0555
   9        0.2816
  10        0.2816
  11        0.6443
  12        0.6443
  13        1.1474
  14        1.1474
  15        1.3255
  16        1.3255
  17        1.5248
  18        1.5248
  19        1.8843
  20        1.8843
  21        2.1069
  22        2.1069
  23        6.0771
  24        6.0771
  25        9.7723
  26        9.7723
 
  0.3333333E+00  0.3333333E+00  0.8333333E-01  0.1388889E-01
   1       -3.0365
   2       -0.8218
   3       -0.8218
   4       -0.3897
   5       -0.1402
   6       -0.0874
   7       -0.0874
   8        0.2640
   9        0.4106
  10        0.4106
  11        0.5496
  12        0.7583
  13        0.9644
  14        1.2783
  15        1.3284
  16        1.3756
  17        1.3756
  18        1.7941
  19        1.7941
  20        1.8493
  21        1.8971
  22        3.5775
  23        3.5775
  24        6.8104
  25        8.7453
  26       12.5411
 
  0.4166667E+00  0.3333333E+00  0.8333333E-01  0.2777778E-01
   1       -2.4501
   2       -1.2454
   3       -0.5908
   4       -0.3802
   5       -0.0299
   6        0.0225
   7        0.0448
   8        0.2046
   9        0.2643
  10        0.4243
  11        0.4456
  12        0.6790
  13        1.0144
  14        1.2352
  15        1.2506
  16        1.2909
  17        1.3393
  18        1.6440
  19        1.7604
  20        1.7899
  21        2.1163
  22        2.8708
  23        4.1908
  24        5.7944
  25        9.4967
  26       11.4087
 
  0.5000000E+00  0.3333333E+00  0.8333333E-01  0.1388889E-01
   1       -1.8243
   2       -1.8243
   3       -0.4374
   4       -0.4374
   5        0.0538
   6        0.0538
   7        0.1218
   8        0.1218
   9        0.2969
  10        0.2969
  11        0.5583
  12        0.5583
  13        1.1063
  14        1.1063
  15        1.2345
  16        1.2345
  17        1.4771
  18        1.4771
  19        1.7589
  20        1.7589
  21        2.4149
  22        2.4149
  23        4.9202
  24        4.9202
  25       10.3932
  26       10.3932
 
  0.4166667E+00  0.4166667E+00  0.8333333E-01  0.1388889E-01
   1       -1.9326
   2       -0.9381
   3       -0.9381
   4       -0.5074
   5        0.1203
   6        0.1458
   7        0.1458
   8        0.2105
   9        0.3437
  10        0.3437
  11        0.3737
  12        0.6055
  13        1.0112
  14        1.1649
  15        1.1686
  16        1.1686
  17        1.3695
  18        1.6144
  19        1.6144
  20        1.6953
  21        2.4052
  22        3.3680
  23        3.3680
  24        4.7941
  25       10.2615
  26       12.1692
 
  0.5000000E+00  0.4166667E+00  0.8333333E-01  0.1388889E-01
   1       -1.4050
   2       -1.4050
   3       -0.6870
   4       -0.6870
   5        0.1937
   6        0.1937
   7        0.2237
   8        0.2237
   9        0.2978
  10        0.2978
  11        0.4844
  12        0.4844
  13        1.0622
  14        1.0622
  15        1.1313
  16        1.1313
  17        1.4712
  18        1.4712
  19        1.6321
  20        1.6321
  21        2.7965
  22        2.7965
  23        3.9934
  24        3.9934
  25       11.1543
  26       11.1543
 
  0.5000000E+00  0.5000000E+00  0.8333333E-01  0.3472222E-02
   1       -1.0115
   2       -1.0115
   3       -1.0115
   4       -1.0115
   5        0.2519
   6        0.2519
   7        0.2519
   8        0.2519
   9        0.3865
  10        0.3865
  11        0.3865
  12        0.3865
  13        1.0613
  14        1.0613
  15        1.0613
  16        1.0613
  17        1.5269
  18        1.5269
  19        1.5269
  20        1.5269
  21        3.3004
  22        3.3004
  23        3.3004
  24        3.3004
  25       12.0451
  26       12.0451
 
  0.1666667E+00  0.1666667E+00  0.1666667E+00  0.4629630E-02
   1       -4.5964
   2       -0.8655
   3       -0.8655
   4       -0.8655
   5       -0.4567
   6       -0.4567
   7       -0.4567
   8        0.4796
   9        0.7827
  10        0.7827
  11        1.1934
  12        1.1934
  13        1.1934
  14        1.4282
  15        1.4282
  16        1.6365
  17        1.6365
  18        1.6365
  19        2.0654
  20        2.0654
  21        2.0654
  22        4.8374
  23        4.8374
  24        4.8374
  25       12.5266
  26       12.5266
 
  0.2500000E+00  0.1666667E+00  0.1666667E+00  0.1388889E-01
   1       -4.2068
   2       -0.9367
   3       -0.7145
   4       -0.7145
   5       -0.3621
   6       -0.3607
   7       -0.3607
   8        0.4182
   9        0.8134
  10        0.8191
  11        0.9223
  12        0.9223
  13        0.9757
  14        1.3803
  15        1.5008
  16        1.5137
  17        1.5409
  18        1.5409
  19        2.0402
  20        2.0402
  21        2.0464
  22        3.7156
  23        5.3814
  24        5.3814
  25       11.1720
  26       11.1720
 
  0.3333333E+00  0.1666667E+00  0.1666667E+00  0.1388889E-01
   1       -3.6796
   2       -1.1804
   3       -0.5388
   4       -0.5388
   5       -0.2423
   6       -0.2423
   7       -0.2375
   8        0.3190
   9        0.6466
  10        0.6466
  11        0.7685
  12        0.8265
  13        0.8791
  14        1.3534
  15        1.3857
  16        1.4464
  17        1.4464
  18        1.6162
  19        1.9986
  20        2.0049
  21        2.0049
  22        2.8224
  23        6.0256
  24        6.0256
  25        9.9570
  26        9.9570
 
  0.4166667E+00  0.1666667E+00  0.1666667E+00  0.1388889E-01
   1       -3.0410
   2       -1.6742
   3       -0.3599
   4       -0.3599
   5       -0.1592
   6       -0.1592
   7       -0.0954
   8        0.1931
   9        0.4341
  10        0.4341
  11        0.6757
  12        0.7787
  13        0.9652
  14        1.2084
  15        1.3565
  16        1.3565
  17        1.5126
  18        1.7253
  19        1.9248
  20        1.9788
  21        1.9788
  22        2.1943
  23        6.7161
  24        6.7161
  25        8.9270
  26        8.9270
 
  0.5000000E+00  0.1666667E+00  0.1666667E+00  0.6944444E-02
   1       -2.3411
   2       -2.3411
   3       -0.2250
   4       -0.2250
   5       -0.1876
   6       -0.1876
   7        0.0516
   8        0.0516
   9        0.3556
  10        0.3556
  11        0.7032
  12        0.7032