       N       E                     dE             d eps       ncg     rms          rms(c)
DAV:   1     0.315023080633E+03    0.31502E+03   -0.27288E+04  4448   0.334E+03
DAV:   2     0.487911807535E+00   -0.31454E+03   -0.30838E+03  4368   0.473E+02
DAV:   3    -0.181371225962E+02   -0.18625E+02   -0.18227E+02  4460   0.149E+02
DAV:   4    -0.183417031395E+02   -0.20458E+00   -0.20402E+00  4634   0.167E+01
DAV:   5    -0.183425622641E+02   -0.85912E-03   -0.85909E-03  4542   0.785E-01    0.139E+01
DAV:   6    -0.161783752860E+02    0.21642E+01   -0.37262E+01  4476   0.972E+01    0.633E+00
DAV:   7    -0.149230079569E+02    0.12554E+01   -0.63558E+00  4678   0.407E+01    0.108E+00
DAV:   8    -0.148913758159E+02    0.31632E-01   -0.72700E-02  4438   0.262E+00    0.742E-01
DAV:   9    -0.148804628099E+02    0.10913E-01   -0.34699E-02  4626   0.289E+00    0.390E-02
DAV:  10    -0.148805540936E+02   -0.91284E-04   -0.94192E-04  4428   0.319E-01    0.113E-02
DAV:  11    -0.148805481579E+02    0.59358E-05   -0.12750E-05  4680   0.493E-02    0.466E-03
DAV:  12    -0.148805535536E+02   -0.53957E-05   -0.85054E-07  4500   0.135E-02    0.746E-04
DAV:  13    -0.148805542117E+02   -0.65817E-06   -0.39197E-08  4088   0.327E-03    0.128E-04
DAV:  14    -0.148805542622E+02   -0.50440E-07   -0.22496E-09  2262   0.612E-04    0.391E-05
DAV:  15    -0.148805542430E+02    0.19172E-07   -0.16674E-10  2224   0.121E-04    0.273E-05
DAV:  16    -0.148805542335E+02    0.94760E-08   -0.85529E-11  2210   0.145E-04
   1 F= -.14880554E+02 E0= -.14880485E+02  d E =-.139074E-03
