<?xml version="1.0" encoding="ISO-8859-1"?>
<modeling>
 <generator>
  <i name="program" type="string">vasp</i>
  <i name="version" type="string">4.6.28 </i>
  <i name="subversion" type="string">25Jul05 complex  parallel</i>
  <i name="platform" type="string">LinuxIFC</i>
  <i name="date" type="string">2016 12 21</i>
  <i name="time" type="string">11:38:19</i>
 </generator>
 <incar>
  <i type="string" name="PREC">accurate</i>
  <i type="int" name="IALGO">    38</i>
  <i type="logical" name="ADDGRID"> T  </i>
  <i name="EDIFF">      0.00000001</i>
  <i type="int" name="IBRION">    -1</i>
  <i name="ENCUT">    750.00000000</i>
  <i type="logical" name="LREAL"> F  </i>
  <i type="int" name="ISMEAR">     0</i>
  <i name="SIGMA">      0.01000000</i>
  <i type="logical" name="LWAVE"> F  </i>
  <i type="logical" name="LCHARG"> F  </i>
 </incar>
 <kpoints>
  <generation param="Gamma">
   <v type="int" name="divisions">      12      12      12</v>
   <v name="usershift">      0.00000000      0.00000000      0.00000000</v>
   <v name="genvec1">      0.08333333      0.00000000      0.00000000</v>
   <v name="genvec2">      0.00000000      0.08333333      0.00000000</v>
   <v name="genvec3">      0.00000000      0.00000000      0.08333333</v>
   <v name="shift">      0.00000000      0.00000000      0.00000000</v>
  </generation>
  <varray name="kpointlist" >
   <v>       0.00000000      0.00000000      0.00000000</v>
   <v>       0.08333333      0.00000000      0.00000000</v>
   <v>       0.16666667      0.00000000      0.00000000</v>
   <v>       0.25000000      0.00000000      0.00000000</v>
   <v>       0.33333333      0.00000000      0.00000000</v>
   <v>       0.41666667      0.00000000      0.00000000</v>
   <v>       0.50000000      0.00000000      0.00000000</v>
   <v>       0.08333333      0.08333333      0.00000000</v>
   <v>       0.16666667      0.08333333      0.00000000</v>
   <v>       0.25000000      0.08333333      0.00000000</v>
   <v>       0.33333333      0.08333333      0.00000000</v>
   <v>       0.41666667      0.08333333      0.00000000</v>
   <v>       0.50000000      0.08333333      0.00000000</v>
   <v>       0.16666667      0.16666667      0.00000000</v>
   <v>       0.25000000      0.16666667      0.00000000</v>
   <v>       0.33333333      0.16666667      0.00000000</v>
   <v>       0.41666667      0.16666667      0.00000000</v>
   <v>       0.50000000      0.16666667      0.00000000</v>
   <v>       0.25000000      0.25000000      0.00000000</v>
   <v>       0.33333333      0.25000000      0.00000000</v>
   <v>       0.41666667      0.25000000      0.00000000</v>
   <v>       0.50000000      0.25000000      0.00000000</v>
   <v>       0.33333333      0.33333333      0.00000000</v>
   <v>       0.41666667      0.33333333      0.00000000</v>
   <v>       0.50000000      0.33333333      0.00000000</v>
   <v>       0.41666667      0.41666667      0.00000000</v>
   <v>       0.50000000      0.41666667      0.00000000</v>
   <v>       0.50000000      0.50000000      0.00000000</v>
   <v>       0.08333333      0.08333333      0.08333333</v>
   <v>       0.16666667      0.08333333      0.08333333</v>
   <v>       0.25000000      0.08333333      0.08333333</v>
   <v>       0.33333333      0.08333333      0.08333333</v>
   <v>       0.41666667      0.08333333      0.08333333</v>
   <v>       0.50000000      0.08333333      0.08333333</v>
   <v>       0.16666667      0.16666667      0.08333333</v>
   <v>       0.25000000      0.16666667      0.08333333</v>
   <v>       0.33333333      0.16666667      0.08333333</v>
   <v>       0.41666667      0.16666667      0.08333333</v>
   <v>       0.50000000      0.16666667      0.08333333</v>
   <v>       0.25000000      0.25000000      0.08333333</v>
   <v>       0.33333333      0.25000000      0.08333333</v>
   <v>       0.41666667      0.25000000      0.08333333</v>
   <v>       0.50000000      0.25000000      0.08333333</v>
   <v>       0.33333333      0.33333333      0.08333333</v>
   <v>       0.41666667      0.33333333      0.08333333</v>
   <v>       0.50000000      0.33333333      0.08333333</v>
   <v>       0.41666667      0.41666667      0.08333333</v>
   <v>       0.50000000      0.41666667      0.08333333</v>
   <v>       0.50000000      0.50000000      0.08333333</v>
   <v>       0.16666667      0.16666667      0.16666667</v>
   <v>       0.25000000      0.16666667      0.16666667</v>
   <v>       0.33333333      0.16666667      0.16666667</v>
   <v>       0.41666667      0.16666667      0.16666667</v>
   <v>       0.50000000      0.16666667      0.16666667</v>
   <v>       0.25000000      0.25000000      0.16666667</v>
   <v>       0.33333333      0.25000000      0.16666667</v>
   <v>       0.41666667      0.25000000      0.16666667</v>
   <v>       0.50000000      0.25000000      0.16666667</v>
   <v>       0.33333333      0.33333333      0.16666667</v>
   <v>       0.41666667      0.33333333      0.16666667</v>
   <v>       0.50000000      0.33333333      0.16666667</v>
   <v>       0.41666667      0.41666667      0.16666667</v>
   <v>       0.50000000      0.41666667      0.16666667</v>
   <v>       0.50000000      0.50000000      0.16666667</v>
   <v>       0.25000000      0.25000000      0.25000000</v>
   <v>       0.33333333      0.25000000      0.25000000</v>
   <v>       0.41666667      0.25000000      0.25000000</v>
   <v>       0.50000000      0.25000000      0.25000000</v>
   <v>       0.33333333      0.33333333      0.25000000</v>
   <v>       0.41666667      0.33333333      0.25000000</v>
   <v>       0.50000000      0.33333333      0.25000000</v>
   <v>       0.41666667      0.41666667      0.25000000</v>
   <v>       0.50000000      0.41666667      0.25000000</v>
   <v>       0.50000000      0.50000000      0.25000000</v>
   <v>       0.33333333      0.33333333      0.33333333</v>
   <v>       0.41666667      0.33333333      0.33333333</v>
   <v>       0.50000000      0.33333333      0.33333333</v>
   <v>       0.41666667      0.41666667      0.33333333</v>
   <v>       0.50000000      0.41666667      0.33333333</v>
   <v>       0.50000000      0.50000000      0.33333333</v>
   <v>       0.41666667      0.41666667      0.41666667</v>
   <v>       0.50000000      0.41666667      0.41666667</v>
   <v>       0.50000000      0.50000000      0.41666667</v>
   <v>       0.50000000      0.50000000      0.50000000</v>
  </varray>
  <varray name="weights" >
   <v>       0.00057870</v>
   <v>       0.00347222</v>
   <v>       0.00347222</v>
   <v>       0.00347222</v>
   <v>       0.00347222</v>
   <v>       0.00347222</v>
   <v>       0.00173611</v>
   <v>       0.00694444</v>
   <v>       0.01388889</v>
   <v>       0.01388889</v>
   <v>       0.01388889</v>
   <v>       0.01388889</v>
   <v>       0.00694444</v>
   <v>       0.00694444</v>
   <v>       0.01388889</v>
   <v>       0.01388889</v>
   <v>       0.01388889</v>
   <v>       0.00694444</v>
   <v>       0.00694444</v>
   <v>       0.01388889</v>
   <v>       0.01388889</v>
   <v>       0.00694444</v>
   <v>       0.00694444</v>
   <v>       0.01388889</v>
   <v>       0.00694444</v>
   <v>       0.00694444</v>
   <v>       0.00694444</v>
   <v>       0.00173611</v>
   <v>       0.00462963</v>
   <v>       0.01388889</v>
   <v>       0.01388889</v>
   <v>       0.01388889</v>
   <v>       0.01388889</v>
   <v>       0.00694444</v>
   <v>       0.01388889</v>
   <v>       0.02777778</v>
   <v>       0.02777778</v>
   <v>       0.02777778</v>
   <v>       0.01388889</v>
   <v>       0.01388889</v>
   <v>       0.02777778</v>
   <v>       0.02777778</v>
   <v>       0.01388889</v>
   <v>       0.01388889</v>
   <v>       0.02777778</v>
   <v>       0.01388889</v>
   <v>       0.01388889</v>
   <v>       0.01388889</v>
   <v>       0.00347222</v>
   <v>       0.00462963</v>
   <v>       0.01388889</v>
   <v>       0.01388889</v>
   <v>       0.01388889</v>
   <v>       0.00694444</v>
   <v>       0.01388889</v>
   <v>       0.02777778</v>
   <v>       0.02777778</v>
   <v>       0.01388889</v>
   <v>       0.01388889</v>
   <v>       0.02777778</v>
   <v>       0.01388889</v>
   <v>       0.01388889</v>
   <v>       0.01388889</v>
   <v>       0.00347222</v>
   <v>       0.00462963</v>
   <v>       0.01388889</v>
   <v>       0.01388889</v>
   <v>       0.00694444</v>
   <v>       0.01388889</v>
   <v>       0.02777778</v>
   <v>       0.01388889</v>
   <v>       0.01388889</v>
   <v>       0.01388889</v>
   <v>       0.00347222</v>
   <v>       0.00462963</v>
   <v>       0.01388889</v>
   <v>       0.00694444</v>
   <v>       0.01388889</v>
   <v>       0.01388889</v>
   <v>       0.00347222</v>
   <v>       0.00462963</v>
   <v>       0.00694444</v>
   <v>       0.00347222</v>
   <v>       0.00057870</v>
  </varray>
 </kpoints>
 <parameters>
  <separator name="general" >
   <i type="string" name="SYSTEM">unknown system</i>
   <i type="logical" name="LCOMPAT"> F  </i>
  </separator>
  <separator name="electronic" >
   <i type="string" name="PREC">accura</i>
   <i name="ENMAX">    750.00000000</i>
   <i name="ENAUG">    516.45600000</i>
   <i name="EDIFF">      0.00000001</i>
   <i type="int" name="IALGO">    38</i>
   <i type="int" name="IWAVPR">    10</i>
   <i type="int" name="NBANDS">    26</i>
   <i name="NELECT">     44.00000000</i>
   <separator name="electronic smearing" >
    <i type="int" name="ISMEAR">     0</i>
    <i name="SIGMA">      0.01000000</i>
   </separator>
   <separator name="electronic projectors" >
    <i type="logical" name="LREAL"> F  </i>
    <v name="ROPT">      0.00000000</v>
    <i type="int" name="LMAXPAW">  -100</i>
    <i type="int" name="LMAXMIX">     2</i>
   </separator>
   <separator name="electronic startup" >
    <i type="int" name="ISTART">     0</i>
    <i type="int" name="ICHARG">     2</i>
    <i type="int" name="INIWAV">     1</i>
   </separator>
   <separator name="electronic spin" >
    <i type="int" name="ISPIN">     1</i>
    <i type="logical" name="LNONCOLLINEAR"> F  </i>
    <v name="MAGMOM">      1.00000000      1.00000000      1.00000000      1.00000000</v>
    <i name="NUPDOWN">     -1.00000000</i>
    <i type="logical" name="LSORBIT"> F  </i>
    <v name="SAXIS">      0.00000000      0.00000000      1.00000000</v>
    <i type="logical" name="LSPIRAL"> F  </i>
    <v name="QSPIRAL">      0.00000000      0.00000000      0.00000000</v>
    <i type="logical" name="LZEROZ"> F  </i>
   </separator>
   <separator name="electronic exchange-correlation" >
    <i type="string" name="GGA">--</i>
    <i type="int" name="VOSKOWN">     0</i>
    <i type="logical" name="LASPH"> F  </i>
    <i type="logical" name="LMETAGGA"> F  </i>
    <i type="string" name="GGA2">--</i>
   </separator>
   <separator name="electronic convergence" >
    <i type="int" name="NELM">    60</i>
    <i type="int" name="NELMDL">     0</i>
    <i type="int" name="NELMIN">     2</i>
    <i name="ENINI">    750.00000000</i>
    <separator name="electronic convergence detail" >
     <i type="logical" name="LDIAG"> T  </i>
     <i name="WEIMIN">      0.00000000</i>
     <i name="EBREAK">      0.00000000</i>
     <i name="DEPER">      0.30000000</i>
     <i type="int" name="NRMM">     4</i>
     <i name="TIME">      0.10000000</i>
    </separator>
   </separator>
   <separator name="electronic mixer" >
    <i name="AMIX">      0.40000000</i>
    <i name="BMIX">      1.00000000</i>
    <i name="AMIN">      0.10000000</i>
    <i name="AMIX_MAG">      1.60000000</i>
    <i name="BMIX_MAG">      1.00000000</i>
    <separator name="electronic mixer details" >
     <i type="int" name="IMIX">     4</i>
     <i type="int" name="MAXMIX">   -45</i>
     <i name="WC">    100.00000000</i>
     <i type="int" name="INIMIX">     1</i>
     <i type="int" name="MIXPRE">     1</i>
     <i type="int" name="MREMOVE">     5</i>
    </separator>
   </separator>
   <separator name="electronic dipolcorrection" >
    <i type="int" name="IDIPOL">     0</i>
    <i type="logical" name="LDIPOL"> F  </i>
    <v name="DIPOL">   -100.00000000</v>
    <i name="EFIELD">      0.00000000</i>
   </separator>
  </separator>
  <separator name="grids" >
   <i type="int" name="NGX">    32</i>
   <i type="int" name="NGY">    32</i>
   <i type="int" name="NGZ">    32</i>
   <i type="int" name="NGXF">    64</i>
   <i type="int" name="NGYF">    64</i>
   <i type="int" name="NGZF">    64</i>
   <i type="logical" name="ADDGRID"> T  </i>
  </separator>
  <separator name="ionic" >
   <i type="int" name="NSW">     0</i>
   <i type="int" name="IBRION">    -1</i>
   <i type="int" name="ISIF">     2</i>
   <i name="PSTRESS">      0.00000000</i>
   <i name="EDIFFG">      0.00000010</i>
   <i type="int" name="NFREE">     0</i>
   <i name="POTIM">      0.50000000</i>
   <i name="SMASS">     -3.00000000</i>
  </separator>
  <separator name="ionic md" >
   <i name="TEBEG">      0.00010000</i>
   <i name="TEEND">      0.00010000</i>
   <i type="int" name="NBLOCK">     1</i>
   <i type="int" name="KBLOCK">     1</i>
   <i type="int" name="NPACO">   256</i>
   <i name="APACO">     16.00000000</i>
  </separator>
  <separator name="symmetry" >
   <i type="int" name="ISYM">     2</i>
   <i name="SYMPREC">      0.00001000</i>
  </separator>
  <separator name="dos" >
   <i type="logical" name="LORBIT"> F  </i>
   <v name="RWIGS">     -1.00000000</v>
   <i type="int" name="NEDOS">   301</i>
   <i name="EMIN">     10.00000000</i>
   <i name="EMAX">    -10.00000000</i>
  </separator>
  <separator name="writing" >
   <i type="int" name="NWRITE">     2</i>
   <i type="logical" name="LWAVE"> F  </i>
   <i type="logical" name="LCHARG"> F  </i>
   <i type="logical" name="LPARD"> F  </i>
   <i type="logical" name="LVTOT"> F  </i>
   <i type="logical" name="LELF"> F  </i>
   <i type="logical" name="LOPTICS"> F  </i>
   <i name="STM">      0.00000000</i>
  </separator>
  <separator name="performance" >
   <i type="int" name="NPAR">     2</i>
   <i type="int" name="NSIM">     4</i>
   <i type="int" name="NBLK">   224</i>
   <i type="logical" name="LPLANE"> T  </i>
   <i type="logical" name="LCRITICAL_MEM"> F  </i>
   <i type="logical" name="LSCALAPACK"> F  </i>
   <i type="logical" name="LSCALU"> F  </i>
   <i type="logical" name="LASYNC"> F  </i>
  </separator>
  <separator name="miscellaneous" >
   <i type="int" name="IDIOT">     3</i>
   <i type="logical" name="LMUSIC"> F  </i>
   <v name="POMASS">     63.54600000</v>
   <i type="logical" name="LCORR"> T  </i>
  </separator>
  <i type="logical" name="LREAL_COMPAT"> F  </i>
  <i type="logical" name="GGA_COMPAT"> T  </i>
  <i type="logical" name="LBERRY"> F  </i>
  <i type="int" name="ICORELEVEL">     0</i>
  <i type="logical" name="LDAU"> F  </i>
  <i type="int" name="I_CONSTRAINED_M">     0</i>
 </parameters>
 <atominfo>
  <atoms>       4</atoms>
  <types>       1</types>
  <array name="atoms" >
   <dimension dim="1">ion</dimension>
   <field type="string">element</field>
   <field type="int">atomtype</field>
   <set>
    <rc><c>Cu</c><c>   1</c></rc>
    <rc><c>Cu</c><c>   1</c></rc>
    <rc><c>Cu</c><c>   1</c></rc>
    <rc><c>Cu</c><c>   1</c></rc>
   </set>
  </array>
  <array name="atomtypes" >
   <dimension dim="1">type</dimension>
   <field type="int">atomspertype</field>
   <field type="string">element</field>
   <field>mass</field>
   <field>valence</field>
   <field type="string">pseudopotential</field>
   <set>
    <rc><c>   4</c><c>Cu</c><c>     63.54600000</c><c>     11.00000000</c><c> PAW_PBE Cu 05Jan2001                   </c></rc>
   </set>
  </array>
 </atominfo>
 <structure name="initialpos" >
  <crystal>
   <varray name="basis" >
    <v>       3.63641581      0.00000000      0.00000000</v>
    <v>       0.00000000      3.63641581      0.00000000</v>
    <v>       0.00000000      0.00000000      3.63641581</v>
   </varray>
   <i name="volume">     48.08621705</i>
   <varray name="rec_basis" >
    <v>       0.27499605      0.00000000      0.00000000</v>
    <v>       0.00000000      0.27499605      0.00000000</v>
    <v>       0.00000000      0.00000000      0.27499605</v>
   </varray>
  </crystal>
  <varray name="positions" >
   <v>       0.00000000      0.00000000      0.00000000</v>
   <v>       0.50000000      0.50000000      0.00000000</v>
   <v>       0.50000000      0.00000000      0.50000000</v>
   <v>       0.00000000      0.50000000      0.50000000</v>
  </varray>
 </structure>
 <calculation>
  <scstep>
   <time name="dav">   27.21  245.89</time>
   <time name="total">   27.81  249.80</time>
   <energy>
    <i name="alphaZ">    425.11142968</i>
    <i name="ewald">  -4393.63708839</i>
    <i name="hartreedc">  -1318.48477470</i>
    <i name="XCdc">    175.41199005</i>
    <i name="pawpsdc">   4328.20916945</i>
    <i name="pawaedc">  -4904.30802700</i>
    <i name="eentropy">     -0.00018905</i>
    <i name="bandstr">    438.80301997</i>
    <i name="atom">   5563.91755062</i>
    <i name="e_fr_energy">    315.02308063</i>
    <i name="e_wo_entrp">    315.02326969</i>
    <i name="e_0_energy">    315.02317516</i>
   </energy>
  </scstep>
  <scstep>
   <time name="dav">   27.86  278.46</time>
   <time name="total">   27.87  278.62</time>
   <energy>
    <i name="e_fr_energy">      0.48791181</i>
    <i name="e_wo_entrp">      0.48814803</i>
    <i name="e_0_energy">      0.48802992</i>
   </energy>
  </scstep>
  <scstep>
   <time name="dav">   27.04  270.34</time>
   <time name="total">   27.11  271.13</time>
   <energy>
    <i name="e_fr_energy">    -18.13712260</i>
    <i name="e_wo_entrp">    -18.13701259</i>
    <i name="e_0_energy">    -18.13706759</i>
   </energy>
  </scstep>
  <scstep>
   <time name="dav">   29.89  298.76</time>
   <time name="total">   29.95  299.49</time>
   <energy>
    <i name="e_fr_energy">    -18.34170314</i>
    <i name="e_wo_entrp">    -18.34156621</i>
    <i name="e_0_energy">    -18.34163468</i>
   </energy>
  </scstep>
  <scstep>
   <time name="dav">   29.30  292.96</time>
   <time name="total">   29.96  299.65</time>
   <energy>
    <i name="e_fr_energy">    -18.34256226</i>
    <i name="e_wo_entrp">    -18.34242525</i>
    <i name="e_0_energy">    -18.34249376</i>
   </energy>
  </scstep>
  <scstep>
   <time name="dav">   27.66  276.56</time>
   <time name="total">   28.78  287.78</time>
   <energy>
    <i name="e_fr_energy">    -16.17837529</i>
    <i name="e_wo_entrp">    -16.17833777</i>
    <i name="e_0_energy">    -16.17835653</i>
   </energy>
  </scstep>
  <scstep>
   <time name="dav">   28.79  287.97</time>
   <time name="total">   29.89  299.04</time>
   <energy>
    <i name="e_fr_energy">    -14.92300796</i>
    <i name="e_wo_entrp">    -14.92286885</i>
    <i name="e_0_energy">    -14.92293841</i>
   </energy>
  </scstep>
  <scstep>
   <time name="dav">   28.06  280.56</time>
   <time name="total">   29.19  291.86</time>
   <energy>
    <i name="e_fr_energy">    -14.89137582</i>
    <i name="e_wo_entrp">    -14.89123667</i>
    <i name="e_0_energy">    -14.89130624</i>
   </energy>
  </scstep>
  <scstep>
   <time name="dav">   29.67  296.64</time>
   <time name="total">   30.73  307.30</time>
   <energy>
    <i name="e_fr_energy">    -14.88046281</i>
    <i name="e_wo_entrp">    -14.88032374</i>
    <i name="e_0_energy">    -14.88039327</i>
   </energy>
  </scstep>
  <scstep>
   <time name="dav">   28.58  285.82</time>
   <time name="total">   29.58  295.77</time>
   <energy>
    <i name="e_fr_energy">    -14.88055409</i>
    <i name="e_wo_entrp">    -14.88041502</i>
    <i name="e_0_energy">    -14.88048456</i>
   </energy>
  </scstep>
  <scstep>
   <time name="dav">   29.30  271.89</time>
   <time name="total">   30.56  283.85</time>
   <energy>
    <i name="e_fr_energy">    -14.88054816</i>
    <i name="e_wo_entrp">    -14.88040908</i>
    <i name="e_0_energy">    -14.88047862</i>
   </energy>
  </scstep>
  <scstep>
   <time name="dav">   25.58  230.25</time>
   <time name="total">   27.00  243.00</time>
   <energy>
    <i name="e_fr_energy">    -14.88055355</i>
    <i name="e_wo_entrp">    -14.88041448</i>
    <i name="e_0_energy">    -14.88048402</i>
   </energy>
  </scstep>
  <scstep>
   <time name="dav">   24.27  218.38</time>
   <time name="total">   25.26  227.31</time>
   <energy>
    <i name="e_fr_energy">    -14.88055421</i>
    <i name="e_wo_entrp">    -14.88041514</i>
    <i name="e_0_energy">    -14.88048467</i>
   </energy>
  </scstep>
  <scstep>
   <time name="dav">   16.02  131.08</time>
   <time name="total">   17.23  141.21</time>
   <energy>
    <i name="e_fr_energy">    -14.88055426</i>
    <i name="e_wo_entrp">    -14.88041519</i>
    <i name="e_0_energy">    -14.88048473</i>
   </energy>
  </scstep>
  <scstep>
   <time name="dav">   12.51   93.05</time>
   <time name="total">   13.53  100.70</time>
   <energy>
    <i name="e_fr_energy">    -14.88055424</i>
    <i name="e_wo_entrp">    -14.88041517</i>
    <i name="e_0_energy">    -14.88048471</i>
   </energy>
  </scstep>
  <scstep>
   <time name="dav">   11.40   76.77</time>
   <time name="total">   11.67   78.59</time>
   <energy>
    <i name="alphaZ">    425.11142968</i>
    <i name="ewald">  -4393.63708839</i>
    <i name="hartreedc">  -1230.91933363</i>
    <i name="XCdc">    171.09989102</i>
    <i name="pawpsdc">   4383.55517764</i>
    <i name="pawaedc">  -4962.29859962</i>
    <i name="eentropy">     -0.00013907</i>
    <i name="bandstr">     28.29055751</i>
    <i name="atom">   5563.91755062</i>
    <i name="e_fr_energy">    -14.88055423</i>
    <i name="e_wo_entrp">    -14.88041516</i>
    <i name="e_0_energy">    -14.88048470</i>
   </energy>
  </scstep>
  <structure>
   <crystal>
    <varray name="basis" >
     <v>       3.63641581      0.00000000      0.00000000</v>
     <v>       0.00000000      3.63641581      0.00000000</v>
     <v>       0.00000000      0.00000000      3.63641581</v>
    </varray>
    <i name="volume">     48.08621705</i>
    <varray name="rec_basis" >
     <v>       0.27499605      0.00000000      0.00000000</v>
     <v>       0.00000000      0.27499605      0.00000000</v>
     <v>       0.00000000      0.00000000      0.27499605</v>
    </varray>
   </crystal>
   <varray name="positions" >
    <v>       0.00000000      0.00000000      0.00000000</v>
    <v>       0.50000000      0.50000000      0.00000000</v>
    <v>       0.50000000      0.00000000      0.50000000</v>
    <v>       0.00000000      0.50000000      0.50000000</v>
   </varray>
  </structure>
  <varray name="forces" >
   <v>       0.00000000      0.00000000     -0.00000000</v>
   <v>       0.00000000     -0.00000000      0.00000000</v>
   <v>       0.00000000     -0.00000000     -0.00000000</v>
   <v>       0.00000000     -0.00000000      0.00000000</v>
  </varray>
  <varray name="stress" >
   <v>       0.97620015     -0.00000000     -0.00000000</v>
   <v>       0.00000000      0.97620015     -0.00000000</v>
   <v>       0.00000000     -0.00000000      0.97620015</v>
  </varray>
  <energy>
   <i name="e_fr_energy">    -14.88055423</i>
   <i name="e_wo_entrp">    -14.88048470</i>
   <i name="e_0_energy">     -0.00013907</i>
  </energy>
  <eigenvalues>
   <array>
    <dimension dim="1">band</dimension>
    <dimension dim="2">kpoint</dimension>
    <dimension dim="3">spin</dimension>
    <field>eigene</field>
    <field>occ</field>
    <set>
     <set comment="spin 1">
      <set comment="kpoint 1">
       <r>  -5.5731  1.0000</r>
       <r>  -1.1481  1.0000</r>
       <r>  -1.1481  1.0000</r>
       <r>  -1.1481  1.0000</r>
       <r>  -0.7066  1.0000</r>
       <r>  -0.7066  1.0000</r>
       <r>  -0.7066  1.0000</r>
       <r>   0.6472  1.0000</r>
       <r>   0.6472  1.0000</r>
       <r>   0.6472  1.0000</r>
       <r>   1.4529  1.0000</r>
       <r>   1.4529  1.0000</r>
       <r>   1.9881  1.0000</r>
       <r>   1.9881  1.0000</r>
       <r>   1.9881  1.0000</r>
       <r>   2.1382  1.0000</r>
       <r>   2.1382  1.0000</r>
       <r>   2.1382  1.0000</r>
       <r>   2.1382  1.0000</r>
       <r>   2.1382  1.0000</r>
       <r>   2.1382  1.0000</r>
       <r>   5.1658  0.0000</r>
       <r>   5.1658  0.0000</r>
       <r>   5.1658  0.0000</r>
       <r>  10.6378  0.0000</r>
       <r>  10.6378  0.0000</r>
      </set>
      <set comment="kpoint 2">
       <r>  -5.4897  1.0000</r>
       <r>  -1.1492  1.0000</r>
       <r>  -1.1095  1.0000</r>
       <r>  -1.1095  1.0000</r>
       <r>  -0.6847  1.0000</r>
       <r>  -0.6834  1.0000</r>
       <r>  -0.6834  1.0000</r>
       <r>   0.6230  1.0000</r>
       <r>   0.6668  1.0000</r>
       <r>   0.6668  1.0000</r>
       <r>   1.4309  1.0000</r>
       <r>   1.4618  1.0000</r>
       <r>   1.9597  1.0000</r>
       <r>   1.9597  1.0000</r>
       <r>   1.9788  1.0000</r>
       <r>   1.9959  1.0000</r>
       <r>   1.9959  1.0000</r>
       <r>   2.1046  1.0000</r>
       <r>   2.1046  1.0000</r>
       <r>   2.1383  1.0000</r>
       <r>   2.1383  1.0000</r>
       <r>   4.6451  0.0000</r>
       <r>   5.3829  0.0000</r>
       <r>   5.3829  0.0000</r>
       <r>  10.6693  0.0000</r>
       <r>  10.6693  0.0000</r>
      </set>
      <set comment="kpoint 3">
       <r>  -5.2411  1.0000</r>
       <r>  -1.1685  1.0000</r>
       <r>  -0.9991  1.0000</r>
       <r>  -0.9991  1.0000</r>
       <r>  -0.6202  1.0000</r>
       <r>  -0.6135  1.0000</r>
       <r>  -0.6135  1.0000</r>
       <r>   0.5521  1.0000</r>
       <r>   0.7249  1.0000</r>
       <r>   0.7249  1.0000</r>
       <r>   1.3674  1.0000</r>
       <r>   1.4881  1.0000</r>
       <r>   1.6570  1.0000</r>
       <r>   1.6570  1.0000</r>
       <r>   1.8770  1.0000</r>
       <r>   1.8770  1.0000</r>
       <r>   1.9515  1.0000</r>
       <r>   2.0084  1.0000</r>
       <r>   2.0084  1.0000</r>
       <r>   2.1384  1.0000</r>
       <r>   2.1384  1.0000</r>
       <r>   3.5562  1.0000</r>
       <r>   5.9458  0.0000</r>
       <r>   5.9458  0.0000</r>
       <r>  10.7668  0.0000</r>
       <r>  10.7668  0.0000</r>
      </set>
      <set comment="kpoint 4">
       <r>  -4.8333  1.0000</r>
       <r>  -1.2644  1.0000</r>
       <r>  -0.8341  1.0000</r>
       <r>  -0.8341  1.0000</r>
       <r>  -0.5170  1.0000</r>
       <r>  -0.4957  1.0000</r>
       <r>  -0.4957  1.0000</r>
       <r>   0.4401  1.0000</r>
       <r>   0.8201  1.0000</r>
       <r>   0.8201  1.0000</r>
       <r>   1.2511  1.0000</r>
       <r>   1.2511  1.0000</r>
       <r>   1.2706  1.0000</r>
       <r>   1.5299  1.0000</r>
       <r>   1.7497  1.0000</r>
       <r>   1.7497  1.0000</r>
       <r>   1.8619  1.0000</r>
       <r>   1.8619  1.0000</r>
       <r>   1.9083  1.0000</r>
       <r>   2.1386  1.0000</r>
       <r>   2.1386  1.0000</r>
       <r>   2.4427  1.0000</r>
       <r>   6.7234  0.0000</r>
       <r>   6.7234  0.0000</r>
       <r>  10.9387  0.0000</r>
       <r>  10.9387  0.0000</r>
      </set>
      <set comment="kpoint 5">
       <r>  -4.2781  1.0000</r>
       <r>  -1.5485  1.0000</r>
       <r>  -0.6469  1.0000</r>
       <r>  -0.6469  1.0000</r>
       <r>  -0.3811  1.0000</r>
       <r>  -0.3285  1.0000</r>
       <r>  -0.3285  1.0000</r>
       <r>   0.2955  1.0000</r>
       <r>   0.8491  1.0000</r>
       <r>   0.8491  1.0000</r>
       <r>   0.9497  1.0000</r>
       <r>   0.9497  1.0000</r>
       <r>   1.1563  1.0000</r>
       <r>   1.5846  1.0000</r>
       <r>   1.5910  1.0000</r>
       <r>   1.5999  1.0000</r>
       <r>   1.5999  1.0000</r>
       <r>   1.6821  1.0000</r>
       <r>   1.6821  1.0000</r>
       <r>   1.8522  1.0000</r>
       <r>   2.1388  1.0000</r>
       <r>   2.1388  1.0000</r>
       <r>   7.6428  0.0000</r>
       <r>   7.6428  0.0000</r>
       <r>  11.1977  0.0000</r>
       <r>  11.1977  0.0000</r>
      </set>
      <set comment="kpoint 6">
       <r>  -3.5984  1.0000</r>
       <r>  -2.1047  1.0000</r>
       <r>  -0.4890  1.0000</r>
       <r>  -0.4890  1.0000</r>
       <r>  -0.2211  1.0000</r>
       <r>  -0.1103  1.0000</r>
       <r>  -0.1103  1.0000</r>
       <r>   0.1291  1.0000</r>
       <r>   0.4812  1.0000</r>
       <r>   0.4812  1.0000</r>
       <r>   1.0529  1.0000</r>
       <r>   1.1090  1.0000</r>
       <r>   1.1090  1.0000</r>
       <r>   1.1397  1.0000</r>
       <r>   1.4694  1.0000</r>
       <r>   1.4694  1.0000</r>
       <r>   1.4865  1.0000</r>
       <r>   1.4865  1.0000</r>
       <r>   1.6486  1.0000</r>
       <r>   1.7871  1.0000</r>
       <r>   2.1389  1.0000</r>
       <r>   2.1389  1.0000</r>
       <r>   8.6704  0.0000</r>
       <r>   8.6704  0.0000</r>
       <r>  10.9899  0.0000</r>
       <r>  10.9899  0.0000</r>
      </set>
      <set comment="kpoint 7">
       <r>  -2.8412  1.0000</r>
       <r>  -2.8412  1.0000</r>
       <r>  -0.4250  1.0000</r>
       <r>  -0.4250  1.0000</r>
       <r>  -0.0472  1.0000</r>
       <r>  -0.0472  1.0000</r>
       <r>   0.1599  1.0000</r>
       <r>   0.1599  1.0000</r>
       <r>   0.1599  1.0000</r>
       <r>   0.1599  1.0000</r>
       <r>   1.0132  1.0000</r>
       <r>   1.0132  1.0000</r>
       <r>   1.2912  1.0000</r>
       <r>   1.2912  1.0000</r>
       <r>   1.2912  1.0000</r>
       <r>   1.2912  1.0000</r>
       <r>   1.4153  1.0000</r>
       <r>   1.4153  1.0000</r>
       <r>   1.7177  1.0000</r>
       <r>   1.7177  1.0000</r>
       <r>   2.1390  1.0000</r>
       <r>   2.1390  1.0000</r>
       <r>   9.7897  0.0000</r>
       <r>   9.7897  0.0000</r>
       <r>   9.7897  0.0000</r>
       <r>   9.7897  0.0000</r>
      </set>
      <set comment="kpoint 8">
       <r>  -5.4066  1.0000</r>
       <r>  -1.1096  1.0000</r>
       <r>  -1.1096  1.0000</r>
       <r>  -1.0718  1.0000</r>
       <r>  -0.6619  1.0000</r>
       <r>  -0.6619  1.0000</r>
       <r>  -0.6610  1.0000</r>
       <r>   0.6095  1.0000</r>
       <r>   0.6760  1.0000</r>
       <r>   0.6843  1.0000</r>
       <r>   1.4249  1.0000</r>
       <r>   1.4568  1.0000</r>
       <r>   1.8908  1.0000</r>
       <r>   1.9156  1.0000</r>
       <r>   1.9156  1.0000</r>
       <r>   1.9324  1.0000</r>
       <r>   1.9898  1.0000</r>
       <r>   1.9898  1.0000</r>
       <r>   2.1046  1.0000</r>
       <r>   2.1046  1.0000</r>
       <r>   2.1167  1.0000</r>
       <r>   4.8586  0.0000</r>
       <r>   4.8586  0.0000</r>
       <r>   5.5846  0.0000</r>
       <r>  10.7011  0.0000</r>
       <r>  11.3682  0.0000</r>
      </set>
      <set comment="kpoint 9">
       <r>  -5.1591  1.0000</r>
       <r>  -1.1261  1.0000</r>
       <r>  -0.9964  1.0000</r>
       <r>  -0.9641  1.0000</r>
       <r>  -0.5987  1.0000</r>
       <r>  -0.5935  1.0000</r>
       <r>  -0.5933  1.0000</r>
       <r>   0.5456  1.0000</r>
       <r>   0.7286  1.0000</r>
       <r>   0.7361  1.0000</r>
       <r>   1.3700  1.0000</r>
       <r>   1.4807  1.0000</r>
       <r>   1.5915  1.0000</r>
       <r>   1.5924  1.0000</r>
       <r>   1.7931  1.0000</r>
       <r>   1.8531  1.0000</r>
       <r>   1.8852  1.0000</r>
       <r>   1.9605  1.0000</r>
       <r>   2.0081  1.0000</r>
       <r>   2.1044  1.0000</r>
       <r>   2.1051  1.0000</r>
       <r>   3.7855  0.0000</r>
       <r>   5.3952  0.0000</r>
       <r>   6.1190  0.0000</r>
       <r>  10.7984  0.0000</r>
       <r>  11.4992  0.0000</r>
      </set>
      <set comment="kpoint 10">
       <r>  -4.7532  1.0000</r>
       <r>  -1.2169  1.0000</r>
       <r>  -0.8268  1.0000</r>
       <r>  -0.8027  1.0000</r>
       <r>  -0.4976  1.0000</r>
       <r>  -0.4808  1.0000</r>
       <r>  -0.4778  1.0000</r>
       <r>   0.4377  1.0000</r>
       <r>   0.8182  1.0000</r>
       <r>   0.8221  1.0000</r>
       <r>   1.1881  1.0000</r>
       <r>   1.2140  1.0000</r>
       <r>   1.2815  1.0000</r>
       <r>   1.5275  1.0000</r>
       <r>   1.5808  1.0000</r>
       <r>   1.7307  1.0000</r>
       <r>   1.7573  1.0000</r>
       <r>   1.8614  1.0000</r>
       <r>   1.9048  1.0000</r>
       <r>   2.1024  1.0000</r>
       <r>   2.1042  1.0000</r>
       <r>   2.7436  1.0000</r>
       <r>   6.1135  0.0000</r>
       <r>   6.8727  0.0000</r>
       <r>  10.9623  0.0000</r>
       <r>  11.7288  0.0000</r>
      </set>
      <set comment="kpoint 11">
       <r>  -4.2008  1.0000</r>
       <r>  -1.4944  1.0000</r>
       <r>  -0.6329  1.0000</r>
       <r>  -0.6172  1.0000</r>
       <r>  -0.3645  1.0000</r>
       <r>  -0.3239  1.0000</r>
       <r>  -0.3140  1.0000</r>
       <r>   0.2970  1.0000</r>
       <r>   0.7932  1.0000</r>
       <r>   0.8304  1.0000</r>
       <r>   0.9125  1.0000</r>
       <r>   0.9507  1.0000</r>
       <r>   1.1949  1.0000</r>
       <r>   1.2629  1.0000</r>
       <r>   1.5867  1.0000</r>
       <r>   1.5898  1.0000</r>
       <r>   1.6075  1.0000</r>
       <r>   1.6815  1.0000</r>
       <r>   1.8011  1.0000</r>
       <r>   2.0737  1.0000</r>
       <r>   2.1019  1.0000</r>
       <r>   2.1039  1.0000</r>
       <r>   6.9424  0.0000</r>
       <r>   7.7750  0.0000</r>
       <r>  10.9358  0.0000</r>
       <r>  11.3761  0.0000</r>
      </set>
      <set comment="kpoint 12">
       <r>  -3.5251  1.0000</r>
       <r>  -2.0435  1.0000</r>
       <r>  -0.4668  1.0000</r>
       <r>  -0.4577  1.0000</r>
       <r>  -0.2079  1.0000</r>
       <r>  -0.1235  1.0000</r>
       <r>  -0.1005  1.0000</r>
       <r>   0.1345  1.0000</r>
       <r>   0.4356  1.0000</r>
       <r>   0.4753  1.0000</r>
       <r>   0.9430  1.0000</r>
       <r>   0.9959  1.0000</r>
       <r>   1.1093  1.0000</r>
       <r>   1.2107  1.0000</r>
       <r>   1.4624  1.0000</r>
       <r>   1.4747  1.0000</r>
       <r>   1.4861  1.0000</r>
       <r>   1.5812  1.0000</r>
       <r>   1.6638  1.0000</r>
       <r>   1.8461  1.0000</r>
       <r>   2.1022  1.0000</r>
       <r>   2.1034  1.0000</r>
       <r>   7.8523  0.0000</r>
       <r>   8.7908  0.0000</r>
       <r>   9.8843  0.0000</r>
       <r>  11.0965  0.0000</r>
      </set>
      <set comment="kpoint 13">
       <r>  -2.7734  1.0000</r>
       <r>  -2.7734  1.0000</r>
       <r>  -0.3953  1.0000</r>
       <r>  -0.3953  1.0000</r>
       <r>  -0.0377  1.0000</r>
       <r>  -0.0377  1.0000</r>
       <r>   0.1281  1.0000</r>
       <r>   0.1281  1.0000</r>
       <r>   0.1631  1.0000</r>
       <r>   0.1631  1.0000</r>
       <r>   0.9188  1.0000</r>
       <r>   0.9188  1.0000</r>
       <r>   1.2910  1.0000</r>
       <r>   1.2910  1.0000</r>
       <r>   1.3644  1.0000</r>
       <r>   1.3644  1.0000</r>
       <r>   1.4152  1.0000</r>
       <r>   1.4152  1.0000</r>
       <r>   1.7469  1.0000</r>
       <r>   1.7469  1.0000</r>
       <r>   2.1028  1.0000</r>
       <r>   2.1028  1.0000</r>
       <r>   8.8335  0.0000</r>
       <r>   8.8335  0.0000</r>
       <r>   9.9018  0.0000</r>
       <r>   9.9018  0.0000</r>
      </set>
      <set comment="kpoint 14">
       <r>  -4.9150  1.0000</r>
       <r>  -1.0041  1.0000</r>
       <r>  -1.0041  1.0000</r>
       <r>  -0.8642  1.0000</r>
       <r>  -0.5340  1.0000</r>
       <r>  -0.5340  1.0000</r>
       <r>  -0.5335  1.0000</r>
       <r>   0.5073  1.0000</r>
       <r>   0.7599  1.0000</r>
       <r>   0.7689  1.0000</r>
       <r>   1.3502  1.0000</r>
       <r>   1.3937  1.0000</r>
       <r>   1.4244  1.0000</r>
       <r>   1.4244  1.0000</r>
       <r>   1.4888  1.0000</r>
       <r>   1.7832  1.0000</r>
       <r>   1.8796  1.0000</r>
       <r>   1.8796  1.0000</r>
       <r>   2.0074  1.0000</r>
       <r>   2.0074  1.0000</r>
       <r>   2.0527  1.0000</r>
       <r>   4.3066  0.0000</r>
       <r>   4.3066  0.0000</r>
       <r>   6.5957  0.0000</r>
       <r>  10.8844  0.0000</r>
       <r>  12.1690  0.0000</r>
      </set>
      <set comment="kpoint 15">
       <r>  -4.5149  1.0000</r>
       <r>  -1.0800  1.0000</r>
       <r>  -0.8200  1.0000</r>
       <r>  -0.7140  1.0000</r>
       <r>  -0.4392  1.0000</r>
       <r>  -0.4349  1.0000</r>
       <r>  -0.4253  1.0000</r>
       <r>   0.4208  1.0000</r>
       <r>   0.8165  1.0000</r>
       <r>   0.8386  1.0000</r>
       <r>   1.0243  1.0000</r>
       <r>   1.0987  1.0000</r>
       <r>   1.1837  1.0000</r>
       <r>   1.2878  1.0000</r>
       <r>   1.5439  1.0000</r>
       <r>   1.6744  1.0000</r>
       <r>   1.7580  1.0000</r>
       <r>   1.8345  1.0000</r>
       <r>   1.8602  1.0000</r>
       <r>   2.0063  1.0000</r>
       <r>   2.0225  1.0000</r>
       <r>   3.2635  1.0000</r>
       <r>   4.9582  0.0000</r>
       <r>   7.2951  0.0000</r>
       <r>  10.6383  0.0000</r>
       <r>  11.2366  0.0000</r>
      </set>
      <set comment="kpoint 16">
       <r>  -3.9714  1.0000</r>
       <r>  -1.3381  1.0000</r>
       <r>  -0.6057  1.0000</r>
       <r>  -0.5355  1.0000</r>
       <r>  -0.3147  1.0000</r>
       <r>  -0.3065  1.0000</r>
       <r>  -0.2715  1.0000</r>
       <r>   0.2965  1.0000</r>
       <r>   0.6491  1.0000</r>
       <r>   0.7722  1.0000</r>
       <r>   0.8527  1.0000</r>
       <r>   0.9264  1.0000</r>
       <r>   0.9594  1.0000</r>
       <r>   1.2354  1.0000</r>
       <r>   1.5457  1.0000</r>
       <r>   1.6120  1.0000</r>
       <r>   1.6308  1.0000</r>
       <r>   1.6802  1.0000</r>
       <r>   1.7375  1.0000</r>
       <r>   2.0049  1.0000</r>
       <r>   2.0093  1.0000</r>
       <r>   2.5153  1.0000</r>
       <r>   5.6912  0.0000</r>
       <r>   8.1556  0.0000</r>
       <r>   9.4803  0.0000</r>
       <r>  11.4398  0.0000</r>
      </set>
      <set comment="kpoint 17">
       <r>  -3.3086  1.0000</r>
       <r>  -1.8658  1.0000</r>
       <r>  -0.4127  1.0000</r>
       <r>  -0.3683  1.0000</r>
       <r>  -0.1686  1.0000</r>
       <r>  -0.1604  1.0000</r>
       <r>  -0.0723  1.0000</r>
       <r>   0.1485  1.0000</r>
       <r>   0.3175  1.0000</r>
       <r>   0.4562  1.0000</r>
       <r>   0.7775  1.0000</r>
       <r>   0.8288  1.0000</r>
       <r>   1.1134  1.0000</r>
       <r>   1.2710  1.0000</r>
       <r>   1.4376  1.0000</r>
       <r>   1.4769  1.0000</r>
       <r>   1.4855  1.0000</r>
       <r>   1.5813  1.0000</r>
       <r>   1.7410  1.0000</r>
       <r>   2.0037  1.0000</r>
       <r>   2.0043  1.0000</r>
       <r>   2.0983  1.0000</r>
       <r>   6.4982  0.0000</r>
       <r>   8.3787  0.0000</r>
       <r>   9.1407  0.0000</r>
       <r>  11.4098  0.0000</r>
      </set>
      <set comment="kpoint 18">
       <r>  -2.5744  1.0000</r>
       <r>  -2.5744  1.0000</r>
       <r>  -0.3126  1.0000</r>
       <r>  -0.3126  1.0000</r>
       <r>  -0.0105  1.0000</r>
       <r>  -0.0105  1.0000</r>
       <r>   0.0409  1.0000</r>
       <r>   0.0409  1.0000</r>
       <r>   0.1715  1.0000</r>
       <r>   0.1715  1.0000</r>
       <r>   0.7718  1.0000</r>
       <r>   0.7718  1.0000</r>
       <r>   1.2922  1.0000</r>
       <r>   1.2922  1.0000</r>
       <r>   1.4038  1.0000</r>
       <r>   1.4038  1.0000</r>
       <r>   1.4064  1.0000</r>
       <r>   1.4064  1.0000</r>
       <r>   1.8818  1.0000</r>
       <r>   1.8818  1.0000</r>
       <r>   2.0031  1.0000</r>
       <r>   2.0031  1.0000</r>
       <r>   7.3887  0.0000</r>
       <r>   7.3887  0.0000</r>
       <r>  10.2299  0.0000</r>
       <r>  10.2299  0.0000</r>
      </set>
      <set comment="kpoint 19">
       <r>  -4.1252  1.0000</r>
       <r>  -0.8716  1.0000</r>
       <r>  -0.8716  1.0000</r>
       <r>  -0.5835  1.0000</r>
       <r>  -0.3578  1.0000</r>
       <r>  -0.3415  1.0000</r>
       <r>  -0.3415  1.0000</r>
       <r>   0.3707  1.0000</r>
       <r>   0.8100  1.0000</r>
       <r>   0.8100  1.0000</r>
       <r>   0.8178  1.0000</r>
       <r>   0.8915  1.0000</r>
       <r>   0.9088  1.0000</r>
       <r>   1.2533  1.0000</r>
       <r>   1.5844  1.0000</r>
       <r>   1.6181  1.0000</r>
       <r>   1.7213  1.0000</r>
       <r>   1.7213  1.0000</r>
       <r>   1.8585  1.0000</r>
       <r>   1.8585  1.0000</r>
       <r>   1.9483  1.0000</r>
       <r>   3.8519  0.0000</r>
       <r>   3.8519  0.0000</r>
       <r>   7.9365  0.0000</r>
       <r>   9.3196  0.0000</r>
       <r>  11.3683  0.0000</r>
      </set>
      <set comment="kpoint 20">
       <r>  -3.5981  1.0000</r>
       <r>  -1.0990  1.0000</r>
       <r>  -0.6240  1.0000</r>
       <r>  -0.4285  1.0000</r>
       <r>  -0.2625  1.0000</r>
       <r>  -0.2322  1.0000</r>
       <r>  -0.2045  1.0000</r>
       <r>   0.2817  1.0000</r>
       <r>   0.4782  1.0000</r>
       <r>   0.6320  1.0000</r>
       <r>   0.6709  1.0000</r>
       <r>   0.8044  1.0000</r>
       <r>   0.9905  1.0000</r>
       <r>   1.2141  1.0000</r>
       <r>   1.4759  1.0000</r>
       <r>   1.5825  1.0000</r>
       <r>   1.6319  1.0000</r>
       <r>   1.6793  1.0000</r>
       <r>   1.7430  1.0000</r>
       <r>   1.8572  1.0000</r>
       <r>   1.9002  1.0000</r>
       <r>   3.0018  1.0000</r>
       <r>   4.5008  0.0000</r>
       <r>   8.0816  0.0000</r>
       <r>   8.7473  0.0000</r>
       <r>  11.6745  0.0000</r>
      </set>
      <set comment="kpoint 21">
       <r>  -2.9592  1.0000</r>
       <r>  -1.5898  1.0000</r>
       <r>  -0.3880  1.0000</r>
       <r>  -0.2537  1.0000</r>
       <r>  -0.1964  1.0000</r>
       <r>  -0.1050  1.0000</r>
       <r>  -0.0291  1.0000</r>
       <r>   0.1638  1.0000</r>
       <r>   0.1919  1.0000</r>
       <r>   0.4199  1.0000</r>
       <r>   0.5831  1.0000</r>
       <r>   0.7419  1.0000</r>
       <r>   1.1300  1.0000</r>
       <r>   1.2400  1.0000</r>
       <r>   1.3867  1.0000</r>
       <r>   1.4495  1.0000</r>
       <r>   1.4874  1.0000</r>
       <r>   1.4945  1.0000</r>
       <r>   1.8577  1.0000</r>
       <r>   1.8743  1.0000</r>
       <r>   1.9066  1.0000</r>
       <r>   2.4527  1.0000</r>
       <r>   5.2242  0.0000</r>
       <r>   6.9920  0.0000</r>
       <r>   9.6934  0.0000</r>
       <r>  11.9129  0.0000</r>
      </set>
      <set comment="kpoint 22">
       <r>  -2.2583  1.0000</r>
       <r>  -2.2583  1.0000</r>
       <r>  -0.2298  1.0000</r>
       <r>  -0.2298  1.0000</r>
       <r>  -0.0501  1.0000</r>
       <r>  -0.0501  1.0000</r>
       <r>   0.0307  1.0000</r>
       <r>   0.0307  1.0000</r>
       <r>   0.1816  1.0000</r>
       <r>   0.1816  1.0000</r>
       <r>   0.6457  1.0000</r>
       <r>   0.6457  1.0000</r>
       <r>   1.2996  1.0000</r>
       <r>   1.2996  1.0000</r>
       <r>   1.3462  1.0000</r>
       <r>   1.3462  1.0000</r>
       <r>   1.3713  1.0000</r>
       <r>   1.3713  1.0000</r>
       <r>   1.8621  1.0000</r>
       <r>   1.8621  1.0000</r>
       <r>   2.1235  1.0000</r>
       <r>   2.1235  1.0000</r>
       <r>   6.0460  0.0000</r>
       <r>   6.0460  0.0000</r>
       <r>  10.7532  0.0000</r>
       <r>  10.7532  0.0000</r>
      </set>
      <set comment="kpoint 23">
       <r>  -3.0969  1.0000</r>
       <r>  -0.8133  1.0000</r>
       <r>  -0.8133  1.0000</r>
       <r>  -0.3449  1.0000</r>
       <r>  -0.1712  1.0000</r>
       <r>  -0.1183  1.0000</r>
       <r>  -0.1183  1.0000</r>
       <r>   0.2404  1.0000</r>
       <r>   0.3850  1.0000</r>
       <r>   0.3850  1.0000</r>
       <r>   0.5294  1.0000</r>
       <r>   0.7577  1.0000</r>
       <r>   1.0594  1.0000</r>
       <r>   1.1666  1.0000</r>
       <r>   1.3862  1.0000</r>
       <r>   1.5016  1.0000</r>
       <r>   1.5016  1.0000</r>
       <r>   1.6809  1.0000</r>
       <r>   1.6809  1.0000</r>
       <r>   1.8076  1.0000</r>
       <r>   1.9149  1.0000</r>
       <r>   3.5431  1.0000</r>
       <r>   3.5431  1.0000</r>
       <r>   6.8455  0.0000</r>
       <r>   9.5115  0.0000</r>
       <r>  12.0265  0.0000</r>
      </set>
      <set comment="kpoint 24">
       <r>  -2.4977  1.0000</r>
       <r>  -1.2509  1.0000</r>
       <r>  -0.5399  1.0000</r>
       <r>  -0.3079  1.0000</r>
       <r>  -0.0606  1.0000</r>
       <r>  -0.0205  1.0000</r>
       <r>   0.0238  1.0000</r>
       <r>   0.1703  1.0000</r>
       <r>   0.1895  1.0000</r>
       <r>   0.3618  1.0000</r>
       <r>   0.4293  1.0000</r>
       <r>   0.6757  1.0000</r>
       <r>   1.1665  1.0000</r>
       <r>   1.1717  1.0000</r>
       <r>   1.3091  1.0000</r>
       <r>   1.3752  1.0000</r>
       <r>   1.3763  1.0000</r>
       <r>   1.4961  1.0000</r>
       <r>   1.6884  1.0000</r>
       <r>   1.7442  1.0000</r>
       <r>   2.1362  1.0000</r>
       <r>   2.8689  1.0000</r>
       <r>   4.1645  0.0000</r>
       <r>   5.7868  0.0000</r>
       <r>  10.4183  0.0000</r>
       <r>  12.5074  0.0000</r>
      </set>
      <set comment="kpoint 25">
       <r>  -1.8530  1.0000</r>
       <r>  -1.8530  1.0000</r>
       <r>  -0.3567  1.0000</r>
       <r>  -0.3567  1.0000</r>
       <r>   0.0471  1.0000</r>
       <r>   0.0471  1.0000</r>
       <r>   0.0794  1.0000</r>
       <r>   0.0794  1.0000</r>
       <r>   0.1876  1.0000</r>
       <r>   0.1876  1.0000</r>
       <r>   0.5507  1.0000</r>
       <r>   0.5507  1.0000</r>
       <r>   1.2467  1.0000</r>
       <r>   1.2467  1.0000</r>
       <r>   1.2986  1.0000</r>
       <r>   1.2986  1.0000</r>
       <r>   1.3213  1.0000</r>
       <r>   1.3213  1.0000</r>
       <r>   1.7071  1.0000</r>
       <r>   1.7071  1.0000</r>
       <r>   2.4314  1.0000</r>
       <r>   2.4314  1.0000</r>
       <r>   4.9007  0.0000</r>
       <r>   4.9007  0.0000</r>
       <r>  11.4470  0.0000</r>
       <r>  11.4470  0.0000</r>
      </set>
      <set comment="kpoint 26">
       <r>  -1.9602  1.0000</r>
       <r>  -0.9051  1.0000</r>
       <r>  -0.9051  1.0000</r>
       <r>  -0.4259  1.0000</r>
       <r>   0.0787  1.0000</r>
       <r>   0.0787  1.0000</r>
       <r>   0.0942  1.0000</r>
       <r>   0.1587  1.0000</r>
       <r>   0.2811  1.0000</r>
       <r>   0.3150  1.0000</r>
       <r>   0.3150  1.0000</r>
       <r>   0.5972  1.0000</r>
       <r>   1.1209  1.0000</r>
       <r>   1.2294  1.0000</r>
       <r>   1.2497  1.0000</r>
       <r>   1.2630  1.0000</r>
       <r>   1.2630  1.0000</r>
       <r>   1.5185  1.0000</r>
       <r>   1.5185  1.0000</r>
       <r>   1.6373  1.0000</r>
       <r>   2.4259  1.0000</r>
       <r>   3.3669  1.0000</r>
       <r>   3.3669  1.0000</r>
       <r>   4.7865  0.0000</r>
       <r>  11.2897  0.0000</r>
       <r>  13.0397  0.0000</r>
      </set>
      <set comment="kpoint 27">
       <r>  -1.4042  1.0000</r>
       <r>  -1.4042  1.0000</r>
       <r>  -0.6185  1.0000</r>
       <r>  -0.6185  1.0000</r>
       <r>   0.1266  1.0000</r>
       <r>   0.1266  1.0000</r>
       <r>   0.1832  1.0000</r>
       <r>   0.1832  1.0000</r>
       <r>   0.2165  1.0000</r>
       <r>   0.2165  1.0000</r>
       <r>   0.4711  1.0000</r>
       <r>   0.4711  1.0000</r>
       <r>   1.1583  1.0000</r>
       <r>   1.1583  1.0000</r>
       <r>   1.2032  1.0000</r>
       <r>   1.2032  1.0000</r>
       <r>   1.3675  1.0000</r>
       <r>   1.3675  1.0000</r>
       <r>   1.5629  1.0000</r>
       <r>   1.5629  1.0000</r>
       <r>   2.8121  1.0000</r>
       <r>   2.8121  1.0000</r>
       <r>   3.9900  0.0000</r>
       <r>   3.9900  0.0000</r>
       <r>  12.2888  0.0000</r>
       <r>  12.2888  0.0000</r>
      </set>
      <set comment="kpoint 28">
       <r>  -0.9743  1.0000</r>
       <r>  -0.9743  1.0000</r>
       <r>  -0.9743  1.0000</r>
       <r>  -0.9743  1.0000</r>
       <r>   0.1630  1.0000</r>
       <r>   0.1630  1.0000</r>
       <r>   0.1630  1.0000</r>
       <r>   0.1630  1.0000</r>
       <r>   0.3671  1.0000</r>
       <r>   0.3671  1.0000</r>
       <r>   0.3671  1.0000</r>
       <r>   0.3671  1.0000</r>
       <r>   1.1387  1.0000</r>
       <r>   1.1387  1.0000</r>
       <r>   1.1387  1.0000</r>
       <r>   1.1387  1.0000</r>
       <r>   1.4472  1.0000</r>
       <r>   1.4472  1.0000</r>
       <r>   1.4472  1.0000</r>
       <r>   1.4472  1.0000</r>
       <r>   3.3101  1.0000</r>
       <r>   3.3101  1.0000</r>
       <r>   3.3101  1.0000</r>
       <r>   3.3101  1.0000</r>
       <r>  13.2614  0.0000</r>
       <r>  13.2614  0.0000</r>
      </set>
      <set comment="kpoint 29">
       <r>  -5.3239  1.0000</r>
       <r>  -1.0711  1.0000</r>
       <r>  -1.0711  1.0000</r>
       <r>  -1.0711  1.0000</r>
       <r>  -0.6399  1.0000</r>
       <r>  -0.6399  1.0000</r>
       <r>  -0.6399  1.0000</r>
       <r>   0.5969  1.0000</r>
       <r>   0.6924  1.0000</r>
       <r>   0.6924  1.0000</r>
       <r>   1.4363  1.0000</r>
       <r>   1.4363  1.0000</r>
       <r>   1.8438  1.0000</r>
       <r>   1.8438  1.0000</r>
       <r>   1.8438  1.0000</r>
       <r>   1.9076  1.0000</r>
       <r>   1.9076  1.0000</r>
       <r>   1.9076  1.0000</r>
       <r>   2.1009  1.0000</r>
       <r>   2.1009  1.0000</r>
       <r>   2.1009  1.0000</r>
       <r>   5.0528  0.0000</r>
       <r>   5.0528  0.0000</r>
       <r>   5.0528  0.0000</r>
       <r>  11.4111  0.0000</r>
       <r>  11.4111  0.0000</r>
      </set>
      <set comment="kpoint 30">
       <r>  -5.0776  1.0000</r>
       <r>  -1.0851  1.0000</r>
       <r>  -0.9611  1.0000</r>
       <r>  -0.9611  1.0000</r>
       <r>  -0.5778  1.0000</r>
       <r>  -0.5736  1.0000</r>
       <r>  -0.5736  1.0000</r>
       <r>   0.5391  1.0000</r>
       <r>   0.7371  1.0000</r>
       <r>   0.7412  1.0000</r>
       <r>   1.3785  1.0000</r>
       <r>   1.4696  1.0000</r>
       <r>   1.5340  1.0000</r>
       <r>   1.5340  1.0000</r>
       <r>   1.7010  1.0000</r>
       <r>   1.8330  1.0000</r>
       <r>   1.8357  1.0000</r>
       <r>   1.8357  1.0000</r>
       <r>   2.0584  1.0000</r>
       <r>   2.0904  1.0000</r>
       <r>   2.0904  1.0000</r>
       <r>   3.9790  0.0000</r>
       <r>   5.5560  0.0000</r>
       <r>   5.5560  0.0000</r>
       <r>  11.5424  0.0000</r>
       <r>  11.5424  0.0000</r>
      </set>
      <set comment="kpoint 31">
       <r>  -4.6737  1.0000</r>
       <r>  -1.1717  1.0000</r>
       <r>  -0.7959  1.0000</r>
       <r>  -0.7959  1.0000</r>
       <r>  -0.4783  1.0000</r>
       <r>  -0.4630  1.0000</r>
       <r>  -0.4630  1.0000</r>
       <r>   0.4359  1.0000</r>
       <r>   0.8165  1.0000</r>
       <r>   0.8216  1.0000</r>
       <r>   1.1555  1.0000</r>
       <r>   1.1555  1.0000</r>
       <r>   1.2972  1.0000</r>
       <r>   1.4563  1.0000</r>
       <r>   1.5224  1.0000</r>
       <r>   1.7132  1.0000</r>
       <r>   1.7234  1.0000</r>
       <r>   1.7234  1.0000</r>
       <r>   1.9978  1.0000</r>
       <r>   2.0817  1.0000</r>
       <r>   2.0817  1.0000</r>
       <r>   2.9411  1.0000</r>
       <r>   6.2468  0.0000</r>
       <r>   6.2468  0.0000</r>
       <r>  11.7569  0.0000</r>
       <r>  11.7569  0.0000</r>
      </set>
      <set comment="kpoint 32">
       <r>  -4.1243  1.0000</r>
       <r>  -1.4432  1.0000</r>
       <r>  -0.6047  1.0000</r>
       <r>  -0.6047  1.0000</r>
       <r>  -0.3475  1.0000</r>
       <r>  -0.3103  1.0000</r>
       <r>  -0.3103  1.0000</r>
       <r>   0.2995  1.0000</r>
       <r>   0.7799  1.0000</r>
       <r>   0.7799  1.0000</r>
       <r>   0.8968  1.0000</r>
       <r>   0.9317  1.0000</r>
       <r>   1.1415  1.0000</r>
       <r>   1.2356  1.0000</r>
       <r>   1.5612  1.0000</r>
       <r>   1.5849  1.0000</r>
       <r>   1.5849  1.0000</r>
       <r>   1.5911  1.0000</r>
       <r>   1.9246  1.0000</r>
       <r>   2.0768  1.0000</r>
       <r>   2.0768  1.0000</r>
       <r>   2.2056  1.0000</r>
       <r>   7.0541  0.0000</r>
       <r>   7.0541  0.0000</r>
       <r>  11.1413  0.0000</r>
       <r>  11.1413  0.0000</r>
      </set>
      <set comment="kpoint 33">
       <r>  -3.4531  1.0000</r>
       <r>  -1.9850  1.0000</r>
       <r>  -0.4362  1.0000</r>
       <r>  -0.4362  1.0000</r>
       <r>  -0.1937  1.0000</r>
       <r>  -0.1210  1.0000</r>
       <r>  -0.1210  1.0000</r>
       <r>   0.1413  1.0000</r>
       <r>   0.4404  1.0000</r>
       <r>   0.4404  1.0000</r>
       <r>   0.9015  1.0000</r>
       <r>   0.9169  1.0000</r>
       <r>   1.0681  1.0000</r>
       <r>   1.2936  1.0000</r>
       <r>   1.3933  1.0000</r>
       <r>   1.4609  1.0000</r>
       <r>   1.4609  1.0000</r>
       <r>   1.6708  1.0000</r>
       <r>   1.7669  1.0000</r>
       <r>   1.8428  1.0000</r>
       <r>   2.0744  1.0000</r>
       <r>   2.0744  1.0000</r>
       <r>   7.9405  0.0000</r>
       <r>   7.9405  0.0000</r>
       <r>  10.0223  0.0000</r>
       <r>  10.0223  0.0000</r>
      </set>
      <set comment="kpoint 34">
       <r>  -2.7075  1.0000</r>
       <r>  -2.7075  1.0000</r>
       <r>  -0.3648  1.0000</r>
       <r>  -0.3648  1.0000</r>
       <r>  -0.0271  1.0000</r>
       <r>  -0.0271  1.0000</r>
       <r>   0.0544  1.0000</r>
       <r>   0.0544  1.0000</r>
       <r>   0.2103  1.0000</r>
       <r>   0.2103  1.0000</r>
       <r>   0.8654  1.0000</r>
       <r>   0.8654  1.0000</r>
       <r>   1.2249  1.0000</r>
       <r>   1.2249  1.0000</r>
       <r>   1.4088  1.0000</r>
       <r>   1.4088  1.0000</r>
       <r>   1.4824  1.0000</r>
       <r>   1.4824  1.0000</r>
       <r>   1.7565  1.0000</r>
       <r>   1.7565  1.0000</r>
       <r>   2.0737  1.0000</r>
       <r>   2.0737  1.0000</r>
       <r>   8.7109  0.0000</r>
       <r>   8.7109  0.0000</r>
       <r>   9.1742  0.0000</r>
       <r>   9.1742  0.0000</r>
      </set>
      <set comment="kpoint 35">
       <r>  -4.8348  1.0000</r>
       <r>  -0.9679  1.0000</r>
       <r>  -0.9679  1.0000</r>
       <r>  -0.8604  1.0000</r>
       <r>  -0.5148  1.0000</r>
       <r>  -0.5148  1.0000</r>
       <r>  -0.5143  1.0000</r>
       <r>   0.5033  1.0000</r>
       <r>   0.7649  1.0000</r>
       <r>   0.7700  1.0000</r>
       <r>   1.3421  1.0000</r>
       <r>   1.3706  1.0000</r>
       <r>   1.3729  1.0000</r>
       <r>   1.3729  1.0000</r>
       <r>   1.4722  1.0000</r>
       <r>   1.7408  1.0000</r>
       <r>   1.7696  1.0000</r>
       <r>   1.7696  1.0000</r>
       <r>   2.0524  1.0000</r>
       <r>   2.0524  1.0000</r>
       <r>   2.0607  1.0000</r>
       <r>   4.4514  0.0000</r>
       <r>   4.4514  0.0000</r>
       <r>   5.9922  0.0000</r>
       <r>  11.6522  0.0000</r>
       <r>  12.2826  0.0000</r>
      </set>
      <set comment="kpoint 36">
       <r>  -4.4372  1.0000</r>
       <r>  -1.0422  1.0000</r>
       <r>  -0.7915  1.0000</r>
       <r>  -0.7095  1.0000</r>
       <r>  -0.4203  1.0000</r>
       <r>  -0.4171  1.0000</r>
       <r>  -0.4099  1.0000</r>
       <r>   0.4219  1.0000</r>
       <r>   0.8148  1.0000</r>
       <r>   0.8308  1.0000</r>
       <r>   1.0005  1.0000</r>
       <r>   1.0514  1.0000</r>
       <r>   1.1341  1.0000</r>
       <r>   1.3168  1.0000</r>
       <r>   1.5320  1.0000</r>
       <r>   1.6374  1.0000</r>
       <r>   1.6505  1.0000</r>
       <r>   1.6824  1.0000</r>
       <r>   1.9949  1.0000</r>
       <r>   2.0282  1.0000</r>
       <r>   2.0306  1.0000</r>
       <r>   3.3857  1.0000</r>
       <r>   5.0703  0.0000</r>
       <r>   6.6181  0.0000</r>
       <r>  10.8480  0.0000</r>
       <r>  11.9731  0.0000</r>
      </set>
      <set comment="kpoint 37">
       <r>  -3.8977  1.0000</r>
       <r>  -1.2964  1.0000</r>
       <r>  -0.5847  1.0000</r>
       <r>  -0.5296  1.0000</r>
       <r>  -0.2960  1.0000</r>
       <r>  -0.2935  1.0000</r>
       <r>  -0.2677  1.0000</r>
       <r>   0.3029  1.0000</r>
       <r>   0.6496  1.0000</r>
       <r>   0.7368  1.0000</r>
       <r>   0.8471  1.0000</r>
       <r>   0.8856  1.0000</r>
       <r>   0.9259  1.0000</r>
       <r>   1.2893  1.0000</r>
       <r>   1.4982  1.0000</r>
       <r>   1.5205  1.0000</r>
       <r>   1.5627  1.0000</r>
       <r>   1.6219  1.0000</r>
       <r>   1.9100  1.0000</r>
       <r>   2.0090  1.0000</r>
       <r>   2.0093  1.0000</r>
       <r>   2.5853  1.0000</r>
       <r>   5.7806  0.0000</r>
       <r>   7.3603  0.0000</r>
       <r>   9.6447  0.0000</r>
       <r>  11.4520  0.0000</r>
      </set>
      <set comment="kpoint 38">
       <r>  -3.2406  1.0000</r>
       <r>  -1.8158  1.0000</r>
       <r>  -0.3900  1.0000</r>
       <r>  -0.3518  1.0000</r>
       <r>  -0.1724  1.0000</r>
       <r>  -0.1510  1.0000</r>
       <r>  -0.1117  1.0000</r>
       <r>   0.1597  1.0000</r>
       <r>   0.3560  1.0000</r>
       <r>   0.4485  1.0000</r>
       <r>   0.7503  1.0000</r>
       <r>   0.8160  1.0000</r>
       <r>   1.0426  1.0000</r>
       <r>   1.3360  1.0000</r>
       <r>   1.3710  1.0000</r>
       <r>   1.4175  1.0000</r>
       <r>   1.4440  1.0000</r>
       <r>   1.7305  1.0000</r>
       <r>   1.7720  1.0000</r>
       <r>   1.9979  1.0000</r>
       <r>   1.9983  1.0000</r>
       <r>   2.0984  1.0000</r>
       <r>   6.5667  0.0000</r>
       <r>   8.0137  0.0000</r>
       <r>   8.7513  0.0000</r>
       <r>  10.3242  0.0000</r>
      </set>
      <set comment="kpoint 39">
       <r>  -2.5145  1.0000</r>
       <r>  -2.5145  1.0000</r>
       <r>  -0.2806  1.0000</r>
       <r>  -0.2806  1.0000</r>
       <r>  -0.0608  1.0000</r>
       <r>  -0.0608  1.0000</r>
       <r>   0.0046  1.0000</r>
       <r>   0.0046  1.0000</r>
       <r>   0.2526  1.0000</r>
       <r>   0.2526  1.0000</r>
       <r>   0.7535  1.0000</r>
       <r>   0.7535  1.0000</r>
       <r>   1.1807  1.0000</r>
       <r>   1.1807  1.0000</r>
       <r>   1.3830  1.0000</r>
       <r>   1.3830  1.0000</r>
       <r>   1.5590  1.0000</r>
       <r>   1.5590  1.0000</r>
       <r>   1.8651  1.0000</r>
       <r>   1.8651  1.0000</r>
       <r>   1.9947  1.0000</r>
       <r>   1.9947  1.0000</r>
       <r>   7.4177  0.0000</r>
       <r>   7.4177  0.0000</r>
       <r>   9.3141  0.0000</r>
       <r>   9.3141  0.0000</r>
      </set>
      <set comment="kpoint 40">
       <r>  -4.0510  1.0000</r>
       <r>  -0.8476  1.0000</r>
       <r>  -0.8476  1.0000</r>
       <r>  -0.5850  1.0000</r>
       <r>  -0.3389  1.0000</r>
       <r>  -0.3231  1.0000</r>
       <r>  -0.3231  1.0000</r>
       <r>   0.3773  1.0000</r>
       <r>   0.7964  1.0000</r>
       <r>   0.7964  1.0000</r>
       <r>   0.8155  1.0000</r>
       <r>   0.8688  1.0000</r>
       <r>   0.8757  1.0000</r>
       <r>   1.2978  1.0000</r>
       <r>   1.5325  1.0000</r>
       <r>   1.5865  1.0000</r>
       <r>   1.5865  1.0000</r>
       <r>   1.6037  1.0000</r>
       <r>   1.9536  1.0000</r>
       <r>   1.9536  1.0000</r>
       <r>   1.9745  1.0000</r>
       <r>   3.9385  0.0000</r>
       <r>   3.9385  0.0000</r>
       <r>   7.1575  0.0000</r>
       <r>   9.4940  0.0000</r>
       <r>  12.2308  0.0000</r>
      </set>
      <set comment="kpoint 41">
       <r>  -3.5293  1.0000</r>
       <r>  -1.0759  1.0000</r>
       <r>  -0.6208  1.0000</r>
       <r>  -0.4426  1.0000</r>
       <r>  -0.2422  1.0000</r>
       <r>  -0.2090  1.0000</r>
       <r>  -0.1916  1.0000</r>
       <r>   0.2953  1.0000</r>
       <r>   0.4966  1.0000</r>
       <r>   0.6279  1.0000</r>
       <r>   0.6589  1.0000</r>
       <r>   0.8021  1.0000</r>
       <r>   0.9370  1.0000</r>
       <r>   1.2879  1.0000</r>
       <r>   1.4277  1.0000</r>
       <r>   1.4465  1.0000</r>
       <r>   1.4935  1.0000</r>
       <r>   1.7280  1.0000</r>
       <r>   1.8518  1.0000</r>
       <r>   1.9135  1.0000</r>
       <r>   1.9271  1.0000</r>
       <r>   3.0488  1.0000</r>
       <r>   4.5665  0.0000</r>
       <r>   7.6262  0.0000</r>
       <r>   8.4968  0.0000</r>
       <r>  11.9188  0.0000</r>
      </set>
      <set comment="kpoint 42">
       <r>  -2.8989  1.0000</r>
       <r>  -1.5565  1.0000</r>
       <r>  -0.4054  1.0000</r>
       <r>  -0.2958  1.0000</r>
       <r>  -0.1736  1.0000</r>
       <r>  -0.0789  1.0000</r>
       <r>  -0.0657  1.0000</r>
       <r>   0.1839  1.0000</r>
       <r>   0.2775  1.0000</r>
       <r>   0.4467  1.0000</r>
       <r>   0.5825  1.0000</r>
       <r>   0.7395  1.0000</r>
       <r>   1.0286  1.0000</r>
       <r>   1.2916  1.0000</r>
       <r>   1.3440  1.0000</r>
       <r>   1.3645  1.0000</r>
       <r>   1.3895  1.0000</r>
       <r>   1.7063  1.0000</r>
       <r>   1.8891  1.0000</r>
       <r>   1.8899  1.0000</r>
       <r>   1.8964  1.0000</r>
       <r>   2.4565  1.0000</r>
       <r>   5.2742  0.0000</r>
       <r>   6.9747  0.0000</r>
       <r>   8.8877  0.0000</r>
       <r>  10.7894  0.0000</r>
      </set>
      <set comment="kpoint 43">
       <r>  -2.2101  1.0000</r>
       <r>  -2.2101  1.0000</r>
       <r>  -0.2564  1.0000</r>
       <r>  -0.2564  1.0000</r>
       <r>  -0.1018  1.0000</r>
       <r>  -0.1018  1.0000</r>
       <r>   0.0555  1.0000</r>
       <r>   0.0555  1.0000</r>
       <r>   0.2816  1.0000</r>
       <r>   0.2816  1.0000</r>
       <r>   0.6443  1.0000</r>
       <r>   0.6443  1.0000</r>
       <r>   1.1474  1.0000</r>
       <r>   1.1474  1.0000</r>
       <r>   1.3255  1.0000</r>
       <r>   1.3255  1.0000</r>
       <r>   1.5248  1.0000</r>
       <r>   1.5248  1.0000</r>
       <r>   1.8843  1.0000</r>
       <r>   1.8843  1.0000</r>
       <r>   2.1069  1.0000</r>
       <r>   2.1069  1.0000</r>
       <r>   6.0771  0.0000</r>
       <r>   6.0771  0.0000</r>
       <r>   9.7723  0.0000</r>
       <r>   9.7723  0.0000</r>
      </set>
      <set comment="kpoint 44">
       <r>  -3.0365  1.0000</r>
       <r>  -0.8218  1.0000</r>
       <r>  -0.8218  1.0000</r>
       <r>  -0.3897  1.0000</r>
       <r>  -0.1402  1.0000</r>
       <r>  -0.0874  1.0000</r>
       <r>  -0.0874  1.0000</r>
       <r>   0.2640  1.0000</r>
       <r>   0.4106  1.0000</r>
       <r>   0.4106  1.0000</r>
       <r>   0.5496  1.0000</r>
       <r>   0.7583  1.0000</r>
       <r>   0.9644  1.0000</r>
       <r>   1.2783  1.0000</r>
       <r>   1.3284  1.0000</r>
       <r>   1.3756  1.0000</r>
       <r>   1.3756  1.0000</r>
       <r>   1.7941  1.0000</r>
       <r>   1.7941  1.0000</r>
       <r>   1.8493  1.0000</r>
       <r>   1.8971  1.0000</r>
       <r>   3.5775  1.0000</r>
       <r>   3.5775  1.0000</r>
       <r>   6.8104  0.0000</r>
       <r>   8.7453  0.0000</r>
       <r>  12.5411  0.0000</r>
      </set>
      <set comment="kpoint 45">
       <r>  -2.4501  1.0000</r>
       <r>  -1.2454  1.0000</r>
       <r>  -0.5908  1.0000</r>
       <r>  -0.3802  1.0000</r>
       <r>  -0.0299  1.0000</r>
       <r>   0.0225  1.0000</r>
       <r>   0.0448  1.0000</r>
       <r>   0.2046  1.0000</r>
       <r>   0.2643  1.0000</r>
       <r>   0.4243  1.0000</r>
       <r>   0.4456  1.0000</r>
       <r>   0.6790  1.0000</r>
       <r>   1.0144  1.0000</r>
       <r>   1.2352  1.0000</r>
       <r>   1.2506  1.0000</r>
       <r>   1.2909  1.0000</r>
       <r>   1.3393  1.0000</r>
       <r>   1.6440  1.0000</r>
       <r>   1.7604  1.0000</r>
       <r>   1.7899  1.0000</r>
       <r>   2.1163  1.0000</r>
       <r>   2.8708  1.0000</r>
       <r>   4.1908  0.0000</r>
       <r>   5.7944  0.0000</r>
       <r>   9.4967  0.0000</r>
       <r>  11.4087  0.0000</r>
      </set>
      <set comment="kpoint 46">
       <r>  -1.8243  1.0000</r>
       <r>  -1.8243  1.0000</r>
       <r>  -0.4374  1.0000</r>
       <r>  -0.4374  1.0000</r>
       <r>   0.0538  1.0000</r>
       <r>   0.0538  1.0000</r>
       <r>   0.1218  1.0000</r>
       <r>   0.1218  1.0000</r>
       <r>   0.2969  1.0000</r>
       <r>   0.2969  1.0000</r>
       <r>   0.5583  1.0000</r>
       <r>   0.5583  1.0000</r>
       <r>   1.1063  1.0000</r>
       <r>   1.1063  1.0000</r>
       <r>   1.2345  1.0000</r>
       <r>   1.2345  1.0000</r>
       <r>   1.4771  1.0000</r>
       <r>   1.4771  1.0000</r>
       <r>   1.7589  1.0000</r>
       <r>   1.7589  1.0000</r>
       <r>   2.4149  1.0000</r>
       <r>   2.4149  1.0000</r>
       <r>   4.9202  0.0000</r>
       <r>   4.9202  0.0000</r>
       <r>  10.3932  0.0000</r>
       <r>  10.3932  0.0000</r>
      </set>
      <set comment="kpoint 47">
       <r>  -1.9326  1.0000</r>
       <r>  -0.9381  1.0000</r>
       <r>  -0.9381  1.0000</r>
       <r>  -0.5074  1.0000</r>
       <r>   0.1203  1.0000</r>
       <r>   0.1458  1.0000</r>
       <r>   0.1458  1.0000</r>
       <r>   0.2105  1.0000</r>
       <r>   0.3437  1.0000</r>
       <r>   0.3437  1.0000</r>
       <r>   0.3737  1.0000</r>
       <r>   0.6055  1.0000</r>
       <r>   1.0112  1.0000</r>
       <r>   1.1649  1.0000</r>
       <r>   1.1686  1.0000</r>
       <r>   1.1686  1.0000</r>
       <r>   1.3695  1.0000</r>
       <r>   1.6144  1.0000</r>
       <r>   1.6144  1.0000</r>
       <r>   1.6953  1.0000</r>
       <r>   2.4052  1.0000</r>
       <r>   3.3680  1.0000</r>
       <r>   3.3680  1.0000</r>
       <r>   4.7941  0.0000</r>
       <r>  10.2615  0.0000</r>
       <r>  12.1692  0.0000</r>
      </set>
      <set comment="kpoint 48">
       <r>  -1.4050  1.0000</r>
       <r>  -1.4050  1.0000</r>
       <r>  -0.6870  1.0000</r>
       <r>  -0.6870  1.0000</r>
       <r>   0.1937  1.0000</r>
       <r>   0.1937  1.0000</r>
       <r>   0.2237  1.0000</r>
       <r>   0.2237  1.0000</r>
       <r>   0.2978  1.0000</r>
       <r>   0.2978  1.0000</r>
       <r>   0.4844  1.0000</r>
       <r>   0.4844  1.0000</r>
       <r>   1.0622  1.0000</r>
       <r>   1.0622  1.0000</r>
       <r>   1.1313  1.0000</r>
       <r>   1.1313  1.0000</r>
       <r>   1.4712  1.0000</r>
       <r>   1.4712  1.0000</r>
       <r>   1.6321  1.0000</r>
       <r>   1.6321  1.0000</r>
       <r>   2.7965  1.0000</r>
       <r>   2.7965  1.0000</r>
       <r>   3.9934  0.0000</r>
       <r>   3.9934  0.0000</r>
       <r>  11.1543  0.0000</r>
       <r>  11.1543  0.0000</r>
      </set>
      <set comment="kpoint 49">
       <r>  -1.0115  1.0000</r>
       <r>  -1.0115  1.0000</r>
       <r>  -1.0115  1.0000</r>
       <r>  -1.0115  1.0000</r>
       <r>   0.2519  1.0000</r>
       <r>   0.2519  1.0000</r>
       <r>   0.2519  1.0000</r>
       <r>   0.2519  1.0000</r>
       <r>   0.3865  1.0000</r>
       <r>   0.3865  1.0000</r>
       <r>   0.3865  1.0000</r>
       <r>   0.3865  1.0000</r>
       <r>   1.0613  1.0000</r>
       <r>   1.0613  1.0000</r>
       <r>   1.0613  1.0000</r>
       <r>   1.0613  1.0000</r>
       <r>   1.5269  1.0000</r>
       <r>   1.5269  1.0000</r>
       <r>   1.5269  1.0000</r>
       <r>   1.5269  1.0000</r>
       <r>   3.3004  1.0000</r>
       <r>   3.3004  1.0000</r>
       <r>   3.3004  1.0000</r>
       <r>   3.3004  1.0000</r>
       <r>  12.0451  0.0000</r>
       <r>  12.0451  0.0000</r>
      </set>
      <set comment="kpoint 50">
       <r>  -4.5964  1.0000</r>
       <r>  -0.8655  1.0000</r>
       <r>  -0.8655  1.0000</r>
       <r>  -0.8655  1.0000</r>
       <r>  -0.4567  1.0000</r>
       <r>  -0.4567  1.0000</r>
       <r>  -0.4567  1.0000</r>
       <r>   0.4796  1.0000</r>
       <r>   0.7827  1.0000</r>
       <r>   0.7827  1.0000</r>
       <r>   1.1934  1.0000</r>
       <r>   1.1934  1.0000</r>
       <r>   1.1934  1.0000</r>
       <r>   1.4282  1.0000</r>
       <r>   1.4282  1.0000</r>
       <r>   1.6365  1.0000</r>
       <r>   1.6365  1.0000</r>
       <r>   1.6365  1.0000</r>
       <r>   2.0654  1.0000</r>
       <r>   2.0654  1.0000</r>
       <r>   2.0654  1.0000</r>
       <r>   4.8374  0.0000</r>
       <r>   4.8374  0.0000</r>
       <r>   4.8374  0.0000</r>
       <r>  12.5266  0.0000</r>
       <r>  12.5266  0.0000</r>
      </set>
      <set comment="kpoint 51">
       <r>  -4.2068  1.0000</r>
       <r>  -0.9367  1.0000</r>
       <r>  -0.7145  1.0000</r>
       <r>  -0.7145  1.0000</r>
       <r>  -0.3621  1.0000</r>
       <r>  -0.3607  1.0000</r>
       <r>  -0.3607  1.0000</r>
       <r>   0.4182  1.0000</r>
       <r>   0.8134  1.0000</r>
       <r>   0.8191  1.0000</r>
       <r>   0.9223  1.0000</r>
       <r>   0.9223  1.0000</r>
       <r>   0.9757  1.0000</r>
       <r>   1.3803  1.0000</r>
       <r>   1.5008  1.0000</r>
       <r>   1.5137  1.0000</r>
       <r>   1.5409  1.0000</r>
       <r>   1.5409  1.0000</r>
       <r>   2.0402  1.0000</r>
       <r>   2.0402  1.0000</r>
       <r>   2.0464  1.0000</r>
       <r>   3.7156  0.0000</r>
       <r>   5.3814  0.0000</r>
       <r>   5.3814  0.0000</r>
       <r>  11.1720  0.0000</r>
       <r>  11.1720  0.0000</r>
      </set>
      <set comment="kpoint 52">
       <r>  -3.6796  1.0000</r>
       <r>  -1.1804  1.0000</r>
       <r>  -0.5388  1.0000</r>
       <r>  -0.5388  1.0000</r>
       <r>  -0.2423  1.0000</r>
       <r>  -0.2423  1.0000</r>
       <r>  -0.2375  1.0000</r>
       <r>   0.3190  1.0000</r>
       <r>   0.6466  1.0000</r>
       <r>   0.6466  1.0000</r>
       <r>   0.7685  1.0000</r>
       <r>   0.8265  1.0000</r>
       <r>   0.8791  1.0000</r>
       <r>   1.3534  1.0000</r>
       <r>   1.3857  1.0000</r>
       <r>   1.4464  1.0000</r>
       <r>   1.4464  1.0000</r>
       <r>   1.6162  1.0000</r>
       <r>   1.9986  1.0000</r>
       <r>   2.0049  1.0000</r>
       <r>   2.0049  1.0000</r>
       <r>   2.8224  1.0000</r>
       <r>   6.0256  0.0000</r>
       <r>   6.0256  0.0000</r>
       <r>   9.9570  0.0000</r>
       <r>   9.9570  0.0000</r>
      </set>
      <set comment="kpoint 53">
       <r>  -3.0410  1.0000</r>
       <r>  -1.6742  1.0000</r>
       <r>  -0.3599  1.0000</r>
       <r>  -0.3599  1.0000</r>
       <r>  -0.1592  1.0000</r>
       <r>  -0.1592  1.0000</r>
       <r>  -0.0954  1.0000</r>
       <r>   0.1931  1.0000</r>
       <r>   0.4341  1.0000</r>
       <r>   0.4341  1.0000</r>
       <r>   0.6757  1.0000</r>
       <r>   0.7787  1.0000</r>
       <r>   0.9652  1.0000</r>
       <r>   1.2084  1.0000</r>
       <r>   1.3565  1.0000</r>
       <r>   1.3565  1.0000</r>
       <r>   1.5126  1.0000</r>
       <r>   1.7253  1.0000</r>
       <r>   1.9248  1.0000</r>
       <r>   1.9788  1.0000</r>
       <r>   1.9788  1.0000</r>
       <r>   2.1943  1.0000</r>
       <r>   6.7161  0.0000</r>
       <r>   6.7161  0.0000</r>
       <r>   8.9270  0.0000</r>
       <r>   8.9270  0.0000</r>
      </set>
      <set comment="kpoint 54">
       <r>  -2.3411  1.0000</r>
       <r>  -2.3411  1.0000</r>
       <r>  -0.2250  1.0000</r>
       <r>  -0.2250  1.0000</r>
       <r>  -0.1876  1.0000</r>
       <r>  -0.1876  1.0000</r>
       <r>   0.0516  1.0000</r>
       <r>   0.0516  1.0000</r>
       <r>   0.3556  1.0000</r>
       <r>   0.3556  1.0000</r>
       <r>   0.7032  1.0000</r>
       <r>   0.7032  1.0000</r>
       <r>   1.0764  1.0000</r>
       <r>   1.0764  1.0000</r>
       <r>   1.3159  1.0000</r>
       <r>   1.3159  1.0000</r>
       <r>   1.7769  1.0000</r>
       <r>   1.7769  1.0000</r>
       <r>   1.8311  1.0000</r>
       <r>   1.8311  1.0000</r>
       <r>   1.9697  1.0000</r>
       <r>   1.9697  1.0000</r>
       <r>   7.1675  0.0000</r>
       <r>   7.1675  0.0000</r>
       <r>   8.3628  0.0000</r>
       <r>   8.3628  0.0000</r>
      </set>
      <set comment="kpoint 55">
       <r>  -3.8314  1.0000</r>
       <r>  -0.7868  1.0000</r>
       <r>  -0.7868  1.0000</r>
       <r>  -0.6122  1.0000</r>
       <r>  -0.2741  1.0000</r>
       <r>  -0.2632  1.0000</r>
       <r>  -0.2632  1.0000</r>
       <r>   0.3933  1.0000</r>
       <r>   0.7516  1.0000</r>
       <r>   0.7516  1.0000</r>
       <r>   0.7873  1.0000</r>
       <r>   0.8098  1.0000</r>
       <r>   0.8279  1.0000</r>
       <r>   1.4029  1.0000</r>
       <r>   1.4097  1.0000</r>
       <r>   1.4097  1.0000</r>
       <r>   1.4139  1.0000</r>
       <r>   1.5671  1.0000</r>
       <r>   2.0180  1.0000</r>
       <r>   2.0291  1.0000</r>
       <r>   2.0291  1.0000</r>
       <r>   4.1854  0.0000</r>
       <r>   4.1854  0.0000</r>
       <r>   5.8333  0.0000</r>
       <r>   9.8138  0.0000</r>
       <r>  11.6430  0.0000</r>
      </set>
      <set comment="kpoint 56">
       <r>  -3.3272  1.0000</r>
       <r>  -1.0178  1.0000</r>
       <r>  -0.6257  1.0000</r>
       <r>  -0.5096  1.0000</r>
       <r>  -0.1657  1.0000</r>
       <r>  -0.1374  1.0000</r>
       <r>  -0.1345  1.0000</r>
       <r>   0.3358  1.0000</r>
       <r>   0.5439  1.0000</r>
       <r>   0.6142  1.0000</r>
       <r>   0.6309  1.0000</r>
       <r>   0.7939  1.0000</r>
       <r>   0.8579  1.0000</r>
       <r>   1.2659  1.0000</r>
       <r>   1.3152  1.0000</r>
       <r>   1.3331  1.0000</r>
       <r>   1.4258  1.0000</r>
       <r>   1.6895  1.0000</r>
       <r>   1.9764  1.0000</r>
       <r>   1.9834  1.0000</r>
       <r>   1.9844  1.0000</r>
       <r>   3.2031  1.0000</r>
       <r>   4.7524  0.0000</r>
       <r>   6.3362  0.0000</r>
       <r>   8.6864  0.0000</r>
       <r>  10.4178  0.0000</r>
      </set>
      <set comment="kpoint 57">
       <r>  -2.7236  1.0000</r>
       <r>  -1.4665  1.0000</r>
       <r>  -0.4862  1.0000</r>
       <r>  -0.4273  1.0000</r>
       <r>  -0.0837  1.0000</r>
       <r>  -0.0462  1.0000</r>
       <r>   0.0045  1.0000</r>
       <r>   0.2473  1.0000</r>
       <r>   0.4280  1.0000</r>
       <r>   0.5093  1.0000</r>
       <r>   0.5795  1.0000</r>
       <r>   0.7304  1.0000</r>
       <r>   0.9172  1.0000</r>
       <r>   1.1276  1.0000</r>
       <r>   1.2409  1.0000</r>
       <r>   1.2588  1.0000</r>
       <r>   1.5446  1.0000</r>
       <r>   1.8403  1.0000</r>
       <r>   1.8955  1.0000</r>
       <r>   1.9390  1.0000</r>
       <r>   1.9418  1.0000</r>
       <r>   2.4941  1.0000</r>
       <r>   5.3991  0.0000</r>
       <r>   6.5735  0.0000</r>
       <r>   8.0959  0.0000</r>
       <r>   9.3525  0.0000</r>
      </set>
      <set comment="kpoint 58">
       <r>  -2.0735  1.0000</r>
       <r>  -2.0735  1.0000</r>
       <r>  -0.4078  1.0000</r>
       <r>  -0.4078  1.0000</r>
       <r>  -0.0466  1.0000</r>
       <r>  -0.0466  1.0000</r>
       <r>   0.1349  1.0000</r>
       <r>   0.1349  1.0000</r>
       <r>   0.4396  1.0000</r>
       <r>   0.4396  1.0000</r>
       <r>   0.6386  1.0000</r>
       <r>   0.6386  1.0000</r>
       <r>   1.0085  1.0000</r>
       <r>   1.0085  1.0000</r>
       <r>   1.2164  1.0000</r>
       <r>   1.2164  1.0000</r>
       <r>   1.7402  1.0000</r>
       <r>   1.7402  1.0000</r>
       <r>   1.9249  1.0000</r>
       <r>   1.9249  1.0000</r>
       <r>   2.0623  1.0000</r>
       <r>   2.0623  1.0000</r>
       <r>   6.0904  0.0000</r>
       <r>   6.0904  0.0000</r>
       <r>   8.4911  0.0000</r>
       <r>   8.4911  0.0000</r>
      </set>
      <set comment="kpoint 59">
       <r>  -2.8606  1.0000</r>
       <r>  -0.8489  1.0000</r>
       <r>  -0.8489  1.0000</r>
       <r>  -0.5151  1.0000</r>
       <r>  -0.0479  1.0000</r>
       <r>   0.0057  1.0000</r>
       <r>   0.0057  1.0000</r>
       <r>   0.3388  1.0000</r>
       <r>   0.4817  1.0000</r>
       <r>   0.4817  1.0000</r>
       <r>   0.6005  1.0000</r>
       <r>   0.7579  1.0000</r>
       <r>   0.8546  1.0000</r>
       <r>   1.2000  1.0000</r>
       <r>   1.2000  1.0000</r>
       <r>   1.2032  1.0000</r>
       <r>   1.4369  1.0000</r>
       <r>   1.8473  1.0000</r>
       <r>   1.9272  1.0000</r>
       <r>   1.9282  1.0000</r>
       <r>   1.9282  1.0000</r>
       <r>   3.6838  0.3125</r>
       <r>   3.6838  0.3125</r>
       <r>   6.3615  0.0000</r>
       <r>   8.0039  0.0000</r>
       <r>  11.0289  0.0000</r>
      </set>
      <set comment="kpoint 60">
       <r>  -2.3148  1.0000</r>
       <r>  -1.2334  1.0000</r>
       <r>  -0.7081  1.0000</r>
       <r>  -0.5475  1.0000</r>
       <r>   0.0598  1.0000</r>
       <r>   0.1203  1.0000</r>
       <r>   0.1500  1.0000</r>
       <r>   0.3150  1.0000</r>
       <r>   0.4350  1.0000</r>
       <r>   0.4940  1.0000</r>
       <r>   0.5618  1.0000</r>
       <r>   0.6860  1.0000</r>
       <r>   0.8844  1.0000</r>
       <r>   1.0687  1.0000</r>
       <r>   1.1258  1.0000</r>
       <r>   1.1395  1.0000</r>
       <r>   1.5158  1.0000</r>
       <r>   1.8238  1.0000</r>
       <r>   1.8743  1.0000</r>
       <r>   1.8769  1.0000</r>
       <r>   2.0581  1.0000</r>
       <r>   2.8852  1.0000</r>
       <r>   4.2614  0.0000</r>
       <r>   5.7258  0.0000</r>
       <r>   8.2864  0.0000</r>
       <r>   9.9406  0.0000</r>
      </set>
      <set comment="kpoint 61">
       <r>  -1.7468  1.0000</r>
       <r>  -1.7468  1.0000</r>
       <r>  -0.6088  1.0000</r>
       <r>  -0.6088  1.0000</r>
       <r>   0.1240  1.0000</r>
       <r>   0.1240  1.0000</r>
       <r>   0.2558  1.0000</r>
       <r>   0.2558  1.0000</r>
       <r>   0.4996  1.0000</r>
       <r>   0.4996  1.0000</r>
       <r>   0.5784  1.0000</r>
       <r>   0.5784  1.0000</r>
       <r>   0.9586  1.0000</r>
       <r>   0.9586  1.0000</r>
       <r>   1.1030  1.0000</r>
       <r>   1.1030  1.0000</r>
       <r>   1.6692  1.0000</r>
       <r>   1.6692  1.0000</r>
       <r>   1.8539  1.0000</r>
       <r>   1.8539  1.0000</r>
       <r>   2.3680  1.0000</r>
       <r>   2.3680  1.0000</r>
       <r>   4.9487  0.0000</r>
       <r>   4.9487  0.0000</r>
       <r>   9.0127  0.0000</r>
       <r>   9.0127  0.0000</r>
      </set>
      <set comment="kpoint 62">
       <r>  -1.8576  1.0000</r>
       <r>  -1.0164  1.0000</r>
       <r>  -1.0164  1.0000</r>
       <r>  -0.6825  1.0000</r>
       <r>   0.1992  1.0000</r>
       <r>   0.2965  1.0000</r>
       <r>   0.2965  1.0000</r>
       <r>   0.3758  1.0000</r>
       <r>   0.4531  1.0000</r>
       <r>   0.4531  1.0000</r>
       <r>   0.5770  1.0000</r>
       <r>   0.6261  1.0000</r>
       <r>   0.8750  1.0000</r>
       <r>   1.0194  1.0000</r>
       <r>   1.0194  1.0000</r>
       <r>   1.0353  1.0000</r>
       <r>   1.5351  1.0000</r>
       <r>   1.7663  1.0000</r>
       <r>   1.7663  1.0000</r>
       <r>   1.8054  1.0000</r>
       <r>   2.3424  1.0000</r>
       <r>   3.3707  1.0000</r>
       <r>   3.3707  1.0000</r>
       <r>   4.7845  0.0000</r>
       <r>   8.9037  0.0000</r>
       <r>  10.6733  0.0000</r>
      </set>
      <set comment="kpoint 63">
       <r>  -1.4077  1.0000</r>
       <r>  -1.4077  1.0000</r>
       <r>  -0.8346  1.0000</r>
       <r>  -0.8346  1.0000</r>
       <r>   0.2953  1.0000</r>
       <r>   0.2953  1.0000</r>
       <r>   0.3951  1.0000</r>
       <r>   0.3951  1.0000</r>
       <r>   0.5207  1.0000</r>
       <r>   0.5207  1.0000</r>
       <r>   0.5276  1.0000</r>
       <r>   0.5276  1.0000</r>
       <r>   0.9220  1.0000</r>
       <r>   0.9220  1.0000</r>
       <r>   0.9968  1.0000</r>
       <r>   0.9968  1.0000</r>
       <r>   1.6337  1.0000</r>
       <r>   1.6337  1.0000</r>
       <r>   1.7581  1.0000</r>
       <r>   1.7581  1.0000</r>
       <r>   2.7487  1.0000</r>
       <r>   2.7487  1.0000</r>
       <r>   3.9922  0.0000</r>
       <r>   3.9922  0.0000</r>
       <r>   9.7118  0.0000</r>
       <r>   9.7118  0.0000</r>
      </set>
      <set comment="kpoint 64">
       <r>  -1.0983  1.0000</r>
       <r>  -1.0983  1.0000</r>
       <r>  -1.0983  1.0000</r>
       <r>  -1.0983  1.0000</r>
       <r>   0.4312  1.0000</r>
       <r>   0.4312  1.0000</r>
       <r>   0.4312  1.0000</r>
       <r>   0.4312  1.0000</r>
       <r>   0.5026  1.0000</r>
       <r>   0.5026  1.0000</r>
       <r>   0.5026  1.0000</r>
       <r>   0.5026  1.0000</r>
       <r>   0.9268  1.0000</r>
       <r>   0.9268  1.0000</r>
       <r>   0.9268  1.0000</r>
       <r>   0.9268  1.0000</r>
       <r>   1.6678  1.0000</r>
       <r>   1.6678  1.0000</r>
       <r>   1.6678  1.0000</r>
       <r>   1.6678  1.0000</r>
       <r>   3.2670  1.0000</r>
       <r>   3.2670  1.0000</r>
       <r>   3.2670  1.0000</r>
       <r>   3.2670  1.0000</r>
       <r>  10.5572  0.0000</r>
       <r>  10.5572  0.0000</r>
      </set>
      <set comment="kpoint 65">
       <r>  -3.4762  1.0000</r>
       <r>  -0.7153  1.0000</r>
       <r>  -0.7153  1.0000</r>
       <r>  -0.7153  1.0000</r>
       <r>  -0.1581  1.0000</r>
       <r>  -0.1581  1.0000</r>
       <r>  -0.1581  1.0000</r>
       <r>   0.4068  1.0000</r>
       <r>   0.6769  1.0000</r>
       <r>   0.6769  1.0000</r>
       <r>   0.6769  1.0000</r>
       <r>   0.8012  1.0000</r>
       <r>   0.8012  1.0000</r>
       <r>   1.2730  1.0000</r>
       <r>   1.2730  1.0000</r>
       <r>   1.2730  1.0000</r>
       <r>   1.5328  1.0000</r>
       <r>   1.5328  1.0000</r>
       <r>   2.0410  1.0000</r>
       <r>   2.0410  1.0000</r>
       <r>   2.0410  1.0000</r>
       <r>   4.5598  0.0000</r>
       <r>   4.5598  0.0000</r>
       <r>   4.5598  0.0000</r>
       <r>  10.2773  0.0000</r>
       <r>  10.2773  0.0000</r>
      </set>
      <set comment="kpoint 66">
       <r>  -3.0047  1.0000</r>
       <r>  -0.9497  1.0000</r>
       <r>  -0.6550  1.0000</r>
       <r>  -0.6550  1.0000</r>
       <r>  -0.0314  1.0000</r>
       <r>  -0.0314  1.0000</r>
       <r>  -0.0067  1.0000</r>
       <r>   0.4001  1.0000</r>
       <r>   0.5934  1.0000</r>
       <r>   0.6040  1.0000</r>
       <r>   0.6040  1.0000</r>
       <r>   0.7764  1.0000</r>
       <r>   0.8029  1.0000</r>
       <r>   1.1329  1.0000</r>
       <r>   1.1803  1.0000</r>
       <r>   1.1803  1.0000</r>
       <r>   1.5560  1.0000</r>
       <r>   1.6674  1.0000</r>
       <r>   2.0093  1.0000</r>
       <r>   2.0093  1.0000</r>
       <r>   2.0299  1.0000</r>
       <r>   3.4784  1.0000</r>
       <r>   5.0192  0.0000</r>
       <r>   5.0192  0.0000</r>
       <r>   9.1057  0.0000</r>
       <r>   9.1057  0.0000</r>
      </set>
      <set comment="kpoint 67">
       <r>  -2.4513  1.0000</r>
       <r>  -1.3458  1.0000</r>
       <r>  -0.6149  1.0000</r>
       <r>  -0.6149  1.0000</r>
       <r>   0.0584  1.0000</r>
       <r>   0.0584  1.0000</r>
       <r>   0.1509  1.0000</r>
       <r>   0.3605  1.0000</r>
       <r>   0.5752  1.0000</r>
       <r>   0.5817  1.0000</r>
       <r>   0.5817  1.0000</r>
       <r>   0.7124  1.0000</r>
       <r>   0.8382  1.0000</r>
       <r>   1.0078  1.0000</r>
       <r>   1.1152  1.0000</r>
       <r>   1.1152  1.0000</r>
       <r>   1.7149  1.0000</r>
       <r>   1.7939  1.0000</r>
       <r>   1.9670  1.0000</r>
       <r>   1.9670  1.0000</r>
       <r>   1.9825  1.0000</r>
       <r>   2.6444  1.0000</r>
       <r>   5.4877  0.0000</r>
       <r>   5.4877  0.0000</r>
       <r>   8.2056  0.0000</r>
       <r>   8.2056  0.0000</r>
      </set>
      <set comment="kpoint 68">
       <r>  -1.8722  1.0000</r>
       <r>  -1.8722  1.0000</r>
       <r>  -0.6004  1.0000</r>
       <r>  -0.6004  1.0000</r>
       <r>   0.0838  1.0000</r>
       <r>   0.0838  1.0000</r>
       <r>   0.2795  1.0000</r>
       <r>   0.2795  1.0000</r>
       <r>   0.5914  1.0000</r>
       <r>   0.5914  1.0000</r>
       <r>   0.6265  1.0000</r>
       <r>   0.6265  1.0000</r>
       <r>   0.9075  1.0000</r>
       <r>   0.9075  1.0000</r>
       <r>   1.0865  1.0000</r>
       <r>   1.0865  1.0000</r>
       <r>   1.9017  1.0000</r>
       <r>   1.9017  1.0000</r>
       <r>   1.9477  1.0000</r>
       <r>   1.9477  1.0000</r>
       <r>   2.0656  1.0000</r>
       <r>   2.0656  1.0000</r>
       <r>   5.7321  0.0000</r>
       <r>   5.7321  0.0000</r>
       <r>   7.8163  0.0000</r>
       <r>   7.8163  0.0000</r>
      </set>
      <set comment="kpoint 69">
       <r>  -2.5868  1.0000</r>
       <r>  -0.8903  1.0000</r>
       <r>  -0.8903  1.0000</r>
       <r>  -0.7011  1.0000</r>
       <r>   0.0951  1.0000</r>
       <r>   0.1415  1.0000</r>
       <r>   0.1415  1.0000</r>
       <r>   0.4733  1.0000</r>
       <r>   0.5911  1.0000</r>
       <r>   0.5911  1.0000</r>
       <r>   0.6661  1.0000</r>
       <r>   0.7510  1.0000</r>
       <r>   0.7737  1.0000</r>
       <r>   1.0472  1.0000</r>
       <r>   1.0472  1.0000</r>
       <r>   1.0636  1.0000</r>
       <r>   1.5954  1.0000</r>
       <r>   1.7801  1.0000</r>
       <r>   1.9910  1.0000</r>
       <r>   2.0067  1.0000</r>
       <r>   2.0067  1.0000</r>
       <r>   3.8645  0.0000</r>
       <r>   3.8645  0.0000</r>
       <r>   5.2668  0.0000</r>
       <r>   8.1088  0.0000</r>
       <r>   9.6871  0.0000</r>
      </set>
      <set comment="kpoint 70">
       <r>  -2.1138  1.0000</r>
       <r>  -1.2215  1.0000</r>
       <r>  -0.8417  1.0000</r>
       <r>  -0.7505  1.0000</r>
       <r>   0.1932  1.0000</r>
       <r>   0.2318  1.0000</r>
       <r>   0.3268  1.0000</r>
       <r>   0.5200  1.0000</r>
       <r>   0.5939  1.0000</r>
       <r>   0.6503  1.0000</r>
       <r>   0.6886  1.0000</r>
       <r>   0.7209  1.0000</r>
       <r>   0.7867  1.0000</r>
       <r>   0.9307  1.0000</r>
       <r>   0.9897  1.0000</r>
       <r>   0.9921  1.0000</r>
       <r>   1.6907  1.0000</r>
       <r>   1.9520  1.0000</r>
       <r>   1.9582  1.0000</r>
       <r>   1.9583  1.0000</r>
       <r>   1.9671  1.0000</r>
       <r>   2.9428  1.0000</r>
       <r>   4.3422  0.0000</r>
       <r>   5.2581  0.0000</r>
       <r>   7.6792  0.0000</r>
       <r>   8.6884  0.0000</r>
      </set>
      <set comment="kpoint 71">
       <r>  -1.6405  1.0000</r>
       <r>  -1.6405  1.0000</r>
       <r>  -0.7971  1.0000</r>
       <r>  -0.7971  1.0000</r>
       <r>   0.2400  1.0000</r>
       <r>   0.2400  1.0000</r>
       <r>   0.4806  1.0000</r>
       <r>   0.4806  1.0000</r>
       <r>   0.6160  1.0000</r>
       <r>   0.6160  1.0000</r>
       <r>   0.7253  1.0000</r>
       <r>   0.7253  1.0000</r>
       <r>   0.8414  1.0000</r>
       <r>   0.8414  1.0000</r>
       <r>   0.9641  1.0000</r>
       <r>   0.9641  1.0000</r>
       <r>   1.8507  1.0000</r>
       <r>   1.8507  1.0000</r>
       <r>   1.9326  1.0000</r>
       <r>   1.9326  1.0000</r>
       <r>   2.3067  1.0000</r>
       <r>   2.3067  1.0000</r>
       <r>   4.8645  0.0000</r>
       <r>   4.8645  0.0000</r>
       <r>   7.9572  0.0000</r>
       <r>   7.9572  0.0000</r>
      </set>
      <set comment="kpoint 72">
       <r>  -1.7534  1.0000</r>
       <r>  -1.1055  1.0000</r>
       <r>  -1.1055  1.0000</r>
       <r>  -0.8775  1.0000</r>
       <r>   0.3125  1.0000</r>
       <r>   0.4087  1.0000</r>
       <r>   0.4087  1.0000</r>
       <r>   0.6460  1.0000</r>
       <r>   0.6807  1.0000</r>
       <r>   0.7053  1.0000</r>
       <r>   0.7053  1.0000</r>
       <r>   0.7639  1.0000</r>
       <r>   0.8225  1.0000</r>
       <r>   0.8883  1.0000</r>
       <r>   0.8883  1.0000</r>
       <r>   0.9009  1.0000</r>
       <r>   1.6921  1.0000</r>
       <r>   1.8989  1.0000</r>
       <r>   1.8989  1.0000</r>
       <r>   1.9073  1.0000</r>
       <r>   2.2356  1.0000</r>
       <r>   3.3732  1.0000</r>
       <r>   3.3732  1.0000</r>
       <r>   4.6316  0.0000</r>
       <r>   7.8807  0.0000</r>
       <r>   9.3600  0.0000</r>
      </set>
      <set comment="kpoint 73">
       <r>  -1.4101  1.0000</r>
       <r>  -1.4101  1.0000</r>
       <r>  -0.9939  1.0000</r>
       <r>  -0.9939  1.0000</r>
       <r>   0.3881  1.0000</r>
       <r>   0.3881  1.0000</r>
       <r>   0.5559  1.0000</r>
       <r>   0.5559  1.0000</r>
       <r>   0.7296  1.0000</r>
       <r>   0.7296  1.0000</r>
       <r>   0.8103  1.0000</r>
       <r>   0.8103  1.0000</r>
       <r>   0.8209  1.0000</r>
       <r>   0.8209  1.0000</r>
       <r>   0.8742  1.0000</r>
       <r>   0.8742  1.0000</r>
       <r>   1.7893  1.0000</r>
       <r>   1.7893  1.0000</r>
       <r>   1.8747  1.0000</r>
       <r>   1.8747  1.0000</r>
       <r>   2.6676  1.0000</r>
       <r>   2.6676  1.0000</r>
       <r>   3.9442  0.0000</r>
       <r>   3.9442  0.0000</r>
       <r>   8.4988  0.0000</r>
       <r>   8.4988  0.0000</r>
      </set>
      <set comment="kpoint 74">
       <r>  -1.1955  1.0000</r>
       <r>  -1.1955  1.0000</r>
       <r>  -1.1955  1.0000</r>
       <r>  -1.1955  1.0000</r>
       <r>   0.4986  1.0000</r>
       <r>   0.4986  1.0000</r>
       <r>   0.4986  1.0000</r>
       <r>   0.4986  1.0000</r>
       <r>   0.8009  1.0000</r>
       <r>   0.8009  1.0000</r>
       <r>   0.8009  1.0000</r>
       <r>   0.8009  1.0000</r>
       <r>   0.8622  1.0000</r>
       <r>   0.8622  1.0000</r>
       <r>   0.8622  1.0000</r>
       <r>   0.8622  1.0000</r>
       <r>   1.8025  1.0000</r>
       <r>   1.8025  1.0000</r>
       <r>   1.8025  1.0000</r>
       <r>   1.8025  1.0000</r>
       <r>   3.1959  1.0000</r>
       <r>   3.1959  1.0000</r>
       <r>   3.1959  1.0000</r>
       <r>   3.1959  1.0000</r>
       <r>   9.2561  0.0000</r>
       <r>   9.2561  0.0000</r>
      </set>
      <set comment="kpoint 75">
       <r>  -2.2456  1.0000</r>
       <r>  -0.9332  1.0000</r>
       <r>  -0.9332  1.0000</r>
       <r>  -0.9332  1.0000</r>
       <r>   0.2686  1.0000</r>
       <r>   0.2686  1.0000</r>
       <r>   0.2686  1.0000</r>
       <r>   0.6615  1.0000</r>
       <r>   0.7288  1.0000</r>
       <r>   0.7288  1.0000</r>
       <r>   0.7363  1.0000</r>
       <r>   0.7363  1.0000</r>
       <r>   0.7363  1.0000</r>
       <r>   0.9346  1.0000</r>
       <r>   0.9346  1.0000</r>
       <r>   0.9346  1.0000</r>
       <r>   1.7415  1.0000</r>
       <r>   1.7415  1.0000</r>
       <r>   2.0208  1.0000</r>
       <r>   2.0208  1.0000</r>
       <r>   2.0208  1.0000</r>
       <r>   4.1047  0.0000</r>
       <r>   4.1047  0.0000</r>
       <r>   4.1047  0.0000</r>
       <r>   8.5800  0.0000</r>
       <r>   8.5800  0.0000</r>
      </set>
      <set comment="kpoint 76">
       <r>  -1.8782  1.0000</r>
       <r>  -1.2074  1.0000</r>
       <r>  -0.9645  1.0000</r>
       <r>  -0.9645  1.0000</r>
       <r>   0.3448  1.0000</r>
       <r>   0.3448  1.0000</r>
       <r>   0.4440  1.0000</r>
       <r>   0.6795  1.0000</r>
       <r>   0.7232  1.0000</r>
       <r>   0.8060  1.0000</r>
       <r>   0.8272  1.0000</r>
       <r>   0.8297  1.0000</r>
       <r>   0.8567  1.0000</r>
       <r>   0.8567  1.0000</r>
       <r>   0.8967  1.0000</r>
       <r>   0.8967  1.0000</r>
       <r>   1.8637  1.0000</r>
       <r>   1.8647  1.0000</r>
       <r>   1.9920  1.0000</r>
       <r>   1.9920  1.0000</r>
       <r>   2.0094  1.0000</r>
       <r>   3.0940  1.0000</r>
       <r>   4.3458  0.0000</r>
       <r>   4.3458  0.0000</r>
       <r>   7.8002  0.0000</r>
       <r>   7.8002  0.0000</r>
      </set>
      <set comment="kpoint 77">
       <r>  -1.5242  1.0000</r>
       <r>  -1.5242  1.0000</r>
       <r>  -0.9758  1.0000</r>
       <r>  -0.9758  1.0000</r>
       <r>   0.3680  1.0000</r>
       <r>   0.3680  1.0000</r>
       <r>   0.5874  1.0000</r>
       <r>   0.5874  1.0000</r>
       <r>   0.7575  1.0000</r>
       <r>   0.7575  1.0000</r>
       <r>   0.8422  1.0000</r>
       <r>   0.8422  1.0000</r>
       <r>   0.8588  1.0000</r>
       <r>   0.8588  1.0000</r>
       <r>   0.9573  1.0000</r>
       <r>   0.9573  1.0000</r>
       <r>   1.9562  1.0000</r>
       <r>   1.9562  1.0000</r>
       <r>   1.9709  1.0000</r>
       <r>   1.9709  1.0000</r>
       <r>   2.3189  1.0000</r>
       <r>   2.3189  1.0000</r>
       <r>   4.4582  0.0000</r>
       <r>   4.4582  0.0000</r>
       <r>   7.5045  0.0000</r>
       <r>   7.5045  0.0000</r>
      </set>
      <set comment="kpoint 78">
       <r>  -1.6368  1.0000</r>
       <r>  -1.1821  1.0000</r>
       <r>  -1.1821  1.0000</r>
       <r>  -1.0641  1.0000</r>
       <r>   0.4328  1.0000</r>
       <r>   0.4850  1.0000</r>
       <r>   0.4850  1.0000</r>
       <r>   0.6602  1.0000</r>
       <r>   0.6873  1.0000</r>
       <r>   0.7684  1.0000</r>
       <r>   0.7684  1.0000</r>
       <r>   0.7857  1.0000</r>
       <r>   1.0541  1.0000</r>
       <r>   1.0541  1.0000</r>
       <r>   1.0887  1.0000</r>
       <r>   1.1365  1.0000</r>
       <r>   1.8268  1.0000</r>
       <r>   1.9779  1.0000</r>
       <r>   1.9848  1.0000</r>
       <r>   1.9848  1.0000</r>
       <r>   2.0844  1.0000</r>
       <r>   3.3735  1.0000</r>
       <r>   3.3735  1.0000</r>
       <r>   4.1461  0.0000</r>
       <r>   7.4502  0.0000</r>
       <r>   8.3065  0.0000</r>
      </set>
      <set comment="kpoint 79">
       <r>  -1.4047  1.0000</r>
       <r>  -1.4047  1.0000</r>
       <r>  -1.1363  1.0000</r>
       <r>  -1.1363  1.0000</r>
       <r>   0.4809  1.0000</r>
       <r>   0.4809  1.0000</r>
       <r>   0.5926  1.0000</r>
       <r>   0.5926  1.0000</r>
       <r>   0.7074  1.0000</r>
       <r>   0.7074  1.0000</r>
       <r>   0.7518  1.0000</r>
       <r>   0.7518  1.0000</r>
       <r>   1.1724  1.0000</r>
       <r>   1.1724  1.0000</r>
       <r>   1.1850  1.0000</r>
       <r>   1.1850  1.0000</r>
       <r>   1.9197  1.0000</r>
       <r>   1.9197  1.0000</r>
       <r>   1.9579  1.0000</r>
       <r>   1.9579  1.0000</r>
       <r>   2.5645  1.0000</r>
       <r>   2.5645  1.0000</r>
       <r>   3.7624  0.0000</r>
       <r>   3.7624  0.0000</r>
       <r>   7.6678  0.0000</r>
       <r>   7.6678  0.0000</r>
      </set>
      <set comment="kpoint 80">
       <r>  -1.2777  1.0000</r>
       <r>  -1.2777  1.0000</r>
       <r>  -1.2777  1.0000</r>
       <r>  -1.2777  1.0000</r>
       <r>   0.5603  1.0000</r>
       <r>   0.5603  1.0000</r>
       <r>   0.5603  1.0000</r>
       <r>   0.5603  1.0000</r>
       <r>   0.7024  1.0000</r>
       <r>   0.7024  1.0000</r>
       <r>   0.7024  1.0000</r>
       <r>   0.7024  1.0000</r>
       <r>   1.3010  1.0000</r>
       <r>   1.3010  1.0000</r>
       <r>   1.3010  1.0000</r>
       <r>   1.3010  1.0000</r>
       <r>   1.9098  1.0000</r>
       <r>   1.9098  1.0000</r>
       <r>   1.9098  1.0000</r>
       <r>   1.9098  1.0000</r>
       <r>   3.0637  1.0000</r>
       <r>   3.0637  1.0000</r>
       <r>   3.0637  1.0000</r>
       <r>   3.0637  1.0000</r>
       <r>   8.2228  0.0000</r>
       <r>   8.2228  0.0000</r>
      </set>
      <set comment="kpoint 81">
       <r>  -1.5140  1.0000</r>
       <r>  -1.2326  1.0000</r>
       <r>  -1.2326  1.0000</r>
       <r>  -1.2326  1.0000</r>
       <r>   0.5365  1.0000</r>
       <r>   0.5365  1.0000</r>
       <r>   0.5365  1.0000</r>
       <r>   0.6503  1.0000</r>
       <r>   0.6503  1.0000</r>
       <r>   0.7015  1.0000</r>
       <r>   0.7015  1.0000</r>
       <r>   0.7015  1.0000</r>
       <r>   1.3622  1.0000</r>
       <r>   1.3622  1.0000</r>
       <r>   1.3622  1.0000</r>
       <r>   1.7132  1.0000</r>
       <r>   1.9288  1.0000</r>
       <r>   1.9288  1.0000</r>
       <r>   2.0069  1.0000</r>
       <r>   2.0069  1.0000</r>
       <r>   2.0069  1.0000</r>
       <r>   3.3712  1.0000</r>
       <r>   3.3712  1.0000</r>
       <r>   3.3712  1.0000</r>
       <r>   7.6026  0.0000</r>
       <r>   7.6026  0.0000</r>
      </set>
      <set comment="kpoint 82">
       <r>  -1.3813  1.0000</r>
       <r>  -1.3813  1.0000</r>
       <r>  -1.2501  1.0000</r>
       <r>  -1.2501  1.0000</r>
       <r>   0.5563  1.0000</r>
       <r>   0.5563  1.0000</r>
       <r>   0.6102  1.0000</r>
       <r>   0.6102  1.0000</r>
       <r>   0.6552  1.0000</r>
       <r>   0.6552  1.0000</r>
       <r>   0.6763  1.0000</r>
       <r>   0.6763  1.0000</r>
       <r>   1.5049  1.0000</r>
       <r>   1.5049  1.0000</r>
       <r>   1.6237  1.0000</r>
       <r>   1.6237  1.0000</r>
       <r>   1.9903  1.0000</r>
       <r>   1.9903  1.0000</r>
       <r>   1.9936  1.0000</r>
       <r>   1.9936  1.0000</r>
       <r>   2.5381  1.0000</r>
       <r>   2.5381  1.0000</r>
       <r>   3.3695  1.0000</r>
       <r>   3.3695  1.0000</r>
       <r>   7.3510  0.0000</r>
       <r>   7.3510  0.0000</r>
      </set>
      <set comment="kpoint 83">
       <r>  -1.3315  1.0000</r>
       <r>  -1.3315  1.0000</r>
       <r>  -1.3315  1.0000</r>
       <r>  -1.3315  1.0000</r>
       <r>   0.6035  1.0000</r>
       <r>   0.6035  1.0000</r>
       <r>   0.6035  1.0000</r>
       <r>   0.6035  1.0000</r>
       <r>   0.6401  1.0000</r>
       <r>   0.6401  1.0000</r>
       <r>   0.6401  1.0000</r>
       <r>   0.6401  1.0000</r>
       <r>   1.7495  1.0000</r>
       <r>   1.7495  1.0000</r>
       <r>   1.7495  1.0000</r>
       <r>   1.7495  1.0000</r>
       <r>   1.9784  1.0000</r>
       <r>   1.9784  1.0000</r>
       <r>   1.9784  1.0000</r>
       <r>   1.9784  1.0000</r>
       <r>   2.8563  1.0000</r>
       <r>   2.8563  1.0000</r>
       <r>   2.8563  1.0000</r>
       <r>   2.8563  1.0000</r>
       <r>   7.5441  0.0000</r>
       <r>   7.5441  0.0000</r>
      </set>
      <set comment="kpoint 84">
       <r>  -1.3501  1.0000</r>
       <r>  -1.3501  1.0000</r>
       <r>  -1.3501  1.0000</r>
       <r>  -1.3501  1.0000</r>
       <r>   0.6189  1.0000</r>
       <r>   0.6189  1.0000</r>
       <r>   0.6189  1.0000</r>
       <r>   0.6189  1.0000</r>
       <r>   0.6189  1.0000</r>
       <r>   0.6189  1.0000</r>
       <r>   0.6189  1.0000</r>
       <r>   0.6189  1.0000</r>
       <r>   2.0020  1.0000</r>
       <r>   2.0020  1.0000</r>
       <r>   2.0020  1.0000</r>
       <r>   2.0020  1.0000</r>
       <r>   2.0020  1.0000</r>
       <r>   2.0020  1.0000</r>
       <r>   2.0020  1.0000</r>
       <r>   2.0020  1.0000</r>
       <r>   2.6963  1.0000</r>
       <r>   2.6963  1.0000</r>
       <r>   2.6963  1.0000</r>
       <r>   2.6963  1.0000</r>
       <r>   7.3054  0.0000</r>
       <r>   7.3054  0.0000</r>
      </set>
     </set>
    </set>
   </array>
  </eigenvalues>
 </calculation>
 <structure name="finalpos" >
  <crystal>
   <varray name="basis" >
    <v>       3.63641581      0.00000000      0.00000000</v>
    <v>       0.00000000      3.63641581      0.00000000</v>
    <v>       0.00000000      0.00000000      3.63641581</v>
   </varray>
   <i name="volume">     48.08621705</i>
   <varray name="rec_basis" >
    <v>       0.27499605      0.00000000      0.00000000</v>
    <v>       0.00000000      0.27499605      0.00000000</v>
    <v>       0.00000000      0.00000000      0.27499605</v>
   </varray>
  </crystal>
  <varray name="positions" >
   <v>       0.00000000      0.00000000      0.00000000</v>
   <v>       0.50000000      0.50000000      0.00000000</v>
   <v>       0.50000000      0.00000000      0.50000000</v>
   <v>       0.00000000      0.50000000      0.50000000</v>
  </varray>
 </structure>
</modeling>
