       N       E                     dE             d eps       ncg     rms          rms(c)
DAV:   1    -0.987075015000E+02   -0.98708E+02   -0.52425E+02  2680   0.361E+01    0.488E+00
DAV:   2    -0.987764953059E+02   -0.68994E-01   -0.12020E+01  2708   0.979E+00    0.877E-01
DAV:   3    -0.987976578572E+02   -0.21163E-01   -0.28811E-01  2676   0.181E+00    0.556E-01
DAV:   4    -0.987981584606E+02   -0.50060E-03   -0.73460E-03  2996   0.305E-01    0.260E-01
DAV:   5    -0.987984012419E+02   -0.24278E-03   -0.90541E-04  2692   0.121E-01    0.348E-02
DAV:   6    -0.987983897104E+02    0.11531E-04   -0.17959E-04  2724   0.469E-02    0.106E-02
DAV:   7    -0.987983882663E+02    0.14441E-05   -0.90624E-06  1460   0.155E-02
   1 F= -.98798388E+02 E0= -.98776115E+02  d E =-.668205E-01
