   4   4   0   0
  0.1607136E+02  0.4005938E-09  0.4005938E-09  0.4005938E-09  0.5000000E-15
  1.000000000000000E-004
  CAR 
 unknown system                          
     19.35384662     -5.06255566  301      6.51995708      1.00000000
     -5.063  0.0000E+00  0.0000E+00
     -4.981  0.0000E+00  0.0000E+00
     -4.900  0.0000E+00  0.0000E+00
     -4.818  0.0000E+00  0.0000E+00
     -4.737  0.0000E+00  0.0000E+00
     -4.656  0.0000E+00  0.0000E+00
     -4.574  0.0000E+00  0.0000E+00
     -4.493  0.0000E+00  0.0000E+00
     -4.411  0.0000E+00  0.0000E+00
     -4.330  0.0000E+00  0.0000E+00
     -4.249  0.0000E+00  0.0000E+00
     -4.167  0.0000E+00  0.0000E+00
     -4.086  0.0000E+00  0.0000E+00
     -4.005  0.1704E-14  0.1387E-15
     -3.923  0.1422E-01  0.1157E-02
     -3.842  0.8531E-01  0.8100E-02
     -3.760  0.1704E+00  0.2197E-01
     -3.679  0.1134E+00  0.3122E-01
     -3.598  0.8369E-01  0.3806E-01
     -3.516  0.3332E+00  0.6531E-01
     -3.435  0.3356E+00  0.9329E-01
     -3.353  0.0000E+00  0.9375E-01
     -3.272  0.1683E+00  0.1074E+00
     -3.191  0.4190E+00  0.1417E+00
     -3.109  0.3331E+00  0.1695E+00
     -3.028  0.3407E+00  0.1979E+00
     -2.946  0.1138E+00  0.2072E+00
     -2.865  0.3413E+00  0.2350E+00
     -2.784  0.6826E+00  0.2905E+00
     -2.702  0.1740E-11  0.2905E+00
     -2.621  0.4070E+00  0.3236E+00
     -2.540  0.3494E+00  0.3537E+00
     -2.458  0.8415E+00  0.4222E+00
     -2.377  0.1564E+00  0.4352E+00
     -2.295  0.1024E+01  0.5335E+00
     -2.214  0.1069E-12  0.5336E+00
     -2.133  0.3413E+00  0.5613E+00
     -2.051  0.1470E+00  0.5733E+00
     -1.970  0.1146E+01  0.6666E+00
     -1.888  0.1292E+01  0.7718E+00
     -1.807  0.9670E-06  0.7720E+00
     -1.726  0.1323E+01  0.8797E+00
     -1.644  0.2017E-02  0.8833E+00
     -1.563  0.1442E+01  0.1001E+01
     -1.481  0.3255E+00  0.1035E+01
     -1.400  0.1909E+01  0.1191E+01
     -1.319  0.2293E+01  0.1378E+01
     -1.237  0.9896E+00  0.1483E+01
     -1.156  0.3370E+01  0.1760E+01
     -1.075  0.2024E+01  0.1936E+01
     -0.993  0.4371E+01  0.2311E+01
     -0.912  0.3030E+01  0.2559E+01
     -0.830  0.3252E+01  0.2832E+01
     -0.749  0.7503E+01  0.3455E+01
     -0.668  0.3905E+01  0.3807E+01
     -0.586  0.5839E+01  0.4321E+01
     -0.505  0.8598E+01  0.5027E+01
     -0.423  0.6034E+01  0.5536E+01
     -0.342  0.4431E+01  0.5920E+01
     -0.261  0.1032E+02  0.6797E+01
     -0.179  0.4129E+01  0.7162E+01
     -0.098  0.4601E+01  0.7552E+01
     -0.016  0.7416E+01  0.8156E+01
      0.065  0.6139E+01  0.8697E+01
      0.146  0.4766E+01  0.9113E+01
      0.228  0.4585E+01  0.9487E+01
      0.309  0.5125E+01  0.9915E+01
      0.390  0.3491E+01  0.1023E+02
      0.472  0.4497E+01  0.1061E+02
      0.553  0.6789E+01  0.1119E+02
      0.635  0.5690E+01  0.1165E+02
      0.716  0.4612E+01  0.1207E+02
      0.797  0.8238E+01  0.1277E+02
      0.879  0.3903E+01  0.1315E+02
      0.960  0.8831E+01  0.1387E+02
      1.042  0.5972E+01  0.1440E+02
      1.123  0.7882E+01  0.1505E+02
      1.204  0.5738E+01  0.1554E+02
      1.286  0.7185E+01  0.1614E+02
      1.367  0.6431E+01  0.1669E+02
      1.448  0.8132E+01  0.1737E+02
      1.530  0.1077E+02  0.1828E+02
      1.611  0.7991E+01  0.1893E+02
      1.693  0.9233E+01  0.1972E+02
      1.774  0.1011E+02  0.2057E+02
      1.855  0.1556E+02  0.2187E+02
      1.937  0.9110E+01  0.2264E+02
      2.018  0.5785E+01  0.2315E+02
      2.100  0.7338E+01  0.2379E+02
      2.181  0.4672E+01  0.2420E+02
      2.262  0.7398E+01  0.2480E+02
      2.344  0.5282E+01  0.2528E+02
      2.425  0.4076E+01  0.2562E+02
      2.507  0.6943E+01  0.2622E+02
      2.588  0.5958E+01  0.2672E+02
      2.669  0.5729E+01  0.2720E+02
      2.751  0.5626E+01  0.2766E+02
      2.832  0.8523E+01  0.2837E+02
      2.913  0.6666E+01  0.2893E+02
      2.995  0.8687E+01  0.2967E+02
      3.076  0.5575E+01  0.3015E+02
      3.158  0.7786E+01  0.3082E+02
      3.239  0.6114E+01  0.3133E+02
      3.320  0.8202E+01  0.3200E+02
      3.402  0.5516E+01  0.3248E+02
      3.483  0.5243E+01  0.3292E+02
      3.565  0.4394E+01  0.3332E+02
      3.646  0.4938E+01  0.3375E+02
      3.727  0.6509E+01  0.3432E+02
      3.809  0.7245E+01  0.3491E+02
      3.890  0.5858E+01  0.3539E+02
      3.972  0.4468E+01  0.3578E+02
      4.053  0.4078E+01  0.3613E+02
      4.134  0.8326E+01  0.3685E+02
      4.216  0.7284E+01  0.3749E+02
      4.297  0.8655E+01  0.3820E+02
      4.378  0.7050E+01  0.3884E+02
      4.460  0.9959E+01  0.3970E+02
      4.541  0.1241E+02  0.4079E+02
      4.623  0.6051E+01  0.4129E+02
      4.704  0.3383E+01  0.4157E+02
      4.785  0.4611E+01  0.4194E+02
      4.867  0.2322E+01  0.4213E+02
      4.948  0.2786E-04  0.4214E+02
      5.030  0.1024E+01  0.4222E+02
      5.111  0.3688E+01  0.4252E+02
      5.192  0.1131E+01  0.4262E+02
      5.274  0.9346E+00  0.4270E+02
      5.355  0.5669E-01  0.4271E+02
      5.436  0.6221E+00  0.4276E+02
      5.518  0.7431E+00  0.4282E+02
      5.599  0.1013E+01  0.4291E+02
      5.681  0.8565E+00  0.4298E+02
      5.762  0.2640E+01  0.4319E+02
      5.843  0.9973E+00  0.4327E+02
      5.925  0.5099E+00  0.4332E+02
      6.006  0.7161E+00  0.4337E+02
      6.088  0.1159E+01  0.4347E+02
      6.169  0.6779E+00  0.4352E+02
      6.250  0.3265E+00  0.4355E+02
      6.332  0.2444E+01  0.4375E+02
      6.413  0.1928E+01  0.4393E+02
      6.495  0.5806E+00  0.4397E+02
      6.576  0.1024E+01  0.4407E+02
      6.657  0.4399E+00  0.4410E+02
      6.739  0.3413E+00  0.4415E+02
      6.820  0.9466E+00  0.4423E+02
      6.901  0.1129E+01  0.4432E+02
      6.983  0.4037E+00  0.4436E+02
      7.064  0.2021E+01  0.4455E+02
      7.146  0.1832E+00  0.4456E+02
      7.227  0.2540E+01  0.4477E+02
      7.308  0.7541E+00  0.4483E+02
      7.390  0.5439E+00  0.4488E+02
      7.471  0.6539E+00  0.4493E+02
      7.553  0.1307E+01  0.4504E+02
      7.634  0.7687E+00  0.4511E+02
      7.715  0.1149E+01  0.4520E+02
      7.797  0.6769E+00  0.4526E+02
      7.878  0.2500E+01  0.4547E+02
      7.960  0.1337E-06  0.4547E+02
      8.041  0.1365E+01  0.4558E+02
      8.122  0.1023E+01  0.4566E+02
      8.204  0.5127E+00  0.4570E+02
      8.285  0.1364E+01  0.4581E+02
      8.366  0.6791E+00  0.4587E+02
      8.448  0.9049E+00  0.4594E+02
      8.529  0.9728E+00  0.4603E+02
      8.611  0.3605E-02  0.4606E+02
      8.692  0.1418E+01  0.4618E+02
      8.773  0.1717E+01  0.4632E+02
      8.855  0.6898E+00  0.4638E+02
      8.936  0.6758E+00  0.4644E+02
      9.018  0.9009E+00  0.4651E+02
      9.099  0.3376E+00  0.4655E+02
      9.180  0.1523E+01  0.4667E+02
      9.262  0.1024E+01  0.4676E+02
      9.343  0.6829E+00  0.4681E+02
      9.425  0.3513E+00  0.4684E+02
      9.506  0.1340E+01  0.4695E+02
      9.587  0.4982E-05  0.4695E+02
      9.669  0.1120E+01  0.4704E+02
      9.750  0.8210E+00  0.4712E+02
      9.831  0.6843E+00  0.4717E+02
      9.913  0.1982E+01  0.4734E+02
      9.994  0.1746E+01  0.4750E+02
     10.076  0.1535E+01  0.4762E+02
     10.157  0.6826E+00  0.4768E+02
     10.238  0.2387E+01  0.4787E+02
     10.320  0.1091E+01  0.4796E+02
     10.401  0.2620E+01  0.4817E+02
     10.483  0.1328E+01  0.4829E+02
     10.564  0.3212E+00  0.4832E+02
     10.645  0.4475E+00  0.4835E+02
     10.727  0.1430E+01  0.4847E+02
     10.808  0.2944E+00  0.4849E+02
     10.889  0.1505E+01  0.4862E+02
     10.971  0.1399E+01  0.4875E+02
     11.052  0.1248E+01  0.4887E+02
     11.134  0.1350E+01  0.4898E+02
     11.215  0.1023E+01  0.4907E+02
     11.296  0.6882E+00  0.4912E+02
     11.378  0.1072E+01  0.4921E+02
     11.459  0.4617E+00  0.4925E+02
     11.541  0.6788E+00  0.4930E+02
     11.622  0.1570E+01  0.4943E+02
     11.703  0.1817E+01  0.4959E+02
     11.785  0.8997E+00  0.4966E+02
     11.866  0.1049E+01  0.4975E+02
     11.948  0.2310E+01  0.4994E+02
     12.029  0.1181E+01  0.5007E+02
     12.110  0.4878E-07  0.5010E+02
     12.192  0.1024E+01  0.5018E+02
     12.273  0.1223E+01  0.5028E+02
     12.354  0.9006E+00  0.5035E+02
     12.436  0.2100E+01  0.5053E+02
     12.517  0.1422E+01  0.5064E+02
     12.599  0.1202E+01  0.5074E+02
     12.680  0.2510E+01  0.5095E+02
     12.761  0.7064E+00  0.5100E+02
     12.843  0.5082E+00  0.5105E+02
     12.924  0.9732E+00  0.5112E+02
     13.006  0.6839E+00  0.5121E+02
     13.087  0.1242E+01  0.5131E+02
     13.168  0.2030E+01  0.5150E+02
     13.250  0.1551E+01  0.5163E+02
     13.331  0.8700E+00  0.5171E+02
     13.413  0.1301E+01  0.5182E+02
     13.494  0.9827E+00  0.5191E+02
     13.575  0.8176E-01  0.5191E+02
     13.657  0.6294E+00  0.5196E+02
     13.738  0.6821E+00  0.5202E+02
     13.819  0.1588E+01  0.5215E+02
     13.901  0.2159E+01  0.5234E+02
     13.982  0.3088E-03  0.5236E+02
     14.064  0.1340E+01  0.5247E+02
     14.145  0.1554E+01  0.5260E+02
     14.226  0.1365E+01  0.5272E+02
     14.308  0.1761E+01  0.5286E+02
     14.389  0.1030E+01  0.5295E+02
     14.471  0.1168E+01  0.5305E+02
     14.552  0.3411E+00  0.5308E+02
     14.633  0.1970E+01  0.5324E+02
     14.715  0.1443E+01  0.5336E+02
     14.796  0.1386E+01  0.5347E+02
     14.878  0.4496E+00  0.5351E+02
     14.959  0.1347E+01  0.5362E+02
     15.040  0.3471E+00  0.5365E+02
     15.122  0.7177E+00  0.5370E+02
     15.203  0.3206E+01  0.5398E+02
     15.284  0.1591E+01  0.5411E+02
     15.366  0.1651E+01  0.5425E+02
     15.447  0.1071E+01  0.5434E+02
     15.529  0.2296E+01  0.5453E+02
     15.610  0.3383E+01  0.5483E+02
     15.691  0.1040E+00  0.5485E+02
     15.773  0.3814E+00  0.5489E+02
     15.854  0.9560E+00  0.5496E+02
     15.936  0.0000E+00  0.5497E+02
     16.017  0.1067E+01  0.5506E+02
     16.098  0.1423E+01  0.5519E+02
     16.180  0.6048E+00  0.5524E+02
     16.261  0.1241E+01  0.5534E+02
     16.342  0.1352E+01  0.5546E+02
     16.424  0.5432E+00  0.5550E+02
     16.505  0.7935E+00  0.5558E+02
     16.587  0.4867E+00  0.5562E+02
     16.668  0.6254E+00  0.5567E+02
     16.749  0.7828E+00  0.5573E+02
     16.831  0.6093E+00  0.5578E+02
     16.912  0.4095E+00  0.5582E+02
     16.994  0.1422E-01  0.5582E+02
     17.075  0.6826E+00  0.5588E+02
     17.156  0.3155E+00  0.5591E+02
     17.238  0.1751E+00  0.5592E+02
     17.319  0.1550E+00  0.5595E+02
     17.401  0.5276E+00  0.5599E+02
     17.482  0.0000E+00  0.5599E+02
     17.563  0.0000E+00  0.5599E+02
     17.645  0.0000E+00  0.5599E+02
     17.726  0.0000E+00  0.5599E+02
     17.807  0.0000E+00  0.5599E+02
     17.889  0.0000E+00  0.5599E+02
     17.970  0.0000E+00  0.5599E+02
     18.052  0.0000E+00  0.5599E+02
     18.133  0.0000E+00  0.5599E+02
     18.214  0.1619E-05  0.5599E+02
     18.296  0.1138E+00  0.5600E+02
     18.377  0.0000E+00  0.5600E+02
     18.459  0.0000E+00  0.5600E+02
     18.540  0.0000E+00  0.5600E+02
     18.621  0.0000E+00  0.5600E+02
     18.703  0.0000E+00  0.5600E+02
     18.784  0.0000E+00  0.5600E+02
     18.866  0.0000E+00  0.5600E+02
     18.947  0.0000E+00  0.5600E+02
     19.028  0.0000E+00  0.5600E+02
     19.110  0.0000E+00  0.5600E+02
     19.191  0.0000E+00  0.5600E+02
     19.272  0.0000E+00  0.5600E+02
     19.354  0.0000E+00  0.5600E+02
