    4    4    1    1
  0.1607136E+02  0.4005938E-09  0.4005938E-09  0.4005938E-09  0.5000000E-15
  1.000000000000000E-004
  CAR 
 unknown system                          
   44   84   28
 
  0.0000000E+00  0.0000000E+00  0.0000000E+00  0.5787037E-03
   1       -3.9527
   2       -1.1482
   3       -1.1482
   4       -1.1482
   5       -0.8089
   6       -0.8089
   7       -0.8089
   8        1.4635
   9        1.4635
  10        1.4635
  11        3.1484
  12        3.1484
  13        4.4333
  14        4.4333
  15        4.4333
  16        4.8376
  17        4.8376
  18        4.8376
  19        4.8376
  20        4.8376
  21        4.8376
  22        7.4093
  23        7.4093
  24        7.4093
  25       12.8599
  26       12.8599
  27       12.8599
  28       16.9666
 
  0.8333333E-01  0.0000000E+00  0.0000000E+00  0.3472222E-02
   1       -3.8668
   2       -1.1163
   3       -1.0893
   4       -1.0893
   5       -0.7764
   6       -0.7594
   7       -0.7594
   8        1.4164
   9        1.5038
  10        1.5038
  11        3.0975
  12        3.1685
  13        4.3599
  14        4.3599
  15        4.4093
  16        4.4885
  17        4.4885
  18        4.7483
  19        4.7483
  20        4.8377
  21        4.8377
  22        6.8483
  23        7.8142
  24        7.8142
  25       12.7657
  26       12.7658
  27       13.5631
  28       16.8378
 
  0.1666667E+00  0.0000000E+00  0.0000000E+00  0.3472222E-02
   1       -3.6122
   2       -1.0302
   3       -0.9187
   4       -0.9187
   5       -0.6803
   6       -0.6110
   7       -0.6110
   8        1.2805
   9        1.6240
  10        1.6240
  11        2.9518
  12        3.2277
  13        3.7731
  14        3.7731
  15        4.1471
  16        4.1471
  17        4.3395
  18        4.4988
  19        4.4988
  20        4.8382
  21        4.8382
  22        5.6637
  23        8.6951
  24        8.6951
  25       12.5228
  26       12.5228
  27       15.1807
  28       16.4592
 
  0.2500000E+00  0.0000000E+00  0.0000000E+00  0.3472222E-02
   1       -3.2004
   2       -0.9243
   3       -0.6571
   4       -0.6571
   5       -0.5243
   6       -0.3648
   7       -0.3648
   8        1.0709
   9        1.8219
  10        1.8219
  11        2.7332
  12        2.9930
  13        2.9930
  14        3.3228
  15        3.8218
  16        3.8218
  17        4.1336
  18        4.1336
  19        4.2299
  20        4.3948
  21        4.8387
  22        4.8387
  23        9.7438
  24        9.7438
  25       12.2227
  26       12.2227
  27       15.8551
  28       15.8551
 
  0.3333333E+00  0.0000000E+00  0.0000000E+00  0.3472222E-02
   1       -2.6556
   2       -0.8741
   3       -0.3479
   4       -0.3479
   5       -0.3152
   6       -0.0222
   7       -0.0222
   8        0.8088
   9        2.0931
  10        2.0931
  11        2.2422
  12        2.2422
  13        2.4830
  14        3.2915
  15        3.4424
  16        3.4424
  17        3.4487
  18        3.7046
  19        3.7046
  20        4.0896
  21        4.8393
  22        4.8393
  23       10.8554
  24       10.8554
  25       11.9558
  26       11.9558
  27       15.0620
  28       15.0620
 
  0.4166667E+00  0.0000000E+00  0.0000000E+00  0.3472222E-02
   1       -2.0288
   2       -1.0091
   3       -0.0733
   4       -0.0733
   5       -0.0625
   6        0.4143
   7        0.4143
   8        0.5179
   9        1.5533
  10        1.5533
  11        2.2727
  12        2.4308
  13        2.4308
  14        2.5347
  15        3.1124
  16        3.1124
  17        3.2566
  18        3.2566
  19        3.5981
  20        3.9297
  21        4.8397
  22        4.8397
  23       11.7793
  24       11.7793
  25       11.9806
  26       11.9806
  27       14.1231
  28       14.1231
 
  0.5000000E+00  0.0000000E+00  0.0000000E+00  0.1736111E-02
   1       -1.4245
   2       -1.4245
   3        0.0430
   4        0.0430
   5        0.2208
   6        0.2208
   7        0.9412
   8        0.9412
   9        0.9412
  10        0.9412
  11        2.2285
  12        2.2285
  13        2.8241
  14        2.8241
  15        2.8241
  16        2.8241
  17        2.9751
  18        2.9751
  19        3.7620
  20        3.7620
  21        4.8399
  22        4.8399
  23       11.7183
  24       11.7183
  25       13.0823
  26       13.0823
  27       13.0823
  28       13.0823
 
  0.8333333E-01  0.8333333E-01  0.0000000E+00  0.6944444E-02
   1       -3.7818
   2       -1.0568
   3       -1.0568
   4       -1.0378
   5       -0.7275
   6       -0.7275
   7       -0.7048
   8        1.3957
   9        1.5190
  10        1.5406
  11        3.0835
  12        3.1562
  13        4.2596
  14        4.2611
  15        4.2611
  16        4.2911
  17        4.4530
  18        4.4530
  19        4.7482
  20        4.7482
  21        4.7798
  22        7.2624
  23        7.2624
  24        8.1575
  25       12.6560
  26       13.4648
  27       13.4648
  28       16.3186
 
  0.1666667E+00  0.8333333E-01  0.0000000E+00  0.1388889E-01
   1       -3.5302
   2       -0.9692
   3       -0.8880
   4       -0.8845
   5       -0.6332
   6       -0.5811
   7       -0.5431
   8        1.2764
   9        1.6266
  10        1.6493
  11        2.9576
  12        3.2101
  13        3.6014
  14        3.6538
  15        3.9578
  16        4.0906
  17        4.1823
  18        4.3577
  19        4.4981
  20        4.7480
  21        4.7489
  22        6.1534
  23        8.1030
  24        8.9616
  25       12.3683
  26       13.2205
  27       15.0251
  28       15.7742
 
  0.2500000E+00  0.8333333E-01  0.0000000E+00  0.1388889E-01
   1       -3.1232
   2       -0.8608
   3       -0.6522
   4       -0.6198
   5       -0.4804
   6       -0.3381
   7       -0.2837
   8        1.0756
   9        1.8211
  10        1.8214
  11        2.7576
  12        2.8374
  13        2.9306
  14        3.3166
  15        3.4537
  16        3.7818
  17        3.8615
  18        4.1323
  19        4.1937
  20        4.7419
  21        4.7474
  22        5.0868
  23        9.0338
  24        9.9636
  25       12.0012
  26       12.9551
  27       15.2442
  28       16.0240
 
  0.3333333E+00  0.8333333E-01  0.0000000E+00  0.1388889E-01
   1       -2.5847
   2       -0.8084
   3       -0.3547
   4       -0.3057
   5       -0.2755
   6       -0.0005
   7        0.0510
   8        0.8215
   9        2.0158
  10        2.0915
  11        2.1095
  12        2.2124
  13        2.5700
  14        2.8085
  15        3.4200
  16        3.4604
  17        3.4870
  18        3.7027
  19        3.8849
  20        4.3812
  21        4.7410
  22        4.7465
  23        9.9101
  24       11.0477
  25       11.6467
  26       12.8189
  27       14.6797
  28       15.2263
 
  0.4166667E+00  0.8333333E-01  0.0000000E+00  0.1388889E-01
   1       -1.9640
   2       -0.9445
   3       -0.0585
   4       -0.0283
   5       -0.0256
   6        0.4290
   7        0.4365
   8        0.5383
   9        1.4534
  10        1.5442
  11        2.0653
  12        2.2628
  13        2.4287
  14        2.6254
  15        3.1092
  16        3.1513
  17        3.2545
  18        3.4091
  19        3.6335
  20        4.0530
  21        4.7420
  22        4.7452
  23       10.5991
  24       11.3403
  25       12.1566
  26       12.9585
  27       14.0520
  28       14.2865
 
  0.5000000E+00  0.8333333E-01  0.0000000E+00  0.6944444E-02
   1       -1.3623
   2       -1.3623
   3        0.0866
   4        0.0866
   5        0.2485
   6        0.2485
   7        0.8923
   8        0.8923
   9        0.9461
  10        0.9461
  11        2.0410
  12        2.0410
  13        2.8218
  14        2.8218
  15        2.9612
  16        2.9612
  17        2.9945
  18        2.9945
  19        3.8298
  20        3.8298
  21        4.7436
  22        4.7436
  23       11.0368
  24       11.0368
  25       13.2493
  26       13.2493
  27       13.4208
  28       13.4208
 
  0.1666667E+00  0.1666667E+00  0.0000000E+00  0.6944444E-02
   1       -3.2876
   2       -0.7918
   3       -0.7918
   4       -0.7868
   5       -0.4925
   6       -0.4925
   7       -0.3550
   8        1.2198
   9        1.6824
  10        1.7220
  11        2.9136
  12        3.2148
  13        3.2148
  14        3.2260
  15        3.2839
  16        3.9233
  17        4.1695
  18        4.1695
  19        4.4962
  20        4.4962
  21        4.6100
  22        6.9830
  23        6.9830
  24        9.6424
  25       11.9573
  26       14.6374
  27       14.6374
  28       15.1535
 
  0.2500000E+00  0.1666667E+00  0.0000000E+00  0.1388889E-01
   1       -2.8952
   2       -0.6755
   3       -0.6046
   4       -0.5176
   5       -0.3492
   6       -0.2595
   7       -0.0803
   8        1.0688
   9        1.8268
  10        1.8439
  11        2.4737
  12        2.7132
  13        2.7315
  14        2.7740
  15        3.3506
  16        3.6597
  17        3.8857
  18        4.0408
  19        4.1286
  20        4.4931
  21        4.5314
  22        5.9062
  23        7.8344
  24       10.5529
  25       11.4236
  26       14.1955
  27       14.6901
  28       16.1406
 
  0.3333333E+00  0.1666667E+00  0.0000000E+00  0.1388889E-01
   1       -2.3760
   2       -0.6164
   3       -0.3428
   4       -0.1875
   5       -0.1576
   6        0.0631
   7        0.2335
   8        0.8494
   9        1.7933
  10        1.9017
  11        2.0991
  12        2.1164
  13        2.1919
  14        2.6619
  15        3.3458
  16        3.5396
  17        3.5495
  18        3.6979
  19        3.7822
  20        4.4893
  21        4.4980
  22        5.0661
  23        8.6270
  24       10.8882
  25       11.5772
  26       13.8598
  27       14.3164
  28       15.6950
 
  0.4166667E+00  0.1666667E+00  0.0000000E+00  0.1388889E-01
   1       -1.7749
   2       -0.7571
   3       -0.0270
   4        0.0726
   5        0.1130
   6        0.4713
   7        0.5172
   8        0.5944
   9        1.2053
  10        1.5131
  11        1.8257
  12        1.8438
  13        2.4291
  14        2.7505
  15        3.0839
  16        3.2087
  17        3.2498
  18        3.4167
  19        3.8009
  20        4.4857
  21        4.4860
  22        4.4960
  23        9.3143
  24       10.3889
  25       12.6487
  26       13.7185
  27       14.0043
  28       14.7504
 
  0.5000000E+00  0.1666667E+00  0.0000000E+00  0.6944444E-02
   1       -1.1827
   2       -1.1827
   3        0.2074
   4        0.2074
   5        0.3287
   6        0.3287
   7        0.7739
   8        0.7739
   9        0.9583
  10        0.9583
  11        1.7451
  12        1.7451
  13        2.8186
  14        2.8186
  15        3.0204
  16        3.0204
  17        3.0375
  18        3.0375
  19        4.1050
  20        4.1050
  21        4.4837
  22        4.4837
  23        9.8872
  24        9.8872
  25       13.7204
  26       13.7204
  27       13.7833
  28       13.7833
 
  0.2500000E+00  0.2500000E+00  0.0000000E+00  0.6944444E-02
   1       -2.5276
   2       -0.4832
   3       -0.3858
   4       -0.3858
   5       -0.1329
   6       -0.1329
   7        0.1922
   8        1.0040
   9        1.8421
  10        1.9440
  11        2.0298
  12        2.0298
  13        2.3879
  14        2.7005
  15        3.4576
  16        3.5146
  17        3.7977
  18        3.7977
  19        4.1235
  20        4.1235
  21        4.3388
  22        6.7068
  23        6.7068
  24       10.7012
  25       11.3812
  26       14.3514
  27       15.3731
  28       15.3731
 
  0.3333333E+00  0.2500000E+00  0.0000000E+00  0.1388889E-01
   1       -2.0420
   2       -0.3148
   3       -0.2798
   4       -0.0276
   5        0.0350
   6        0.1644
   7        0.4752
   8        0.8633
   9        1.4178
  10        1.6235
  11        1.8230
  12        1.9386
  13        2.1507
  14        2.6191
  15        3.2068
  16        3.4930
  17        3.5747
  18        3.6930
  19        3.7931
  20        4.1189
  21        4.2174
  22        5.7853
  23        7.4586
  24        9.9994
  25       12.3454
  26       14.1428
  27       14.7377
  28       16.4196
 
  0.4166667E+00  0.2500000E+00  0.0000000E+00  0.1388889E-01
   1       -1.4780
   2       -0.4702
   3        0.0045
   4        0.2344
   5        0.3221
   6        0.5359
   7        0.6692
   8        0.6715
   9        0.8972
  10        1.4270
  11        1.4487
  12        1.6917
  13        2.4521
  14        2.6873
  15        3.0022
  16        3.1865
  17        3.2484
  18        3.2542
  19        4.1182
  20        4.1456
  21        4.1545
  22        5.0905
  23        8.1430
  24        9.3653
  25       13.3772
  26       14.0438
  27       14.3045
  28       15.4512
 
  0.5000000E+00  0.2500000E+00  0.0000000E+00  0.6944444E-02
   1       -0.9086
   2       -0.9086
   3        0.3424
   4        0.3424
   5        0.4518
   6        0.4518
   7        0.6797
   8        0.6797
   9        0.9703
  10        0.9703
  11        1.5023
  12        1.5023
  13        2.8257
  14        2.8257
  15        2.9258
  16        2.9258
  17        2.9853
  18        2.9853
  19        4.1269
  20        4.1269
  21        4.5669
  22        4.5669
  23        8.7656
  24        8.7656
  25       14.0829
  26       14.0829
  27       14.4268
  28       14.4268
 
  0.3333333E+00  0.3333333E+00  0.0000000E+00  0.6944444E-02
   1       -1.6055
   2       -0.1532
   3        0.0610
   4        0.0610
   5        0.2959
   6        0.2959
   7        0.7205
   8        0.8290
   9        1.1254
  10        1.1254
  11        1.6719
  12        1.7545
  13        2.2880
  14        2.5175
  15        3.0136
  16        3.3079
  17        3.3079
  18        3.6929
  19        3.6929
  20        3.9845
  21        4.1595
  22        6.4852
  23        6.4852
  24        9.1699
  25       13.2623
  26       14.0986
  27       15.5596
  28       15.5596
 
  0.4166667E+00  0.3333333E+00  0.0000000E+00  0.1388889E-01
   1       -1.1022
   2       -0.1394
   3        0.0423
   4        0.4204
   5        0.4463
   6        0.6136
   7        0.7352
   8        0.7357
   9        0.8710
  10        1.1269
  11        1.3357
  12        1.6040
  13        2.5288
  14        2.5293
  15        2.8462
  16        3.0188
  17        3.0333
  18        3.2609
  19        3.7060
  20        3.8307
  21        4.6003
  22        5.7171
  23        7.1504
  24        8.4450
  25       14.1856
  26       14.2615
  27       14.8890
  28       16.3175
 
  0.5000000E+00  0.3333333E+00  0.0000000E+00  0.6944444E-02
   1       -0.5845
   2       -0.5845
   3        0.3030
   4        0.3030
   5        0.5999
   6        0.5999
   7        0.8057
   8        0.8057
   9        0.9698
  10        0.9698
  11        1.3549
  12        1.3549
  13        2.7217
  14        2.7217
  15        2.8436
  16        2.8436
  17        2.8623
  18        2.8623
  19        3.7455
  20        3.7455
  21        5.1087
  22        5.1087
  23        7.7906
  24        7.7906
  25       14.4374
  26       14.4374
  27       15.2932
  28       15.2932
 
  0.4166667E+00  0.4166667E+00  0.0000000E+00  0.6944444E-02
   1       -0.6875
   2        0.0985
   3        0.1100
   4        0.1100
   5        0.6903
   6        0.6903
   7        0.7658
   8        0.9985
   9        0.9985
  10        1.0321
  11        1.1638
  12        1.5086
  13        2.4276
  14        2.6716
  15        2.6925
  16        2.7763
  17        2.7763
  18        3.3038
  19        3.3038
  20        3.5719
  21        5.1148
  22        6.3451
  23        6.3451
  24        7.6621
  25       14.4633
  26       15.2375
  27       15.5553
  28       15.5553
 
  0.5000000E+00  0.4166667E+00  0.0000000E+00  0.6944444E-02
   1       -0.2747
   2       -0.2747
   3        0.1553
   4        0.1553
   5        0.7475
   6        0.7475
   7        0.9400
   8        0.9400
   9        1.0474
  10        1.0474
  11        1.2979
  12        1.2979
  13        2.5252
  14        2.5252
  15        2.6267
  16        2.6267
  17        2.9552
  18        2.9552
  19        3.3996
  20        3.3996
  21        5.6853
  22        5.6853
  23        6.9809
  24        6.9809
  25       14.9117
  26       14.9117
  27       16.2559
  28       16.2713
 
  0.5000000E+00  0.5000000E+00  0.0000000E+00  0.1736111E-02
   1       -0.0297
   2       -0.0297
   3       -0.0297
   4       -0.0297
   5        0.8666
   6        0.8666
   7        0.8666
   8        0.8666
   9        1.2321
  10        1.2321
  11        1.2321
  12        1.2321
  13        2.4731
  14        2.4731
  15        2.4731
  16        2.4731
  17        3.1307
  18        3.1307
  19        3.1307
  20        3.1307
  21        6.2976
  22        6.2976
  23        6.2976
  24        6.2976
  25       15.5381
  26       15.5381
  27       15.5381
  28       15.5381
 
  0.8333333E-01  0.8333333E-01  0.8333333E-01  0.4629630E-02
   1       -3.6980
   2       -1.0054
   3       -1.0054
   4       -1.0054
   5       -0.6731
   6       -0.6731
   7       -0.6731
   8        1.3784
   9        1.5532
  10        1.5532
  11        3.1091
  12        3.1091
  13        4.1353
  14        4.1353
  15        4.1353
  16        4.2295
  17        4.2295
  18        4.2295
  19        4.7376
  20        4.7376
  21        4.7376
  22        7.5971
  23        7.5971
  24        7.5971
  25       13.3417
  26       13.3417
  27       13.3417
  28       16.5316
 
  0.1666667E+00  0.8333333E-01  0.8333333E-01  0.1388889E-01
   1       -3.4498
   2       -0.9180
   3       -0.8558
   4       -0.8558
   5       -0.5792
   6       -0.5118
   7       -0.5118
   8        1.2742
   9        1.6449
  10        1.6550
  11        2.9765
  12        3.1842
  13        3.5060
  14        3.5060
  15        3.7764
  16        4.0479
  17        4.0573
  18        4.0573
  19        4.6249
  20        4.7096
  21        4.7096
  22        6.4888
  23        8.3483
  24        8.3483
  25       13.0260
  26       13.0260
  27       14.8067
  28       16.0470
 
  0.2500000E+00  0.8333333E-01  0.8333333E-01  0.1388889E-01
   1       -3.0486
   2       -0.8099
   3       -0.6202
   4       -0.6202
   5       -0.4272
   6       -0.2535
   7       -0.2535
   8        1.0844
   9        1.8132
  10        1.8230
  11        2.7878
  12        2.7878
  13        2.7925
  14        3.2270
  15        3.3047
  16        3.7642
  17        3.7829
  18        3.7829
  19        4.4660
  20        4.6858
  21        4.6858
  22        5.3887
  23        9.2248
  24        9.2248
  25       12.6507
  26       12.6507
  27       15.6046
  28       15.6046
 
  0.3333333E+00  0.8333333E-01  0.8333333E-01  0.1388889E-01
   1       -2.5179
   2       -0.7573
   3       -0.3208
   4       -0.3208
   5       -0.2250
   6        0.0766
   7        0.0766
   8        0.8399
   9        1.9796
  10        2.0537
  11        2.0917
  12        2.0917
  13        2.5984
  14        2.6597
  15        3.4153
  16        3.4409
  17        3.4409
  18        3.4637
  19        4.2775
  20        4.4776
  21        4.6721
  22        4.6721
  23       10.0578
  24       10.0578
  25       12.3591
  26       12.3591
  27       15.1593
  28       15.1593
 
  0.4166667E+00  0.8333333E-01  0.8333333E-01  0.1388889E-01
   1       -1.9057
   2       -0.8935
   3       -0.0166
   4       -0.0166
   5        0.0166
   6        0.4425
   7        0.4425
   8        0.5661
   9        1.4662
  10        1.4662
  11        1.9807
  12        2.1092
  13        2.3413
  14        2.7995
  15        3.0415
  16        3.1304
  17        3.1304
  18        3.6520
  19        3.7628
  20        4.0712
  21        4.6656
  22        4.6656
  23       10.6631
  24       10.6631
  25       12.2569
  26       12.2569
  27       14.7337
  28       14.7337
 
  0.5000000E+00  0.8333333E-01  0.8333333E-01  0.6944444E-02
   1       -1.3101
   2       -1.3101
   3        0.1300
   4        0.1300
   5        0.2853
   6        0.2853
   7        0.7531
   8        0.7531
   9        1.0494
  10        1.0494
  11        1.9329
  12        1.9329
  13        2.6758
  14        2.6758
  15        2.9977
  16        2.9977
  17        3.2034
  18        3.2034
  19        3.8585
  20        3.8585
  21        4.6636
  22        4.6636
  23       10.8712
  24       10.8712
  25       12.2819
  26       12.2819
  27       14.5286
  28       14.5286
 
  0.1666667E+00  0.1666667E+00  0.8333333E-01  0.1388889E-01
   1       -3.2122
   2       -0.7694
   3       -0.7694
   4       -0.7589
   5       -0.4189
   6       -0.4189
   7       -0.3216
   8        1.2272
   9        1.6941
  10        1.7185
  11        2.9590
  12        3.1357
  13        3.1357
  14        3.1627
  15        3.1883
  16        3.8227
  17        3.9018
  18        3.9018
  19        4.6098
  20        4.6098
  21        4.6305
  22        7.2001
  23        7.2001
  24        8.9575
  25       12.5275
  26       14.2703
  27       14.2703
  28       15.5740
 
  0.2500000E+00  0.1666667E+00  0.8333333E-01  0.2777778E-01
   1       -2.8284
   2       -0.6632
   3       -0.5818
   4       -0.5355
   5       -0.2683
   6       -0.1623
   7       -0.0464
   8        1.0905
   9        1.8163
  10        1.8316
  11        2.4424
  12        2.6196
  13        2.6374
  14        2.8377
  15        3.3242
  16        3.5811
  17        3.6185
  18        3.7059
  19        4.4576
  20        4.5464
  21        4.5506
  22        6.0685
  23        7.9971
  24        9.7178
  25       11.9307
  26       13.6466
  27       15.2952
  28       15.5167
 
  0.3333333E+00  0.1666667E+00  0.8333333E-01  0.2777778E-01
   1       -2.3216
   2       -0.6122
   3       -0.3247
   4       -0.2341
   5       -0.0722
   6        0.1581
   7        0.2609
   8        0.8856
   9        1.8013
  10        1.8852
  11        2.0298
  12        2.0326
  13        2.1228
  14        2.7789
  15        3.2702
  16        3.3055
  17        3.4288
  18        3.5316
  19        4.2250
  20        4.4927
  21        4.4939
  22        5.1256
  23        8.7637
  24       10.3916
  25       11.4772
  26       13.0848
  27       15.1551
  28       16.2435
 
  0.4166667E+00  0.1666667E+00  0.8333333E-01  0.2777778E-01
   1       -1.7366
   2       -0.7502
   3       -0.0070
   4        0.0940
   5        0.1525
   6        0.4605
   7        0.5050
   8        0.6454
   9        1.2841
  10        1.4940
  11        1.7720
  12        1.8154
  13        2.2813
  14        2.9118
  15        2.9638
  16        3.0573
  17        3.1412
  18        3.7830
  19        3.8503
  20        4.4619
  21        4.4639
  22        4.4698
  23        9.4398
  24       10.4321
  25       11.6424
  26       12.6096
  27       15.1693
  28       15.7946
 
  0.5000000E+00  0.1666667E+00  0.8333333E-01  0.1388889E-01
   1       -1.1620
   2       -1.1620
   3        0.2494
   4        0.2494
   5        0.3950
   6        0.3950
   7        0.5695
   8        0.5695
   9        1.1455
  10        1.1455
  11        1.7065
  12        1.7065
  13        2.5763
  14        2.5763
  15        2.9803
  16        2.9803
  17        3.3672
  18        3.3672
  19        4.0765
  20        4.0765
  21        4.4536
  22        4.4536
  23       10.0022
  24       10.0022
  25       12.1475
  26       12.1475
  27       15.3897
  28       15.3897
 
  0.2500000E+00  0.2500000E+00  0.8333333E-01  0.1388889E-01
   1       -2.4744
   2       -0.4711
   3       -0.4357
   4       -0.4357
   5       -0.0114
   6       -0.0114
   7        0.2248
   8        1.0465
   9        1.8316
  10        1.8993
  11        2.0135
  12        2.0135
  13        2.3093
  14        2.7977
  15        3.3394
  16        3.4836
  17        3.4836
  18        3.4836
  19        4.3577
  20        4.3577
  21        4.4056
  22        6.8215
  23        6.8215
  24       10.2954
  25       11.1910
  26       14.6146
  27       14.6146
  28       15.2004
 
  0.3333333E+00  0.2500000E+00  0.8333333E-01  0.2777778E-01
   1       -2.0096
   2       -0.3958
   3       -0.2810
   4       -0.1448
   5        0.1820
   6        0.3072
   7        0.4939
   8        0.9294
   9        1.4578
  10        1.6189
  11        1.8131
  12        1.9049
  13        2.0427
  14        2.7786
  15        3.1037
  16        3.1617
  17        3.2873
  18        3.7626
  19        4.0963
  20        4.2567
  21        4.2828
  22        5.8309
  23        7.5545
  24       10.1220
  25       11.3134
  26       13.8211
  27       15.2744
  28       15.5949
 
  0.4166667E+00  0.2500000E+00  0.8333333E-01  0.2777778E-01
   1       -1.4746
   2       -0.5444
   3       -0.0148
   4        0.1843
   5        0.3816
   6        0.5285
   7        0.6358
   8        0.7613
   9        1.1034
  10        1.4237
  11        1.5153
  12        1.6824
  13        2.2426
  14        2.8169
  15        2.9160
  16        2.9545
  17        3.0535
  18        3.7327
  19        4.1124
  20        4.1928
  21        4.2036
  22        5.0778
  23        8.2368
  24        9.4916
  25       11.9466
  26       13.1516
  27       15.5417
  28       16.5964
 
  0.5000000E+00  0.2500000E+00  0.8333333E-01  0.1388889E-01
   1       -0.9434
   2       -0.9434
   3        0.3003
   4        0.3003
   5        0.5113
   6        0.5113
   7        0.5731
   8        0.5731
   9        1.2236
  10        1.2236
  11        1.4950
  12        1.4950
  13        2.5018
  14        2.5018
  15        2.8890
  16        2.8890
  17        3.3129
  18        3.3129
  19        4.1745
  20        4.1745
  21        4.5331
  22        4.5331
  23        8.8711
  24        8.8711
  25       12.5539
  26       12.5539
  27       16.0204
  28       16.0204
 
  0.3333333E+00  0.3333333E+00  0.8333333E-01  0.1388889E-01
   1       -1.6063
   2       -0.1803
   3       -0.1411
   4       -0.1411
   5        0.5144
   6        0.5144
   7        0.7094
   8        0.9333
   9        1.1827
  10        1.1827
  11        1.7177
  12        1.7519
  13        2.0932
  14        2.7573
  15        2.8861
  16        3.0203
  17        3.0203
  18        3.9658
  19        3.9658
  20        4.0879
  21        4.1253
  22        6.5250
  23        6.5250
  24        9.2926
  25       11.8763
  26       14.6381
  27       14.6381
  28       15.5480
 
  0.4166667E+00  0.3333333E+00  0.8333333E-01  0.2777778E-01
   1       -1.1496
   2       -0.3245
   3       -0.0279
   4        0.0901
   5        0.6945
   6        0.7386
   7        0.7940
   8        0.8827
   9        1.0124
  10        1.1474
  11        1.5170
  12        1.6071
  13        2.2058
  14        2.7043
  15        2.7196
  16        2.8430
  17        2.8971
  18        3.6038
  19        3.8807
  20        3.9408
  21        4.5644
  22        5.7094
  23        7.1935
  24        8.5306
  25       12.4998
  26       13.8273
  27       15.5286
  28       16.0133
 
  0.5000000E+00  0.3333333E+00  0.8333333E-01  0.1388889E-01
   1       -0.6946
   2       -0.6946
   3        0.1264
   4        0.1264
   5        0.7189
   6        0.7189
   7        0.7984
   8        0.7984
   9        1.2923
  10        1.2923
  11        1.3613
  12        1.3613
  13        2.4154
  14        2.4154
  15        2.7034
  16        2.7034
  17        3.2138
  18        3.2138
  19        3.8692
  20        3.8692
  21        5.0778
  22        5.0778
  23        7.8483
  24        7.8483
  25       13.1339
  26       13.1339
  27       16.4702
  28       16.4702
 
  0.4166667E+00  0.4166667E+00  0.8333333E-01  0.1388889E-01
   1       -0.7987
   2       -0.1492
   3       -0.1492
   4       -0.0360
   5        0.8975
   6        0.9609
   7        0.9609
   8        0.9658
   9        1.0724
  10        1.0724
  11        1.4907
  12        1.5313
  13        2.1956
  14        2.5324
  15        2.5673
  16        2.5673
  17        2.9586
  18        3.5315
  19        3.5315
  20        3.7108
  21        5.0801
  22        6.3442
  23        6.3442
  24        7.7054
  25       13.1236
  26       14.6049
  27       14.6049
  28       16.4162
 
  0.5000000E+00  0.4166667E+00  0.8333333E-01  0.1388889E-01
   1       -0.4566
   2       -0.4566
   3       -0.0598
   4       -0.0598
   5        0.9225
   6        0.9225
   7        0.9888
   8        0.9888
   9        1.3408
  10        1.3408
  11        1.3580
  12        1.3580
  13        2.3189
  14        2.3189
  15        2.4716
  16        2.4716
  17        3.1928
  18        3.1928
  19        3.5636
  20        3.5636
  21        5.6595
  22        5.6595
  23        6.9953
  24        6.9953
  25       13.8137
  26       13.8137
  27       15.4693
  28       15.4693
 
  0.5000000E+00  0.5000000E+00  0.8333333E-01  0.3472222E-02
   1       -0.2483
   2       -0.2483
   3       -0.2483
   4       -0.2483
   5        1.0260
   6        1.0260
   7        1.0260
   8        1.0260
   9        1.3896
  10        1.3896
  11        1.3896
  12        1.3896
  13        2.3083
  14        2.3083
  15        2.3083
  16        2.3083
  17        3.3146
  18        3.3146
  19        3.3146
  20        3.3146
  21        6.2847
  22        6.2847
  23        6.2847
  24        6.2847
  25       14.5880
  26       14.5880
  27       14.5880
  28       14.5880
 
  0.1666667E+00  0.1666667E+00  0.1666667E+00  0.4629630E-02
   1       -2.9896
   2       -0.6864
   3       -0.6864
   4       -0.6864
   5       -0.2211
   6       -0.2211
   7       -0.2211
   8        1.2188
   9        1.7341
  10        1.7341
  11        2.8303
  12        2.8303
  13        2.8303
  14        3.0883
  15        3.0883
  16        3.5790
  17        3.5790
  18        3.5790
  19        4.6428
  20        4.6428
  21        4.6428
  22        7.7424
  23        7.7424
  24        7.7424
  25       13.4704
  26       13.4704
  27       13.4704
  28       16.7290
 
  0.2500000E+00  0.1666667E+00  0.1666667E+00  0.1388889E-01