 running on    4 nodes
 distr:  one band on    1 nodes,    4 groups
 vasp.4.6.28 25Jul05 complex 
 POSCAR found :  1 types and    4 ions
 LDA part: xc-table for Pade appr. of Perdew
 POSCAR, INCAR and KPOINTS ok, starting setup
 FFT: planning ...           1
 reading WAVECAR
 WARNING: random wavefunctions but no delay for mixing, default for NELMDL
 entering main loop
       N       E                     dE             d eps       ncg     rms          rms(c)
DAV:   1     0.526408064998E+03    0.52641E+03   -0.26729E+04  4712   0.208E+03
DAV:   2     0.104891168303E+02   -0.51592E+03   -0.49068E+03  4732   0.501E+02
DAV:   3    -0.134829476069E+02   -0.23972E+02   -0.23110E+02  5280   0.114E+02
DAV:   4    -0.139367060088E+02   -0.45376E+00   -0.45188E+00  4956   0.151E+01
DAV:   5    -0.139410647650E+02   -0.43588E-02   -0.43583E-02  5036   0.138E+00    0.556E+00
DAV:   6    -0.130419292285E+02    0.89914E+00   -0.24804E+00  4940   0.152E+01    0.138E+00
DAV:   7    -0.129982466205E+02    0.43683E-01   -0.12486E-01  5068   0.277E+00    0.619E-01
DAV:   8    -0.129897522528E+02    0.84944E-02   -0.65283E-03  4764   0.807E-01    0.399E-02
DAV:   9    -0.129898171877E+02   -0.64935E-04   -0.22073E-04  5128   0.118E-01    0.228E-02
DAV:  10    -0.129898282738E+02   -0.11086E-04   -0.21662E-05  4816   0.312E-02    0.267E-03
DAV:  11    -0.129898297872E+02   -0.15134E-05   -0.63923E-07  5028   0.702E-03    0.915E-04
DAV:  12    -0.129898291954E+02    0.59186E-06   -0.49029E-08  4772   0.213E-03    0.689E-05
DAV:  13    -0.129898291848E+02    0.10544E-07   -0.79066E-10  2608   0.273E-04    0.204E-05
DAV:  14    -0.129898291960E+02   -0.11207E-07   -0.18381E-10  2520   0.130E-04    0.129E-05
DAV:  15    -0.129898291907E+02    0.53078E-08   -0.28749E-11  2512   0.514E-05
   1 F= -.12989829E+02 E0= -.12989760E+02  d E =-.139074E-03
