   4   4   0   0
  0.1927700E+02  0.4256309E-09  0.4256309E-09  0.4256309E-09  0.5000000E-15
  1.000000000000000E-004
  CAR 
 unknown system                          
     15.64685256     -5.30857382  301      4.25019618      1.00000000
     -5.309  0.0000E+00  0.0000E+00
     -5.239  0.0000E+00  0.0000E+00
     -5.169  0.0000E+00  0.0000E+00
     -5.099  0.0000E+00  0.0000E+00
     -5.029  0.0000E+00  0.0000E+00
     -4.959  0.0000E+00  0.0000E+00
     -4.889  0.0000E+00  0.0000E+00
     -4.820  0.0000E+00  0.0000E+00
     -4.750  0.0000E+00  0.0000E+00
     -4.680  0.0000E+00  0.0000E+00
     -4.610  0.0000E+00  0.0000E+00
     -4.540  0.0000E+00  0.0000E+00
     -4.470  0.0000E+00  0.0000E+00
     -4.401  0.2693E-11  0.1881E-12
     -4.331  0.1657E-01  0.1157E-02
     -4.261  0.9934E-01  0.8097E-02
     -4.191  0.1984E+00  0.2196E-01
     -4.121  0.1321E+00  0.3122E-01
     -4.051  0.9825E-01  0.3811E-01
     -3.981  0.3930E+00  0.6565E-01
     -3.912  0.3947E+00  0.9354E-01
     -3.842  0.4018E-13  0.9375E-01
     -3.772  0.1980E+00  0.1076E+00
     -3.702  0.4947E+00  0.1422E+00
     -3.632  0.3955E+00  0.1700E+00
     -3.562  0.3975E+00  0.1979E+00
     -3.492  0.1326E+00  0.2072E+00
     -3.423  0.3977E+00  0.2350E+00
     -3.353  0.7953E+00  0.2905E+00
     -3.283  0.4077E-07  0.2905E+00
     -3.213  0.4717E+00  0.3235E+00
     -3.143  0.4512E+00  0.3568E+00
     -3.073  0.9365E+00  0.4222E+00
     -3.003  0.2716E+00  0.4414E+00
     -2.934  0.1313E+01  0.5331E+00
     -2.864  0.1819E-11  0.5336E+00
     -2.794  0.3972E+00  0.5613E+00
     -2.724  0.1723E+00  0.5734E+00
     -2.654  0.1296E+01  0.6639E+00
     -2.584  0.1419E+01  0.7631E+00
     -2.515  0.9906E-01  0.7720E+00
     -2.445  0.1158E+01  0.8529E+00
     -2.375  0.4330E+00  0.8831E+00
     -2.305  0.1300E+01  0.9739E+00
     -2.235  0.5442E+00  0.1012E+01
     -2.165  0.2083E+01  0.1157E+01
     -2.095  0.8551E+00  0.1217E+01
     -2.026  0.1873E+01  0.1350E+01
     -1.956  0.2115E+01  0.1497E+01
     -1.886  0.4432E+01  0.1807E+01
     -1.816  0.1940E+01  0.1943E+01
     -1.746  0.4522E+01  0.2259E+01
     -1.676  0.4202E+01  0.2552E+01
     -1.606  0.2201E+01  0.2708E+01
     -1.537  0.9142E+01  0.3347E+01
     -1.467  0.5372E+01  0.3723E+01
     -1.397  0.6732E+01  0.4193E+01
     -1.327  0.1046E+02  0.4929E+01
     -1.257  0.7947E+01  0.5484E+01
     -1.187  0.7159E+01  0.5985E+01
     -1.117  0.1322E+02  0.6909E+01
     -1.048  0.5154E+01  0.7273E+01
     -0.978  0.6416E+01  0.7722E+01
     -0.908  0.1072E+02  0.8471E+01
     -0.838  0.7041E+01  0.8967E+01
     -0.768  0.6142E+01  0.9396E+01
     -0.698  0.6457E+01  0.9853E+01
     -0.629  0.4977E+01  0.1020E+02
     -0.559  0.5231E+01  0.1057E+02
     -0.489  0.1044E+02  0.1130E+02
     -0.419  0.5885E+01  0.1171E+02
     -0.349  0.9112E+01  0.1235E+02
     -0.279  0.9794E+01  0.1304E+02
     -0.209  0.1072E+02  0.1379E+02
     -0.140  0.9496E+01  0.1446E+02
     -0.070  0.1068E+02  0.1521E+02
      0.000  0.8075E+01  0.1578E+02
      0.070  0.8312E+01  0.1636E+02
      0.140  0.1146E+02  0.1716E+02
      0.210  0.1370E+02  0.1812E+02
      0.280  0.1196E+02  0.1896E+02
      0.349  0.1374E+02  0.1992E+02
      0.419  0.1767E+02  0.2116E+02
      0.489  0.1544E+02  0.2224E+02
      0.559  0.8833E+01  0.2286E+02
      0.629  0.1363E+02  0.2381E+02
      0.699  0.7052E+01  0.2431E+02
      0.768  0.7019E+01  0.2480E+02
      0.838  0.6495E+01  0.2526E+02
      0.908  0.9652E+01  0.2593E+02
      0.978  0.8258E+01  0.2652E+02
      1.048  0.7423E+01  0.2704E+02
      1.118  0.1190E+02  0.2787E+02
      1.188  0.9878E+01  0.2856E+02
      1.257  0.1120E+02  0.2935E+02
      1.327  0.1021E+02  0.3007E+02
      1.397  0.8745E+01  0.3068E+02
      1.467  0.8963E+01  0.3131E+02
      1.537  0.1232E+02  0.3217E+02
      1.607  0.7840E+01  0.3272E+02
      1.677  0.6831E+01  0.3320E+02
      1.746  0.7970E+01  0.3375E+02
      1.816  0.8345E+01  0.3434E+02
      1.886  0.9217E+01  0.3498E+02
      1.956  0.9274E+01  0.3563E+02
      2.026  0.6364E+01  0.3608E+02
      2.096  0.1146E+02  0.3688E+02
      2.166  0.1181E+02  0.3771E+02
      2.235  0.1077E+02  0.3847E+02
      2.305  0.1345E+02  0.3941E+02
      2.375  0.1803E+02  0.4067E+02
      2.445  0.8012E+01  0.4123E+02
      2.515  0.8151E+01  0.4180E+02
      2.585  0.2937E+01  0.4201E+02
      2.654  0.2875E+00  0.4203E+02
      2.724  0.3770E+00  0.4205E+02
      2.794  0.1508E+01  0.4216E+02
      2.864  0.2508E+01  0.4234E+02
      2.934  0.2516E+01  0.4251E+02
      3.004  0.7932E+00  0.4257E+02
      3.074  0.2891E-01  0.4257E+02
      3.143  0.7634E+00  0.4262E+02
      3.213  0.4217E+00  0.4265E+02
      3.283  0.1800E+01  0.4278E+02
      3.353  0.2164E+01  0.4293E+02
      3.423  0.2177E+01  0.4308E+02
      3.493  0.5159E+00  0.4312E+02
      3.563  0.1662E+01  0.4323E+02
      3.632  0.0000E+00  0.4323E+02
      3.702  0.2986E+00  0.4326E+02
      3.772  0.1145E+01  0.4334E+02
      3.842  0.8219E+00  0.4339E+02
      3.912  0.3008E+01  0.4360E+02
      3.982  0.1453E+01  0.4370E+02
      4.052  0.8138E+00  0.4376E+02
      4.121  0.1564E+01  0.4387E+02
      4.191  0.1171E+01  0.4395E+02
      4.261  0.1074E+01  0.4403E+02
      4.331  0.4277E+00  0.4406E+02
      4.401  0.8824E+00  0.4412E+02
      4.471  0.1555E+01  0.4423E+02
      4.540  0.1626E+01  0.4434E+02
      4.610  0.8056E+00  0.4440E+02
      4.680  0.1509E+01  0.4451E+02
      4.750  0.2458E+01  0.4468E+02
      4.820  0.3343E+00  0.4470E+02
      4.890  0.1393E+01  0.4480E+02
      4.960  0.6545E+00  0.4484E+02
      5.029  0.7979E+00  0.4490E+02
      5.099  0.1088E+01  0.4498E+02
      5.169  0.7954E+00  0.4503E+02
      5.239  0.7609E+00  0.4508E+02
      5.309  0.3577E+01  0.4533E+02
      5.379  0.3942E+00  0.4536E+02
      5.449  0.8674E+00  0.4542E+02
      5.518  0.1787E+01  0.4555E+02
      5.588  0.5699E+00  0.4559E+02
      5.658  0.1595E+01  0.4570E+02
      5.728  0.7846E+00  0.4576E+02
      5.798  0.1043E+00  0.4576E+02
      5.868  0.2288E+01  0.4592E+02
      5.938  0.9875E+00  0.4599E+02
      6.007  0.4393E+00  0.4602E+02
      6.077  0.1092E+01  0.4610E+02
      6.147  0.2257E+01  0.4626E+02
      6.217  0.1503E+01  0.4636E+02
      6.287  0.1573E+00  0.4637E+02
      6.357  0.1105E+01  0.4645E+02
      6.426  0.1191E+01  0.4653E+02
      6.496  0.9960E+00  0.4660E+02
      6.566  0.1078E+01  0.4668E+02
      6.636  0.7659E+00  0.4673E+02
      6.706  0.1577E+01  0.4684E+02
      6.776  0.2430E+01  0.4701E+02
      6.846  0.2064E+01  0.4716E+02
      6.915  0.1480E+01  0.4726E+02
      6.985  0.7956E+00  0.4732E+02
      7.055  0.1969E+01  0.4745E+02
      7.125  0.1575E+01  0.4757E+02
      7.195  0.1872E+01  0.4770E+02
      7.265  0.1390E+01  0.4780E+02
      7.335  0.5571E+00  0.4783E+02
      7.404  0.2144E+01  0.4798E+02
      7.474  0.1750E+01  0.4811E+02
      7.544  0.1167E+01  0.4819E+02
      7.614  0.6615E+00  0.4823E+02
      7.684  0.2154E+01  0.4838E+02
      7.754  0.2807E+00  0.4841E+02
      7.823  0.1719E+01  0.4853E+02
      7.893  0.2245E+00  0.4854E+02
      7.963  0.3478E+00  0.4857E+02
      8.033  0.2897E+01  0.4877E+02
      8.103  0.5075E+00  0.4880E+02
      8.173  0.1907E+01  0.4894E+02
      8.243  0.4788E+00  0.4897E+02
      8.312  0.5948E+00  0.4901E+02
      8.382  0.6924E+00  0.4906E+02
      8.452  0.1603E+01  0.4917E+02
      8.522  0.6281E+00  0.4922E+02
      8.592  0.2245E+01  0.4937E+02
      8.662  0.1794E+01  0.4950E+02
      8.732  0.3977E+00  0.4953E+02
      8.801  0.2544E+01  0.4971E+02
      8.871  0.1327E+01  0.4980E+02
      8.941  0.1493E+01  0.4990E+02
      9.011  0.2177E+01  0.5005E+02
      9.081  0.1402E+01  0.5015E+02
      9.151  0.2202E+00  0.5017E+02
      9.221  0.8273E-01  0.5017E+02
      9.290  0.1734E+01  0.5030E+02
      9.360  0.2133E+01  0.5044E+02
      9.430  0.1815E+01  0.5057E+02
      9.500  0.2384E+01  0.5074E+02
      9.570  0.1966E+01  0.5088E+02
      9.640  0.1314E+01  0.5097E+02
      9.709  0.2642E+01  0.5116E+02
      9.779  0.1563E+01  0.5127E+02
      9.849  0.5956E+00  0.5131E+02
      9.919  0.6803E+00  0.5136E+02
      9.989  0.4448E+00  0.5139E+02
     10.059  0.2954E+01  0.5160E+02
     10.129  0.9504E+00  0.5166E+02
     10.198  0.9023E+00  0.5173E+02
     10.268  0.2903E+00  0.5175E+02
     10.338  0.6799E+00  0.5179E+02
     10.408  0.1682E+01  0.5191E+02
     10.478  0.3957E+00  0.5194E+02
     10.548  0.1225E+01  0.5203E+02
     10.618  0.1794E+01  0.5215E+02
     10.687  0.1795E+01  0.5228E+02
     10.757  0.1958E+01  0.5241E+02
     10.827  0.1259E+01  0.5250E+02
     10.897  0.1673E+01  0.5262E+02
     10.967  0.1985E+01  0.5276E+02
     11.037  0.3226E+00  0.5278E+02
     11.107  0.1073E+01  0.5286E+02
     11.176  0.1954E+01  0.5299E+02
     11.246  0.1127E+00  0.5300E+02
     11.316  0.2053E+01  0.5315E+02
     11.386  0.1444E+01  0.5325E+02
     11.456  0.1977E+01  0.5338E+02
     11.526  0.1427E+01  0.5348E+02
     11.595  0.1211E+01  0.5357E+02
     11.665  0.1161E+01  0.5365E+02
     11.735  0.4172E+00  0.5368E+02
     11.805  0.2098E+01  0.5383E+02
     11.875  0.1806E+01  0.5395E+02
     11.945  0.1517E+01  0.5406E+02
     12.015  0.1687E+01  0.5418E+02
     12.084  0.1375E+01  0.5428E+02
     12.154  0.2198E+01  0.5443E+02
     12.224  0.3521E+01  0.5468E+02
     12.294  0.1213E+01  0.5476E+02
     12.364  0.3976E+00  0.5479E+02
     12.434  0.8395E+00  0.5485E+02
     12.504  0.7512E+00  0.5490E+02
     12.573  0.7916E+00  0.5496E+02
     12.643  0.2311E+01  0.5512E+02
     12.713  0.1096E+00  0.5513E+02
     12.783  0.1199E+01  0.5521E+02
     12.853  0.1047E+01  0.5528E+02
     12.923  0.1711E+01  0.5540E+02
     12.992  0.9758E+00  0.5547E+02
     13.062  0.1195E+01  0.5555E+02
     13.132  0.3956E+00  0.5558E+02
     13.202  0.1564E+01  0.5569E+02
     13.272  0.6120E+00  0.5574E+02
     13.342  0.7986E+00  0.5579E+02
     13.412  0.1035E+00  0.5580E+02
     13.481  0.7627E+00  0.5585E+02
     13.551  0.2646E+00  0.5587E+02
     13.621  0.6331E-02  0.5587E+02
     13.691  0.3913E+00  0.5590E+02
     13.761  0.3977E+00  0.5593E+02
     13.831  0.7953E+00  0.5598E+02
     13.901  0.9038E-02  0.5598E+02
     13.970  0.9038E-01  0.5599E+02
     14.040  0.5073E-04  0.5599E+02
     14.110  0.1652E-01  0.5599E+02
     14.180  0.0000E+00  0.5599E+02
     14.250  0.0000E+00  0.5599E+02
     14.320  0.0000E+00  0.5599E+02
     14.390  0.0000E+00  0.5599E+02
     14.459  0.0000E+00  0.5599E+02
     14.529  0.0000E+00  0.5599E+02
     14.599  0.0000E+00  0.5599E+02
     14.669  0.2173E-04  0.5599E+02
     14.739  0.1325E+00  0.5600E+02
     14.809  0.0000E+00  0.5600E+02
     14.878  0.0000E+00  0.5600E+02
     14.948  0.0000E+00  0.5600E+02
     15.018  0.0000E+00  0.5600E+02
     15.088  0.0000E+00  0.5600E+02
     15.158  0.0000E+00  0.5600E+02
     15.228  0.0000E+00  0.5600E+02
     15.298  0.0000E+00  0.5600E+02
     15.367  0.0000E+00  0.5600E+02
     15.437  0.0000E+00  0.5600E+02
     15.507  0.0000E+00  0.5600E+02
     15.577  0.0000E+00  0.5600E+02
     15.647  0.0000E+00  0.5600E+02
