    4    4    1    1
  0.1927700E+02  0.4256309E-09  0.4256309E-09  0.4256309E-09  0.5000000E-15
  1.000000000000000E-004
  CAR 
 unknown system                          
   44   84   28
 
  0.0000000E+00  0.0000000E+00  0.0000000E+00  0.5787037E-03
   1       -4.3561
   2       -1.7846
   3       -1.7846
   4       -1.7846
   5       -1.5386
   6       -1.5386
   7       -1.5386
   8        0.1341
   9        0.1341
  10        0.1341
  11        1.3538
  12        1.3538
  13        2.2813
  14        2.2813
  15        2.2813
  16        2.5761
  17        2.5761
  18        2.5761
  19        2.5761
  20        2.5761
  21        2.5761
  22        5.6236
  23        5.6236
  24        5.6236
  25        9.1516
  26        9.1516
  27        9.1516
  28       14.0597
 
  0.8333333E-01  0.0000000E+00  0.0000000E+00  0.3472222E-02
   1       -4.2833
   2       -1.7618
   3       -1.7384
   4       -1.7384
   5       -1.5139
   6       -1.5011
   7       -1.5011
   8        0.1008
   9        0.1643
  10        0.1643
  11        1.3187
  12        1.3685
  13        2.2319
  14        2.2319
  15        2.2644
  16        2.3714
  17        2.3714
  18        2.5153
  19        2.5153
  20        2.5762
  21        2.5762
  22        5.0107
  23        5.8828
  24        5.8828
  25        9.0997
  26        9.0997
  27        9.8935
  28       13.9100
 
  0.1666667E+00  0.0000000E+00  0.0000000E+00  0.3472222E-02
   1       -4.0673
   2       -1.7012
   3       -1.6048
   4       -1.6048
   5       -1.4408
   6       -1.3887
   7       -1.3887
   8        0.0044
   9        0.2543
  10        0.2543
  11        1.2182
  12        1.4119
  13        1.8971
  14        1.8971
  15        2.0880
  16        2.0880
  17        2.2148
  18        2.3436
  19        2.3436
  20        2.5765
  21        2.5765
  22        3.8532
  23        6.5189
  24        6.5189
  25        8.9599
  26        8.9599
  27       11.4433
  28       13.4851
 
  0.2500000E+00  0.0000000E+00  0.0000000E+00  0.3472222E-02
   1       -3.7162
   2       -1.6314
   3       -1.4003
   4       -1.4003
   5       -1.3226
   6       -1.2020
   7       -1.2020
   8       -0.1453
   9        0.4022
  10        0.4022
  11        1.0675
  12        1.3364
  13        1.3364
  14        1.4816
  15        1.8656
  16        1.8656
  17        2.0884
  18        2.0884
  19        2.1368
  20        2.5768
  21        2.5768
  22        2.6884
  23        7.3441
  24        7.3441
  25        8.7750
  26        8.7750
  27       12.8428
  28       12.8428
 
  0.3333333E+00  0.0000000E+00  0.0000000E+00  0.3472222E-02
   1       -3.2480
   2       -1.6161
   3       -1.1649
   4       -1.1591
   5       -1.1591
   6       -0.9417
   7       -0.9417
   8       -0.3343
   9        0.6044
  10        0.6044
  11        0.7773
  12        0.7773
  13        0.8957
  14        1.5735
  15        1.6022
  16        1.6022
  17        1.7002
  18        1.7836
  19        1.7836
  20        2.0366
  21        2.5772
  22        2.5772
  23        8.2622
  24        8.2622
  25        8.5983
  26        8.5983
  27       12.0463
  28       12.0463
 
  0.4166667E+00  0.0000000E+00  0.0000000E+00  0.3472222E-02
   1       -2.7012
   2       -1.7667
   3       -0.9755
   4       -0.9450
   5       -0.9450
   6       -0.6097
   7       -0.6097
   8       -0.5463
   9        0.2567
  10        0.2567
  11        0.7556
  12        0.8549
  13        0.8549
  14        1.0274
  15        1.3692
  16        1.3692
  17        1.4605
  18        1.4605
  19        1.6822
  20        1.9218
  21        2.5774
  22        2.5774
  23        8.4746
  24        8.4746
  25        9.2247
  26        9.2247
  27       11.1501
  28       11.1501
 
  0.5000000E+00  0.0000000E+00  0.0000000E+00  0.1736111E-02
   1       -2.1593
   2       -2.1593
   3       -0.8542
   4       -0.8542
   5       -0.7650
   6       -0.7650
   7       -0.2086
   8       -0.2086
   9       -0.2086
  10       -0.2086
  11        0.7466
  12        0.7466
  13        1.1446
  14        1.1446
  15        1.1446
  16        1.1446
  17        1.2709
  18        1.2709
  19        1.8009
  20        1.8009
  21        2.5775
  22        2.5775
  23        8.4306
  24        8.4306
  25       10.1978
  26       10.1978
  27       10.1978
  28       10.1978
 
  0.8333333E-01  0.8333333E-01  0.0000000E+00  0.6944444E-02
   1       -4.2112
   2       -1.7151
   3       -1.7151
   4       -1.6987
   5       -1.4768
   6       -1.4768
   7       -1.4591
   8        0.0873
   9        0.1756
  10        0.1919
  11        1.3094
  12        1.3607
  13        2.1793
  14        2.1793
  15        2.1853
  16        2.2309
  17        2.3358
  18        2.3358
  19        2.5152
  20        2.5152
  21        2.5357
  22        5.2627
  23        5.2627
  24        6.1187
  25        9.0402
  26        9.8486
  27        9.8486
  28       13.3421
 
  0.1666667E+00  0.8333333E-01  0.0000000E+00  0.1388889E-01
   1       -3.9974
   2       -1.6532
   3       -1.5833
   4       -1.5801
   5       -1.4052
   6       -1.3660
   7       -1.3344
   8        0.0031
   9        0.2561
  10        0.2735
  11        1.2228
  12        1.4006
  13        1.7682
  14        1.8173
  15        1.9991
  16        2.0489
  17        2.1229
  18        2.2549
  19        2.3431
  20        2.5146
  21        2.5149
  22        4.1398
  23        5.8443
  24        6.7164
  25        8.8770
  26        9.7371
  27       11.3651
  28       12.7233
 
  0.2500000E+00  0.8333333E-01  0.0000000E+00  0.1388889E-01
   1       -3.6501
   2       -1.5811
   3       -1.4021
   4       -1.3730
   5       -1.2894
   6       -1.1817
   7       -1.1344
   8       -0.1405
   9        0.4018
  10        0.4025
  11        1.0853
  12        1.2192
  13        1.2923
  14        1.4785
  15        1.6769
  16        1.8370
  17        1.8986
  18        2.0874
  19        2.1412
  20        2.5101
  21        2.5145
  22        3.0839
  23        6.5302
  24        7.5124
  25        8.6508
  26        9.6282
  27       12.1258
  28       12.9721
 
  0.3333333E+00  0.8333333E-01  0.0000000E+00  0.1388889E-01
   1       -3.1869
   2       -1.5634
   3       -1.1720
   4       -1.1349
   5       -1.1276
   6       -0.9253
   7       -0.8782
   8       -0.3239
   9        0.5495
  10        0.6031
  11        0.6761
  12        0.7556
  13        0.9584
  14        1.2230
  15        1.5834
  16        1.5854
  17        1.6365
  18        1.7821
  19        1.9520
  20        2.3425
  21        2.5096
  22        2.5137
  23        7.1748
  24        8.4113
  25        8.4113
  26        9.6323
  27       11.5384
  28       12.1724
 
  0.4166667E+00  0.8333333E-01  0.0000000E+00  0.1388889E-01
   1       -2.6456
   2       -1.7140
   3       -0.9496
   4       -0.9391
   5       -0.9090
   6       -0.5986
   7       -0.5877
   8       -0.5304
   9        0.1800
  10        0.2499
  11        0.5957
  12        0.7891
  13        0.8532
  14        1.0065
  15        1.3658
  16        1.3978
  17        1.4588
  18        1.6046
  19        1.7095
  20        2.0234
  21        2.5104
  22        2.5127
  23        7.6604
  24        8.1885
  25        9.3615
  26        9.8666
  27       10.9355
  28       11.2761
 
  0.5000000E+00  0.8333333E-01  0.0000000E+00  0.6944444E-02
   1       -2.1071
   2       -2.1071
   3       -0.8222
   4       -0.8222
   5       -0.7439
   6       -0.7439
   7       -0.2453
   8       -0.2453
   9       -0.2049
  10       -0.2049
  11        0.5950
  12        0.5950
  13        1.1428
  14        1.1428
  15        1.2604
  16        1.2604
  17        1.2845
  18        1.2845
  19        1.8531
  20        1.8531
  21        2.5115
  22        2.5115
  23        7.9657
  24        7.9657
  25       10.3272
  26       10.3272
  27       10.3422
  28       10.3422
 
  0.1666667E+00  0.1666667E+00  0.0000000E+00  0.6944444E-02
   1       -3.7904
   2       -1.5137
   3       -1.5137
   4       -1.5093
   5       -1.2987
   6       -1.2987
   7       -1.1859
   8       -0.0347
   9        0.2975
  10        0.3289
  11        1.1929
  12        1.4151
  13        1.4933
  14        1.4933
  15        1.5561
  16        1.9332
  17        2.1206
  18        2.1206
  19        2.3415
  20        2.3415
  21        2.4166
  22        4.7237
  23        4.7237
  24        7.2416
  25        8.6407
  26       11.1528
  27       11.1528
  28       12.0073
 
  0.2500000E+00  0.1666667E+00  0.0000000E+00  0.1388889E-01
   1       -3.4544
   2       -1.4343
   3       -1.3728
   4       -1.2984
   5       -1.1902
   6       -1.1221
   7       -0.9712
   8       -0.1420
   9        0.4092
  10        0.4181
  11        0.9478
  12        1.0972
  13        1.1308
  14        1.1482
  15        1.5073
  16        1.7502
  17        1.9223
  18        2.0374
  19        2.0844
  20        2.3391
  21        2.3622
  22        3.6975
  23        5.3691
  24        7.9751
  25        8.2929
  26       10.8790
  27       11.4517
  28       12.6189
 
  0.3333333E+00  0.1666667E+00  0.0000000E+00  0.1388889E-01
   1       -3.0068
   2       -1.4097
   3       -1.1740
   4       -1.0458
   5       -1.0398
   6       -0.8771
   7       -0.7282
   8       -0.3006
   9        0.4351
  10        0.4689
  11        0.6082
  12        0.6849
  13        0.7356
  14        1.0242
  15        1.5305
  16        1.6535
  17        1.6782
  18        1.7782
  19        1.8643
  20        2.3362
  21        2.3399
  22        2.9088
  23        5.9918
  24        7.8922
  25        8.8295
  26       10.6446
  27       11.0390
  28       12.5357
 
  0.4166667E+00  0.1666667E+00  0.0000000E+00  0.1388889E-01
   1       -2.4829
   2       -1.5613
   3       -0.9292
   4       -0.8733
   5       -0.8047
   6       -0.5667
   7       -0.5132
   8       -0.4869
   9       -0.0113
  10        0.2267
  11        0.4330
  12        0.4431
  13        0.8529
  14        1.0989
  15        1.3454
  16        1.4407
  17        1.4548
  18        1.6047
  19        1.8398
  20        2.3323
  21        2.3332
  22        2.3938
  23        6.5520
  24        7.4762
  25        9.7498
  26       10.5299
  27       10.7438
  28       11.6381
 
  0.5000000E+00  0.1666667E+00  0.0000000E+00  0.6944444E-02
   1       -1.9561
   2       -1.9561
   3       -0.7360
   4       -0.7360
   5       -0.6828
   6       -0.6828
   7       -0.3322
   8       -0.3322
   9       -0.1958
  10       -0.1958
  11        0.3690
  12        0.3690
  13        1.1400
  14        1.1400
  15        1.3023
  16        1.3023
  17        1.3198
  18        1.3198
  19        2.0720
  20        2.0720
  21        2.3313
  22        2.3313
  23        7.0397
  24        7.0397
  25       10.5667
  26       10.5667
  27       10.6973
  28       10.6973
 
  0.2500000E+00  0.2500000E+00  0.0000000E+00  0.6944444E-02
   1       -3.1379
   2       -1.2859
   3       -1.2054
   4       -1.2054
   5       -1.0263
   6       -1.0263
   7       -0.7566
   8       -0.1856
   9        0.4246
  10        0.4920
  11        0.6123
  12        0.6123
  13        0.8924
  14        1.0458
  15        1.6071
  16        1.6315
  17        1.8667
  18        1.8667
  19        2.0803
  20        2.0803
  21        2.2256
  22        4.3257
  23        4.3257
  24        7.7708
  25        8.6470
  26       11.0283
  27       12.0224
  28       12.0224
 
  0.3333333E+00  0.2500000E+00  0.0000000E+00  0.1388889E-01
   1       -2.7180
   2       -1.1690
   3       -1.1352
   4       -0.9231
   5       -0.8999
   6       -0.8007
   7       -0.5348
   8       -0.2865
   9        0.1455
  10        0.2968
  11        0.4162
  12        0.5519
  13        0.6455
  14        0.9920
  15        1.4294
  16        1.6498
  17        1.7139
  18        1.7739
  19        1.8393
  20        2.0764
  21        2.1406
  22        3.4862
  23        4.9353
  24        7.1909
  25        9.4526
  26       10.8049
  27       11.4767
  28       13.0215
 
  0.4166667E+00  0.2500000E+00  0.0000000E+00  0.1388889E-01
   1       -2.2269
   2       -1.3286
   3       -0.9209
   4       -0.7505
   5       -0.6474
   6       -0.5181
   7       -0.4282
   8       -0.3819
   9       -0.2519
  10        0.1393
  11        0.1782
  12        0.3251
  13        0.8688
  14        1.0509
  15        1.2845
  16        1.4273
  17        1.4528
  18        1.4828
  19        2.0749
  20        2.0978
  21        2.1055
  22        2.8717
  23        5.5148
  24        6.6210
  25       10.3383
  26       10.7383
  27       11.0671
  28       12.1962
 
  0.5000000E+00  0.2500000E+00  0.0000000E+00  0.6944444E-02
   1       -1.7256
   2       -1.7256
   3       -0.6571
   4       -0.6571
   5       -0.5887
   6       -0.5887
   7       -0.3852
   8       -0.3852
   9       -0.1869
  10       -0.1869
  11        0.1901
  12        0.1901
  13        1.1440
  14        1.1440
  15        1.2358
  16        1.2358
  17        1.2768
  18        1.2768
  19        2.0798
  20        2.0798
  21        2.4354
  22        2.4354
  23        6.0696
  24        6.0696
  25       10.8219
  26       10.8219
  27       11.2644
  28       11.2644
 
  0.3333333E+00  0.3333333E+00  0.0000000E+00  0.6944444E-02
   1       -2.3394
   2       -1.0467
   3       -0.8711
   4       -0.8711
   5       -0.7018
   6       -0.7018
   7       -0.3402
   8       -0.3082
   9       -0.0827
  10       -0.0827
  11        0.3495
  12        0.3735
  13        0.7463
  14        0.9193
  15        1.2901
  16        1.5209
  17        1.5209
  18        1.7726
  19        1.7726
  20        1.9745
  21        2.1167
  22        4.0585
  23        4.0585
  24        6.4689
  25       10.2167
  26       10.7649
  27       12.2319
  28       12.2319
 
  0.4166667E+00  0.3333333E+00  0.0000000E+00  0.1388889E-01
   1       -1.9022
   2       -1.0631
   3       -0.9047
   4       -0.6002
   5       -0.5892
   6       -0.4599
   7       -0.3751
   8       -0.3628
   9       -0.2205
  10       -0.0801
  11        0.0923
  12        0.2697
  13        0.9242
  14        0.9335
  15        1.1702
  16        1.3101
  17        1.3189
  18        1.4604
  19        1.7805
  20        1.8658
  21        2.4560
  22        3.3785
  23        4.6241
  24        5.8023
  25       10.8821
  26       11.0715
  27       11.6064
  28       12.9022
 
  0.5000000E+00  0.3333333E+00  0.0000000E+00  0.6944444E-02
   1       -1.4526
   2       -1.4526
   3       -0.7121
   4       -0.7121
   5       -0.4750
   6       -0.4750
   7       -0.2726
   8       -0.2726
   9       -0.1878
  10       -0.1878
  11        0.0893
  12        0.0893
  13        1.0849
  14        1.0849
  15        1.1692
  16        1.1692
  17        1.1741
  18        1.1741
  19        1.8068
  20        1.8068
  21        2.8633
  22        2.8633
  23        5.1962
  24        5.1962
  25       11.1583
  26       11.1583
  27       11.9776
  28       11.9776
 
  0.4166667E+00  0.4166667E+00  0.0000000E+00  0.6944444E-02
   1       -1.5444
   2       -0.8713
   3       -0.8689
   4       -0.8689
   5       -0.4028
   6       -0.4028
   7       -0.3494
   8       -0.1551
   9       -0.1551
  10       -0.0938
  11       -0.0394
  12        0.2126
  13        0.8587
  14        1.0420
  15        1.0431
  16        1.1294
  17        1.1294
  18        1.4895
  19        1.4895
  20        1.6798
  21        2.8618
  22        3.9036
  23        3.9036
  24        5.0835
  25       11.1688
  26       11.9018
  27       12.2186
  28       12.2186
 
  0.5000000E+00  0.4166667E+00  0.0000000E+00  0.6944444E-02
   1       -1.1918
   2       -1.1918
   3       -0.8342
   4       -0.8342
   5       -0.3610
   6       -0.3610
   7       -0.2113
   8       -0.2113
   9       -0.0919
  10       -0.0919
  11        0.0651
  12        0.0651
  13        0.9370
  14        0.9370
  15        1.0126
  16        1.0126
  17        1.2352
  18        1.2352
  19        1.5567
  20        1.5567
  21        3.3318
  22        3.3318
  23        4.4614
  24        4.4614
  25       11.6102
  26       11.6102
  27       12.7916
  28       12.7917
 
  0.5000000E+00  0.5000000E+00  0.0000000E+00  0.1736111E-02
   1       -0.9868
   2       -0.9868
   3       -0.9868
   4       -0.9868
   5       -0.2686
   6       -0.2686
   7       -0.2686
   8       -0.2686
   9        0.0371
  10        0.0371
  11        0.0371
  12        0.0371
  13        0.8954
  14        0.8954
  15        0.8954
  16        0.8954
  17        1.3618
  18        1.3618
  19        1.3618
  20        1.3618
  21        3.8529
  22        3.8529
  23        3.8529
  24        3.8529
  25       12.1978
  26       12.1978
  27       12.1978
  28       12.1978
 
  0.8333333E-01  0.8333333E-01  0.8333333E-01  0.4629630E-02
   1       -4.1400
   2       -1.6754
   3       -1.6754
   4       -1.6754
   5       -1.4349
   6       -1.4349
   7       -1.4349
   8        0.0765
   9        0.2011
  10        0.2011
  11        1.3281
  12        1.3281
  13        2.1434
  14        2.1434
  15        2.1434
  16        2.1492
  17        2.1492
  18        2.1492
  19        2.5055
  20        2.5055
  21        2.5055
  22        5.4845
  23        5.4845
  24        5.4845
  25        9.7916
  26        9.7916
  27        9.7916
  28       13.5004
 
  0.1666667E+00  0.8333333E-01  0.8333333E-01  0.1388889E-01
   1       -3.9288
   2       -1.6136
   3       -1.5602
   4       -1.5602
   5       -1.3635
   6       -1.3104
   7       -1.3104
   8        0.0033
   9        0.2702
  10        0.2774
  11        1.2368
  12        1.3831
  13        1.7088
  14        1.7088
  15        1.9102
  16        2.0185
  17        2.0321
  18        2.0321
  19        2.4244
  20        2.4864
  21        2.4864
  22        4.3685
  23        6.0184
  24        6.0184
  25        9.6409
  26        9.6409
  27       11.2520
  28       12.9219
 
  0.2500000E+00  0.8333333E-01  0.8333333E-01  0.1388889E-01
   1       -3.5858
   2       -1.5413
   3       -1.3792
   4       -1.3792
   5       -1.2483
   6       -1.1109
   7       -1.1109
   8       -0.1325
   9        0.3971
  10        0.4030
  11        1.1108
  12        1.1848
  13        1.1848
  14        1.4710
  15        1.5296
  16        1.8203
  17        1.8421
  18        1.8421
  19        2.3099
  20        2.4709
  21        2.4709
  22        3.3203
  23        6.6652
  24        6.6652
  25        9.4601
  26        9.4601
  27       12.3970
  28       12.3970
 
  0.3333333E+00  0.8333333E-01  0.8333333E-01  0.1388889E-01
   1       -3.1288
   2       -1.5226
   3       -1.1480
   4       -1.1480
   5       -1.0961
   6       -0.8577
   7       -0.8577
   8       -0.3091
   9        0.5240
  10        0.5749
  11        0.6634
  12        0.6634
  13        1.0241
  14        1.0605
  15        1.5722
  16        1.5868
  17        1.6026
  18        1.6026
  19        2.1743
  20        2.4620
  21        2.4620
  22        2.4918
  23        7.2674
  24        7.2674
  25        9.3495
  26        9.3495
  27       11.9219
  28       11.9219
 
  0.4166667E+00  0.8333333E-01  0.8333333E-01  0.1388889E-01
   1       -2.5947
   2       -1.6720
   3       -0.9153
   4       -0.9087
   5       -0.9087
   6       -0.5825
   7       -0.5825
   8       -0.5088
   9        0.1900
  10        0.1900
  11        0.5334
  12        0.6666
  13        0.7883
  14        1.1369
  15        1.3023
  16        1.3817
  17        1.3817
  18        1.7233
  19        1.8895
  20        2.0259
  21        2.4577
  22        2.4577
  23        7.6695
  24        7.6695
  25        9.3920
  26        9.3920
  27       11.5112
  28       11.5112
 
  0.5000000E+00  0.8333333E-01  0.8333333E-01  0.6944444E-02
   1       -2.0625
   2       -2.0625
   3       -0.7903
   4       -0.7903
   5       -0.7157
   6       -0.7157
   7       -0.3535
   8       -0.3535
   9       -0.1241
  10       -0.1241
  11        0.5118
  12        0.5118
  13        1.0350
  14        1.0350
  15        1.2861
  16        1.2861
  17        1.4474
  18        1.4474
  19        1.8726
  20        1.8726
  21        2.4565
  22        2.4565
  23        7.7971
  24        7.7971
  25        9.4695
  26        9.4695
  27       11.3205
  28       11.3205
 
  0.1666667E+00  0.1666667E+00  0.8333333E-01  0.1388889E-01
   1       -3.7254
   2       -1.4990
   3       -1.4990
   4       -1.4898
   5       -1.2393
   6       -1.2393
   7       -1.1599
   8       -0.0270
   9        0.3064
  10        0.3257
  11        1.2260
  12        1.3889
  13        1.4435
  14        1.4435
  15        1.4693
  16        1.8626
  17        1.9276
  18        1.9276
  19        2.4154
  20        2.4154
  21        2.4296
  22        4.8865
  23        4.8865
  24        6.4605
  25        9.3708
  26       10.9357
  27       10.9357
  28       12.3184
 
  0.2500000E+00  0.1666667E+00  0.8333333E-01  0.2777778E-01
   1       -3.3959
   2       -1.4273
   3       -1.3574
   4       -1.3196
   5       -1.1250
   6       -1.0401
   7       -0.9446
   8       -0.1236
   9        0.4009
  10        0.4092
  11        0.9263
  12        1.0644
  13        1.0789
  14        1.1438
  15        1.4890
  16        1.6958
  17        1.7260
  18        1.7928
  19        2.3103
  20        2.3736
  21        2.3746
  22        3.8366
  23        5.4948
  24        7.0090
  25        9.0101
  26       10.5005
  27       11.9419
  28       12.1707
 
  0.3333333E+00  0.1666667E+00  0.8333333E-01  0.2777778E-01
   1       -2.9580
   2       -1.4074
   3       -1.1625
   4       -1.0879
   5       -0.9779
   6       -0.7925
   7       -0.7061
   8       -0.2716
   9        0.4415
  10        0.4568
  11        0.5592
  12        0.6185
  13        0.6843
  14        1.1105
  15        1.4733
  16        1.5029
  17        1.5975
  18        1.6405
  19        2.1558
  20        2.3357
  21        2.3382
  22        2.9841
  23        6.0977
  24        7.4422
  25        8.7548
  26       10.0527
  27       11.7768
  28       12.8534
 
  0.4166667E+00  0.1666667E+00  0.8333333E-01  0.2777778E-01
   1       -2.4471
   2       -1.5542
   3       -0.9176
   4       -0.8308
   5       -0.8108
   6       -0.5659
   7       -0.5213
   8       -0.4469
   9        0.0502
  10        0.2125
  11        0.4021
  12        0.4120
  13        0.7443
  14        1.2106
  15        1.2581
  16        1.3264
  17        1.3908
  18        1.8253
  19        1.9126
  20        2.3154
  21        2.3176
  22        2.3876
  23        6.6456
  24        7.4447
  25        8.8862
  26        9.6434
  27       11.8140
  28       12.4450
 
  0.5000000E+00  0.1666667E+00  0.8333333E-01  0.1388889E-01
   1       -1.9357
   2       -1.9357
   3       -0.7054
   4       -0.7054
   5       -0.6312
   6       -0.6312
   7       -0.4932
   8       -0.4932
   9       -0.0481
  10       -0.0481
  11        0.3399
  12        0.3399
  13        0.9630
  14        0.9630
  15        1.2724
  16        1.2724
  17        1.5662
  18        1.5662
  19        2.0492
  20        2.0492
  21        2.3102
  22        2.3102
  23        7.1103
  24        7.1103
  25        9.2550
  26        9.2550
  27       12.0555
  28       12.0555
 
  0.2500000E+00  0.2500000E+00  0.8333333E-01  0.1388889E-01
   1       -3.0897
   2       -1.2789
   3       -1.2523
   4       -1.2523
   5       -0.9245
   6       -0.9245
   7       -0.7308
   8       -0.1510
   9        0.4159
  10        0.4593
  11        0.6010
  12        0.6010
  13        0.8332
  14        1.1164
  15        1.5219
  16        1.6095
  17        1.6354
  18        1.6354
  19        2.2440
  20        2.2440
  21        2.2719
  22        4.4266
  23        4.4266
  24        7.3605
  25        8.5263
  26       11.4134
  27       11.4134
  28       11.7863
 
  0.3333333E+00  0.2500000E+00  0.8333333E-01  0.2777778E-01
   1       -2.6858
   2       -1.2379
   3       -1.1387
   4       -1.0300
   5       -0.7794
   6       -0.6752
   7       -0.5201
   8       -0.2339
   9        0.1761
  10        0.2933
  11        0.4083
  12        0.5261
  13        0.5666
  14        1.1082
  15        1.3548
  16        1.4008
  17        1.4977
  18        1.8170
  19        2.0677
  20        2.1734
  21        2.1864
  22        3.5403
  23        5.0212
  24        7.2311
  25        8.5573
  26       10.7024
  27       11.8642
  28       12.2789
 
  0.4166667E+00  0.2500000E+00  0.8333333E-01  0.2777778E-01
   1       -2.2179
   2       -1.3865
   3       -0.9396
   4       -0.7794
   5       -0.6330
   6       -0.5056
   7       -0.4115
   8       -0.3559
   9       -0.0878
  10        0.1358
  11        0.2324
  12        0.3177
  13        0.7165
  14        1.1458
  15        1.2214
  16        1.2460
  17        1.3288
  18        1.8184
  19        2.0811
  20        2.1275
  21        2.1322
  22        2.8747
  23        5.5990
  24        6.7185
  25        9.0091
  26       10.0795
  27       12.1491
  28       13.1568
 
  0.5000000E+00  0.2500000E+00  0.8333333E-01  0.1388889E-01
   1       -1.7484
   2       -1.7484
   3       -0.7038
   4       -0.7038
   5       -0.5112
   6       -0.5112
   7       -0.4933
   8       -0.4933
   9        0.0160
  10        0.0160
  11        0.1836
  12        0.1836
  13        0.9108
  14        0.9108
  15        1.2055
  16        1.2055
  17        1.5156
  18        1.5156
  19        2.1133
  20        2.1133
  21        2.4135
  22        2.4135
  23        6.1613
  24        6.1613
  25        9.5272
  26        9.5272
  27       12.6211
  28       12.6211
 
  0.3333333E+00  0.3333333E+00  0.8333333E-01  0.1388889E-01
   1       -2.3331
   2       -1.0702
   3       -1.0419
   4       -1.0419
   5       -0.5173
   6       -0.5173
   7       -0.3514
   8       -0.2260
   9       -0.0405
  10       -0.0405
  11        0.3712
  12        0.3866
  13        0.6050
  14        1.0922
  15        1.1966
  16        1.3030
  17        1.3030
  18        1.9728
  19        1.9728
  20        2.0479
  21        2.0918
  22        4.1055
  23        4.1055
  24        6.5713
  25        8.9192
  26       11.4047
  27       11.4047
  28       12.1399
 
  0.4166667E+00  0.3333333E+00  0.8333333E-01  0.2777778E-01
   1       -1.9332
   2       -1.2098
   3       -0.9612
   4       -0.8693
   5       -0.3888
   6       -0.3490
   7       -0.2915
   8       -0.2603
   9       -0.1517
  10       -0.0685
  11        0.2421
  12        0.2723
  13        0.6915
  14        1.0685
  15        1.0768
  16        1.1758
  17        1.1981
  18        1.7190
  19        1.9079
  20        1.9444
  21        2.4309
  22        3.3849
  23        4.6739
  24        5.8862
  25        9.4295
  26       10.6494
  27       12.1796
  28       12.5935
 
  0.5000000E+00  0.3333333E+00  0.8333333E-01  0.1388889E-01
   1       -1.5350
   2       -1.5350
   3       -0.8478
   4       -0.8478
   5       -0.3599
   6       -0.3599
   7       -0.3195
   8       -0.3195
   9        0.0773
  10        0.0773
  11        0.0935
  12        0.0935
  13        0.8512
  14        0.8512
  15        1.0698
  16        1.0698
  17        1.4352
  18        1.4352
  19        1.8959
  20        1.8959
  21        2.8454
  22        2.8454
  23        5.2588
  24        5.2588
  25       10.0010
  26       10.0010
  27       13.0232
  28       13.0232
 
  0.4166667E+00  0.4166667E+00  0.8333333E-01  0.1388889E-01
   1       -1.6269
   2       -1.0710
   3       -1.0710
   4       -0.9756
   5       -0.2249
   6       -0.2085
   7       -0.2085
   8       -0.1964
   9       -0.0825
  10       -0.0825
  11        0.2344
  12        0.2369
  13        0.6857
  14        0.9388
  15        0.9711
  16        0.9711
  17        1.2390
  18        1.6591
  19        1.6591
  20        1.7799
  21        2.8395
  22        3.9169
  23        3.9169
  24        5.1365
  25        9.9669
  26       11.3273
  27       11.3273
  28       12.9690
 
  0.5000000E+00  0.4166667E+00  0.8333333E-01  0.1388889E-01
   1       -1.3317
   2       -1.3317
   3       -0.9993
   4       -0.9993
   5       -0.2225
   6       -0.2225
   7       -0.1817
   8       -0.1817
   9        0.1073
  10        0.1073
  11        0.1421
  12        0.1421
  13        0.7821
  14        0.7821
  15        0.8972
  16        0.8972
  17        1.4116
  18        1.4116
  19        1.6763
  20        1.6763
  21        3.3204
  22        3.3204
  23        4.4896
  24        4.4896
  25       10.5952
  26       10.5952
  27       12.1015
  28       12.1015
 
  0.5000000E+00  0.5000000E+00  0.8333333E-01  0.3472222E-02
   1       -1.1557
   2       -1.1557
   3       -1.1557
   4       -1.1557
   5       -0.1576
   6       -0.1576
   7       -0.1576
   8       -0.1576
   9        0.1717
  10        0.1717
  11        0.1717
  12        0.1717
  13        0.7726
  14        0.7726
  15        0.7726
  16        0.7726
  17        1.4960
  18        1.4960
  19        1.4960
  20        1.4960
  21        3.8555
  22        3.8555
  23        3.8555
  24        3.8555
  25       11.2942
  26       11.2942
  27       11.2942
  28       11.2942
 
  0.1666667E+00  0.1666667E+00  0.1666667E+00  0.4629630E-02
   1       -3.5334
   2       -1.4396
   3       -1.4396
   4       -1.4396
   5       -1.0823
   6       -1.0823
   7       -1.0823
   8       -0.0272
   9        0.3365
  10        0.3365
  11        1.2268
  12        1.2268
  13        1.2268
  14        1.3200
  15        1.3200
  16        1.6900
  17        1.6900
  18        1.6900
  19        2.4360
  20        2.4360
  21        2.4360
  22        5.2988
  23        5.2988
  24        5.2988
  25       10.3744
  26       10.3744
  27       10.3744
  28       13.2402
 
  0.2500000E+00  0.1666667E+00  0.1666667E+00  0.1388889E-01