   4   4   0   0
  0.2088322E+02  0.4371386E-09  0.4371386E-09  0.4371386E-09  0.5000000E-15
  1.000000000000000E-004
  CAR 
 unknown system                          
     12.47936583     -5.30054222  301      2.01056357      1.00000000
     -5.301  0.0000E+00  0.0000E+00
     -5.241  0.0000E+00  0.0000E+00
     -5.182  0.0000E+00  0.0000E+00
     -5.123  0.0000E+00  0.0000E+00
     -5.063  0.0000E+00  0.0000E+00
     -5.004  0.0000E+00  0.0000E+00
     -4.945  0.0000E+00  0.0000E+00
     -4.886  0.0000E+00  0.0000E+00
     -4.826  0.0000E+00  0.0000E+00
     -4.767  0.0000E+00  0.0000E+00
     -4.708  0.0000E+00  0.0000E+00
     -4.649  0.0000E+00  0.0000E+00
     -4.589  0.0000E+00  0.0000E+00
     -4.530  0.9396E-09  0.5569E-10
     -4.471  0.1951E-01  0.1156E-02
     -4.412  0.1167E+00  0.8075E-02
     -4.352  0.2329E+00  0.2188E-01
     -4.293  0.1564E+00  0.3115E-01
     -4.234  0.1159E+00  0.3802E-01
     -4.174  0.4622E+00  0.6541E-01
     -4.115  0.4742E+00  0.9351E-01
     -4.056  0.3969E-02  0.9375E-01
     -3.997  0.2339E+00  0.1076E+00
     -3.937  0.5857E+00  0.1423E+00
     -3.878  0.4692E+00  0.1701E+00
     -3.819  0.5343E+00  0.2018E+00
     -3.760  0.9877E-01  0.2077E+00
     -3.700  0.1141E+01  0.2753E+00
     -3.641  0.2572E+00  0.2905E+00
     -3.582  0.5174E+00  0.3212E+00
     -3.523  0.5322E+00  0.3527E+00
     -3.463  0.1175E+01  0.4224E+00
     -3.404  0.8351E+00  0.4719E+00
     -3.345  0.3820E+01  0.6983E+00
     -3.285  0.6940E+01  0.1110E+01
     -3.226  0.9640E+01  0.1681E+01
     -3.167  0.1361E+02  0.2488E+01
     -3.108  0.1422E+02  0.3330E+01
     -3.048  0.1556E+02  0.4252E+01
     -2.989  0.2409E+02  0.5680E+01
     -2.930  0.1525E+02  0.6584E+01
     -2.871  0.2082E+02  0.7818E+01
     -2.811  0.1376E+02  0.8633E+01
     -2.752  0.1367E+02  0.9444E+01
     -2.693  0.1088E+02  0.1009E+02
     -2.634  0.1215E+02  0.1081E+02
     -2.574  0.1335E+02  0.1160E+02
     -2.515  0.1485E+02  0.1248E+02
     -2.456  0.1632E+02  0.1345E+02
     -2.396  0.1735E+02  0.1448E+02
     -2.337  0.1415E+02  0.1531E+02
     -2.278  0.1316E+02  0.1609E+02
     -2.219  0.1823E+02  0.1718E+02
     -2.159  0.1827E+02  0.1826E+02
     -2.100  0.2875E+02  0.1996E+02
     -2.041  0.2252E+02  0.2130E+02
     -1.982  0.1559E+02  0.2222E+02
     -1.922  0.1790E+02  0.2328E+02
     -1.863  0.1220E+02  0.2400E+02
     -1.804  0.1985E+02  0.2518E+02
     -1.745  0.1299E+02  0.2595E+02
     -1.685  0.1671E+02  0.2694E+02
     -1.626  0.2048E+02  0.2816E+02
     -1.567  0.1515E+02  0.2905E+02
     -1.507  0.2154E+02  0.3033E+02
     -1.448  0.1998E+02  0.3151E+02
     -1.389  0.1135E+02  0.3219E+02
     -1.330  0.1653E+02  0.3317E+02
     -1.270  0.1629E+02  0.3413E+02
     -1.211  0.1497E+02  0.3502E+02
     -1.152  0.1710E+02  0.3603E+02
     -1.093  0.2200E+02  0.3734E+02
     -1.033  0.2274E+02  0.3868E+02
     -0.974  0.2496E+02  0.4016E+02
     -0.915  0.1009E+02  0.4076E+02
     -0.856  0.7571E+01  0.4121E+02
     -0.796  0.1686E+01  0.4131E+02
     -0.737  0.4016E+00  0.4133E+02
     -0.678  0.6033E-01  0.4134E+02
     -0.618  0.4687E+00  0.4136E+02
     -0.559  0.4627E+00  0.4139E+02
     -0.500  0.1574E+01  0.4149E+02
     -0.441  0.2126E+01  0.4161E+02
     -0.381  0.1462E+01  0.4170E+02
     -0.322  0.5935E+00  0.4173E+02
     -0.263  0.3439E+00  0.4175E+02
     -0.204  0.4870E+00  0.4178E+02
     -0.144  0.8663E+00  0.4183E+02
     -0.085  0.9900E+00  0.4189E+02
     -0.026  0.6324E-02  0.4189E+02
      0.033  0.1184E+01  0.4196E+02
      0.093  0.1876E+01  0.4207E+02
      0.152  0.1504E+01  0.4216E+02
      0.211  0.2525E-03  0.4216E+02
      0.270  0.1088E+01  0.4223E+02
      0.330  0.1762E+01  0.4233E+02
      0.389  0.7176E+00  0.4237E+02
      0.448  0.1022E+01  0.4244E+02
      0.508  0.9684E-01  0.4244E+02
      0.567  0.1464E-01  0.4244E+02
      0.626  0.2215E+01  0.4257E+02
      0.685  0.7906E+00  0.4262E+02
      0.745  0.1721E+01  0.4272E+02
      0.804  0.1473E+01  0.4281E+02
      0.863  0.9720E+00  0.4287E+02
      0.922  0.8779E+00  0.4292E+02
      0.982  0.5278E+00  0.4295E+02
      1.041  0.7438E-03  0.4295E+02
      1.100  0.1405E+01  0.4303E+02
      1.159  0.1977E+01  0.4315E+02
      1.219  0.1440E-01  0.4315E+02
      1.278  0.8824E+00  0.4320E+02
      1.337  0.4167E+00  0.4323E+02
      1.397  0.3143E+01  0.4341E+02
      1.456  0.4771E+00  0.4344E+02
      1.515  0.1867E+01  0.4355E+02
      1.574  0.1409E-01  0.4355E+02
      1.634  0.9281E+00  0.4361E+02
      1.693  0.3111E+01  0.4379E+02
      1.752  0.6422E+00  0.4383E+02
      1.811  0.5494E-04  0.4383E+02
      1.871  0.9373E+00  0.4389E+02
      1.930  0.1392E+01  0.4397E+02
      1.989  0.4823E+00  0.4400E+02
      2.048  0.6132E+00  0.4404E+02
      2.108  0.1802E+01  0.4414E+02
      2.167  0.2067E+01  0.4426E+02
      2.226  0.1028E+01  0.4433E+02
      2.286  0.1105E+01  0.4439E+02
      2.345  0.2015E+01  0.4451E+02
      2.404  0.9567E+00  0.4457E+02
      2.463  0.2610E+01  0.4472E+02
      2.523  0.1830E+00  0.4473E+02
      2.582  0.1705E-05  0.4473E+02
      2.641  0.1289E+01  0.4481E+02
      2.700  0.1517E+01  0.4490E+02
      2.760  0.8910E+00  0.4495E+02
      2.819  0.1010E+01  0.4501E+02
      2.878  0.1851E+01  0.4512E+02
      2.937  0.1184E+01  0.4519E+02
      2.997  0.1397E+01  0.4527E+02
      3.056  0.1227E+01  0.4535E+02
      3.115  0.1116E+01  0.4541E+02
      3.175  0.4864E+00  0.4544E+02
      3.234  0.2873E+01  0.4561E+02
      3.293  0.6817E+00  0.4565E+02
      3.352  0.1231E+01  0.4573E+02
      3.412  0.1021E-08  0.4573E+02
      3.471  0.8276E+00  0.4577E+02
      3.530  0.1552E+01  0.4587E+02
      3.589  0.4325E+00  0.4589E+02
      3.649  0.2071E-01  0.4589E+02
      3.708  0.2884E+01  0.4606E+02
      3.767  0.1372E+01  0.4615E+02
      3.826  0.1894E+01  0.4626E+02
      3.886  0.1570E+01  0.4635E+02
      3.945  0.5150E+00  0.4638E+02
      4.004  0.1183E+01  0.4645E+02
      4.064  0.1399E+01  0.4653E+02
      4.123  0.4670E+00  0.4656E+02
      4.182  0.9396E+00  0.4662E+02
      4.241  0.7010E+00  0.4666E+02
      4.301  0.2273E+00  0.4667E+02
      4.360  0.2043E+01  0.4679E+02
      4.419  0.8269E+00  0.4684E+02
      4.478  0.6541E+00  0.4688E+02
      4.538  0.2992E+00  0.4690E+02
      4.597  0.1553E+01  0.4699E+02
      4.656  0.2023E+01  0.4711E+02
      4.715  0.2118E+01  0.4724E+02
      4.775  0.1145E+01  0.4731E+02
      4.834  0.1166E+01  0.4737E+02
      4.893  0.1437E+01  0.4746E+02
      4.953  0.2287E+01  0.4759E+02
      5.012  0.4956E+00  0.4762E+02
      5.071  0.1848E+01  0.4773E+02
      5.130  0.1370E+01  0.4781E+02
      5.190  0.2331E+01  0.4795E+02
      5.249  0.1887E+01  0.4806E+02
      5.308  0.2150E+00  0.4808E+02
      5.367  0.5512E+00  0.4811E+02
      5.427  0.1139E+01  0.4818E+02
      5.486  0.9454E+00  0.4823E+02
      5.545  0.3371E+01  0.4843E+02
      5.604  0.1610E+01  0.4853E+02
      5.664  0.1334E+01  0.4861E+02
      5.723  0.1670E+01  0.4871E+02
      5.782  0.1064E+01  0.4877E+02
      5.842  0.1407E+01  0.4885E+02
      5.901  0.2701E+01  0.4901E+02
      5.960  0.4338E+00  0.4904E+02
      6.019  0.8673E-17  0.4904E+02
      6.079  0.1705E+00  0.4905E+02
      6.138  0.1861E+01  0.4916E+02
      6.197  0.1883E+01  0.4927E+02
      6.256  0.2799E+01  0.4944E+02
      6.316  0.2281E+00  0.4945E+02
      6.375  0.1003E+01  0.4951E+02
      6.434  0.1648E+01  0.4961E+02
      6.493  0.1813E+01  0.4972E+02
      6.553  0.1358E+01  0.4980E+02
      6.612  0.5162E+00  0.4983E+02
      6.671  0.7452E+00  0.4987E+02
      6.731  0.2528E+01  0.5002E+02
      6.790  0.1412E+01  0.5010E+02
      6.849  0.1333E-02  0.5010E+02
      6.908  0.1078E+01  0.5017E+02
      6.968  0.2672E+01  0.5033E+02
      7.027  0.6050E+00  0.5036E+02
      7.086  0.1035E+01  0.5042E+02
      7.145  0.1539E+01  0.5051E+02
      7.205  0.1038E+01  0.5058E+02
      7.264  0.7673E+00  0.5062E+02
      7.323  0.4397E+01  0.5088E+02
      7.382  0.1272E+01  0.5096E+02
      7.442  0.1104E+01  0.5102E+02
      7.501  0.1424E+01  0.5111E+02
      7.560  0.1406E+01  0.5119E+02
      7.620  0.2375E+00  0.5121E+02
      7.679  0.1516E+01  0.5129E+02
      7.738  0.1397E+01  0.5138E+02
      7.797  0.1587E+01  0.5147E+02
      7.857  0.1272E+01  0.5155E+02
      7.916  0.1988E+01  0.5166E+02
      7.975  0.2436E+01  0.5181E+02
      8.034  0.3953E+01  0.5204E+02
      8.094  0.1995E+01  0.5216E+02
      8.153  0.1302E+01  0.5224E+02
      8.212  0.2686E+01  0.5240E+02
      8.271  0.1988E+01  0.5252E+02
      8.331  0.3729E+00  0.5254E+02
      8.390  0.1008E+01  0.5260E+02
      8.449  0.1103E+01  0.5266E+02
      8.509  0.9980E+00  0.5272E+02
      8.568  0.1755E+01  0.5283E+02
      8.627  0.2961E+00  0.5284E+02
      8.686  0.2706E+01  0.5300E+02
      8.746  0.2941E+01  0.5318E+02
      8.805  0.2426E+01  0.5332E+02
      8.864  0.1457E+01  0.5341E+02
      8.923  0.2266E+01  0.5354E+02
      8.983  0.1556E+01  0.5364E+02
      9.042  0.2873E+01  0.5381E+02
      9.101  0.1657E+01  0.5390E+02
      9.160  0.1080E+01  0.5397E+02
      9.220  0.3145E+01  0.5415E+02
      9.279  0.8246E+00  0.5420E+02
      9.338  0.2328E+01  0.5434E+02
      9.398  0.1712E+01  0.5444E+02
      9.457  0.2312E+01  0.5458E+02
      9.516  0.4118E-01  0.5458E+02
      9.575  0.7394E+00  0.5463E+02
      9.635  0.6668E+00  0.5467E+02
      9.694  0.1386E+01  0.5475E+02
      9.753  0.1570E+01  0.5484E+02
      9.812  0.2173E+01  0.5497E+02
      9.872  0.2784E+01  0.5513E+02
      9.931  0.2778E+01  0.5530E+02
      9.990  0.2492E+00  0.5531E+02
     10.049  0.1125E+01  0.5538E+02
     10.109  0.1314E+01  0.5546E+02
     10.168  0.8373E+00  0.5551E+02
     10.227  0.8299E+00  0.5556E+02
     10.287  0.1045E+01  0.5562E+02
     10.346  0.6374E-01  0.5562E+02
     10.405  0.2463E+01  0.5577E+02
     10.464  0.7037E+00  0.5581E+02
     10.524  0.5012E-01  0.5581E+02
     10.583  0.2782E-10  0.5581E+02
     10.642  0.2320E+00  0.5583E+02
     10.701  0.9288E+00  0.5588E+02
     10.761  0.6922E+00  0.5592E+02
     10.820  0.9983E+00  0.5598E+02
     10.879  0.0000E+00  0.5598E+02
     10.938  0.0000E+00  0.5598E+02
     10.998  0.0000E+00  0.5598E+02
     11.057  0.0000E+00  0.5598E+02
     11.116  0.0000E+00  0.5598E+02
     11.176  0.0000E+00  0.5598E+02
     11.235  0.0000E+00  0.5598E+02
     11.294  0.0000E+00  0.5598E+02
     11.353  0.0000E+00  0.5598E+02
     11.413  0.5645E-01  0.5599E+02
     11.472  0.6073E-01  0.5599E+02
     11.531  0.0000E+00  0.5599E+02
     11.590  0.1477E-08  0.5599E+02
     11.650  0.1558E+00  0.5600E+02
     11.709  0.1996E-01  0.5600E+02
     11.768  0.0000E+00  0.5600E+02
     11.827  0.0000E+00  0.5600E+02
     11.887  0.0000E+00  0.5600E+02
     11.946  0.0000E+00  0.5600E+02
     12.005  0.0000E+00  0.5600E+02
     12.065  0.0000E+00  0.5600E+02
     12.124  0.0000E+00  0.5600E+02
     12.183  0.0000E+00  0.5600E+02
     12.242  0.0000E+00  0.5600E+02
     12.302  0.0000E+00  0.5600E+02
     12.361  0.0000E+00  0.5600E+02
     12.420  0.0000E+00  0.5600E+02
     12.479  0.0000E+00  0.5600E+02
