    4    4    1    1
  0.2088322E+02  0.4371386E-09  0.4371386E-09  0.4371386E-09  0.5000000E-15
  1.000000000000000E-004
  CAR 
 unknown system                          
   44   84   28
 
  0.0000000E+00  0.0000000E+00  0.0000000E+00  0.5787037E-03
   1       -4.4924
   2       -3.4163
   3       -3.4163
   4       -3.4163
   5       -3.3432
   6       -3.3432
   7       -3.3432
   8       -2.2981
   9       -2.2981
  10       -2.2981
  11       -1.5799
  12       -1.5799
  13       -1.0483
  14       -1.0483
  15       -1.0483
  16       -0.8800
  17       -0.8800
  18       -0.8800
  19       -0.8800
  20       -0.8800
  21       -0.8800
  22        3.6992
  23        3.6992
  24        3.6992
  25        7.2311
  26        7.2311
  27        7.2311
  28       11.6712
 
  0.8333333E-01  0.0000000E+00  0.0000000E+00  0.3472222E-02
   1       -4.4304
   2       -3.3942
   3       -3.3877
   4       -3.3877
   5       -3.3268
   6       -3.3177
   7       -3.3177
   8       -2.3174
   9       -2.2790
  10       -2.2790
  11       -1.5991
  12       -1.5712
  13       -1.0736
  14       -1.0736
  15       -1.0578
  16       -0.9635
  17       -0.9635
  18       -0.9114
  19       -0.9114
  20       -0.8800
  21       -0.8800
  22        3.1992
  23        3.8376
  24        3.8376
  25        7.2459
  26        7.2459
  27        7.8367
  28       11.4129
 
  0.1666667E+00  0.0000000E+00  0.0000000E+00  0.3472222E-02
   1       -4.2475
   2       -3.3304
   3       -3.3056
   4       -3.3056
   5       -3.2784
   6       -3.2414
   7       -3.2414
   8       -2.3739
   9       -2.2223
  10       -2.2223
  11       -1.6523
  12       -1.5456
  13       -1.1857
  14       -1.1857
  15       -1.1468
  16       -1.1468
  17       -1.0853
  18       -1.0012
  19       -1.0012
  20       -0.8799
  21       -0.8799
  22        2.1970
  23        4.2239
  24        4.2239
  25        7.2913
  26        7.2913
  27        9.1563
  28       10.7610
 
  0.2500000E+00  0.0000000E+00  0.0000000E+00  0.3472222E-02
   1       -3.9553
   2       -3.2336
   3       -3.2006
   4       -3.1820
   5       -3.1820
   6       -3.1149
   7       -3.1149
   8       -2.4626
   9       -2.1298
  10       -2.1298
  11       -1.7245
  12       -1.5046
  13       -1.4884
  14       -1.4884
  15       -1.2586
  16       -1.2586
  17       -1.1382
  18       -1.1382
  19       -1.1289
  20       -0.8797
  21       -0.8797
  22        1.1281
  23        4.7978
  24        4.7978
  25        7.3681
  26        7.3681
  27        9.9197
  28        9.9197
 
  0.3333333E+00  0.0000000E+00  0.0000000E+00  0.3472222E-02
   1       -3.5855
   2       -3.1211
   3       -3.0978
   4       -3.0399
   5       -3.0399
   6       -2.9391
   7       -2.9391
   8       -2.5763
   9       -2.0045
  10       -2.0045
  11       -1.8204
  12       -1.8204
  13       -1.7783
  14       -1.4509
  15       -1.3892
  16       -1.3892
  17       -1.3072
  18       -1.3072
  19       -1.1852
  20       -0.8795
  21       -0.8795
  22        0.1284
  23        5.5043
  24        5.5043
  25        7.4723
  26        7.4723
  27        9.0057
  28        9.0057
 
  0.4166667E+00  0.0000000E+00  0.0000000E+00  0.3472222E-02
   1       -3.2241
   2       -3.0273
   3       -2.9759
   4       -2.9181
   5       -2.9181
   6       -2.7163
   7       -2.7163
   8       -2.7061
   9       -2.1477
  10       -2.1477
  11       -1.8513
  12       -1.8513
  13       -1.7202
  14       -1.5030
  15       -1.5030
  16       -1.4918
  17       -1.4918
  18       -1.3877
  19       -1.2502
  20       -0.8794
  21       -0.8794
  22       -0.7368
  23        6.3042
  24        6.3042
  25        7.5807
  26        7.5807
  27        8.0780
  28        8.0780
 
  0.5000000E+00  0.0000000E+00  0.0000000E+00  0.1736111E-02
   1       -3.0261
   2       -3.0261
   3       -2.8680
   4       -2.8680
   5       -2.8425
   6       -2.8425
   7       -2.4502
   8       -2.4502
   9       -2.4502
  10       -2.4502
  11       -1.6773
  12       -1.6773
  13       -1.6773
  14       -1.6773
  15       -1.5502
  16       -1.5502
  17       -1.3874
  18       -1.3874
  19       -1.3194
  20       -1.3194
  21       -0.8794
  22       -0.8794
  23        7.1696
  24        7.1696
  25        7.1696
  26        7.1696
  27        7.6328
  28        7.6328
 
  0.8333333E-01  0.8333333E-01  0.0000000E+00  0.6944444E-02
   1       -4.3692
   2       -3.3661
   3       -3.3654
   4       -3.3654
   5       -3.3016
   6       -3.3016
   7       -3.2863
   8       -2.3239
   9       -2.2723
  10       -2.2611
  11       -1.6040
  12       -1.5749
  13       -1.0980
  14       -1.0951
  15       -1.0951
  16       -1.0207
  17       -0.9829
  18       -0.9829
  19       -0.9114
  20       -0.9114
  21       -0.9020
  22        3.3285
  23        3.3285
  24        3.9719
  25        7.2602
  26        7.8596
  27        7.8596
  28       10.6276
 
  0.1666667E+00  0.8333333E-01  0.0000000E+00  0.1388889E-01
   1       -4.1890
   2       -3.3011
   3       -3.3006
   4       -3.2827
   5       -3.2542
   6       -3.2264
   7       -3.1966
   8       -2.3729
   9       -2.2217
  10       -2.2084
  11       -1.6499
  12       -1.5509
  13       -1.2583
  14       -1.2218
  15       -1.1684
  16       -1.1658
  17       -1.1139
  18       -1.0304
  19       -1.0015
  20       -0.9129
  21       -0.9116
  22        2.3207
  23        3.6851
  24        4.3485
  25        7.3019
  26        7.9287
  27        9.1813
  28        9.7403
 
  0.2500000E+00  0.8333333E-01  0.0000000E+00  0.1388889E-01
   1       -3.9015
   2       -3.2032
   3       -3.1925
   4       -3.1781
   5       -3.1583
   6       -3.1016
   7       -3.0599
   8       -2.4580
   9       -2.1305
  10       -2.1264
  11       -1.7136
  12       -1.5442
  13       -1.5110
  14       -1.5046
  15       -1.2894
  16       -1.2763
  17       -1.2386
  18       -1.1389
  19       -1.0906
  20       -0.9149
  21       -0.9119
  22        1.2552
  23        4.2041
  24        4.9116
  25        7.3597
  26        8.0405
  27        8.8800
  28       10.0076
 
  0.3333333E+00  0.8333333E-01  0.0000000E+00  0.1388889E-01
   1       -3.5387
   2       -3.0890
   3       -3.0775
   4       -3.0523
   5       -3.0153
   6       -2.9284
   7       -2.8897
   8       -2.5684
   9       -2.0373
  10       -2.0057
  11       -1.8641
  12       -1.8325
  13       -1.7356
  14       -1.4541
  15       -1.4418
  16       -1.4023
  17       -1.3748
  18       -1.3082
  19       -1.1603
  20       -0.9150
  21       -0.9124
  22        0.2668
  23        4.8267
  24        5.6087
  25        7.3435
  26        8.1698
  27        8.1816
  28        9.0927
 
  0.4166667E+00  0.8333333E-01  0.0000000E+00  0.1388889E-01
   1       -3.1841
   2       -2.9925
   3       -2.9584
   4       -2.9145
   5       -2.8933
   6       -2.7092
   7       -2.6949
   8       -2.6929
   9       -2.1762
  10       -2.1516
  11       -1.9687
  12       -1.8528
  13       -1.6446
  14       -1.6067
  15       -1.5107
  16       -1.4952
  17       -1.4931
  18       -1.3613
  19       -1.2404
  20       -0.9144
  21       -0.9130
  22       -0.5750
  23        5.5103
  24        6.4013
  25        6.9146
  26        7.9891
  27        8.1664
  28        8.2255
 
  0.5000000E+00  0.8333333E-01  0.0000000E+00  0.6944444E-02
   1       -2.9887
   2       -2.9887
   3       -2.8482
   4       -2.8482
   5       -2.8280
   6       -2.8280
   7       -2.4571
   8       -2.4571
   9       -2.4479
  10       -2.4479
  11       -1.8382
  12       -1.8382
  13       -1.6787
  14       -1.6787
  15       -1.5507
  16       -1.5507
  17       -1.3535
  18       -1.3535
  19       -1.1712
  20       -1.1712
  21       -0.9137
  22       -0.9137
  23        6.2231
  24        6.2231
  25        7.2614
  26        7.2614
  27        8.1191
  28        8.1191
 
  0.1666667E+00  0.1666667E+00  0.0000000E+00  0.6944444E-02
   1       -4.0169
   2       -3.2614
   3       -3.2168
   4       -3.2168
   5       -3.1821
   6       -3.1821
   7       -3.0901
   8       -2.3918
   9       -2.1970
  10       -2.1683
  11       -1.6678
  12       -1.5365
  13       -1.3828
  14       -1.3828
  15       -1.3553
  16       -1.2314
  17       -1.1052
  18       -1.1052
  19       -1.0025
  20       -1.0025
  21       -0.9669
  22        2.6565
  23        2.6565
  24        4.7018
  25        7.3176
  26        8.7392
  27        9.2462
  28        9.2462
 
  0.2500000E+00  0.1666667E+00  0.0000000E+00  0.1388889E-01
   1       -3.7447
   2       -3.1773
   3       -3.1158
   4       -3.1110
   5       -3.0896
   6       -3.0625
   7       -2.9448
   8       -2.4543
   9       -2.1220
  10       -2.1123
  11       -1.7120
  12       -1.6697
  13       -1.5891
  14       -1.5381
  15       -1.4732
  16       -1.3283
  17       -1.2179
  18       -1.1409
  19       -1.1326
  20       -1.0040
  21       -0.9957
  22        1.5905
  23        3.1369
  24        5.2381
  25        7.1851
  26        7.9995
  27        9.2929
  28       10.2656
 
  0.3333333E+00  0.1666667E+00  0.0000000E+00  0.1388889E-01
   1       -3.4046
   2       -3.0522
   3       -3.0172
   4       -2.9962
   5       -2.9432
   6       -2.8972
   7       -2.7809
   8       -2.5497
   9       -2.0804
  10       -2.0041
  11       -1.9710
  12       -1.8729
  13       -1.7154
  14       -1.7052
  15       -1.4420
  16       -1.3663
  17       -1.3544
  18       -1.3110
  19       -1.1929
  20       -1.0065
  21       -1.0060
  22        0.6126
  23        3.7105
  24        5.9110
  25        6.5602
  26        7.8907
  27        9.1453
  28        9.3478
 
  0.4166667E+00  0.1666667E+00  0.0000000E+00  0.1388889E-01
   1       -3.0722
   2       -2.9065
   3       -2.9036
   4       -2.8921
   5       -2.8210
   6       -2.6888
   7       -2.6639
   8       -2.6235
   9       -2.2486
  10       -2.1654
  11       -2.0945
  12       -1.9009
  13       -1.8542
  14       -1.5802
  15       -1.5363
  16       -1.4963
  17       -1.4845
  18       -1.2844
  19       -1.1869
  20       -1.0096
  21       -1.0080
  22       -0.2154
  23        4.3493
  24        5.7858
  25        6.6840
  26        8.0812
  27        8.4253
  28        8.7750
 
  0.5000000E+00  0.1666667E+00  0.0000000E+00  0.6944444E-02
   1       -2.8829
   2       -2.8829
   3       -2.7959
   4       -2.7959
   5       -2.7860
   6       -2.7860
   7       -2.4671
   8       -2.4671
   9       -2.4421
  10       -2.4421
  11       -2.0515
  12       -2.0515
  13       -1.6815
  14       -1.6815
  15       -1.5582
  16       -1.5582
  17       -1.4130
  18       -1.4130
  19       -1.0095
  20       -1.0095
  21       -0.8299
  22       -0.8299
  23        5.0423
  24        5.0423
  25        7.5296
  26        7.5296
  27        8.3896
  28        8.3896
 
  0.2500000E+00  0.2500000E+00  0.0000000E+00  0.6944444E-02
   1       -3.5010
   2       -3.1196
   3       -3.0002
   4       -3.0002
   5       -2.9834
   6       -2.9834
   7       -2.7977
   8       -2.4760
   9       -2.0878
  10       -2.0778
  11       -1.8254
  12       -1.8254
  13       -1.7490
  14       -1.7396
  15       -1.4102
  16       -1.3652
  17       -1.2296
  18       -1.2296
  19       -1.1438
  20       -1.1438
  21       -1.0719
  22        2.0586
  23        2.0586
  24        5.7418
  25        6.4326
  26        7.8421
  27       10.3536
  28       10.3536
 
  0.3333333E+00  0.2500000E+00  0.0000000E+00  0.1388889E-01
   1       -3.2045
   2       -3.0192
   3       -2.9185
   4       -2.8547
   5       -2.8479
   6       -2.8301
   7       -2.6413
   8       -2.5349
   9       -2.1062
  10       -2.0917
  11       -1.9926
  12       -1.9836
  13       -1.9530
  14       -1.7555
  15       -1.5077
  16       -1.3598
  17       -1.3145
  18       -1.2822
  19       -1.1781
  20       -1.1468
  21       -1.1178
  22        1.0754
  23        2.6136
  24        5.5337
  25        6.3836
  26        7.9973
  27        9.7349
  28        9.7552
 
  0.4166667E+00  0.2500000E+00  0.0000000E+00  0.1388889E-01
   1       -2.9164
   2       -2.8820
   3       -2.8230
   4       -2.7384
   5       -2.7081
   6       -2.6578
   7       -2.6212
   8       -2.5136
   9       -2.3393
  10       -2.1953
  11       -2.1640
  12       -2.1480
  13       -1.8470
  14       -1.6589
  15       -1.5852
  16       -1.4990
  17       -1.4948
  18       -1.3773
  19       -1.1487
  20       -1.1394
  21       -0.8850
  22        0.2343
  23        3.2374
  24        4.6926
  25        7.1303
  26        8.2733
  27        8.8382
  28        9.1468
 
  0.5000000E+00  0.2500000E+00  0.0000000E+00  0.6944444E-02
   1       -2.7358
   2       -2.7358
   3       -2.7311
   4       -2.7311
   5       -2.7210
   6       -2.7210
   7       -2.4489
   8       -2.4489
   9       -2.4366
  10       -2.4366
  11       -2.2214
  12       -2.2214
  13       -1.6812
  14       -1.6812
  15       -1.5863
  16       -1.5863
  17       -1.5109
  18       -1.5109
  19       -1.1475
  20       -1.1475
  21       -0.4257
  22       -0.4257
  23        3.9285
  24        3.9285
  25        7.9559
  26        7.9559
  27        8.6561
  28        8.6561
 
  0.3333333E+00  0.3333333E+00  0.0000000E+00  0.6944444E-02
   1       -2.9770
   2       -2.9497
   3       -2.7845
   4       -2.7845
   5       -2.6877
   6       -2.6877
   7       -2.5426
   8       -2.4931
   9       -2.2472
  10       -2.2472
  11       -2.0851
  12       -2.0815
  13       -1.9241
  14       -1.8189
  15       -1.5907
  16       -1.4076
  17       -1.4076
  18       -1.3168
  19       -1.3168
  20       -1.2116
  21       -0.8941
  22        1.6168
  23        1.6168
  24        4.5671
  25        6.9941
  26        8.2268
  27       10.2383
  28       10.2384
 
  0.4166667E+00  0.3333333E+00  0.0000000E+00  0.1388889E-01
   1       -2.8423
   2       -2.7673
   3       -2.7131
   4       -2.6211
   5       -2.5807
   6       -2.5734
   7       -2.5537
   8       -2.4189
   9       -2.3796
  10       -2.3617
  11       -2.2505
  12       -2.1559
  13       -1.8166
  14       -1.7730
  15       -1.6587
  16       -1.5444
  17       -1.5027
  18       -1.4969
  19       -1.3144
  20       -1.2714
  21       -0.4981
  22        0.7530
  23        2.2292
  24        3.6950
  25        7.7131
  26        8.5595
  27        9.3832
  28        9.5608
 
  0.5000000E+00  0.3333333E+00  0.0000000E+00  0.6944444E-02
   1       -2.6994
   2       -2.6994
   3       -2.6416
   4       -2.6416
   5       -2.6016
   6       -2.6016
   7       -2.4378
   8       -2.4378
   9       -2.3677
  10       -2.3677
  11       -2.2961
  12       -2.2961
  13       -1.6691
  14       -1.6691
  15       -1.6477
  16       -1.6477
  17       -1.6371
  18       -1.6371
  19       -1.3021
  20       -1.3021
  21        0.0451
  22        0.0451
  23        2.9184
  24        2.9184
  25        8.5164
  26        8.5164
  27        9.0017
  28        9.0017
 
  0.4166667E+00  0.4166667E+00  0.0000000E+00  0.6944444E-02
   1       -2.7765
   2       -2.6673
   3       -2.5857
   4       -2.5857
   5       -2.5582
   6       -2.5427
   7       -2.5427
   8       -2.3641
   9       -2.3641
  10       -2.3381
  11       -2.2596
  12       -2.1168
  13       -1.8507
  14       -1.7473
  15       -1.7366
  16       -1.6402
  17       -1.6402
  18       -1.4830
  19       -1.4830
  20       -1.3781
  21       -0.0113
  22        1.3458
  23        1.3458
  24        2.8060
  25        8.4063
  26        8.9476
  27       10.0425
  28       10.0518
 
  0.5000000E+00  0.4166667E+00  0.0000000E+00  0.6944444E-02
   1       -2.6779
   2       -2.6779
   3       -2.6011
   4       -2.6011
   5       -2.5614
   6       -2.5614
   7       -2.4548
   8       -2.4548
   9       -2.2412
  10       -2.2412
  11       -2.2098
  12       -2.2098
  13       -1.7692
  14       -1.7692
  15       -1.7431
  16       -1.7431
  17       -1.6332
  18       -1.6332
  19       -1.4471
  20       -1.4471
  21        0.5988
  22        0.5988
  23        2.0257
  24        2.0257
  25        9.1875
  26        9.1875
  27        9.4468
  28        9.4468
 
  0.5000000E+00  0.5000000E+00  0.0000000E+00  0.1736111E-02
   1       -2.6462
   2       -2.6462
   3       -2.6462
   4       -2.6462
   5       -2.4957
   6       -2.4957
   7       -2.4957
   8       -2.4957
   9       -2.1465
  10       -2.1465
  11       -2.1465
  12       -2.1465
  13       -1.8256
  14       -1.8256
  15       -1.8256
  16       -1.8256
  17       -1.5608
  18       -1.5608
  19       -1.5608
  20       -1.5608
  21        1.2543
  22        1.2543
  23        1.2543
  24        1.2543
  25        9.9485
  26        9.9485
  27        9.9485
  28        9.9485
 
  0.8333333E-01  0.8333333E-01  0.8333333E-01  0.4629630E-02
   1       -4.3091
   2       -3.3447
   3       -3.3447
   4       -3.3447
   5       -3.2695
   6       -3.2695
   7       -3.2695
   8       -2.3273
   9       -2.2562
  10       -2.2562
  11       -1.5930
  12       -1.5930
  13       -1.1200
  14       -1.1200
  15       -1.1200
  16       -1.0542
  17       -1.0542
  18       -1.0542
  19       -0.9185
  20       -0.9185
  21       -0.9185
  22        3.4531
  23        3.4531
  24        3.4531
  25        7.8809
  26        7.8809
  27        7.8809
  28       10.7215
 
  0.1666667E+00  0.8333333E-01  0.8333333E-01  0.1388889E-01
   1       -4.1321
   2       -3.2841
   3       -3.2808
   4       -3.2808
   5       -3.2191
   6       -3.1790
   7       -3.1790
   8       -2.3679
   9       -2.2110
  10       -2.2082
  11       -1.6416
  12       -1.5606
  13       -1.2787
  14       -1.2787
  15       -1.1861
  16       -1.1662
  17       -1.1662
  18       -1.1508
  19       -0.9634
  20       -0.9284
  21       -0.9284
  22        2.4384
  23        3.7987
  24        3.7987
  25        7.9392
  26        7.9392
  27        9.1971
  28        9.8418
 
  0.2500000E+00  0.8333333E-01  0.8333333E-01  0.1388889E-01
   1       -3.8509
   2       -3.1957
   3       -3.1739
   4       -3.1739
   5       -3.1345
   6       -3.0424
   7       -3.0424
   8       -2.4474
   9       -2.1297
  10       -2.1283
  11       -1.6974
  12       -1.5610
  13       -1.5610
  14       -1.5090
  15       -1.3003
  16       -1.2934
  17       -1.2713
  18       -1.2713
  19       -1.0277
  20       -0.9354
  21       -0.9354
  22        1.3727
  23        4.3056
  24        4.3056
  25        7.9868
  26        7.9868
  27        9.0392
  28        9.0392
 
  0.3333333E+00  0.8333333E-01  0.8333333E-01  0.1388889E-01
   1       -3.4981
   2       -3.0946
   3       -3.0333
   4       -3.0333
   5       -3.0216
   6       -2.8753
   7       -2.8753
   8       -2.5519
   9       -2.0524
  10       -2.0231
  11       -1.8719
  12       -1.8719
  13       -1.6880
  14       -1.4893
  15       -1.4414
  16       -1.4317
  17       -1.3967
  18       -1.3967
  19       -1.1043
  20       -0.9393
  21       -0.9393
  22        0.3870
  23        4.9178
  24        4.9178
  25        7.7224
  26        7.7224
  27        8.6587
  28        8.6587
 
  0.4166667E+00  0.8333333E-01  0.8333333E-01  0.1388889E-01
   1       -3.1572
   2       -2.9991
   3       -2.9019
   4       -2.8925
   5       -2.8925
   6       -2.6888
   7       -2.6888
   8       -2.6701
   9       -2.1728
  10       -2.1728
  11       -2.0137
  12       -1.8926
  13       -1.7023
  14       -1.5866
  15       -1.5091
  16       -1.5091
  17       -1.5004
  18       -1.3622
  19       -1.1887
  20       -0.9412
  21       -0.9412
  22       -0.4555
  23        5.5941
  24        5.5941
  25        7.0519
  26        7.0519
  27        8.7806
  28        8.7806
 
  0.5000000E+00  0.8333333E-01  0.8333333E-01  0.6944444E-02
   1       -2.9779
   2       -2.9779
   3       -2.8286
   4       -2.8286
   5       -2.7890
   6       -2.7890
   7       -2.5163
   8       -2.5163
   9       -2.3915
  10       -2.3915
  11       -1.9037
  12       -1.9037
  13       -1.7441
  14       -1.7441
  15       -1.5569
  16       -1.5569
  17       -1.2762
  18       -1.2762
  19       -1.0959
  20       -1.0959
  21       -0.9418
  22       -0.9418
  23        6.2400
  24        6.2400
  25        6.3896
  26        6.3896
  27        8.9114
  28        8.9114
 
  0.1666667E+00  0.1666667E+00  0.8333333E-01  0.1388889E-01
   1       -3.9657
   2       -3.2447
   3       -3.2258
   4       -3.2258
   5       -3.1250
   6       -3.1250
   7       -3.0709
   8       -2.3754
   9       -2.1913
  10       -2.1732
  11       -1.6483
  12       -1.5526
  13       -1.3962
  14       -1.3962
  15       -1.3889
  16       -1.2700
  17       -1.2125
  18       -1.2125
  19       -0.9673
  20       -0.9673
  21       -0.9607
  22        2.7607
  23        2.7607
  24        4.1179
  25        7.9113
  26        8.9146
  27        9.1913
  28        9.1913
 
  0.2500000E+00  0.1666667E+00  0.8333333E-01  0.2777778E-01
   1       -3.7046
   2       -3.1632
   3       -3.1472
   4       -3.1232
   5       -3.0337
   6       -2.9882
   7       -2.9260
   8       -2.4254
   9       -2.1276
  10       -2.1182
  11       -1.6826
  12       -1.6790
  13       -1.6241
  14       -1.5496
  15       -1.4877
  16       -1.3578
  17       -1.3188
  18       -1.2903
  19       -1.0216
  20       -0.9893
  21       -0.9878
  22        1.6889
  23        3.2276
  24        4.5944
  25        7.4680
  26        8.5394
  27        8.8208
  28        9.8159
 
  0.3333333E+00  0.1666667E+00  0.8333333E-01  0.2777778E-01
   1       -3.3850
   2       -3.0579
   3       -3.0398
   4       -2.9830
   5       -2.9122
   6       -2.8288
   7       -2.7665
   8       -2.5058
   9       -2.0876
  10       -2.0337
  11       -1.9694
  12       -1.8997
  13       -1.7286
  14       -1.6424
  15       -1.4639
  16       -1.4600
  17       -1.4014
  18       -1.3831
  19       -1.0931
  20       -1.0079
  21       -1.0049
  22        0.7030
  23        3.7906
  24        5.1796
  25        6.6659
  26        8.0719
  27        8.6878
  28        9.8965
 
  0.4166667E+00  0.1666667E+00  0.8333333E-01  0.2777778E-01
   1       -3.0879
   2       -2.9742
   3       -2.8898
   4       -2.8316
   5       -2.7828
   6       -2.6764
   7       -2.6291
   8       -2.5947
   9       -2.2231
  10       -2.1646
  11       -2.1086
  12       -1.9176
  13       -1.9170
  14       -1.6233
  15       -1.5523
  16       -1.5161
  17       -1.4693
  18       -1.2022
  19       -1.1846
  20       -1.0169
  21       -1.0148
  22       -0.1434
  23        4.4228
  24        5.8370
  25        5.8627
  26        7.2923
  27        9.0118
  28        9.8456
 
  0.5000000E+00  0.1666667E+00  0.8333333E-01  0.1388889E-01
   1       -2.9463
   2       -2.9463
   3       -2.7767
   4       -2.7767
   5       -2.6781
   6       -2.6781
   7       -2.5750
   8       -2.5750
   9       -2.3334
  10       -2.3334
  11       -2.0699
  12       -2.0699
  13       -1.7783
  14       -1.7783
  15       -1.5802
  16       -1.5802
  17       -1.3014
  18       -1.3014
  19       -1.0187
  20       -1.0187
  21       -0.7995
  22       -0.7995
  23        5.1138
  24        5.1138
  25        6.5445
  26        6.5445
  27        9.4382
  28        9.4382
 
  0.2500000E+00  0.2500000E+00  0.8333333E-01  0.1388889E-01
   1       -3.4825
   2       -3.1098
   3       -3.0538
   4       -3.0538
   5       -2.8939
   6       -2.8939
   7       -2.7808
   8       -2.4201
   9       -2.0977
  10       -2.0930
  11       -1.8288
  12       -1.8288
  13       -1.7613
  14       -1.7072
  15       -1.4591
  16       -1.3836
  17       -1.3669
  18       -1.3669
  19       -1.0551
  20       -1.0551
  21       -1.0469
  22        2.1401
  23        2.1401
  24        5.0331
  25        6.5297
  26        8.6269
  27        9.3355
  28        9.3355
 
  0.3333333E+00  0.2500000E+00  0.8333333E-01  0.2777778E-01
   1       -3.2253
   2       -3.0141
   3       -2.9793
   4       -2.9208
   5       -2.7646
   6       -2.7408
   7       -2.6335
   8       -2.4464
   9       -2.0931
  10       -2.0915
  11       -2.0298
  12       -1.9902
  13       -1.9590
  14       -1.6835
  15       -1.5517
  16       -1.4949
  17       -1.4494
  18       -1.1974
  19       -1.1354
  20       -1.0939
  21       -1.0923
  22        1.1442
  23        2.6830
  24        5.5390
  25        5.6478
  26        8.4696
  27        8.8937
  28        9.8779
 
  0.4166667E+00  0.2500000E+00  0.8333333E-01  0.2777778E-01
   1       -3.0031
   2       -2.9152
   3       -2.8809
   4       -2.7592
   5       -2.6454
   6       -2.6214
   7       -2.5417
   8       -2.4801
   9       -2.2723
  10       -2.1681
  11       -2.1546
  12       -2.1415
  13       -1.9287
  14       -1.6469
  15       -1.6243
  16       -1.5535
  17       -1.5456
  18       -1.2402
  19       -1.1191
  20       -1.1191
  21       -0.8946
  22        0.2828
  23        3.2994
  24        4.7509
  25        6.2182
  26        7.6599
  27        9.2858
  28       10.4014
 
  0.5000000E+00  0.2500000E+00  0.8333333E-01  0.1388889E-01
   1       -2.8996
   2       -2.8996
   3       -2.7295
   4       -2.7295
   5       -2.5966
   6       -2.5966
   7       -2.5143
   8       -2.5143
   9       -2.2723
  10       -2.2723
  11       -2.2234
  12       -2.2234
  13       -1.7976
  14       -1.7976
  15       -1.6302
  16       -1.6302
  17       -1.3783
  18       -1.3783
  19       -1.1274
  20       -1.1274
  21       -0.4072
  22       -0.4072
  23        3.9869
  24        3.9869
  25        6.9101
  26        6.9101
  27        9.7949
  28        9.7949
 
  0.3333333E+00  0.3333333E+00  0.8333333E-01  0.1388889E-01
   1       -3.0596
   2       -2.9532
   3       -2.8666
   4       -2.8666
   5       -2.6094
   6       -2.6094
   7       -2.5074
   8       -2.4070
   9       -2.2132
  10       -2.2132
  11       -2.0668
  12       -2.0519
  13       -2.0083
  14       -1.7174
  15       -1.6461
  16       -1.5498
  17       -1.5498
  18       -1.1955
  19       -1.1955
  20       -1.1705
  21       -0.9103
  22        1.6727
  23        1.6727
  24        4.6191
  25        6.1083
  26        8.9733
  27        8.9733
  28        9.2179
 
  0.4166667E+00  0.3333333E+00  0.8333333E-01  0.2777778E-01
   1       -2.9265
   2       -2.8580
   3       -2.8355
   4       -2.7398
   5       -2.5609
   6       -2.4615
   7       -2.4491
   8       -2.3950
   9       -2.3138
  10       -2.2857
  11       -2.1355
  12       -2.1312
  13       -1.9369
  14       -1.7149
  15       -1.6829
  16       -1.6327
  17       -1.6275
  18       -1.3171
  19       -1.2397
  20       -1.2268
  21       -0.5030
  22        0.7908
  23        2.2782
  24        3.7429
  25        6.7134
  26        8.1457
  27        9.5790
  28        9.6600
 
  0.5000000E+00  0.3333333E+00  0.8333333E-01  0.1388889E-01
   1       -2.8498
   2       -2.8498
   3       -2.7414
   4       -2.7414
   5       -2.5417
   6       -2.5417
   7       -2.3751
   8       -2.3751
   9       -2.2796
  10       -2.2796
  11       -2.1986
  12       -2.1986
  13       -1.8199
  14       -1.8199
  15       -1.7106
  16       -1.7106
  17       -1.4670
  18       -1.4670
  19       -1.2509
  20       -1.2509
  21        0.0607
  22        0.0607
  23        2.9652
  24        2.9652
  25        7.3935
  26        7.3935
  27       10.2197
  28       10.2198
 
  0.4166667E+00  0.4166667E+00  0.8333333E-01  0.1388889E-01
   1       -2.8642
   2       -2.8169
   3       -2.7670
   4       -2.7670
   5       -2.4685
   6       -2.4685
   7       -2.4432
   8       -2.3871
   9       -2.2321
  10       -2.2321
  11       -2.0925
  12       -2.0366
  13       -1.9564
  14       -1.7990
  15       -1.7431
  16       -1.7431
  17       -1.6305
  18       -1.3744
  19       -1.3744
  20       -1.3206
  21       -0.0068
  22        1.3802
  23        1.3802
  24        2.8465
  25        7.3036
  26        8.7361
  27        8.7361
  28       10.1484
 
  0.5000000E+00  0.4166667E+00  0.8333333E-01  0.1388889E-01
   1       -2.8117
   2       -2.8117
   3       -2.7682
   4       -2.7682
   5       -2.4786
   6       -2.4786
   7       -2.4135
   8       -2.4135
   9       -2.1187
  10       -2.1187
  11       -2.1036
  12       -2.1036
  13       -1.8626
  14       -1.8626
  15       -1.8113
  16       -1.8113
  17       -1.5190
  18       -1.5190
  19       -1.3768
  20       -1.3768
  21        0.6173
  22        0.6173
  23        2.0614
  24        2.0614
  25        7.9784
  26        7.9784
  27        9.4219
  28        9.4219
 
  0.5000000E+00  0.5000000E+00  0.8333333E-01  0.3472222E-02
   1       -2.7887
   2       -2.7887
   3       -2.7887
   4       -2.7887
   5       -2.4423
   6       -2.4423
   7       -2.4423
   8       -2.4423
   9       -2.0221
  10       -2.0221
  11       -2.0221
  12       -2.0221
  13       -1.9006
  14       -1.9006
  15       -1.9006
  16       -1.9006
  17       -1.4821
  18       -1.4821
  19       -1.4821
  20       -1.4821
  21        1.2801
  22        1.2801
  23        1.2801
  24        1.2801
  25        8.6555
  26        8.6555
  27        8.6555
  28        8.6555
 
  0.1666667E+00  0.1666667E+00  0.1666667E+00  0.4629630E-02
   1       -3.8175
   2       -3.1987
   3       -3.1987
   4       -3.1987
   5       -3.0123
   6       -3.0123
   7       -3.0123
   8       -2.3425
   9       -2.1723
  10       -2.1723
  11       -1.5929
  12       -1.5929
  13       -1.4848
  14       -1.4848
  15       -1.4848
  16       -1.3659
  17       -1.3659
  18       -1.3659
  19       -0.9587
  20       -0.9587
  21       -0.9587
  22        3.0521
  23        3.0521
  24        3.0521
  25        8.6878
  26        8.6878
  27        8.6878
  28        9.7537
 
  0.2500000E+00  0.1666667E+00  0.1666667E+00  0.1388889E-01