   4   4   0   0
  0.1514880E+02  0.3927770E-09  0.3927770E-09  0.3927770E-09  0.5000000E-15
  1.000000000000000E-004
  CAR 
 unknown system                          
     21.77541584     -7.00540415  301      1.93011675      1.00000000
     -7.005  0.0000E+00  0.0000E+00
     -6.909  0.0000E+00  0.0000E+00
     -6.814  0.0000E+00  0.0000E+00
     -6.718  0.0000E+00  0.0000E+00
     -6.622  0.0000E+00  0.0000E+00
     -6.526  0.0000E+00  0.0000E+00
     -6.430  0.0000E+00  0.0000E+00
     -6.334  0.0000E+00  0.0000E+00
     -6.238  0.0000E+00  0.0000E+00
     -6.142  0.0000E+00  0.0000E+00
     -6.046  0.0000E+00  0.0000E+00
     -5.950  0.0000E+00  0.0000E+00
     -5.854  0.0000E+00  0.0000E+00
     -5.758  0.0000E+00  0.0000E+00
     -5.662  0.1697E-01  0.1628E-02
     -5.566  0.8671E-01  0.1179E-01
     -5.470  0.1417E+00  0.2822E-01
     -5.374  0.1670E+00  0.4770E-01
     -5.279  0.2007E+00  0.7125E-01
     -5.183  0.2264E+00  0.9645E-01
     -5.087  0.2493E+00  0.1256E+00
     -4.991  0.3301E+00  0.1590E+00
     -4.895  0.2820E+00  0.1896E+00
     -4.799  0.3215E+00  0.2260E+00
     -4.703  0.3114E+00  0.2635E+00
     -4.607  0.3313E+00  0.3042E+00
     -4.511  0.4549E+00  0.3500E+00
     -4.415  0.3571E+00  0.3896E+00
     -4.319  0.4234E+00  0.4389E+00
     -4.223  0.4196E+00  0.4859E+00
     -4.127  0.4544E+00  0.5392E+00
     -4.031  0.3791E+00  0.5901E+00
     -3.935  0.5180E+00  0.6497E+00
     -3.840  0.4517E+00  0.7064E+00
     -3.744  0.4916E+00  0.7646E+00
     -3.648  0.5993E+00  0.8287E+00
     -3.552  0.5049E+00  0.8895E+00
     -3.456  0.6217E+00  0.9612E+00
     -3.360  0.5624E+00  0.1029E+01
     -3.264  0.6255E+00  0.1104E+01
     -3.168  0.7339E+00  0.1185E+01
     -3.072  0.6762E+00  0.1262E+01
     -2.976  0.8710E+00  0.1353E+01
     -2.880  0.7251E+00  0.1435E+01
     -2.784  0.8423E+00  0.1535E+01
     -2.688  0.8390E+00  0.1633E+01
     -2.592  0.9048E+00  0.1737E+01
     -2.496  0.1028E+01  0.1853E+01
     -2.400  0.1049E+01  0.1972E+01
     -2.305  0.1183E+01  0.2112E+01
     -2.209  0.1302E+01  0.2264E+01
     -2.113  0.1437E+01  0.2435E+01
     -2.017  0.1980E+01  0.2655E+01
     -1.921  0.2622E+01  0.2941E+01
     -1.825  0.3020E+01  0.3287E+01
     -1.729  0.3482E+01  0.3678E+01
     -1.633  0.5092E+01  0.4247E+01
     -1.537  0.5213E+01  0.4836E+01
     -1.441  0.5474E+01  0.5480E+01
     -1.345  0.7089E+01  0.6271E+01
     -1.249  0.9480E+01  0.7347E+01
     -1.153  0.1118E+02  0.8599E+01
     -1.057  0.9757E+01  0.9738E+01
     -0.961  0.1027E+02  0.1090E+02
     -0.865  0.1004E+02  0.1205E+02
     -0.770  0.1113E+02  0.1333E+02
     -0.674  0.1413E+02  0.1493E+02
     -0.578  0.1583E+02  0.1673E+02
     -0.482  0.1824E+02  0.1879E+02
     -0.386  0.2083E+02  0.2114E+02
     -0.290  0.2181E+02  0.2367E+02
     -0.194  0.1438E+02  0.2533E+02
     -0.098  0.1278E+02  0.2680E+02
     -0.002  0.1664E+02  0.2864E+02
      0.094  0.1911E+02  0.3082E+02
      0.190  0.1683E+02  0.3279E+02
      0.286  0.1602E+02  0.3462E+02
      0.382  0.1800E+02  0.3666E+02
      0.478  0.2937E+02  0.3987E+02
      0.574  0.1428E+02  0.4177E+02
      0.669  0.1761E+01  0.4199E+02
      0.765  0.1745E+01  0.4219E+02
      0.861  0.1611E+01  0.4237E+02
      0.957  0.1451E+01  0.4254E+02
      1.053  0.1426E+01  0.4270E+02
      1.149  0.1378E+01  0.4286E+02
      1.245  0.1508E+01  0.4302E+02
      1.341  0.9229E+00  0.4314E+02
      1.437  0.1525E+01  0.4331E+02
      1.533  0.1097E+01  0.4343E+02
      1.629  0.1232E+01  0.4358E+02
      1.725  0.1101E+01  0.4371E+02
      1.821  0.1330E+01  0.4386E+02
      1.917  0.1094E+01  0.4398E+02
      2.013  0.1287E+01  0.4413E+02
      2.109  0.1120E+01  0.4425E+02
      2.204  0.1173E+01  0.4439E+02
      2.300  0.9574E+00  0.4450E+02
      2.396  0.1121E+01  0.4462E+02
      2.492  0.1066E+01  0.4475E+02
      2.588  0.9859E+00  0.4487E+02
      2.684  0.1094E+01  0.4500E+02
      2.780  0.9936E+00  0.4511E+02
      2.876  0.9621E+00  0.4522E+02
      2.972  0.1096E+01  0.4534E+02
      3.068  0.7939E+00  0.4544E+02
      3.164  0.1037E+01  0.4556E+02
      3.260  0.9306E+00  0.4567E+02
      3.356  0.8733E+00  0.4577E+02
      3.452  0.1011E+01  0.4588E+02
      3.548  0.9691E+00  0.4600E+02
      3.643  0.7749E+00  0.4609E+02
      3.739  0.1124E+01  0.4622E+02
      3.835  0.8753E+00  0.4632E+02
      3.931  0.7291E+00  0.4641E+02
      4.027  0.8706E+00  0.4651E+02
      4.123  0.9921E+00  0.4662E+02
      4.219  0.7531E+00  0.4670E+02
      4.315  0.8457E+00  0.4679E+02
      4.411  0.8002E+00  0.4688E+02
      4.507  0.7616E+00  0.4697E+02
      4.603  0.6653E+00  0.4705E+02
      4.699  0.1120E+01  0.4717E+02
      4.795  0.1016E+01  0.4729E+02
      4.891  0.1067E+01  0.4741E+02
      4.987  0.1159E+01  0.4754E+02
      5.083  0.1045E+01  0.4767E+02
      5.178  0.1017E+01  0.4779E+02
      5.274  0.1112E+01  0.4793E+02
      5.370  0.1164E+01  0.4806E+02
      5.466  0.1137E+01  0.4819E+02
      5.562  0.1102E+01  0.4832E+02
      5.658  0.9616E+00  0.4842E+02
      5.754  0.1125E+01  0.4856E+02
      5.850  0.1089E+01  0.4869E+02
      5.946  0.8951E+00  0.4880E+02
      6.042  0.1089E+01  0.4893E+02
      6.138  0.1045E+01  0.4905E+02
      6.234  0.1029E+01  0.4916E+02
      6.330  0.1028E+01  0.4928E+02
      6.426  0.1109E+01  0.4940E+02
      6.522  0.8818E+00  0.4950E+02
      6.618  0.1046E+01  0.4962E+02
      6.713  0.8857E+00  0.4973E+02
      6.809  0.8668E+00  0.4983E+02
      6.905  0.1062E+01  0.4995E+02
      7.001  0.9515E+00  0.5006E+02
      7.097  0.8106E+00  0.5016E+02
      7.193  0.1035E+01  0.5027E+02
      7.289  0.9557E+00  0.5037E+02
      7.385  0.8384E+00  0.5047E+02
      7.481  0.9051E+00  0.5058E+02
      7.577  0.1062E+01  0.5070E+02
      7.673  0.1147E+01  0.5082E+02
      7.769  0.1116E+01  0.5095E+02
      7.865  0.1344E+01  0.5110E+02
      7.961  0.1148E+01  0.5124E+02
      8.057  0.1259E+01  0.5138E+02
      8.152  0.1237E+01  0.5152E+02
      8.248  0.1227E+01  0.5166E+02
      8.344  0.1171E+01  0.5180E+02
      8.440  0.1191E+01  0.5194E+02
      8.536  0.1276E+01  0.5210E+02
      8.632  0.1287E+01  0.5225E+02
      8.728  0.1264E+01  0.5239E+02
      8.824  0.1272E+01  0.5254E+02
      8.920  0.1367E+01  0.5270E+02
      9.016  0.1146E+01  0.5284E+02
      9.112  0.1207E+01  0.5299E+02
      9.208  0.1326E+01  0.5314E+02
      9.304  0.1400E+01  0.5330E+02
      9.400  0.1336E+01  0.5346E+02
      9.496  0.1345E+01  0.5361E+02
      9.592  0.1158E+01  0.5375E+02
      9.687  0.1312E+01  0.5390E+02
      9.783  0.1367E+01  0.5406E+02
      9.879  0.1509E+01  0.5423E+02
      9.975  0.1403E+01  0.5439E+02
     10.071  0.1267E+01  0.5453E+02
     10.167  0.1240E+01  0.5467E+02
     10.263  0.1355E+01  0.5483E+02
     10.359  0.1592E+01  0.5501E+02
     10.455  0.1293E+01  0.5517E+02
     10.551  0.1389E+01  0.5532E+02
     10.647  0.1303E+01  0.5548E+02
     10.743  0.1406E+01  0.5563E+02
     10.839  0.1333E+01  0.5579E+02
     10.935  0.1513E+01  0.5595E+02
     11.031  0.1518E+01  0.5614E+02
     11.127  0.1301E+01  0.5629E+02
     11.222  0.1274E+01  0.5644E+02
     11.318  0.1405E+01  0.5660E+02
     11.414  0.1597E+01  0.5678E+02
     11.510  0.1411E+01  0.5694E+02
     11.606  0.1479E+01  0.5712E+02
     11.702  0.1287E+01  0.5727E+02
     11.798  0.1572E+01  0.5745E+02
     11.894  0.1557E+01  0.5763E+02
     11.990  0.1339E+01  0.5779E+02
     12.086  0.1312E+01  0.5794E+02
     12.182  0.1748E+01  0.5814E+02
     12.278  0.1459E+01  0.5831E+02
     12.374  0.1485E+01  0.5847E+02
     12.470  0.1608E+01  0.5866E+02
     12.566  0.1518E+01  0.5884E+02
     12.661  0.1557E+01  0.5901E+02
     12.757  0.1526E+01  0.5918E+02
     12.853  0.1686E+01  0.5937E+02
     12.949  0.1543E+01  0.5956E+02
     13.045  0.1630E+01  0.5974E+02
     13.141  0.1726E+01  0.5993E+02
     13.237  0.1533E+01  0.6012E+02
     13.333  0.1838E+01  0.6032E+02
     13.429  0.1527E+01  0.6049E+02
     13.525  0.1490E+01  0.6067E+02
     13.621  0.1494E+01  0.6085E+02
     13.717  0.1499E+01  0.6102E+02
     13.813  0.1429E+01  0.6118E+02
     13.909  0.1430E+01  0.6135E+02
     14.005  0.1038E+01  0.6148E+02
     14.101  0.1330E+01  0.6163E+02
     14.196  0.1293E+01  0.6177E+02
     14.292  0.1128E+01  0.6190E+02
     14.388  0.9866E+00  0.6202E+02
     14.484  0.9933E+00  0.6213E+02
     14.580  0.8853E+00  0.6223E+02
     14.676  0.7658E+00  0.6232E+02
     14.772  0.7529E+00  0.6240E+02
     14.868  0.7373E+00  0.6249E+02
     14.964  0.8188E+00  0.6258E+02
     15.060  0.6701E+00  0.6265E+02
     15.156  0.5803E+00  0.6272E+02
     15.252  0.5756E+00  0.6279E+02
     15.348  0.4978E+00  0.6285E+02
     15.444  0.6262E+00  0.6292E+02
     15.540  0.5333E+00  0.6298E+02
     15.636  0.5410E+00  0.6304E+02
     15.731  0.4074E+00  0.6309E+02
     15.827  0.5196E+00  0.6315E+02
     15.923  0.4718E+00  0.6320E+02
     16.019  0.2537E+00  0.6323E+02
     16.115  0.4452E+00  0.6328E+02
     16.211  0.2223E+00  0.6332E+02
     16.307  0.3565E+00  0.6336E+02
     16.403  0.3147E+00  0.6339E+02
     16.499  0.3587E+00  0.6344E+02
     16.595  0.1375E+00  0.6346E+02
     16.691  0.2998E+00  0.6350E+02
     16.787  0.2400E+00  0.6353E+02
     16.883  0.1310E+00  0.6355E+02
     16.979  0.3442E+00  0.6359E+02
     17.075  0.2308E+00  0.6361E+02
     17.170  0.2282E+00  0.6364E+02
     17.266  0.1681E+00  0.6366E+02
     17.362  0.2576E+00  0.6368E+02
     17.458  0.1993E+00  0.6370E+02
     17.554  0.1467E+00  0.6372E+02
     17.650  0.1986E+00  0.6375E+02
     17.746  0.6224E-01  0.6376E+02
     17.842  0.1776E+00  0.6378E+02
     17.938  0.1073E+00  0.6379E+02
     18.034  0.2431E+00  0.6382E+02
     18.130  0.6973E-01  0.6383E+02
     18.226  0.1954E+00  0.6385E+02
     18.322  0.1181E+00  0.6386E+02
     18.418  0.1485E+00  0.6387E+02
     18.514  0.6563E-01  0.6388E+02
     18.610  0.1077E+00  0.6389E+02
     18.705  0.1116E+00  0.6391E+02
     18.801  0.4719E-01  0.6391E+02
     18.897  0.1170E+00  0.6392E+02
     18.993  0.6233E-01  0.6393E+02
     19.089  0.8191E-01  0.6394E+02
     19.185  0.4335E-01  0.6394E+02
     19.281  0.8907E-01  0.6395E+02
     19.377  0.5370E-01  0.6396E+02
     19.473  0.6466E-01  0.6397E+02
     19.569  0.2785E-01  0.6397E+02
     19.665  0.4290E-01  0.6398E+02
     19.761  0.5043E-01  0.6398E+02
     19.857  0.1443E-01  0.6398E+02
     19.953  0.4683E-01  0.6399E+02
     20.049  0.2304E-01  0.6399E+02
     20.145  0.9840E-02  0.6399E+02
     20.240  0.3282E-01  0.6400E+02
     20.336  0.7652E-02  0.6400E+02
     20.432  0.8182E-02  0.6400E+02
     20.528  0.1787E-02  0.6400E+02
     20.624  0.0000E+00  0.6400E+02
     20.720  0.0000E+00  0.6400E+02
     20.816  0.0000E+00  0.6400E+02
     20.912  0.0000E+00  0.6400E+02
     21.008  0.0000E+00  0.6400E+02
     21.104  0.0000E+00  0.6400E+02
     21.200  0.0000E+00  0.6400E+02
     21.296  0.0000E+00  0.6400E+02
     21.392  0.0000E+00  0.6400E+02
     21.488  0.0000E+00  0.6400E+02
     21.584  0.0000E+00  0.6400E+02
     21.679  0.0000E+00  0.6400E+02
     21.775  0.0000E+00  0.6400E+02
