    4    4    1    1
  0.1514880E+02  0.3927770E-09  0.3927770E-09  0.3927770E-09  0.5000000E-15
  1.000000000000000E-004
  CAR 
 unknown system                          
   44 1330   32
 
  0.0000000E+00  0.0000000E+00  0.0000000E+00  0.2143347E-04
   1       -5.6972
   2       -1.7234
   3       -1.7234
   4       -1.7234
   5       -1.4104
   6       -1.4104
   7       -1.4104
   8       -0.4714
   9       -0.4714
  10       -0.4714
  11        0.0900
  12        0.0900
  13        0.4648
  14        0.4648
  15        0.4648
  16        0.5695
  17        0.5695
  18        0.5695
  19        0.5695
  20        0.5695
  21        0.5695
  22        3.6072
  23        3.6072
  24        3.6072
  25        7.4472
  26        7.4472
  27        7.4472
  28       13.2512
  29       13.2512
  30       13.2512
  31       13.2512
  32       13.2512
 
  0.2777778E-01  0.0000000E+00  0.0000000E+00  0.1286008E-03
   1       -5.6893
   2       -1.7237
   3       -1.7202
   4       -1.7202
   5       -1.4087
   6       -1.4086
   7       -1.4086
   8       -0.4732
   9       -0.4698
  10       -0.4698
  11        0.0883
  12        0.0907
  13        0.4627
  14        0.4627
  15        0.4641
  16        0.5593
  17        0.5593
  18        0.5669
  19        0.5669
  20        0.5695
  21        0.5695
  22        3.5379
  23        3.6247
  24        3.6247
  25        7.4508
  26        7.4508
  27        7.5332
  28       13.1888
  29       13.1888
  30       13.2066
  31       13.2066
  32       13.2622
 
  0.5555556E-01  0.0000000E+00  0.0000000E+00  0.1286008E-03
   1       -5.6657
   2       -1.7248
   3       -1.7105
   4       -1.7105
   5       -1.4035
   6       -1.4031
   7       -1.4031
   8       -0.4787
   9       -0.4652
  10       -0.4652
  11        0.0833
  12        0.0928
  13        0.4563
  14        0.4563
  15        0.4619
  16        0.5296
  17        0.5296
  18        0.5592
  19        0.5592
  20        0.5695
  21        0.5695
  22        3.3465
  23        3.6765
  24        3.6765
  25        7.4616
  26        7.4616
  27        7.7744
  28       13.0139
  29       13.0139
  30       13.0788
  31       13.0788
  32       13.2951
 
  0.8333333E-01  0.0000000E+00  0.0000000E+00  0.1286008E-03
   1       -5.6264
   2       -1.7271
   3       -1.6944
   4       -1.6944
   5       -1.3949
   6       -1.3939
   7       -1.3939
   8       -0.4878
   9       -0.4575
  10       -0.4575
  11        0.0750
  12        0.0963
  13        0.4456
  14        0.4456
  15        0.4584
  16        0.4823
  17        0.4823
  18        0.5465
  19        0.5465
  20        0.5695
  21        0.5695
  22        3.0694
  23        3.7606
  24        3.7606
  25        7.4798
  26        7.4798
  27        8.1349
  28       12.7543
  29       12.7543
  30       12.8831
  31       12.8831
  32       13.3497
 
  0.1111111E+00  0.0000000E+00  0.0000000E+00  0.1286008E-03
   1       -5.5715
   2       -1.7315
   3       -1.6723
   4       -1.6723
   5       -1.3830
   6       -1.3809
   7       -1.3809
   8       -0.5005
   9       -0.4468
  10       -0.4468
  11        0.0636
  12        0.1011
  13        0.4201
  14        0.4201
  15        0.4308
  16        0.4308
  17        0.4534
  18        0.5290
  19        0.5290
  20        0.5695
  21        0.5695
  22        2.7418
  23        3.8742
  24        3.8742
  25        7.5053
  26        7.5053
  27        8.5803
  28       12.4382
  29       12.4382
  30       12.6380
  31       12.6380
  32       13.4258
 
  0.1388889E+00  0.0000000E+00  0.0000000E+00  0.1286008E-03
   1       -5.5011
   2       -1.7392
   3       -1.6445
   4       -1.6445
   5       -1.3678
   6       -1.3642
   7       -1.3642
   8       -0.5166
   9       -0.4330
  10       -0.4330
  11        0.0492
  12        0.1073
  13        0.3462
  14        0.3462
  15        0.4121
  16        0.4121
  17        0.4470
  18        0.5069
  19        0.5069
  20        0.5696
  21        0.5696
  22        2.3895
  23        4.0143
  24        4.0143
  25        7.5386
  26        7.5386
  27        9.0860
  28       12.0873
  29       12.0873
  30       12.3603
  31       12.3603
  32       13.5232
 
  0.1666667E+00  0.0000000E+00  0.0000000E+00  0.1286008E-03
   1       -5.4152
   2       -1.7522
   3       -1.6114
   4       -1.6114
   5       -1.3494
   6       -1.3438
   7       -1.3438
   8       -0.5361
   9       -0.4163
  10       -0.4163
  11        0.0320
  12        0.1147
  13        0.2635
  14        0.2635
  15        0.3896
  16        0.3896
  17        0.4394
  18        0.4806
  19        0.4806
  20        0.5696
  21        0.5696
  22        2.0300
  23        4.1776
  24        4.1776
  25        7.5797
  26        7.5797
  27        9.6361
  28       11.7160
  29       11.7160
  30       12.0636
  31       12.0636
  32       13.6414
 
  0.1944444E+00  0.0000000E+00  0.0000000E+00  0.1286008E-03
   1       -5.3142
   2       -1.7728
   3       -1.5738
   4       -1.5738
   5       -1.3279
   6       -1.3195
   7       -1.3195
   8       -0.5586
   9       -0.3967
  10       -0.3967
  11        0.0122
  12        0.1234
  13        0.1747
  14        0.1747
  15        0.3636
  16        0.3636
  17        0.4305
  18        0.4504
  19        0.4504
  20        0.5696
  21        0.5696
  22        1.6756
  23        4.3617
  24        4.3617
  25        7.6291
  26        7.6291
  27       10.2205
  28       11.3339
  29       11.3339
  30       11.7578
  31       11.7578
  32       13.7801
 
  0.2222222E+00  0.0000000E+00  0.0000000E+00  0.1286008E-03
   1       -5.1982
   2       -1.8044
   3       -1.5323
   4       -1.5323
   5       -1.3036
   6       -1.2914
   7       -1.2914
   8       -0.5842
   9       -0.3742
  10       -0.3742
  11       -0.0098
  12        0.0821
  13        0.0821
  14        0.1332
  15        0.3345
  16        0.3345
  17        0.4167
  18        0.4167
  19        0.4204
  20        0.5697
  21        0.5697
  22        1.3357
  23        4.5640
  24        4.5640
  25        7.6870
  26        7.6870
  27       10.8329
  28       10.9470
  29       10.9470
  30       11.4506
  31       11.4506
  32       13.9388
 
  0.2500000E+00  0.0000000E+00  0.0000000E+00  0.1286008E-03
   1       -5.0674
   2       -1.8511
   3       -1.4877
   4       -1.4877
   5       -1.2765
   6       -1.2593
   7       -1.2593
   8       -0.6125
   9       -0.3489
  10       -0.3489
  11       -0.0336
  12       -0.0125
  13       -0.0125
  14        0.1441
  15        0.3028
  16        0.3028
  17        0.3799
  18        0.3799
  19        0.4092
  20        0.5697
  21        0.5697
  22        1.0185
  23        4.7827
  24        4.7827
  25        7.7538
  26        7.7538
  27       10.5595
  28       10.5595
  29       11.1470
  30       11.1470
  31       11.4689
  32       14.1170
 
  0.2777778E+00  0.0000000E+00  0.0000000E+00  0.1286008E-03
   1       -4.9223
   2       -1.9179
   3       -1.4412
   4       -1.4412
   5       -1.2470
   6       -1.2233
   7       -1.2233
   8       -0.6433
   9       -0.3209
  10       -0.3209
  11       -0.1075
  12       -0.1075
  13       -0.0589
  14        0.1561
  15        0.2693
  16        0.2693
  17        0.3405
  18        0.3405
  19        0.3970
  20        0.5698
  21        0.5698
  22        0.7314
  23        5.0162
  24        5.0162
  25        7.8300
  26        7.8300
  27       10.1739
  28       10.1739
  29       10.8510
  30       10.8510
  31       12.1257
  32       14.3141
 
  0.3055556E+00  0.0000000E+00  0.0000000E+00  0.1286008E-03
   1       -4.7633
   2       -2.0097
   3       -1.3940
   4       -1.3940
   5       -1.2151
   6       -1.1832
   7       -1.1832
   8       -0.6764
   9       -0.2903
  10       -0.2903
  11       -0.2018
  12       -0.2018
  13       -0.0850
  14        0.1689
  15        0.2346
  16        0.2346
  17        0.2989
  18        0.2989
  19        0.3839
  20        0.4810
  21        0.5698
  22        0.5698
  23        5.2633
  24        5.2633
  25        7.9158
  26        7.9158
  27        9.7922
  28        9.7922
  29       10.5655
  30       10.5655
  31       12.8011
  32       14.5296
 
  0.3333333E+00  0.0000000E+00  0.0000000E+00  0.1286008E-03
   1       -4.5909
   2       -2.1302
   3       -1.3475
   4       -1.3475
   5       -1.1811
   6       -1.1391
   7       -1.1391
   8       -0.7115
   9       -0.2946
  10       -0.2946
  11       -0.2573
  12       -0.2573
  13       -0.1111
  14        0.1826
  15        0.1998
  16        0.1998
  17        0.2555
  18        0.2555
  19        0.2724
  20        0.3700
  21        0.5698
  22        0.5698
  23        5.5229
  24        5.5229
  25        8.0115
  26        8.0115
  27        9.4158
  28        9.4158
  29       10.2926
  30       10.2926
  31       13.4937
  32       14.7630
 
  0.3611111E+00  0.0000000E+00  0.0000000E+00  0.1286008E-03
   1       -4.4058
   2       -2.2808
   3       -1.3033
   4       -1.3033
   5       -1.1453
   6       -1.0909
   7       -1.0909
   8       -0.7484
   9       -0.3850
  10       -0.3850
  11       -0.2220
  12       -0.2220
  13       -0.1366
  14        0.1073
  15        0.1663
  16        0.1663
  17        0.1970
  18        0.2109
  19        0.2109
  20        0.3554
  21        0.5699
  22        0.5699
  23        5.7942
  24        5.7942
  25        8.1171
  26        8.1171
  27        9.0455
  28        9.0455
  29       10.0342
  30       10.0342
  31       14.2021
  32       15.0135
 
  0.3888889E+00  0.0000000E+00  0.0000000E+00  0.1286008E-03
   1       -4.2089
   2       -2.4591
   3       -1.2632
   4       -1.2632
   5       -1.1079
   6       -1.0386
   7       -1.0386
   8       -0.7867
   9       -0.4725
  10       -0.4725
  11       -0.1845
  12       -0.1845
  13       -0.1602
  14       -0.0159
  15        0.1354
  16        0.1354
  17        0.1654
  18        0.1654
  19        0.2120
  20        0.3402
  21        0.5699
  22        0.5699
  23        6.0767
  24        6.0767
  25        8.2322
  26        8.2322
  27        8.6821
  28        8.6821
  29        9.7924
  30        9.7924
  31       14.9254
  32       15.2807
 
  0.4166667E+00  0.0000000E+00  0.0000000E+00  0.1286008E-03
   1       -4.0013
   2       -2.6600
   3       -1.2292
   4       -1.2292
   5       -1.0692
   6       -0.9821
   7       -0.9821
   8       -0.8261
   9       -0.5569
  10       -0.5569
  11       -0.1808
  12       -0.1450
  13       -0.1450
  14       -0.1022
  15        0.1089
  16        0.1089
  17        0.1195
  18        0.1195
  19        0.2275
  20        0.3246
  21        0.5699
  22        0.5699
  23        6.3696
  24        6.3696
  25        8.3261
  26        8.3261
  27        8.3551
  28        8.3551
  29        9.5698
  30        9.5698
  31       15.5640
  32       15.5707
 
  0.4444444E+00  0.0000000E+00  0.0000000E+00  0.1286008E-03
   1       -3.7846
   2       -2.8768
   3       -1.2031
   4       -1.2031
   5       -1.0294
   6       -0.9214
   7       -0.9214
   8       -0.8664
   9       -0.6376
  10       -0.6376
  11       -0.1966
  12       -0.1581
  13       -0.1038
  14       -0.1038
  15        0.0736
  16        0.0736
  17        0.0884
  18        0.0884
  19        0.2434
  20        0.3085
  21        0.5699
  22        0.5699
  23        6.6727
  24        6.6727
  25        7.9782
  26        7.9782
  27        8.4808
  28        8.4808
  29        9.3722
  30        9.3722
  31       15.8629
  32       15.8629
 
  0.4722222E+00  0.0000000E+00  0.0000000E+00  0.1286008E-03
   1       -3.5607
   2       -3.1027
   3       -1.1867
   4       -1.1867
   5       -0.9890
   6       -0.9071
   7       -0.8566
   8       -0.8566
   9       -0.7146
  10       -0.7146
  11       -0.2054
  12       -0.1903
  13       -0.0611
  14       -0.0611
  15        0.0279
  16        0.0279
  17        0.0754
  18        0.0754
  19        0.2596
  20        0.2923
  21        0.5700
  22        0.5700
  23        6.9854
  24        6.9854
  25        7.6385
  26        7.6385
  27        8.5935
  28        8.5935
  29        9.2163
  30        9.2163
  31       16.1767
  32       16.1767
 
  0.5000000E+00  0.0000000E+00  0.0000000E+00  0.6430041E-04
   1       -3.3322
   2       -3.3322
   3       -1.1811
   4       -1.1811
   5       -0.9481
   6       -0.9481
   7       -0.7876
   8       -0.7876
   9       -0.7876
  10       -0.7876
  11       -0.2045
  12       -0.2045
  13       -0.0171
  14       -0.0171
  15       -0.0171
  16       -0.0171
  17        0.0709
  18        0.0709
  19        0.2760
  20        0.2760
  21        0.5700
  22        0.5700
  23        7.3075
  24        7.3075
  25        7.3075
  26        7.3075
  27        8.6464
  28        8.6464
  29        9.1489
  30        9.1489
  31       16.5050
  32       16.5050
 
  0.2777778E-01  0.2777778E-01  0.0000000E+00  0.2572016E-03
   1       -5.6815
   2       -1.7205
   3       -1.7205
   4       -1.7169
   5       -1.4069
   6       -1.4069
   7       -1.4068
   8       -0.4742
   9       -0.4691
  10       -0.4683
  11        0.0878
  12        0.0902
  13        0.4606
  14        0.4619
  15        0.4619
  16        0.5510
  17        0.5568
  18        0.5568
  19        0.5669
  20        0.5669
  21        0.5678
  22        3.5552
  23        3.5552
  24        3.6421
  25        7.4544
  26        7.5369
  27        7.5369
  28       13.0252
  29       13.1997
  30       13.1997
  31       13.2175
  32       13.2175
 
  0.5555556E-01  0.2777778E-01  0.0000000E+00  0.5144033E-03
   1       -5.6579
   2       -1.7215
   3       -1.7107
   4       -1.7072
   5       -1.4017
   6       -1.4014
   7       -1.4013
   8       -0.4793
   9       -0.4649
  10       -0.4637
  11        0.0833
  12        0.0919
  13        0.4542
  14        0.4551
  15        0.4594
  16        0.5225
  17        0.5273
  18        0.5492
  19        0.5592
  20        0.5669
  21        0.5669
  22        3.3635
  23        3.6066
  24        3.6936
  25        7.4653
  26        7.5483
  27        7.7786
  28       12.7759
  29       13.0245
  30       13.0895
  31       13.2323
  32       13.2449
 
  0.8333333E-01  0.2777778E-01  0.0000000E+00  0.5144033E-03
   1       -5.6186
   2       -1.7237
   3       -1.6946
   4       -1.6912
   5       -1.3931
   6       -1.3922
   7       -1.3921
   8       -0.4883
   9       -0.4573
  10       -0.4561
  11        0.0752
  12        0.0953
  13        0.4428
  14        0.4436
  15        0.4553
  16        0.4759
  17        0.4813
  18        0.5368
  19        0.5465
  20        0.5667
  21        0.5669
  22        3.0863
  23        3.6899
  24        3.7772
  25        7.4834
  26        7.5674
  27        8.1396
  28       12.4724
  29       12.7646
  30       12.8935
  31       13.1144
  32       13.2866
 
  0.1111111E+00  0.2777778E-01  0.0000000E+00  0.5144033E-03
   1       -5.5637
   2       -1.7280
   3       -1.6724
   4       -1.6692
   5       -1.3812
   6       -1.3792
   7       -1.3792
   8       -0.5009
   9       -0.4466
  10       -0.4455
  11        0.0638
  12        0.1002
  13        0.4103
  14        0.4144
  15        0.4288
  16        0.4367
  17        0.4493
  18        0.5197
  19        0.5290
  20        0.5666
  21        0.5669
  22        2.7587
  23        3.8023
  24        3.8903
  25        7.5091
  26        7.5943
  27        8.5855
  28       12.1338
  29       12.4483
  30       12.6481
  31       12.9120
  32       13.3635
 
  0.1388889E+00  0.2777778E-01  0.0000000E+00  0.5144033E-03
   1       -5.4933
   2       -1.7357
   3       -1.6445
   4       -1.6415
   5       -1.3660
   6       -1.3626
   7       -1.3625
   8       -0.5170
   9       -0.4329
  10       -0.4319
  11        0.0495
  12        0.1065
  13        0.3400
  14        0.3411
  15        0.4102
  16        0.4141
  17        0.4412
  18        0.4987
  19        0.5069
  20        0.5666
  21        0.5670
  22        2.4068
  23        3.9407
  24        4.0297
  25        7.5423
  26        7.6293
  27        9.0915
  28       11.7742
  29       12.0971
  30       12.3700
  31       12.6575
  32       13.4596
 
  0.1666667E+00  0.2777778E-01  0.0000000E+00  0.5144033E-03
   1       -5.4075
   2       -1.7485
   3       -1.6114
   4       -1.6086
   5       -1.3476
   6       -1.3422
   7       -1.3421
   8       -0.5363
   9       -0.4162
  10       -0.4154
  11        0.0324
  12        0.1140
  13        0.2578
  14        0.2590
  15        0.3878
  16        0.3910
  17        0.4299
  18        0.4750
  19        0.4806
  20        0.5666
  21        0.5670
  22        2.0480
  23        4.1020
  24        4.1925
  25        7.5836
  26        7.6727
  27        9.6418
  28       11.4033
  29       11.7257
  30       12.0730
  31       12.3704
  32       13.5755
 
  0.1944444E+00  0.2777778E-01  0.0000000E+00  0.5144033E-03
   1       -5.3065
   2       -1.7690
   3       -1.5736
   4       -1.5710
   5       -1.3263
   6       -1.3180
   7       -1.3179
   8       -0.5588
   9       -0.3966
  10       -0.3960
  11        0.0127
  12        0.1228
  13        0.1692
  14        0.1708
  15        0.3619
  16        0.3647
  17        0.4126
  18        0.4504
  19        0.4515
  20        0.5667
  21        0.5670
  22        1.6949
  23        4.2833
  24        4.3759
  25        7.6330
  26        7.7248
  27       10.2263
  28       11.0273
  29       11.3435
  30       11.7670
  31       12.0651
  32       13.7135
 
  0.2222222E+00  0.2777778E-01  0.0000000E+00  0.5144033E-03
   1       -5.1905
   2       -1.8004
   3       -1.5319
   4       -1.5296
   5       -1.3020
   6       -1.2899
   7       -1.2899
   8       -0.5843
   9       -0.3741
  10       -0.3739
  11       -0.0091
  12        0.0766
  13        0.0788
  14        0.1328
  15        0.3329
  16        0.3355
  17        0.3857
  18        0.4166
  19        0.4321
  20        0.5667
  21        0.5670
  22        1.3573
  23        4.4823
  24        4.5776
  25        7.6911
  26        7.7859
  27       10.6505
  28       10.8388
  29       10.9566
  30       11.4595
  31       11.7522
  32       13.8704
 
  0.2500000E+00  0.2777778E-01  0.0000000E+00  0.5144033E-03
   1       -5.0598
   2       -1.8469
   3       -1.4872
   4       -1.4852
   5       -1.2750
   6       -1.2580
   7       -1.2579
   8       -0.6125
   9       -0.3490
  10       -0.3488
  11       -0.0326
  12       -0.0178
  13       -0.0152
  14        0.1438
  15        0.3014
  16        0.3038
  17        0.3494
  18        0.3798
  19        0.4164
  20        0.5668
  21        0.5671
  22        1.0440
  23        4.6971
  24        4.7958
  25        7.7580
  26        7.8564
  27       10.2758
  28       10.5690
  29       11.1558
  30       11.4388
  31       11.4749
  32       14.0488
 
  0.2777778E+00  0.2777778E-01  0.0000000E+00  0.5144033E-03
   1       -4.9148
   2       -1.9135
   3       -1.4406
   4       -1.4389
   5       -1.2455
   6       -1.2222
   7       -1.2219
   8       -0.6433
   9       -0.3217
  10       -0.3208
  11       -0.1127
  12       -0.1097
  13       -0.0574
  14        0.1560
  15        0.2680
  16        0.2702
  17        0.3051
  18        0.3404
  19        0.4016
  20        0.5668
  21        0.5671
  22        0.7643
  23        4.9261
  24        5.0288
  25        7.8343
  26        7.9368
  27        9.9048
  28       10.1834
  29       10.8597
  30       11.1303
  31       12.1316
  32       14.2415
 
  0.3055556E+00  0.2777778E-01  0.0000000E+00  0.5144033E-03
   1       -4.7558
   2       -2.0049
   3       -1.3931
   4       -1.3917
   5       -1.2137
   6       -1.1824
   7       -1.1820
   8       -0.6763
   9       -0.2921
  10       -0.2903
  11       -0.2068
  12       -0.2036
  13       -0.0827
  14        0.1690
  15        0.2334
  16        0.2355
  17        0.2493
  18        0.2988
  19        0.3857
  20        0.5307
  21        0.5669
  22        0.5671
  23        5.1679
  24        5.2755
  25        7.9200
  26        8.0274
  27        9.5391
  28        9.8017
  29       10.5742
  30       10.8304
  31       12.8070
  32       14.4546
 
  0.3333333E+00  0.2777778E-01  0.0000000E+00  0.5144033E-03
   1       -4.5835
   2       -2.1252
   3       -1.3464
   4       -1.3452
   5       -1.1798
   6       -1.1386
   7       -1.1380
   8       -0.7113
   9       -0.2994
  10       -0.2960
  11       -0.2608
  12       -0.2573
  13       -0.1074
  14        0.1694
  15        0.1829
  16        0.1988
  17        0.2007
  18        0.2555
  19        0.3452
  20        0.3850
  21        0.5669
  22        0.5671
  23        5.4215
  24        5.5347
  25        8.0154
  26        8.1285
  27        9.1795
  28        9.4253
  29       10.3014
  30       10.5422
  31       13.4995
  32       14.6858
 
  0.3611111E+00  0.2777778E-01  0.0000000E+00  0.5144033E-03
   1       -4.3985
   2       -2.2755
   3       -1.3020
   4       -1.3010
   5       -1.1440
   6       -1.0909
   7       -1.0899
   8       -0.7481
   9       -0.3895
  10       -0.3860
  11       -0.2292
  12       -0.2220
  13       -0.1292
  14        0.0612
  15        0.1655
  16        0.1671
  17        0.1975
  18        0.2109
  19        0.2530
  20        0.3609
  21        0.5670
  22        0.5672
  23        5.6860
  24        5.8057
  25        8.1196
  26        8.2400
  27        8.8276
  28        9.0551
  29       10.0435
  30       10.2678
  31       14.2077
  32       14.9321
 
  0.3888889E+00  0.2777778E-01  0.0000000E+00  0.5144033E-03
   1       -4.2017
   2       -2.4536
   3       -1.2616
   4       -1.2608
   5       -1.1067
   6       -1.0391
   7       -1.0377
   8       -0.7863
   9       -0.4768
  10       -0.4733
  11       -0.2038
  12       -0.1845
  13       -0.1411
  14       -0.0418
  15        0.1348
  16        0.1362
  17        0.1654
  18        0.1887
  19        0.2127
  20        0.3442
  21        0.5670
  22        0.5672
  23        5.9608
  24        6.0879
  25        8.2247
  26        8.3612
  27        8.4916
  28        8.6918
  29        9.8028
  30       10.0094
  31       14.9303
  32       15.1950
 
  0.4166667E+00  0.2777778E-01  0.0000000E+00  0.5144033E-03
   1       -3.9943
   2       -2.6542
   3       -1.2274
   4       -1.2267
   5       -1.0681
   6       -0.9832
   7       -0.9813
   8       -0.8256
   9       -0.5608
  10       -0.5573
  11       -0.1996
  12       -0.1450
  13       -0.1265
  14       -0.1196
  15        0.1084
  16        0.1095
  17        0.1195
  18        0.1349
  19        0.2285
  20        0.3277
  21        0.5671
  22        0.5672
  23        6.2451
  24        6.3805
  25        8.1144
  26        8.3359
  27        8.3869
  28        8.4895
  29        9.5828
  30        9.7693
  31       15.4738
  32       15.4978
 
  0.4444444E+00  0.2777778E-01  0.0000000E+00  0.5144033E-03
   1       -3.7777
   2       -2.8706
   3       -1.2011
   4       -1.2006
   5       -1.0285
   6       -0.9231
   7       -0.9208
   8       -0.8658
   9       -0.6412
  10       -0.6378
  11       -0.2087
  12       -0.1714
  13       -0.1038
  14       -0.0922
  15        0.0735
  16        0.0852
  17        0.0881
  18        0.0889
  19        0.2447
  20        0.3112
  21        0.5671
  22        0.5672
  23        6.5386
  24        6.6833
  25        7.7921
  26        7.9881
  27        8.5076
  28        8.6173
  29        9.3923
  30        9.5518
  31       15.7676
  32       15.7950
 
  0.4722222E+00  0.2777778E-01  0.0000000E+00  0.5144033E-03
   1       -3.5539
   2       -3.0964
   3       -1.1845
   4       -1.1842
   5       -0.9881
   6       -0.9064
   7       -0.8588
   8       -0.8561
   9       -0.7178
  10       -0.7145
  11       -0.2157
  12       -0.2014
  13       -0.0611
  14       -0.0516
  15        0.0279
  16        0.0377
  17        0.0753
  18        0.0757
  19        0.2612
  20        0.2945
  21        0.5671
  22        0.5672
  23        6.8406
  24        6.9959
  25        7.4683
  26        7.6485
  27        8.6338
  28        8.7175
  29        9.2590
  30        9.3670
  31       16.0758
  32       16.1058
 
  0.5000000E+00  0.2777778E-01  0.0000000E+00  0.2572016E-03
   1       -3.3256
   2       -3.3256
   3       -1.1787
   4       -1.1787
   5       -0.9473
   6       -0.9473
   7       -0.7904
   8       -0.7904
   9       -0.7873
  10       -0.7873
  11       -0.2147
  12       -0.2147
  13       -0.0171
  14       -0.0171
  15       -0.0080
  16       -0.0080
  17        0.0710
  18        0.0710
  19        0.2778
  20        0.2778
  21        0.5672
  22        0.5672
  23        7.1507
  24        7.1507
  25        7.3177
  26        7.3177
  27        8.7260
  28        8.7260
  29        9.2475
  30        9.2475
  31       16.3979
  32       16.4173
 
  0.5555556E-01  0.5555556E-01  0.0000000E+00  0.2572016E-03
   1       -5.6343
   2       -1.7116
   3       -1.7116
   4       -1.6976
   5       -1.3962
   6       -1.3962
   7       -1.3958
   8       -0.4827
   9       -0.4623
  10       -0.4593
  11        0.0814
  12        0.0910
  13        0.4479
  14        0.4514
  15        0.4514
  16        0.4981
  17        0.5205
  18        0.5205
  19        0.5592
  20        0.5592
  21        0.5628
  22        3.4140
  23        3.4140
  24        3.7442
  25        7.4762
  26        7.7913
  27        7.7913
  28       12.4569
  29       13.0564
  30       13.0564
  31       13.1214
  32       13.1214
 
  0.8333333E-01  0.5555556E-01  0.0000000E+00  0.5144033E-03
   1       -5.5950
   2       -1.7137
   3       -1.6954
   4       -1.6818
   5       -1.3877
   6       -1.3871
   7       -1.3867
   8       -0.4906
   9       -0.4558
  10       -0.4520
  11        0.0747
  12        0.0933
  13        0.4345
  14        0.4374
  15        0.4448
  16        0.4550
  17        0.4785
  18        0.5096
  19        0.5465
  20        0.5592
  21        0.5604
  22        3.1360
  23        3.4956
  24        3.8265
  25        7.4945
  26        7.8127
  27        8.1538
  28       12.1040
  29       12.7956
  30       12.9246
  31       13.1093
  32       13.1746
 
  0.1111111E+00  0.5555556E-01  0.0000000E+00  0.5144033E-03
   1       -5.5402
   2       -1.7178
   3       -1.6730
   4       -1.6600
   5       -1.3758
   6       -1.3742
   7       -1.3739
   8       -0.5026
   9       -0.4456
  10       -0.4417
  11        0.0640
  12        0.0980
  13        0.3926
  14        0.3962
  15        0.4229
  16        0.4346
  17        0.4425
  18        0.4955
  19        0.5290
  20        0.5592
  21        0.5593
  22        2.8084
  23        3.6055
  24        3.9380
  25        7.5202
  26        7.8428
  27        8.6010
  28       11.7319
  29       12.4785
  30       12.6782
  31       13.1830
  32       13.2169
 
  0.1388889E+00  0.5555556E-01  0.0000000E+00  0.5144033E-03
   1       -5.4699
   2       -1.7252
   3       -1.6448
   4       -1.6326
   5       -1.3608
   6       -1.3577
   7       -1.3574
   8       -0.5183
   9       -0.4322
  10       -0.4286
  11        0.0500
  12        0.1044
  13        0.3233
  14        0.3253
  15        0.4045
  16        0.4183
  17        0.4194
  18        0.4796
  19        0.5069
  20        0.5587
  21        0.5592
  22        2.4572
  23        3.7402
  24        4.0756
  25        7.5538
  26        7.8819
  27        9.1079
  28       11.3499
  29       12.1267
  30       12.3992
  31       13.0297
  32       13.2773
 
  0.1666667E+00  0.5555556E-01  0.0000000E+00  0.5144033E-03
   1       -5.3842
   2       -1.7376
   3       -1.6114
   4       -1.6000
   5       -1.3425
   6       -1.3374
   7       -1.3372
   8       -0.5374
   9       -0.4156
  10       -0.4127
  11        0.0333
  12        0.1121
  13        0.2416
  14        0.2454
  15        0.3824
  16        0.3942
  17        0.3977
  18        0.4635
  19        0.4805
  20        0.5584
  21        0.5592
  22        2.1003
  23        3.8966
  24        4.2366
  25        7.5952
  26        7.9303
  27        9.6589
  28       10.9646
  29       11.7548
  30       12.1013
  31       12.7882
  32       13.3916
 
  0.1944444E+00  0.5555556E-01  0.0000000E+00  0.5144033E-03
   1       -5.2833
   2       -1.7576
   3       -1.5732
   4       -1.5628
   5       -1.3213
   6       -1.3133
   7       -1.3133
   8       -0.5596
   9       -0.3961
  10       -0.3941
  11        0.0141
  12        0.1213
  13        0.1532
  14        0.1591
  15        0.3568
  16        0.3676
  17        0.3684
  18        0.4482
  19        0.4503
  20        0.5582
  21        0.5592
  22        1.7505
  23        4.0719
  24        4.4182
  25        7.6450
  26        7.9884
  27       10.2439
  28       10.5802
  29       11.3723
  30       11.7946
  31       12.5123
  32       13.5256
 
  0.2222222E+00  0.5555556E-01  0.0000000E+00  0.5144033E-03
   1       -5.1675
   2       -1.7885
   3       -1.5311
   4       -1.5219
   5       -1.2972
   6       -1.2856
   7       -1.2854
   8       -0.5848
   9       -0.3737
  10       -0.3729
  11       -0.0071
  12        0.0608
  13        0.0689
  14        0.1316
  15        0.3282
  16        0.3313
  17        0.3382
  18        0.4165
  19        0.4332
  20        0.5582
  21        0.5592
  22        1.4180
  23        4.2636
  24        4.6183
  25        7.7033
  26        8.0565
  27       10.1998
  28       10.8566
  29       10.9851
  30       11.4864
  31       12.2171
  32       13.6788
 
  0.2500000E+00  0.5555556E-01  0.0000000E+00  0.5144033E-03
   1       -5.0370
   2       -1.8344
   3       -1.4859
   4       -1.4779
   5       -1.2704
   6       -1.2541
   7       -1.2537
   8       -0.6128
   9       -0.3494
  10       -0.3485
  11       -0.0334