 vasp.4.6.28 25Jul05 complex 
 executed on             LinuxIFC date 2017.01.06  19:21:12
 running on    4 nodes
 distr:  one band on    1 nodes,    4 groups


--------------------------------------------------------------------------------------------------------


 INCAR:
 POTCAR:   PAW_PBE Al 04Jan2001                   
 POTCAR:   PAW_PBE Al 04Jan2001                   
   VRHFIN =Al: s2p1                                                             
   LEXCH  = PE                                                                  
   EATOM  =    53.5387 eV,    3.9350 Ry                                         
                                                                                
   TITEL  = PAW_PBE Al 04Jan2001                                                
   LULTRA =        F    use ultrasoft PP ?                                      
   IUNSCR =        1    unscreen: 0-lin 1-nonlin 2-no                           
   RPACOR =    1.500    partial core radius                                     
   POMASS =   26.982; ZVAL   =    3.000    mass and valenz                      
   RCORE  =    1.900    outmost cutoff radius                                   
   RWIGS  =    2.650; RWIGS  =    1.402    wigner-seitz radius (au A)           
   ENMAX  =  240.300; ENMIN  =  180.225 eV                                      
   ICORE  =        2    local potential                                         
   LCOR   =        T    correct aug charges                                     
   LPAW   =        T    paw PP                                                  
   EAUG   =  291.052                                                            
   DEXC   =    -.041                                                            
   RMAX   =    2.974    core radius for proj-oper                               
   RAUG   =    1.300    factor for augmentation sphere                          
   RDEP   =    1.966    radius for radial grids                                 
   QCUT   =   -4.203; QGAM   =    8.405    optimization parameters              
                                                                                
   Description                                                                  
     l     E      TYP  RCUT    TYP  RCUT                                        
     0   .000     23  1.900                                                     
     0   .000     23  1.900                                                     
     1   .000     23  1.900                                                     
     1  1.000     23  1.900                                                     
     2   .000      7  1.900                                                     
  local pseudopotential read in
  partial core-charges read in
  atomic valenz-charges read in
  non local Contribution for L=           0  read in
    real space projection operators read in
  non local Contribution for L=           0  read in
    real space projection operators read in
  non local Contribution for L=           1  read in
    real space projection operators read in
  non local Contribution for L=           1  read in
    real space projection operators read in
    PAW grid and wavefunctions read in
 
   number of l-projection  operators is LMAX  =           4
   number of lm-projection operators is LMMAX =           8
 

 ----------------------------------------------------------------------------- 
|                                                                             |
|  ADVICE TO THIS USER RUNNING 'VASP/VAMP'   (HEAR YOUR MASTER'S VOICE ...):  |
|                                                                             |
|      You have a (more or less) 'large supercell' and for larger cells       |
|      it might be more efficient to use real space projection operators      |
|      So try LREAL= Auto  in the INCAR   file.                               |
|      Mind: If you want to do an extremely accurate calculations keep the    |
|      reciprocal projection scheme          (i.e. LREAL=.FALSE.)             |
|                                                                             |
 ----------------------------------------------------------------------------- 

 PAW_PBE Al 04Jan2001                   :
 energy of atom  1       EATOM=  -53.5387
 kinetic energy error for atom=    0.0002 (will be added to EATOM!!)
 
 EXHCAR: internal setup
 exchange correlation table for  LEXCH =        8
   RHO(1)=    0.500       N(1)  =     2000
   RHO(2)=  100.500       N(2)  =     4000
 
 POSCAR: al100                                   
  positions in direct lattice
  No initial velocities read in
 


--------------------------------------------------------------------------------------------------------


 ion  position               nearest neighbor table
   1  0.750  0.750  0.500-   3 3.05   5 3.05  14 3.05  19 3.05  20 3.05  26 3.05  11 3.05   6 3.05
                            18 3.05  29 3.05  10 3.05   8 3.05
   2  0.750  0.750  0.000-  12 3.04  10 3.05  11 3.05   8 3.05  18 3.05  22 3.05  27 3.05  26 3.05
                             5 3.05  32 3.05   3 3.05  20 3.05
   3  0.750  0.000  0.250-  12 3.04   5 3.05   9 3.05   1 3.05  19 3.05  28 3.05  18 3.05   6 3.05
                            27 3.05  13 3.05   4 3.05   2 3.05
   4  0.750  0.250  0.500-   6 3.05   8 3.05  10 3.05  13 3.05  29 3.05  31 3.05  21 3.05  28 3.05
                            14 3.05  19 3.05   3 3.05  20 3.05
   5  0.000  0.750  0.250-   1 3.05   3 3.05  14 3.05  15 3.05  25 3.05   2 3.05   7 3.05  16 3.05
                            10 3.05  22 3.05   6 3.05  12 3.05
   6  0.000  0.000  0.500-   4 3.05   7 3.05   8 3.05  11 3.05  13 3.05  16 3.05   1 3.05   3 3.05
                            17 3.05  23 3.05  21 3.05   5 3.05
   7  0.250  0.750  0.500-   6 3.05  11 3.05  16 3.05  18 3.05  29 3.05  30 3.05  19 3.05  26 3.05
                             5 3.05  14 3.05  25 3.05  23 3.05
   8  0.750  0.000  0.750-  12 3.04   4 3.05   6 3.05  11 3.05   2 3.05  27 3.05  31 3.05  26 3.05
                            19 3.05  21 3.05   9 3.05   1 3.05
   9  0.750  0.250  0.000-  12 3.04   3 3.05  20 3.05  21 3.05  28 3.05  32 3.05  27 3.05  13 3.05
                            31 3.05  22 3.05  10 3.05   8 3.05
  10  0.750  0.500  0.250-   2 3.05   4 3.05  13 3.05  18 3.05  22 3.05  29 3.05  14 3.05  28 3.05
                             5 3.05  32 3.05   9 3.05   1 3.05
  11  0.000  0.750  0.750-   2 3.05   6 3.05   7 3.05   8 3.05  22 3.05  30 3.05  20 3.05   1 3.05
                            23 3.05  15 3.05  14 3.05  12 3.05
  12  0.998  0.000  0.000-   3 3.04   9 3.04   2 3.04   8 3.04   5 3.05  21 3.05  11 3.05  13 3.05
                            15 3.07  23 3.07  24 3.07  16 3.07
  13  0.000  0.250  0.250-   4 3.05   6 3.05  10 3.05  16 3.05  22 3.05  24 3.05  17 3.05   3 3.05
                             9 3.05  25 3.05  14 3.05  12 3.05
  14  0.000  0.500  0.500-   1 3.05   5 3.05  17 3.05  20 3.05  21 3.05  25 3.05   7 3.05  10 3.05
                             4 3.05  30 3.05  13 3.05  11 3.05
  15  0.250  0.750  0.000-   5 3.05  23 3.05  25 3.05  26 3.05  32 3.05  18 3.05  22 3.05  27 3.05
                            11 3.05  30 3.05  16 3.05  12 3.07
  16  0.250  0.000  0.250-   6 3.05   7 3.05  13 3.05  18 3.05  24 3.05  27 3.05   5 3.05  19 3.05
                            28 3.05  17 3.05  15 3.05  12 3.07
  17  0.250  0.250  0.500-  14 3.05  19 3.05  21 3.05  23 3.05  25 3.05  28 3.05   6 3.05  13 3.05
                            29 3.05  31 3.05  30 3.05  16 3.05
  18  0.500  0.750  0.250-   2 3.05   7 3.05  10 3.05  16 3.05  27 3.05  29 3.05   1 3.05  25 3.05
                             3 3.05  15 3.05  19 3.05  32 3.05
  19  0.500  0.000  0.500-   1 3.05   3 3.05  17 3.05  23 3.05  26 3.05  28 3.05   4 3.05   7 3.05
                             8 3.05  16 3.05  18 3.05  31 3.05
  20  0.750  0.500  0.750-   1 3.05   9 3.05  14 3.05  21 3.05  26 3.05  32 3.05  11 3.05  29 3.05
                            31 3.05  22 3.05   4 3.05   2 3.05
  21  0.000  0.250  0.750-   9 3.05  14 3.05  17 3.05  20 3.05  23 3.05   8 3.05   4 3.05  24 3.05
                            30 3.05  22 3.05   6 3.05  12 3.05
  22  0.000  0.500  0.000-   2 3.05  10 3.05  11 3.05  13 3.05  24 3.05  30 3.05  20 3.05   9 3.05
                            25 3.05  15 3.05  21 3.05   5 3.05
  23  0.250  0.000  0.750-  15 3.05  17 3.05  19 3.05  21 3.05  26 3.05  11 3.05   6 3.05  27 3.05
                            31 3.05  24 3.05   7 3.05  12 3.07
  24  0.250  0.250  0.000-  13 3.05  16 3.05  22 3.05  27 3.05  30 3.05  31 3.05  21 3.05  28 3.05
                            32 3.05  25 3.05  23 3.05  12 3.07
  25  0.250  0.500  0.250-   5 3.05  14 3.05  15 3.05  17 3.05  28 3.05  32 3.05  22 3.05  13 3.05
                            29 3.05  18 3.05  24 3.05   7 3.05
  26  0.500  0.750  0.750-   1 3.05  15 3.05  19 3.05  20 3.05  23 3.05  32 3.05   8 3.05   2 3.05
                            30 3.05   7 3.05  27 3.05  29 3.05
  27  0.500  0.000  0.000-   2 3.05   8 3.05  16 3.05  18 3.05  24 3.05  31 3.05   9 3.05  23 3.05
                            15 3.05   3 3.05  28 3.05  26 3.05
  28  0.500  0.250  0.250-   3 3.05   9 3.05  17 3.05  19 3.05  25 3.05  32 3.05  10 3.05  24 3.05
                            16 3.05   4 3.05  29 3.05  27 3.05
  29  0.500  0.500  0.500-   4 3.05   7 3.05  10 3.05  18 3.05  30 3.05  31 3.05  20 3.05  25 3.05
                            17 3.05   1 3.05  26 3.05  28 3.05
  30  0.250  0.500  0.750-   7 3.05  11 3.05  22 3.05  24 3.05  29 3.05  31 3.05  26 3.05  14 3.05
                            21 3.05  32 3.05  17 3.05  15 3.05
  31  0.500  0.250  0.750-   4 3.05   8 3.05  24 3.05  27 3.05  29 3.05  30 3.05   9 3.05  17 3.05
                            20 3.05  23 3.05  19 3.05  32 3.05
  32  0.500  0.500  0.000-   9 3.05  15 3.05  20 3.05  25 3.05  26 3.05  28 3.05   2 3.05  10 3.05
                            24 3.05  30 3.05  18 3.05  31 3.05
 
  LATTYP: Found a simple cubic cell.
 ALAT       =     8.6398348600
  
  Lattice vectors:
  
 A1 = (   8.6398348600,   0.0000000000,   0.0000000000)
 A2 = (   0.0000001600,   8.6398348600,   0.0000000000)
 A3 = (   0.0000001600,   0.0000001600,   8.6398348600)
 Subroutine PRICEL returns:
 Original cell was already a primitive cell.
 

Analysis of symmetry for initial positions (statically):

 Routine SETGRP: Setting up the symmetry group for a 
 simple cubic supercell.


 Subroutine GETGRP returns: Found  8 space group operations
 (whereof  8 operations were pure point group operations)
 out of a pool of 48 trial point group operations.


The static configuration has the point symmetry C_4v.

Analysis of symmetry for dynamics (positions and initial velocities):

 Subroutine DYNSYM returns: Found  8 space group operations
 (whereof  8 operations were pure point group operations)
 out of a pool of  8 trial space group operations
 (whereof  8 operations were pure point group operations)
 and found also     1 'primitive' translations


The dynamic configuration has the point symmetry C_4v.
 
 
 KPOINTS: Automatic mesh                          

Automatic generation of k-mesh.
 
 Subroutine IBZKPT returns following result:
 ===========================================
 
 Found      6 irreducible k-points:
 
 Following reciprocal coordinates:
            Coordinates               Weight
  0.000000  0.000000  0.000000      1.000000
  0.333333  0.000000  0.000000      2.000000
  0.000000  0.333333  0.000000      4.000000
  0.333333  0.333333  0.000000      8.000000
  0.000000  0.333333  0.333333      4.000000
  0.333333  0.333333  0.333333      8.000000
 
 Following cartesian coordinates:
            Coordinates               Weight
  0.000000  0.000000  0.000000      1.000000
  0.038581 -0.000000 -0.000000      2.000000
  0.000000  0.038581 -0.000000      4.000000
  0.038581  0.038581 -0.000000      8.000000
  0.000000  0.038581  0.038581      4.000000
  0.038581  0.038581  0.038581      8.000000
 


--------------------------------------------------------------------------------------------------------




 Dimension of arrays:
   k-Points           NKPTS =      6   number of bands    NBANDS=     68
   number of dos      NEDOS =    301   number of ions     NIONS =     32
   non local maximal  LDIM  =      4   non local SUM 2l+1 LMDIM =      8
   total plane-waves  NPLWV = 343000
   max r-space proj   IRMAX =      1   max aug-charges    IRDMAX= 165771
   dimension x,y,z NGX =    70 NGY =   70 NGZ =   70
   dimension x,y,z NGXF=   140 NGYF=  140 NGZF=  140
   support grid    NGXF=   280 NGYF=  280 NGZF=  280
   ions per type =              32
 NGX,Y,Z   is equivalent  to a cutoff of  13.47, 13.47, 13.47 a.u.
 NGXF,Y,Z  is equivalent  to a cutoff of  26.94, 26.94, 26.94 a.u.


 I would recommend the setting:
   dimension x,y,z NGX =    69 NGY =   69 NGZ =   69
 SYSTEM =  al100                                   
 POSCAR =  al100                                   

 Startparameter for this run:
   NWRITE =      2    write-flag & timer
   PREC   = accura    medium, high low
   ISTART =      1    job   : 0-new  1-cont  2-samecut
   ICHARG =      0    charge: 1-file 2-atom 10-const
   ISPIN  =      1    spin polarized calculation?
   LNONCOLLINEAR =      F non collinear calculations
   LSORBIT =      F    spin-orbit coupling
   INIWAV =      1    electr: 0-lowe 1-rand  2-diag
   LASPH  =      F    aspherical Exc in radial PAW
   METAGGA=      F    non-selfconsistent MetaGGA calc.

 Electronic Relaxation 1
   ENCUT  =  600.0 eV  44.10 Ry    6.64 a.u.  17.26 17.26 17.26*2*pi/ulx,y,z
   ENINI  =  600.0     initial cutoff
   ENAUG  =  291.1 eV  augmentation charge cutoff
   NELM   =     60;   NELMIN=  2; NELMDL=  0     # of ELM steps 
   EDIFF  = 0.1E-04   stopping-criterion for ELM
   LREAL  =      F    real-space projection
   LCOMPAT=      F    compatible to vasp.4.4
   LREAL_COMPAT= F    compatible to vasp.4.5.1-3
   GGA_COMPAT  = T    GGA compatible to vasp.4.4-vasp.4.6
   LMAXPAW     = -100 max onsite density
   LMAXMIX     =    2 max onsite mixed and CHGCAR
   VOSKOWN=      1    Vosko Wilk Nusair interpolation
   ROPT   =    0.00000
 Ionic relaxation
   EDIFFG = -.2E-01   stopping-criterion for IOM
   NSW    =      0    number of steps for IOM
   NBLOCK =      1;   KBLOCK =      1    inner block; outer block 
   IBRION =     -1    ionic relax: 0-MD 1-quasi-New 2-CG
   NFREE  =      0    steps in history (QN), initial steepest desc. (CG)
   ISIF   =      2    stress and relaxation
   IWAVPR =     10    prediction:  0-non 1-charg 2-wave 3-comb
   ISYM   =      2    0-nonsym 1-usesym 2-fastsym
   LCORR  =      T    Harris-Foulkes like correction to forces

   POTIM  =   0.50    time-step for ionic-motion
   TEIN   =    0.0    initial temperature
   TEBEG  =    0.0;   TEEND  =   0.0 temperature during run
   SMASS  =  -3.00    Nose mass-parameter (am)
   estimated Nose-frequenzy (Omega)   =  0.10E-29 period in steps =****** mass=  -0.171E-26a.u.
   NPACO  =    256;   APACO  = 16.0  distance and # of slots for P.C.
   PSTRESS=    0.0 pullay stress

  Mass of Ions in am
   POMASS =  26.98
  Ionic Valenz
   ZVAL   =   3.00
  Atomic Wigner-Seitz radii
   RWIGS  =   1.18
   NELECT =      96.0000    total number of electrons
   NUPDOWN=      -1.0000    fix difference up-down

 DOS related values:
   EMIN   =  10.00;   EMAX   =-10.00  energy-range for DOS
   ISMEAR =     1;   SIGMA  =   0.20  broadening in eV -4-tet -1-fermi 0-gaus

 Electronic relaxation 2 (details)
   IALGO  =     38    algorithm
   LDIAG  =      T    sub-space diagonalisation
   IMIX   =      4    mixing-type and parameters
     AMIX     =   0.40;   BMIX     =  1.00
     AMIX_MAG =   1.60;   BMIX_MAG =  1.00
     AMIN     =   0.10
     WC   =   100.;   INIMIX=   1;  MIXPRE=   1

 Intra band minimization:
   WEIMIN = 0.0000     energy-eigenvalue tresh-hold
   EBREAK =  0.38E-07  absolut break condition
   DEPER  =   0.30     relativ break condition  

   TIME   =   0.10     timestep for ELM

  volume/ion in A,a.u.               =      20.15       136.01
  Fermi-wavevector in a.u.,eV,Ry     =   0.867614 10.241837  0.752754

 Second variation
   LSECVAR=     F    do a second variation
 
 Write flags
   LWAVE  =      F    write WAVECAR
   LCHARG =      F    write CHGCAR
   LVTOT  =      F    write LOCPOT, local potential
   LELF   =      F    write electronic localiz. function (ELF)
   LORBIT =      0    0 simple, 1 ext, 2 COOP (PROOUT)


 Dipole corrections
   IDIPOL =      0    1-x, 2-y, 3-z
   LDIPOL =      F    correct potential



--------------------------------------------------------------------------------------------------------


 Static calculation
 charge density will be updated during run
 non-spin polarized calculation
 Variant of blocked Davidson
 Davidson routine will perform the subspace rotation
 performe sub-space diagonalisation
    after iterative eigenvector-optimisation
 modified Broyden-mixing scheme, WC =      100.0
 initial mixing is a Kerker type mixing with AMIX =  0.4000 and BMIX =      1.0000
 Hartree-type preconditioning will be used
 using additional bands           20
 reciprocal scheme for non local part
 use partial core corrections
 calculate Harris-corrections to forces 
   (improved forces if not selfconsistent)
 use gradient corrections 
 use of overlap-Matrix (Vanderbilt PP)
 Methfessel and Paxton  Order N= 1 SIGMA  =   0.20


--------------------------------------------------------------------------------------------------------


  energy-cutoff  :      600.00
  volume of cell :      644.94
      direct lattice vectors                 reciprocal lattice vectors
     8.639834860  0.000000000  0.000000000     0.115742953 -0.000000002 -0.000000002
     0.000000160  8.639834860  0.000000000     0.000000000  0.115742953 -0.000000002
     0.000000160  0.000000160  8.639834860     0.000000000  0.000000000  0.115742953

  length of vectors
     8.639834860  8.639834860  8.639834860     0.115742953  0.115742953  0.115742953


 
 old parameters found on file WAVECAR:
  energy-cutoff  :      600.00
  volume of cell :      644.94
      direct lattice vectors                 reciprocal lattice vectors
     8.639834860  0.000000000  0.000000000     0.115742953 -0.000000002 -0.000000002
     0.000000160  8.639834860  0.000000000     0.000000000  0.115742953 -0.000000002
     0.000000160  0.000000160  8.639834860     0.000000000  0.000000000  0.115742953

  length of vectors

 
 k-points in units of 2pi/SCALE and weight: Automatic mesh                          
   0.00000000  0.00000000  0.00000000       0.037
   0.03858098 -0.00000000 -0.00000000       0.074
   0.00000000  0.03858098 -0.00000000       0.148
   0.03858098  0.03858098 -0.00000000       0.296
   0.00000000  0.03858098  0.03858098       0.148
   0.03858098  0.03858098  0.03858098       0.296
 
 k-points in reciprocal lattice and weights: Automatic mesh                          
   0.00000000  0.00000000  0.00000000       0.037
   0.33333333  0.00000000  0.00000000       0.074
   0.00000000  0.33333333  0.00000000       0.148
   0.33333333  0.33333333  0.00000000       0.296
   0.00000000  0.33333333  0.33333333       0.148
   0.33333333  0.33333333  0.33333333       0.296
 
 position of ions in fractional coordinates (direct lattice) 
   0.75000000  0.75000000  0.50000000
   0.75000000  0.75000000  0.00000000
   0.75000000  0.00000000  0.25000000
   0.75000000  0.25000000  0.50000000
   0.00000000  0.75000000  0.25000000
   0.00000000  0.00000000  0.50000000
   0.25000000  0.75000000  0.50000000
   0.75000000  0.00000000  0.75000000
   0.75000000  0.25000000  0.00000000
   0.75000000  0.50000000  0.25000000
   0.00000000  0.75000000  0.75000000
   0.99768500  0.00000000  0.00000000
   0.00000000  0.25000000  0.25000000
   0.00000000  0.50000000  0.50000000
   0.25000000  0.75000000  0.00000000
   0.25000000  0.00000000  0.25000000
   0.25000000  0.25000000  0.50000000
   0.50000000  0.75000000  0.25000000
   0.50000000  0.00000000  0.50000000
   0.75000000  0.50000000  0.75000000
   0.00000000  0.25000000  0.75000000
   0.00000000  0.50000000  0.00000000
   0.25000000  0.00000000  0.75000000
   0.25000000  0.25000000  0.00000000
   0.25000000  0.50000000  0.25000000
   0.50000000  0.75000000  0.75000000
   0.50000000  0.00000000  0.00000000
   0.50000000  0.25000000  0.25000000
   0.50000000  0.50000000  0.50000000
   0.25000000  0.50000000  0.75000000
   0.50000000  0.25000000  0.75000000
   0.50000000  0.50000000  0.00000000
 
 position of ions in cartesian coordinates  (Angst):
   6.47987635  6.47987623  4.31991743
   6.47987627  6.47987615  0.00000000
   6.47987619  0.00000004  2.15995872
   6.47987627  2.15995880  4.31991743
   0.00000016  6.47987619  2.15995872
   0.00000008  0.00000008  4.31991743
   2.15995892  6.47987623  4.31991743
   6.47987627  0.00000012  6.47987615
   6.47987619  2.15995872  0.00000000
   6.47987627  4.31991747  2.15995872
   0.00000024  6.47987627  6.47987615
   8.61983364  0.00000000  0.00000000
   0.00000008  2.15995876  2.15995872
   0.00000016  4.31991751  4.31991743
   2.15995884  6.47987615  0.00000000
   2.15995876  0.00000004  2.15995872
   2.15995884  2.15995880  4.31991743
   4.31991759  6.47987619  2.15995872
   4.31991751  0.00000008  4.31991743
   6.47987635  4.31991755  6.47987615
   0.00000016  2.15995884  6.47987615
   0.00000008  4.31991743  0.00000000
   2.15995884  0.00000012  6.47987615
   2.15995876  2.15995872  0.00000000
   2.15995884  4.31991747  2.15995872
   4.31991767  6.47987627  6.47987615
   4.31991743  0.00000000  0.00000000
   4.31991751  2.15995876  2.15995872
   4.31991759  4.31991751  4.31991743
   2.15995892  4.31991755  6.47987615
   4.31991759  2.15995884  6.47987615
   4.31991751  4.31991743  0.00000000
 


--------------------------------------------------------------------------------------------------------


 k-point  1 :  0.00000.00000.0000  plane waves:  21559
 k-point  2 :  0.33330.00000.0000  plane waves:  21526
 k-point  3 :  0.00000.33330.0000  plane waves:  21526
 k-point  4 :  0.33330.33330.0000  plane waves:  21508
 k-point  5 :  0.00000.33330.3333  plane waves:  21508
 k-point  6 :  0.33330.33330.3333  plane waves:  21521

 maximum and minimum number of plane-waves per node :  21559 21508

 maximum number of plane-waves:  21559
 maximal index in each direction: 
   IXMAX= 17   IYMAX= 17   IZMAX= 17
   IXMIN=-17   IYMIN=-17   IZMIN=-17

 NGX is ok and might be reduce to  70
 NGY is ok and might be reduce to  70
 NGZ is ok and might be reduce to  70

 parallel 3dFFT wavefunction:
    minimum data exchange during FFTs selected (reduces bandwidth)
 parallel 3dFFT charge:
    minimum data exchange during FFTs selected (reduces bandwidth)

 For storing wavefunctions  140.51 MBYTES are necessary
 For predicting wavefunctions   54.44 MBYTES are necessary
Broyden mixing: mesh for mixing (old mesh)
   NGX = 35   NGY = 35   NGZ = 35
  (NGX  =140   NGY  =140   NGZ  =140)
 gives a total of  42875 points
 charge density for first step will be calculated from the start-wavefunctions


--------------------------------------------------------------------------------------------------------


 Maximum index for augmentation-charges        40225 (set IRDMAX)


--------------------------------------------------------------------------------------------------------


 initial charge from wavefunction
 First call to EWALD:  gamma=   0.205
 Maximum number of real-space cells 3x 3x 3
 Maximum number of reciprocal cells 3x 3x 3

    FEWALD:  VPU time    0.01: CPU time    0.01


----------------------------------------- Iteration    1(   1)  ---------------------------------------


    POTLOK:  VPU time    1.04: CPU time    1.04
    SETDIJ:  VPU time    0.88: CPU time    0.89
    EDDAV :  VPU time   42.11: CPU time   42.18
    DOS   :  VPU time    0.00: CPU time   -0.00
    CHARGE:  VPU time    3.51: CPU time    3.51
    MIXING:  VPU time    0.02: CPU time    0.02
    ------------------------------------------
      LOOP:  VPU time   47.57: CPU time   47.64

 eigenvalue-minimisations  :  1120
 total energy-change (2. order) :-0.1160787E+03  (-0.4982556E+01)
 number of electron   96.0000000 magnetization 
 augmentation part    -1.3939279 magnetization 

 Broyden mixing:
  rms(total) = 0.26987E-01    rms(broyden)= 0.24762E-01
  rms(prec ) = 0.85618E-01
  weight for this iteration     100.00

 Free energy of the ion-electron system (eV)
  ---------------------------------------------------
  alpha Z        PSCENC =        -5.33297230
  Ewald energy   TEWEN  =     -2200.73837284
  -1/2 Hartree   DENC   =        -3.74501639
  -V(xc)+E(xc)   XCENC  =      -847.86395890
  PAW double counting   =      1126.79652382     -103.87620381
  entropy T*S    EENTRO =        -0.01851037
  eigenvalues    EBANDS =       205.46623680
  atomic energy  EATOM  =      1713.23359074
  ---------------------------------------------------
  free energy    TOTEN  =      -116.07868325 eV

  energy without entropy =     -116.06017288  energy(sigma->0) =     -116.07251312


--------------------------------------------------------------------------------------------------------




----------------------------------------- Iteration    1(   2)  ---------------------------------------


    POTLOK:  VPU time    1.05: CPU time    1.05
    SETDIJ:  VPU time    0.88: CPU time    0.88
    EDDAV :  VPU time   37.06: CPU time   37.09
    DOS   :  VPU time    0.00: CPU time   -0.00
    CHARGE:  VPU time    3.40: CPU time    3.40
    MIXING:  VPU time    0.02: CPU time    0.02
    ------------------------------------------
      LOOP:  VPU time   42.42: CPU time   42.46

 eigenvalue-minimisations  :   956
 total energy-change (2. order) :-0.1491682E+00  (-0.1596242E+00)
 number of electron   96.0000000 magnetization 
 augmentation part    -1.3913666 magnetization 

 Broyden mixing:
  rms(total) = 0.93016E-02    rms(broyden)= 0.93016E-02
  rms(prec ) = 0.21127E-01
  weight for this iteration     100.00

 eigenvalues of (default mixing * dielectric matrix)
  average eigenvalue GAMMA=   1.1877
  1.1877

 Free energy of the ion-electron system (eV)
  ---------------------------------------------------
  alpha Z        PSCENC =        -5.33297230
  Ewald energy   TEWEN  =     -2200.73837284
  -1/2 Hartree   DENC   =        -3.74193491
  -V(xc)+E(xc)   XCENC  =      -848.56820778
  PAW double counting   =      1126.67207973     -103.74136496
  entropy T*S    EENTRO =        -0.01869443
  eigenvalues    EBANDS =       206.00802532
  atomic energy  EATOM  =      1713.23359074
  ---------------------------------------------------
  free energy    TOTEN  =      -116.22785143 eV

  energy without entropy =     -116.20915700  energy(sigma->0) =     -116.22161996


--------------------------------------------------------------------------------------------------------




----------------------------------------- Iteration    1(   3)  ---------------------------------------


    POTLOK:  VPU time    1.08: CPU time    1.09
    SETDIJ:  VPU time    0.86: CPU time    0.86
    EDDAV :  VPU time   36.94: CPU time   36.97
    DOS   :  VPU time    0.00: CPU time   -0.00
    CHARGE:  VPU time    3.46: CPU time    3.47
    MIXING:  VPU time    0.03: CPU time    0.03
    ------------------------------------------
      LOOP:  VPU time   42.38: CPU time   42.41

 eigenvalue-minimisations  :   952
 total energy-change (2. order) :-0.1547440E-02  (-0.2547842E-02)
 number of electron   96.0000000 magnetization 
 augmentation part    -1.3911134 magnetization 

 Broyden mixing:
  rms(total) = 0.40695E-02    rms(broyden)= 0.40695E-02
  rms(prec ) = 0.73057E-02
  weight for this iteration     100.00

 eigenvalues of (default mixing * dielectric matrix)
  average eigenvalue GAMMA=   1.2073
  1.2005  1.2141

 Free energy of the ion-electron system (eV)
  ---------------------------------------------------
  alpha Z        PSCENC =        -5.33297230
  Ewald energy   TEWEN  =     -2200.73837284
  -1/2 Hartree   DENC   =        -3.74558483
  -V(xc)+E(xc)   XCENC  =      -848.57076436
  PAW double counting   =      1126.67656850     -103.74246936
  entropy T*S    EENTRO =        -0.01873592
  eigenvalues    EBANDS =       206.00934150
  atomic energy  EATOM  =      1713.23359074
  ---------------------------------------------------
  free energy    TOTEN  =      -116.22939888 eV

  energy without entropy =     -116.21066295  energy(sigma->0) =     -116.22315357


--------------------------------------------------------------------------------------------------------




----------------------------------------- Iteration    1(   4)  ---------------------------------------


    POTLOK:  VPU time    1.07: CPU time    1.07
    SETDIJ:  VPU time    0.89: CPU time    0.89
    EDDAV :  VPU time   38.50: CPU time   38.54
    DOS   :  VPU time    0.00: CPU time   -0.00
    CHARGE:  VPU time    3.53: CPU time    3.53
    MIXING:  VPU time    0.03: CPU time    0.03
    ------------------------------------------
      LOOP:  VPU time   44.02: CPU time   44.07

 eigenvalue-minimisations  :   980
 total energy-change (2. order) : 0.2165443E-04  (-0.7961954E-04)
 number of electron   96.0000000 magnetization 
 augmentation part    -1.3909554 magnetization 

 Broyden mixing:
  rms(total) = 0.19273E-02    rms(broyden)= 0.19273E-02
  rms(prec ) = 0.30575E-02
  weight for this iteration     100.00

 eigenvalues of (default mixing * dielectric matrix)
  average eigenvalue GAMMA=   1.3887
  1.0469  1.0469  2.0725

 Free energy of the ion-electron system (eV)
  ---------------------------------------------------
  alpha Z        PSCENC =        -5.33297230
  Ewald energy   TEWEN  =     -2200.73837284
  -1/2 Hartree   DENC   =        -3.74886702
  -V(xc)+E(xc)   XCENC  =      -848.57282134
  PAW double counting   =      1126.69427706     -103.75832040
  entropy T*S    EENTRO =        -0.01873361
  eigenvalues    EBANDS =       206.01284249
  atomic energy  EATOM  =      1713.23359074
  ---------------------------------------------------
  free energy    TOTEN  =      -116.22937722 eV

  energy without entropy =     -116.21064361  energy(sigma->0) =     -116.22313269


--------------------------------------------------------------------------------------------------------




----------------------------------------- Iteration    1(   5)  ---------------------------------------


    POTLOK:  VPU time    1.14: CPU time    1.14
    SETDIJ:  VPU time    0.91: CPU time    0.92
    EDDAV :  VPU time   36.85: CPU time   36.89
    DOS   :  VPU time   -0.00: CPU time   -0.00
    ------------------------------------------
      LOOP:  VPU time   38.91: CPU time   38.95

 eigenvalue-minimisations  :   932
 total energy-change (2. order) : 0.6159940E-05  (-0.6290299E-05)
 number of electron   96.0000000 magnetization 
 augmentation part    -1.3909554 magnetization 

 Free energy of the ion-electron system (eV)
  ---------------------------------------------------
  alpha Z        PSCENC =        -5.33297230
  Ewald energy   TEWEN  =     -2200.73837284
  -1/2 Hartree   DENC   =        -3.75162506
  -V(xc)+E(xc)   XCENC  =      -848.57452379
  PAW double counting   =      1126.71168469     -103.77436982
  entropy T*S    EENTRO =        -0.01873520
  eigenvalues    EBANDS =       206.01595252
  atomic energy  EATOM  =      1713.23359074
  ---------------------------------------------------
  free energy    TOTEN  =      -116.22937106 eV

  energy without entropy =     -116.21063586  energy(sigma->0) =     -116.22312600


--------------------------------------------------------------------------------------------------------




 average (electrostatic) potential at core
  the test charge radii are     1.0406
  (the norm of the test charge is              1.0000)
       1 -74.8372       2 -74.8348       3 -74.8348       4 -74.8372       5 -74.8367
       6 -74.8368       7 -74.8365       8 -74.8348       9 -74.8348      10 -74.8372
      11 -74.8367      12 -74.8367      13 -74.8367      14 -74.8368      15 -74.8388
      16 -74.8388      17 -74.8365      18 -74.8367      19 -74.8368      20 -74.8372
      21 -74.8367      22 -74.8368      23 -74.8388      24 -74.8388      25 -74.8365
      26 -74.8367      27 -74.8368      28 -74.8367      29 -74.8368      30 -74.8365
      31 -74.8367      32 -74.8368
 
 
 
 E-fermi :   5.9146     XC(G=0):  -9.4933     alpha+bet :-12.1791
   add alpha+bet to get absolut eigen values

 k-point   1 :       0.0000    0.0000    0.0000
  band No.  band energies     occupation 
      1      -3.7611      2.00000
      2      -1.7971      2.00000
      3      -1.7906      2.00000
      4      -1.7906      2.00000
      5      -1.7906      2.00000
      6      -1.7906      2.00000
      7      -1.7843      2.00000
      8       0.1441      2.00000
      9       0.1527      2.00000
     10       0.1527      2.00000
     11       0.1553      2.00000
     12       0.1556      2.00000
     13       0.1556      2.00000
     14       0.1556      2.00000
     15       0.1556      2.00000
     16       0.1559      2.00000
     17       0.1585      2.00000
     18       0.1585      2.00000
     19       0.1671      2.00000
     20       1.9286      2.00000
     21       1.9286      2.00000
     22       1.9287      2.00000
     23       1.9287      2.00000
     24       2.2404      2.00000
     25       2.2405      2.00000
     26       2.2405      2.00000
     27       2.2405      2.00000
     28       3.6205      2.00000
     29       3.6205      2.00000
     30       3.6206      2.00000
     31       4.4245      2.00000
     32       4.4246      2.00000
     33       4.4246      2.00000
     34       5.4632      2.00639
     35       5.4632      2.00639
     36       5.4709      2.00741
     37       5.4709      2.00741
     38       5.4709      2.00741
     39       5.4709      2.00741
     40       5.4709      2.00741
     41       5.4709      2.00742
     42       5.4709      2.00742
     43       5.4710      2.00743
     44       5.4785      2.00855
     45       5.4785      2.00855
     46       6.1493     -0.07005
     47       6.1506     -0.07025
     48       6.1506     -0.07025
     49       6.1506     -0.07025
     50       6.1507     -0.07027
     51       6.1518     -0.07042
     52       6.5475     -0.00007
     53       6.5547     -0.00006
     54       6.5547     -0.00006
     55       6.5547     -0.00006
     56       6.5547     -0.00006
     57       6.5617     -0.00005
     58       7.3130     -0.00000
     59       7.3137     -0.00000
     60       7.3173     -0.00000
     61       7.3203     -0.00000
     62       7.3204     -0.00000
     63       7.3204     -0.00000
     64       7.3205     -0.00000
     65       7.3207     -0.00000
     66       7.3233     -0.00000
     67       7.3247     -0.00000
     68       7.3279     -0.00000

 k-point   2 :       0.3333    0.0000    0.0000
  band No.  band energies     occupation 
      1      -3.5410      2.00000
      2      -2.8825      2.00000
      3      -1.5734      2.00000
      4      -1.5733      2.00000
      5      -1.5733      2.00000
      6      -1.5733      2.00000
      7      -0.9230      2.00000
      8      -0.9229      2.00000
      9      -0.9229      2.00000
     10      -0.9229      2.00000
     11      -0.2744      2.00000
     12       0.3696      2.00000
     13       0.3696      2.00000
     14       0.3696      2.00000
     15       0.3696      2.00000
     16       1.0083      2.00000
     17       1.0083      2.00000
     18       1.0083      2.00000
     19       1.0083      2.00000
     20       1.6475      2.00000
     21       1.6532      2.00000
     22       1.6532      2.00000
     23       1.6532      2.00000
     24       1.6542      2.00000
     25       3.5497      2.00000
     26       3.5497      2.00000
     27       3.5497      2.00000
     28       3.5498      2.00000
     29       3.5753      2.00000
     30       3.5754      2.00000
     31       3.5754      2.00000
     32       3.5754      2.00000
     33       3.8260      2.00000
     34       3.8260      2.00000
     35       4.4426      2.00000
     36       4.4426      2.00000
     37       4.6393      2.00000
     38       4.6394      2.00000
     39       5.2765      2.00006
     40       5.2765      2.00006
     41       5.4460      2.00453
     42       5.4460      2.00453
     43       5.4460      2.00454
     44       5.4461      2.00455
     45       5.6764      2.07055
     46       5.6764      2.07055
     47       5.6764      2.07055
     48       5.6764      2.07055
     49       6.2930     -0.02233
     50       6.2930     -0.02233
     51       6.2930     -0.02231
     52       6.2930     -0.02231
     53       6.5599     -0.00005
     54       6.5599     -0.00005
     55       6.5600     -0.00005
     56       6.5600     -0.00005
     57       6.7836     -0.00000
     58       6.9110     -0.00000
     59       6.9110     -0.00000
     60       7.1919     -0.00000
     61       7.1919     -0.00000
     62       7.1919     -0.00000
     63       7.1919     -0.00000
     64       7.8137     -0.00000
     65       7.8137     -0.00000
     66       8.6525     -0.00000
     67       8.6529     -0.00000
     68       8.6556     -0.00000

 k-point   3 :       0.0000    0.3333    0.0000
  band No.  band energies     occupation 
      1      -3.5410      2.00000
      2      -2.8825      2.00000
      3      -1.5784      2.00000
      4      -1.5733      2.00000
      5      -1.5733      2.00000
      6      -1.5683      2.00000
      7      -0.9280      2.00000
      8      -0.9229      2.00000
      9      -0.9229      2.00000
     10      -0.9179      2.00000
     11      -0.2744      2.00000
     12       0.3654      2.00000
     13       0.3677      2.00000
     14       0.3716      2.00000
     15       0.3738      2.00000
     16       1.0041      2.00000
     17       1.0064      2.00000
     18       1.0103      2.00000
     19       1.0125      2.00000
     20       1.6482      2.00000
     21       1.6484      2.00000
     22       1.6532      2.00000
     23       1.6532      2.00000
     24       1.6582      2.00000
     25       3.5448      2.00000
     26       3.5498      2.00000
     27       3.5498      2.00000
     28       3.5548      2.00000
     29       3.5711      2.00000
     30       3.5734      2.00000
     31       3.5773      2.00000
     32       3.5795      2.00000
     33       3.8260      2.00000
     34       3.8261      2.00000
     35       4.4426      2.00000
     36       4.4427      2.00000
     37       4.6393      2.00000
     38       4.6394      2.00000
     39       5.2764      2.00006
     40       5.2766      2.00006
     41       5.4417      2.00415
     42       5.4441      2.00436
     43       5.4480      2.00472
     44       5.4504      2.00496
     45       5.6716      2.07089
     46       5.6764      2.07055
     47       5.6765      2.07054
     48       5.6812      2.06981
     49       6.2882     -0.02391
     50       6.2930     -0.02232
     51       6.2930     -0.02230
     52       6.2978     -0.02078
     53       6.5565     -0.00006
     54       6.5600     -0.00005
     55       6.5600     -0.00005
     56       6.5634     -0.00004
     57       6.7835     -0.00000
     58       6.9110     -0.00000
     59       6.9111     -0.00000
     60       7.1884     -0.00000
     61       7.1919     -0.00000
     62       7.1920     -0.00000
     63       7.1954     -0.00000
     64       7.8137     -0.00000
     65       7.8144     -0.00000
     66       8.6532     -0.00000
     67       8.7546     -0.00000
     68       8.7563     -0.00000

 k-point   4 :       0.3333    0.3333    0.0000
  band No.  band energies     occupation 
      1      -3.3213      2.00000
      2      -2.6657      2.00000
      3      -2.6617      2.00000
      4      -2.0088      2.00000
      5      -1.3564      2.00000
      6      -1.3563      2.00000
      7      -0.7099      2.00000
      8      -0.7081      2.00000
      9      -0.7059      2.00000
     10      -0.7042      2.00000
     11      -0.0636      2.00000
     12      -0.0610      2.00000
     13      -0.0597      2.00000
     14      -0.0560      2.00000
     15       0.5839      2.00000
     16       0.5862      2.00000
     17       1.8576      2.00000
     18       1.8610      2.00000
     19       1.8624      2.00000
     20       1.8624      2.00000
     21       1.8645      2.00000
     22       1.8675      2.00000
     23       2.3647      2.00000
     24       2.3647      2.00000
     25       2.4945      2.00000
     26       2.4986      2.00000
     27       2.6518      2.00000
     28       2.6518      2.00000
     29       3.1352      2.00000
     30       3.6564      2.00000
     31       3.6565      2.00000
     32       3.8744      2.00000
     33       3.8745      2.00000
     34       4.0315      2.00000
     35       4.4000      2.00000
     36       4.4017      2.00000
     37       4.4041      2.00000
     38       4.4058      2.00000
     39       4.6460      2.00000
     40       4.6504      2.00000
     41       4.8508      2.00000
     42       4.9859      2.00000
     43       4.9863      2.00000
     44       5.0398      2.00000
     45       5.0398      2.00000
     46       5.2649      2.00004
     47       5.5369      2.02253
     48       5.5417      2.02415
     49       6.1483     -0.06985
     50       6.8892     -0.00000
     51       6.8950     -0.00000
     52       6.8965     -0.00000
     53       6.8969     -0.00000
     54       6.8987     -0.00000
     55       6.9885     -0.00000
     56       6.9905     -0.00000
     57       7.1141     -0.00000
     58       7.1185     -0.00000
     59       7.5702     -0.00000
     60       7.5702     -0.00000
     61       7.7302     -0.00000
     62       7.7340     -0.00000
     63       8.0540     -0.00000
     64       8.0591     -0.00000
     65       8.6139     -0.00000
     66       8.7298     -0.00000
     67       8.7333     -0.00000
     68       8.7347     -0.00000

 k-point   5 :       0.0000    0.3333    0.3333
  band No.  band energies     occupation 
      1      -3.3213      2.00000
      2      -2.6637      2.00000
      3      -2.6637      2.00000
      4      -2.0089      2.00000
      5      -1.3594      2.00000
      6      -1.3533      2.00000
      7      -0.7121      2.00000
      8      -0.7081      2.00000
      9      -0.7059      2.00000
     10      -0.7019      2.00000
     11      -0.0644      2.00000
     12      -0.0597      2.00000
     13      -0.0591      2.00000
     14      -0.0571      2.00000
     15       0.5850      2.00000
     16       0.5850      2.00000
     17       1.8581      2.00000
     18       1.8603      2.00000
     19       1.8609      2.00000
     20       1.8626      2.00000
     21       1.8647      2.00000
     22       1.8686      2.00000
     23       2.3647      2.00000
     24       2.3648      2.00000
     25       2.4965      2.00000
     26       2.4965      2.00000
     27       2.6518      2.00000
     28       2.6519      2.00000
     29       3.1352      2.00000
     30       3.6564      2.00000
     31       3.6564      2.00000
     32       3.8745      2.00000
     33       3.8745      2.00000
     34       4.0316      2.00000
     35       4.3978      2.00000
     36       4.4017      2.00000
     37       4.4041      2.00000
     38       4.4080      2.00000
     39       4.6482      2.00000
     40       4.6483      2.00000
     41       4.8509      2.00000
     42       4.9861      2.00000
     43       4.9861      2.00000
     44       5.0366      2.00000
     45       5.0429      2.00000
     46       5.2649      2.00004
     47       5.5393      2.02332
     48       5.5393      2.02334
     49       6.1482     -0.06985
     50       6.8895     -0.00000
     51       6.8926     -0.00000
     52       6.8945     -0.00000
     53       6.8990     -0.00000
     54       6.9008     -0.00000
     55       6.9893     -0.00000
     56       6.9894     -0.00000
     57       7.1163     -0.00000
     58       7.1165     -0.00000
     59       7.5701     -0.00000
     60       7.5702     -0.00000
     61       7.7321     -0.00000
     62       7.7322     -0.00000
     63       8.0565     -0.00000
     64       8.0566     -0.00000
     65       8.6137     -0.00000
     66       8.7313     -0.00000
     67       8.7333     -0.00000
     68       8.7337     -0.00000

 k-point   6 :       0.3333    0.3333    0.3333
  band No.  band energies     occupation 
      1      -3.1018      2.00000
      2      -2.4480      2.00000
      3      -2.4451      2.00000
      4      -2.4424      2.00000
      5      -1.7941      2.00000
      6      -1.7913      2.00000
      7      -1.7885      2.00000
      8      -1.1403      2.00000
      9       0.1529      2.00000
     10       0.1557      2.00000
     11       0.1585      2.00000
     12       0.7935      2.00000
     13       0.7968      2.00000
     14       0.7986      2.00000
     15       0.7986      2.00000
     16       0.8004      2.00000
     17       0.8037      2.00000
     18       1.4347      2.00000
     19       1.4363      2.00000
     20       1.4379      2.00000
     21       2.0712      2.00000
     22       2.0727      2.00000
     23       2.0743      2.00000
     24       2.7012      2.00000
     25       2.7043      2.00000
     26       2.7063      2.00000
     27       2.7063      2.00000
     28       2.7082      2.00000
     29       2.7113      2.00000
     30       3.2258      2.00000
     31       3.2288      2.00000
     32       3.2317      2.00000
     33       3.4662      2.00000
     34       3.4689      2.00000
     35       3.4717      2.00000
     36       3.9921      2.00000
     37       3.9937      2.00000
     38       3.9953      2.00000
     39       5.2311      2.00001
     40       5.2319      2.00002
     41       5.2339      2.00002
     42       5.2340      2.00002
     43       5.2360      2.00002
     44       5.2367      2.00002
     45       5.8570      1.46618
     46       5.8577      1.46046
     47       5.8598      1.44489
     48       5.8598      1.44488
     49       5.8620      1.42896
     50       5.8627      1.42309
     51       6.4948     -0.00032
     52       7.0389     -0.00000
     53       7.0399     -0.00000
     54       7.0407     -0.00000
     55       7.2489     -0.00000
     56       7.2513     -0.00000
     57       7.2537     -0.00000
     58       7.7025     -0.00000
     59       7.7054     -0.00000
     60       7.7082     -0.00000
     61       7.8207     -0.00000
     62       7.8207     -0.00000
     63       7.8232     -0.00000
     64       7.8232     -0.00000
     65       7.8256     -0.00000
     66       7.8257     -0.00000
     67       8.3346     -0.00000
     68       8.3360     -0.00000


--------------------------------------------------------------------------------------------------------


 soft charge-density along one line, spin component           1
         0         1         2         3         4         5         6         7         8         9
 total charge-density along one line
 
 pseudopotential strength for first ion, spin component:           1
  8.508  -0.003  -0.000  -0.000   0.000   0.000  -0.000   0.000
 -0.003   0.000   0.000  -0.000   0.000  -0.000   0.000  -0.000
 -0.000   0.000   1.980  -0.000  -0.000  -0.020   0.000   0.000
 -0.000  -0.000  -0.000   1.980  -0.000   0.000  -0.020   0.000
  0.000   0.000  -0.000  -0.000   1.980   0.000   0.000  -0.020
  0.000  -0.000  -0.020   0.000   0.000  -0.013   0.000  -0.000
 -0.000   0.000   0.000  -0.020   0.000   0.000  -0.013   0.000
  0.000  -0.000   0.000   0.000  -0.020  -0.000   0.000  -0.013
 total augmentation occupancy for first ion, spin component:           1
  1.414  -0.270   0.000  -0.000   0.000  -0.000   0.000   0.000
 -0.270   0.297   0.000  -0.000   0.000  -0.000   0.000  -0.000
  0.000   0.000   0.583  -0.012  -0.011  -0.104   0.000   0.000
 -0.000  -0.000  -0.012   0.608  -0.013   0.000  -0.104   0.001
  0.000   0.000  -0.011  -0.013   0.595   0.000   0.001  -0.104
 -0.000  -0.000  -0.104   0.000   0.000   0.021   0.000   0.000
  0.000   0.000   0.000  -0.104   0.001   0.000   0.021   0.000
  0.000  -0.000   0.000   0.001  -0.104   0.000   0.000   0.021


------------------------ aborting loop because EDIFF is reached ----------------------------------------




--------------------------------------------------------------------------------------------------------


    CHARGE:  VPU time    3.46: CPU time    3.46
    FORLOC:  VPU time    0.14: CPU time    0.14
    FORNL :  VPU time    9.98: CPU time    9.98
    STRESS:  VPU time   33.18: CPU time   33.21
    FORCOR:  VPU time    1.12: CPU time    1.12
    FORHAR:  VPU time    0.32: CPU time    0.32
    MIXING:  VPU time    0.02: CPU time    0.02


--------------------------------------------------------------------------------------------------------



  FREE ENERGIE OF THE ION-ELECTRON SYSTEM (eV)
  ---------------------------------------------------
  free  energy   TOTEN  =      -116.229371 eV

  energy  without entropy=     -116.210636  energy(sigma->0) =     -116.223126
 

  FORCE on cell =-STRESS in cart. coord.  units (eV/reduce length):
  Direction    X        Y        Z        XY       YZ       ZX
  --------------------------------------------------------------------------------------
  Alpha Z     -5.33     -5.33     -5.33
  Ewald     -733.59   -733.58   -733.58     -0.00     -0.00     -0.00
  Hartree      1.25      1.25      1.25      0.00      0.00      0.00
  E(xc)     -258.56   -258.56   -258.56      0.00      0.00      0.00
  Local      -19.20    -19.21    -19.21      0.00      0.00      0.00
  n-local    587.12    587.77    586.48     -0.19      0.10      0.40
  augment    -37.20    -37.20    -37.20      0.00      0.00      0.00
  Kinetic    424.73    414.29    435.17     -5.32     -7.30     -9.28
  -------------------------------------------------------------------------------------
  Total      -40.78    -40.78    -40.78     -0.00     -0.00     -0.00
  in kB     -101.32   -101.32   -101.32     -0.00     -0.00     -0.00
  external pressure =     -101.32 kB  Pullay stress =        0.00 kB


 VOLUME and BASIS-vectors are now :
 -----------------------------------------------------------------------------
  energy-cutoff  :      600.00
  volume of cell :      644.94
      direct lattice vectors                 reciprocal lattice vectors
     8.639834860  0.000000000  0.000000000     0.115742953 -0.000000002 -0.000000002
     0.000000160  8.639834860  0.000000000     0.000000000  0.115742953 -0.000000002
     0.000000160  0.000000160  8.639834860     0.000000000  0.000000000  0.115742953

  length of vectors
     8.639834860  8.639834860  8.639834860     0.115742953  0.115742953  0.115742953


 FORCES acting on ions
    electron-ion (+dipol)            ewald-force                    non-local-force                 convergence-correction
 -----------------------------------------------------------------------------------------------
   0.233E-03 0.118E-01 -.865E-09   -.192E-02 -.105E-01 0.107E-08   0.616E-03 -.310E-03 0.136E-19   0.186E-03 -.278E-03 0.312E-10
   0.738E-01 0.135E+00 -.150E-08   -.660E-01 -.128E+00 0.205E-10   -.156E-01 -.155E-01 0.271E-19   0.749E-03 0.176E-02 -.104E-09
   0.738E-01 -.213E-08 -.135E+00   -.660E-01 0.234E-08 0.128E+00   -.156E-01 0.286E-09 0.155E-01   0.749E-03 0.270E-10 -.176E-02
   0.233E-03 -.118E-01 0.608E-09   -.192E-02 0.105E-01 -.627E-09   0.616E-03 0.310E-03 0.000E+00   0.186E-03 0.278E-03 -.395E-10
   -.766E-01 -.861E-03 0.861E-03   0.823E-01 0.599E-03 -.599E-03   -.208E-02 0.661E-04 -.661E-04   -.524E-03 0.174E-03 -.174E-03
   -.471E-01 0.213E-09 0.272E-08   0.436E-01 -.119E-09 -.320E-08   0.276E-02 -.134E-18 0.203E-19   0.420E-03 0.904E-10 -.168E-09
   0.748E-03 -.122E-01 0.590E-09   -.231E-02 0.104E-01 -.602E-09   0.615E-03 0.325E-03 0.000E+00   0.811E-04 0.659E-03 -.429E-10
   0.738E-01 0.101E-08 0.135E+00   -.660E-01 -.234E-08 -.128E+00   -.156E-01 -.286E-09 -.155E-01   0.749E-03 -.717E-10 0.176E-02
   0.738E-01 -.135E+00 0.370E-09   -.660E-01 0.128E+00 -.204E-10   -.156E-01 0.155E-01 -.271E-19   0.749E-03 -.176E-02 0.595E-10
   0.233E-03 0.389E-09 -.118E-01   -.192E-02 -.434E-09 0.105E-01   0.616E-03 0.574E-11 0.310E-03   0.186E-03 -.344E-10 0.278E-03
   -.766E-01 -.861E-03 -.861E-03   0.823E-01 0.599E-03 0.599E-03   -.208E-02 0.661E-04 0.661E-04   -.524E-03 0.174E-03 0.174E-03
   -.620E+00 0.903E-08 0.208E-07   0.522E+00 -.920E-08 -.920E-08   0.139E+00 -.161E-18 -.542E-19   -.268E-02 0.288E-09 0.288E-09
   -.766E-01 0.861E-03 0.861E-03   0.823E-01 -.599E-03 -.599E-03   -.208E-02 -.661E-04 -.661E-04   -.524E-03 -.174E-03 -.174E-03
   -.151E-01 0.733E-09 0.734E-09   0.180E-01 -.850E-09 -.850E-09   -.190E-02 -.325E-19 0.000E+00   -.903E-04 -.934E-10 -.934E-10
   0.743E-01 -.133E+00 0.357E-09   -.668E-01 0.126E+00 -.184E-10   -.149E-01 0.145E-01 0.000E+00   0.707E-03 -.131E-02 0.510E-10
   0.743E-01 0.995E-09 0.133E+00   -.668E-01 -.231E-08 -.126E+00   -.149E-01 -.269E-09 -.145E-01   0.707E-03 -.740E-10 0.131E-02
   0.748E-03 0.122E-01 -.892E-09   -.231E-02 -.104E-01 0.109E-08   0.615E-03 -.325E-03 0.000E+00   0.811E-04 -.659E-03 0.417E-10
   0.523E-01 0.225E-04 -.225E-04   -.463E-01 -.179E-03 0.179E-03   -.289E-02 -.675E-04 0.675E-04   -.517E-03 0.214E-03 -.214E-03
   0.343E-01 -.193E-09 -.176E-08   -.343E-01 0.118E-09 0.202E-08   0.106E-02 0.985E-20 0.000E+00   -.117E-02 -.772E-10 0.178E-09
   0.233E-03 -.647E-09 0.118E-01   -.192E-02 0.880E-09 -.105E-01   0.616E-03 -.574E-11 -.310E-03   0.186E-03 0.261E-10 -.278E-03
   -.766E-01 0.861E-03 -.861E-03   0.823E-01 -.599E-03 0.599E-03   -.208E-02 -.661E-04 0.661E-04   -.524E-03 -.174E-03 0.174E-03
   -.471E-01 0.271E-08 0.215E-09   0.436E-01 -.320E-08 -.119E-09   0.276E-02 0.125E-19 0.271E-19   0.420E-03 -.168E-09 0.904E-10
   0.743E-01 -.211E-08 -.133E+00   -.668E-01 0.231E-08 0.126E+00   -.149E-01 0.269E-09 0.145E-01   0.707E-03 0.268E-10 -.131E-02
   0.743E-01 0.133E+00 -.148E-08   -.668E-01 -.126E+00 0.225E-10   -.149E-01 -.145E-01 -.271E-19   0.707E-03 0.131E-02 -.983E-10
   0.748E-03 -.666E-09 0.122E-01   -.231E-02 0.899E-09 -.104E-01   0.615E-03 -.602E-11 -.325E-03   0.811E-04 0.295E-10 -.659E-03
   0.523E-01 0.225E-04 0.225E-04   -.463E-01 -.179E-03 -.179E-03   -.289E-02 -.675E-04 -.675E-04   -.517E-03 0.214E-03 0.214E-03
   0.144E+00 -.916E-09 -.222E-08   -.138E+00 0.157E-09 0.157E-09   -.816E-02 0.477E-19 -.678E-20   0.141E-02 -.198E-09 -.198E-09
   0.523E-01 -.225E-04 -.225E-04   -.463E-01 0.179E-03 0.179E-03   -.289E-02 0.675E-04 0.675E-04   -.517E-03 -.214E-03 -.214E-03
   0.150E-01 -.734E-09 -.733E-09   -.168E-01 0.749E-09 0.749E-09   0.275E-02 -.116E-18 0.271E-19   0.116E-03 0.906E-10 0.906E-10
   0.748E-03 0.363E-09 -.122E-01   -.231E-02 -.409E-09 0.104E-01   0.615E-03 0.602E-11 0.325E-03   0.811E-04 -.307E-10 0.659E-03
   0.523E-01 -.225E-04 0.225E-04   -.463E-01 0.179E-03 -.179E-03   -.289E-02 0.675E-04 -.675E-04   -.517E-03 -.214E-03 0.214E-03
   0.343E-01 -.177E-08 -.191E-09   -.343E-01 0.202E-08 0.118E-09   0.106E-02 -.401E-21 0.000E+00   -.117E-02 0.178E-09 -.772E-10
 -----------------------------------------------------------------------------------------------
   -.269E-02 0.224E-10 0.105E-07   -.550E-13 -.135E-13 0.344E-13   0.294E-02 -.868E-18 -.112E-17   -.866E-05 0.296E-10 0.296E-10
 
 
 POSITION                                       TOTAL-FORCE (eV/Angst)
 -----------------------------------------------------------------------------------
      6.47988      6.47988      4.31992        -0.000896      0.000744      0.000000
      6.47988      6.47988      0.00000        -0.007031     -0.005930     -0.000000
      6.47988      0.00000      2.15996        -0.007031      0.000000      0.005930
      6.47988      2.15996      4.31992        -0.000896     -0.000744      0.000000
      0.00000      6.47988      2.15996         0.003060     -0.000022      0.000022
      0.00000      0.00000      4.31992        -0.000274      0.000000      0.000000
      2.15996      6.47988      4.31992        -0.000874     -0.000809      0.000000
      6.47988      0.00000      6.47988        -0.007031     -0.000000     -0.005930
      6.47988      2.15996      0.00000        -0.007031      0.005930     -0.000000
      6.47988      4.31992      2.15996        -0.000896     -0.000000     -0.000744
      0.00000      6.47988      6.47988         0.003060     -0.000022     -0.000022
      8.61983      0.00000      0.00000         0.038124      0.000000      0.000000
      0.00000      2.15996      2.15996         0.003060      0.000022      0.000022
      0.00000      4.31992      4.31992         0.000877      0.000000      0.000000
      2.15996      6.47988      0.00000        -0.006661      0.005440      0.000000
      2.15996      0.00000      2.15996        -0.006661     -0.000000     -0.005440
      2.15996      2.15996      4.31992        -0.000874      0.000809      0.000000
      4.31992      6.47988      2.15996         0.002565     -0.000011      0.000011
      4.31992      0.00000      4.31992        -0.000032     -0.000000      0.000000
      6.47988      4.31992      6.47988        -0.000896      0.000000      0.000744
      0.00000      2.15996      6.47988         0.003060      0.000022     -0.000022
      0.00000      4.31992      0.00000        -0.000274      0.000000      0.000000
      2.15996      0.00000      6.47988        -0.006661      0.000000      0.005440
      2.15996      2.15996      0.00000        -0.006661     -0.005440      0.000000
      2.15996      4.31992      2.15996        -0.000874      0.000000      0.000809
      4.31992      6.47988      6.47988         0.002565     -0.000011     -0.000011
      4.31992      0.00000      0.00000        -0.000031     -0.000000      0.000000
      4.31992      2.15996      2.15996         0.002565      0.000011      0.000011
      4.31992      4.31992      4.31992         0.000990      0.000000      0.000000
      2.15996      4.31992      6.47988        -0.000874     -0.000000     -0.000809
      4.31992      2.15996      6.47988         0.002565      0.000011     -0.000011
      4.31992      4.31992      0.00000        -0.000032     -0.000000     -0.000000
 -----------------------------------------------------------------------------------
    total drift:                                0.000241      0.000000      0.000000


--------------------------------------------------------------------------------------------------------



 mean value of Nose-termostat <S>:     1.000 mean value of <T> :     0.000
 mean temperature <T/S>/<1/S>  :     0.000

     LOOP+:  VPU time  263.62: CPU time  263.89

 ----------------------------------------------------------------------------- 
|                                                                             |
|           W    W    AA    RRRRR   N    N  II  N    N   GGGG   !!!           |
|           W    W   A  A   R    R  NN   N  II  NN   N  G    G  !!!           |
|           W    W  A    A  R    R  N N  N  II  N N  N  G       !!!           |
|           W WW W  AAAAAA  RRRRR   N  N N  II  N  N N  G  GGG   !            |
|           WW  WW  A    A  R   R   N   NN  II  N   NN  G    G                |
|           W    W  A    A  R    R  N    N  II  N    N   GGGG   !!!           |
|                                                                             |
|      The partial DOS and the PROCAR file are not evaluated for NPAR/=1      |
|      please rerun with NPAR=1                                               |
|                                                                             |
 ----------------------------------------------------------------------------- 

  
  
 General timing and accounting informations for this job:
 ========================================================
  
                  Total CPU time used (sec):      275.963
                            User time (sec):      264.696
                          System time (sec):       11.267
                         Elapsed time (sec):      276.538
  
                   Maximum memory used (kb):      484596.
                   Average memory used (kb):           0.
  
                          Minor page faults:        79899
                          Major page faults:            0
                 Voluntary context switches:          786
