 vasp.4.6.28 25Jul05 complex 
 executed on             LinuxIFC date 2017.01.06  19:15:00
 running on    4 nodes
 distr:  one band on    1 nodes,    4 groups


--------------------------------------------------------------------------------------------------------


 INCAR:
 POTCAR:   PAW_PBE Al 04Jan2001                   
 POTCAR:   PAW_PBE Al 04Jan2001                   
   VRHFIN =Al: s2p1                                                             
   LEXCH  = PE                                                                  
   EATOM  =    53.5387 eV,    3.9350 Ry                                         
                                                                                
   TITEL  = PAW_PBE Al 04Jan2001                                                
   LULTRA =        F    use ultrasoft PP ?                                      
   IUNSCR =        1    unscreen: 0-lin 1-nonlin 2-no                           
   RPACOR =    1.500    partial core radius                                     
   POMASS =   26.982; ZVAL   =    3.000    mass and valenz                      
   RCORE  =    1.900    outmost cutoff radius                                   
   RWIGS  =    2.650; RWIGS  =    1.402    wigner-seitz radius (au A)           
   ENMAX  =  240.300; ENMIN  =  180.225 eV                                      
   ICORE  =        2    local potential                                         
   LCOR   =        T    correct aug charges                                     
   LPAW   =        T    paw PP                                                  
   EAUG   =  291.052                                                            
   DEXC   =    -.041                                                            
   RMAX   =    2.974    core radius for proj-oper                               
   RAUG   =    1.300    factor for augmentation sphere                          
   RDEP   =    1.966    radius for radial grids                                 
   QCUT   =   -4.203; QGAM   =    8.405    optimization parameters              
                                                                                
   Description                                                                  
     l     E      TYP  RCUT    TYP  RCUT                                        
     0   .000     23  1.900                                                     
     0   .000     23  1.900                                                     
     1   .000     23  1.900                                                     
     1  1.000     23  1.900                                                     
     2   .000      7  1.900                                                     
  local pseudopotential read in
  partial core-charges read in
  atomic valenz-charges read in
  non local Contribution for L=           0  read in
    real space projection operators read in
  non local Contribution for L=           0  read in
    real space projection operators read in
  non local Contribution for L=           1  read in
    real space projection operators read in
  non local Contribution for L=           1  read in
    real space projection operators read in
    PAW grid and wavefunctions read in
 
   number of l-projection  operators is LMAX  =           4
   number of lm-projection operators is LMMAX =           8
 

 ----------------------------------------------------------------------------- 
|                                                                             |
|  ADVICE TO THIS USER RUNNING 'VASP/VAMP'   (HEAR YOUR MASTER'S VOICE ...):  |
|                                                                             |
|      You have a (more or less) 'large supercell' and for larger cells       |
|      it might be more efficient to use real space projection operators      |
|      So try LREAL= Auto  in the INCAR   file.                               |
|      Mind: If you want to do an extremely accurate calculations keep the    |
|      reciprocal projection scheme          (i.e. LREAL=.FALSE.)             |
|                                                                             |
 ----------------------------------------------------------------------------- 

 PAW_PBE Al 04Jan2001                   :
 energy of atom  1       EATOM=  -53.5387
 kinetic energy error for atom=    0.0002 (will be added to EATOM!!)
 
 EXHCAR: internal setup
 exchange correlation table for  LEXCH =        8
   RHO(1)=    0.500       N(1)  =     2000
   RHO(2)=  100.500       N(2)  =     4000
 
 POSCAR: al100                                   
  positions in direct lattice
  No initial velocities read in
 


--------------------------------------------------------------------------------------------------------


 ion  position               nearest neighbor table
   1  0.750  0.750  0.500-   3 3.05   5 3.05  14 3.05  19 3.05  20 3.05  26 3.05  11 3.05   6 3.05
                            18 3.05  29 3.05  10 3.05   8 3.05
   2  0.750  0.750  0.000-   8 3.05  10 3.05  11 3.05  18 3.05  22 3.05  27 3.05  12 3.05  26 3.05
                             5 3.05  32 3.05   3 3.05  20 3.05
   3  0.750  0.000  0.250-   1 3.05   5 3.05   9 3.05  12 3.05  19 3.05  28 3.05  18 3.05   6 3.05
                            27 3.05  13 3.05   4 3.05   2 3.05
   4  0.750  0.250  0.500-   6 3.05   8 3.05  10 3.05  13 3.05  29 3.05  31 3.05  21 3.05  28 3.05
                            14 3.05  19 3.05   3 3.05  20 3.05
   5  0.000  0.750  0.250-   1 3.05   3 3.05  12 3.05  14 3.05  15 3.05  25 3.05   7 3.05  10 3.05
                            16 3.05   2 3.05  22 3.05   6 3.05
   6  0.000  0.000  0.500-   4 3.05   7 3.05   8 3.05  11 3.05  13 3.05  16 3.05   1 3.05   3 3.05
                            17 3.05  23 3.05  21 3.05   5 3.05
   7  0.250  0.750  0.500-   6 3.05  11 3.05  16 3.05  18 3.05  29 3.05  30 3.05  19 3.05  26 3.05
                             5 3.05  14 3.05  25 3.05  23 3.05
   8  0.750  0.000  0.750-   2 3.05   4 3.05   6 3.05  11 3.05  27 3.05  31 3.05  21 3.05  26 3.05
                            12 3.05  19 3.05   9 3.05   1 3.05
   9  0.750  0.250  0.000-   3 3.05  12 3.05  20 3.05  21 3.05  28 3.05  32 3.05  27 3.05  13 3.05
                            31 3.05  22 3.05  10 3.05   8 3.05
  10  0.750  0.500  0.250-   2 3.05   4 3.05  13 3.05  18 3.05  22 3.05  29 3.05  14 3.05  28 3.05
                             5 3.05  32 3.05   9 3.05   1 3.05
  11  0.000  0.750  0.750-   2 3.05   6 3.05   7 3.05   8 3.05  22 3.05  30 3.05  20 3.05   1 3.05
                            23 3.05  15 3.05  14 3.05  12 3.05
  12  0.000  0.000  0.000-   3 3.05   5 3.05   9 3.05  15 3.05  21 3.05  23 3.05  16 3.05   2 3.05
                             8 3.05  24 3.05  13 3.05  11 3.05
  13  0.000  0.250  0.250-   4 3.05   6 3.05  10 3.05  16 3.05  22 3.05  24 3.05  17 3.05   3 3.05
                             9 3.05  25 3.05  14 3.05  12 3.05
  14  0.000  0.500  0.500-   1 3.05   5 3.05  17 3.05  20 3.05  21 3.05  25 3.05   7 3.05  10 3.05
                             4 3.05  30 3.05  13 3.05  11 3.05
  15  0.250  0.750  0.000-   5 3.05  12 3.05  23 3.05  25 3.05  26 3.05  32 3.05  18 3.05  22 3.05
                            27 3.05  11 3.05  30 3.05  16 3.05
  16  0.250  0.000  0.250-   6 3.05   7 3.05  13 3.05  18 3.05  24 3.05  27 3.05  19 3.05   5 3.05
                            12 3.05  28 3.05  17 3.05  15 3.05
  17  0.250  0.250  0.500-  14 3.05  19 3.05  21 3.05  23 3.05  25 3.05  28 3.05   6 3.05  13 3.05
                            29 3.05  31 3.05  30 3.05  16 3.05
  18  0.500  0.750  0.250-   2 3.05   7 3.05  10 3.05  16 3.05  27 3.05  29 3.05   1 3.05  25 3.05
                             3 3.05  15 3.05  19 3.05  32 3.05
  19  0.500  0.000  0.500-   1 3.05   3 3.05  17 3.05  23 3.05  26 3.05  28 3.05   4 3.05   7 3.05
                             8 3.05  16 3.05  18 3.05  31 3.05
  20  0.750  0.500  0.750-   1 3.05   9 3.05  14 3.05  21 3.05  26 3.05  32 3.05  11 3.05  29 3.05
                            31 3.05  22 3.05   4 3.05   2 3.05
  21  0.000  0.250  0.750-   9 3.05  12 3.05  14 3.05  17 3.05  20 3.05  23 3.05   4 3.05   8 3.05
                            24 3.05  30 3.05  22 3.05   6 3.05
  22  0.000  0.500  0.000-   2 3.05  10 3.05  11 3.05  13 3.05  24 3.05  30 3.05  20 3.05   9 3.05
                            25 3.05  15 3.05  21 3.05   5 3.05
  23  0.250  0.000  0.750-  12 3.05  15 3.05  17 3.05  19 3.05  21 3.05  26 3.05   6 3.05  11 3.05
                            27 3.05  31 3.05  24 3.05   7 3.05
  24  0.250  0.250  0.000-  13 3.05  16 3.05  22 3.05  27 3.05  30 3.05  31 3.05  28 3.05  12 3.05
                            21 3.05  32 3.05  25 3.05  23 3.05
  25  0.250  0.500  0.250-   5 3.05  14 3.05  15 3.05  17 3.05  28 3.05  32 3.05  22 3.05  13 3.05
                            29 3.05  18 3.05  24 3.05   7 3.05
  26  0.500  0.750  0.750-   1 3.05  15 3.05  19 3.05  20 3.05  23 3.05  32 3.05   8 3.05   2 3.05
                            30 3.05   7 3.05  27 3.05  29 3.05
  27  0.500  0.000  0.000-   2 3.05   8 3.05  16 3.05  18 3.05  24 3.05  31 3.05   9 3.05  23 3.05
                            15 3.05   3 3.05  28 3.05  26 3.05
  28  0.500  0.250  0.250-   3 3.05   9 3.05  17 3.05  19 3.05  25 3.05  32 3.05  10 3.05  24 3.05
                            16 3.05   4 3.05  29 3.05  27 3.05
  29  0.500  0.500  0.500-   4 3.05   7 3.05  10 3.05  18 3.05  30 3.05  31 3.05  20 3.05  25 3.05
                            17 3.05   1 3.05  26 3.05  28 3.05
  30  0.250  0.500  0.750-   7 3.05  11 3.05  22 3.05  24 3.05  29 3.05  31 3.05  26 3.05  14 3.05
                            21 3.05  32 3.05  17 3.05  15 3.05
  31  0.500  0.250  0.750-   4 3.05   8 3.05  24 3.05  27 3.05  29 3.05  30 3.05   9 3.05  17 3.05
                            20 3.05  23 3.05  19 3.05  32 3.05
  32  0.500  0.500  0.000-   9 3.05  15 3.05  20 3.05  25 3.05  26 3.05  28 3.05   2 3.05  10 3.05
                            24 3.05  30 3.05  18 3.05  31 3.05
 
  LATTYP: Found a simple cubic cell.
 ALAT       =     8.6398348600
  
  Lattice vectors:
  
 A1 = (   8.6398348600,   0.0000000000,   0.0000000000)
 A2 = (   0.0000001600,   8.6398348600,   0.0000000000)
 A3 = (   0.0000001600,   0.0000001600,   8.6398348600)
 Subroutine PRICEL returns following result:
 
  LATTYP: Found a face centered cubic cell.
 ALAT       =     4.3199174700
  
  Lattice vectors:
  
 A1 = (   2.1599587550,   2.1599587150,   0.0000000000)
 A2 = (   2.1599586750,  -0.0000000400,  -2.1599587150)
 A3 = (  -0.0000000000,   2.1599586750,  -2.1599587150)
 
  32 primitive cells build up your supercell.
 

Analysis of symmetry for initial positions (statically):

 Routine SETGRP: Setting up the symmetry group for a 
 simple cubic supercell.


 Subroutine GETGRP returns: Found 48 space group operations
 (whereof 48 operations were pure point group operations)
 out of a pool of 48 trial point group operations.


The static configuration has the point symmetry O_h .

Analysis of symmetry for dynamics (positions and initial velocities):

 Subroutine DYNSYM returns: Found 48 space group operations
 (whereof 48 operations were pure point group operations)
 out of a pool of 48 trial space group operations
 (whereof 48 operations were pure point group operations)
 and found also    32 'primitive' translations


The dynamic configuration has the point symmetry O_h .
 
 
 KPOINTS: Automatic mesh                          

Automatic generation of k-mesh.
 
 Subroutine IBZKPT returns following result:
 ===========================================
 
 Found      4 irreducible k-points:
 
 Following reciprocal coordinates:
            Coordinates               Weight
  0.000000  0.000000  0.000000      1.000000
  0.333333  0.000000  0.000000      6.000000
  0.333333  0.333333  0.000000     12.000000
  0.333333  0.333333  0.333333      8.000000
 
 Following cartesian coordinates:
            Coordinates               Weight
  0.000000  0.000000  0.000000      1.000000
  0.038581 -0.000000 -0.000000      6.000000
  0.038581  0.038581 -0.000000     12.000000
  0.038581  0.038581  0.038581      8.000000
 


--------------------------------------------------------------------------------------------------------




 Dimension of arrays:
   k-Points           NKPTS =      4   number of bands    NBANDS=     68
   number of dos      NEDOS =    301   number of ions     NIONS =     32
   non local maximal  LDIM  =      4   non local SUM 2l+1 LMDIM =      8
   total plane-waves  NPLWV = 343000
   max r-space proj   IRMAX =      1   max aug-charges    IRDMAX= 165771
   dimension x,y,z NGX =    70 NGY =   70 NGZ =   70
   dimension x,y,z NGXF=   140 NGYF=  140 NGZF=  140
   support grid    NGXF=   280 NGYF=  280 NGZF=  280
   ions per type =              32
 NGX,Y,Z   is equivalent  to a cutoff of  13.47, 13.47, 13.47 a.u.
 NGXF,Y,Z  is equivalent  to a cutoff of  26.94, 26.94, 26.94 a.u.


 I would recommend the setting:
   dimension x,y,z NGX =    69 NGY =   69 NGZ =   69
 SYSTEM =  al100                                   
 POSCAR =  al100                                   

 Startparameter for this run:
   NWRITE =      2    write-flag & timer
   PREC   = accura    medium, high low
   ISTART =      0    job   : 0-new  1-cont  2-samecut
   ICHARG =      2    charge: 1-file 2-atom 10-const
   ISPIN  =      1    spin polarized calculation?
   LNONCOLLINEAR =      F non collinear calculations
   LSORBIT =      F    spin-orbit coupling
   INIWAV =      1    electr: 0-lowe 1-rand  2-diag
   LASPH  =      F    aspherical Exc in radial PAW
   METAGGA=      F    non-selfconsistent MetaGGA calc.

 Electronic Relaxation 1
   ENCUT  =  600.0 eV  44.10 Ry    6.64 a.u.  17.26 17.26 17.26*2*pi/ulx,y,z
   ENINI  =  600.0     initial cutoff
   ENAUG  =  291.1 eV  augmentation charge cutoff
   NELM   =     60;   NELMIN=  2; NELMDL= -5     # of ELM steps 
   EDIFF  = 0.1E-04   stopping-criterion for ELM
   LREAL  =      F    real-space projection
   LCOMPAT=      F    compatible to vasp.4.4
   LREAL_COMPAT= F    compatible to vasp.4.5.1-3
   GGA_COMPAT  = T    GGA compatible to vasp.4.4-vasp.4.6
   LMAXPAW     = -100 max onsite density
   LMAXMIX     =    2 max onsite mixed and CHGCAR
   VOSKOWN=      1    Vosko Wilk Nusair interpolation
   ROPT   =    0.00000
 Ionic relaxation
   EDIFFG = -.2E-01   stopping-criterion for IOM
   NSW    =    100    number of steps for IOM
   NBLOCK =      1;   KBLOCK =    100    inner block; outer block 
   IBRION =      2    ionic relax: 0-MD 1-quasi-New 2-CG
   NFREE  =      1    steps in history (QN), initial steepest desc. (CG)
   ISIF   =      2    stress and relaxation
   IWAVPR =     11    prediction:  0-non 1-charg 2-wave 3-comb
   ISYM   =      2    0-nonsym 1-usesym 2-fastsym
   LCORR  =      T    Harris-Foulkes like correction to forces

   POTIM  =   0.50    time-step for ionic-motion
   TEIN   =    0.0    initial temperature
   TEBEG  =    0.0;   TEEND  =   0.0 temperature during run
   SMASS  =  -3.00    Nose mass-parameter (am)
   estimated Nose-frequenzy (Omega)   =  0.10E-29 period in steps =****** mass=  -0.171E-26a.u.
   NPACO  =    256;   APACO  = 16.0  distance and # of slots for P.C.
   PSTRESS=    0.0 pullay stress

  Mass of Ions in am
   POMASS =  26.98
  Ionic Valenz
   ZVAL   =   3.00
  Atomic Wigner-Seitz radii
   RWIGS  =   1.18
   NELECT =      96.0000    total number of electrons
   NUPDOWN=      -1.0000    fix difference up-down

 DOS related values:
   EMIN   =  10.00;   EMAX   =-10.00  energy-range for DOS
   ISMEAR =     1;   SIGMA  =   0.20  broadening in eV -4-tet -1-fermi 0-gaus

 Electronic relaxation 2 (details)
   IALGO  =     38    algorithm
   LDIAG  =      T    sub-space diagonalisation
   IMIX   =      4    mixing-type and parameters
     AMIX     =   0.40;   BMIX     =  1.00
     AMIX_MAG =   1.60;   BMIX_MAG =  1.00
     AMIN     =   0.10
     WC   =   100.;   INIMIX=   1;  MIXPRE=   1

 Intra band minimization:
   WEIMIN = 0.0010     energy-eigenvalue tresh-hold
   EBREAK =  0.38E-07  absolut break condition
   DEPER  =   0.30     relativ break condition  

   TIME   =   0.10     timestep for ELM

  volume/ion in A,a.u.               =      20.15       136.01
  Fermi-wavevector in a.u.,eV,Ry     =   0.867614 10.241837  0.752754

 Second variation
   LSECVAR=     F    do a second variation
 
 Write flags
   LWAVE  =      T    write WAVECAR
   LCHARG =      F    write CHGCAR
   LVTOT  =      F    write LOCPOT, local potential
   LELF   =      F    write electronic localiz. function (ELF)
   LORBIT =      0    0 simple, 1 ext, 2 COOP (PROOUT)


 Dipole corrections
   IDIPOL =      0    1-x, 2-y, 3-z
   LDIPOL =      F    correct potential



--------------------------------------------------------------------------------------------------------


 conjugate gradient relaxation of ions
 charge density will be updated during run
 non-spin polarized calculation
 Variant of blocked Davidson
 Davidson routine will perform the subspace rotation
 performe sub-space diagonalisation
    after iterative eigenvector-optimisation
 modified Broyden-mixing scheme, WC =      100.0
 initial mixing is a Kerker type mixing with AMIX =  0.4000 and BMIX =      1.0000
 Hartree-type preconditioning will be used
 using additional bands           20
 reciprocal scheme for non local part
 use partial core corrections
 calculate Harris-corrections to forces 
   (improved forces if not selfconsistent)
 use gradient corrections 
 use of overlap-Matrix (Vanderbilt PP)
 Methfessel and Paxton  Order N= 1 SIGMA  =   0.20


--------------------------------------------------------------------------------------------------------


  energy-cutoff  :      600.00
  volume of cell :      644.94
      direct lattice vectors                 reciprocal lattice vectors
     8.639834860  0.000000000  0.000000000     0.115742953 -0.000000002 -0.000000002
     0.000000160  8.639834860  0.000000000     0.000000000  0.115742953 -0.000000002
     0.000000160  0.000000160  8.639834860     0.000000000  0.000000000  0.115742953

  length of vectors
     8.639834860  8.639834860  8.639834860     0.115742953  0.115742953  0.115742953


 
 k-points in units of 2pi/SCALE and weight: Automatic mesh                          
   0.00000000  0.00000000  0.00000000       0.037
   0.03858098 -0.00000000 -0.00000000       0.222
   0.03858098  0.03858098 -0.00000000       0.444
   0.03858098  0.03858098  0.03858098       0.296
 
 k-points in reciprocal lattice and weights: Automatic mesh                          
   0.00000000  0.00000000  0.00000000       0.037
   0.33333333  0.00000000  0.00000000       0.222
   0.33333333  0.33333333  0.00000000       0.444
   0.33333333  0.33333333  0.33333333       0.296
 
 position of ions in fractional coordinates (direct lattice) 
   0.75000000  0.75000000  0.50000000
   0.75000000  0.75000000  0.00000000
   0.75000000  0.00000000  0.25000000
   0.75000000  0.25000000  0.50000000
   0.00000000  0.75000000  0.25000000
   0.00000000  0.00000000  0.50000000
   0.25000000  0.75000000  0.50000000
   0.75000000  0.00000000  0.75000000
   0.75000000  0.25000000  0.00000000
   0.75000000  0.50000000  0.25000000
   0.00000000  0.75000000  0.75000000
   0.00000000  0.00000000  0.00000000
   0.00000000  0.25000000  0.25000000
   0.00000000  0.50000000  0.50000000
   0.25000000  0.75000000  0.00000000
   0.25000000  0.00000000  0.25000000
   0.25000000  0.25000000  0.50000000
   0.50000000  0.75000000  0.25000000
   0.50000000  0.00000000  0.50000000
   0.75000000  0.50000000  0.75000000
   0.00000000  0.25000000  0.75000000
   0.00000000  0.50000000  0.00000000
   0.25000000  0.00000000  0.75000000
   0.25000000  0.25000000  0.00000000
   0.25000000  0.50000000  0.25000000
   0.50000000  0.75000000  0.75000000
   0.50000000  0.00000000  0.00000000
   0.50000000  0.25000000  0.25000000
   0.50000000  0.50000000  0.50000000
   0.25000000  0.50000000  0.75000000
   0.50000000  0.25000000  0.75000000
   0.50000000  0.50000000  0.00000000
 
 position of ions in cartesian coordinates  (Angst):
   6.47987635  6.47987623  4.31991743
   6.47987627  6.47987615  0.00000000
   6.47987619  0.00000004  2.15995872
   6.47987627  2.15995880  4.31991743
   0.00000016  6.47987619  2.15995872
   0.00000008  0.00000008  4.31991743
   2.15995892  6.47987623  4.31991743
   6.47987627  0.00000012  6.47987615
   6.47987619  2.15995872  0.00000000
   6.47987627  4.31991747  2.15995872
   0.00000024  6.47987627  6.47987615
   0.00000000  0.00000000  0.00000000
   0.00000008  2.15995876  2.15995872
   0.00000016  4.31991751  4.31991743
   2.15995884  6.47987615  0.00000000
   2.15995876  0.00000004  2.15995872
   2.15995884  2.15995880  4.31991743
   4.31991759  6.47987619  2.15995872
   4.31991751  0.00000008  4.31991743
   6.47987635  4.31991755  6.47987615
   0.00000016  2.15995884  6.47987615
   0.00000008  4.31991743  0.00000000
   2.15995884  0.00000012  6.47987615
   2.15995876  2.15995872  0.00000000
   2.15995884  4.31991747  2.15995872
   4.31991767  6.47987627  6.47987615
   4.31991743  0.00000000  0.00000000
   4.31991751  2.15995876  2.15995872
   4.31991759  4.31991751  4.31991743
   2.15995892  4.31991755  6.47987615
   4.31991759  2.15995884  6.47987615
   4.31991751  4.31991743  0.00000000
 


--------------------------------------------------------------------------------------------------------


 k-point  1 :  0.00000.00000.0000  plane waves:  21559
 k-point  2 :  0.33330.00000.0000  plane waves:  21526
 k-point  3 :  0.33330.33330.0000  plane waves:  21508
 k-point  4 :  0.33330.33330.3333  plane waves:  21521

 maximum and minimum number of plane-waves per node :  21559 21508

 maximum number of plane-waves:  21559
 maximal index in each direction: 
   IXMAX= 17   IYMAX= 17   IZMAX= 17
   IXMIN=-17   IYMIN=-17   IZMIN=-17

 NGX is ok and might be reduce to  70
 NGY is ok and might be reduce to  70
 NGZ is ok and might be reduce to  70

 parallel 3dFFT wavefunction:
    minimum data exchange during FFTs selected (reduces bandwidth)
 parallel 3dFFT charge:
    minimum data exchange during FFTs selected (reduces bandwidth)

 For storing wavefunctions   93.69 MBYTES are necessary
 For predicting wavefunctions   54.44 MBYTES are necessary
Broyden mixing: mesh for mixing (old mesh)
   NGX = 35   NGY = 35   NGZ = 35
  (NGX  =140   NGY  =140   NGZ  =140)
 gives a total of  42875 points
 initial charge density was supplied:
 charge density of overlapping atoms calculated
 number of electron   96.0000000 magnetization 
 keeping initial charge density in first step


--------------------------------------------------------------------------------------------------------


 Maximum index for augmentation-charges        40225 (set IRDMAX)


--------------------------------------------------------------------------------------------------------


 First call to EWALD:  gamma=   0.205
 Maximum number of real-space cells 3x 3x 3
 Maximum number of reciprocal cells 3x 3x 3

    FEWALD:  VPU time    0.00: CPU time    0.00


----------------------------------------- Iteration    1(   1)  ---------------------------------------


    POTLOK:  VPU time    0.41: CPU time    0.42
    SETDIJ:  VPU time    0.32: CPU time    0.32
    EDDAV :  VPU time    5.97: CPU time    6.00
    DOS   :  VPU time    0.00: CPU time   -0.00
    ------------------------------------------
      LOOP:  VPU time    6.71: CPU time    6.73

 eigenvalue-minimisations  :   544
 total energy-change (2. order) : 0.1368534E+03  (-0.3536026E+04)
 number of electron   96.0000000 magnetization 
 augmentation part    96.0000000 magnetization 

 Free energy of the ion-electron system (eV)
  ---------------------------------------------------
  alpha Z        PSCENC =        -5.33297230
  Ewald energy   TEWEN  =     -2200.74359207
  -1/2 Hartree   DENC   =        -7.13902087
  -V(xc)+E(xc)   XCENC  =      -850.70964387
  PAW double counting   =      1137.73615723     -115.16745734
  entropy T*S    EENTRO =        -0.01134524
  eigenvalues    EBANDS =       464.98763596
  atomic energy  EATOM  =      1713.23359074
  ---------------------------------------------------
  free energy    TOTEN  =       136.85335224 eV

  energy without entropy =      136.86469748  energy(sigma->0) =      136.85713398


--------------------------------------------------------------------------------------------------------




----------------------------------------- Iteration    1(   2)  ---------------------------------------


    EDDAV :  VPU time    6.70: CPU time    6.71
    DOS   :  VPU time    0.00: CPU time   -0.00
    ------------------------------------------
      LOOP:  VPU time    6.70: CPU time    6.71

 eigenvalue-minimisations  :   636
 total energy-change (2. order) :-0.2388483E+03  (-0.2222806E+03)
 number of electron   96.0000000 magnetization 
 augmentation part    96.0000000 magnetization 

 Free energy of the ion-electron system (eV)
  ---------------------------------------------------
  alpha Z        PSCENC =        -5.33297230
  Ewald energy   TEWEN  =     -2200.74359207
  -1/2 Hartree   DENC   =        -7.13902087
  -V(xc)+E(xc)   XCENC  =      -850.70964387
  PAW double counting   =      1137.73615723     -115.16745734
  entropy T*S    EENTRO =         0.01009195
  eigenvalues    EBANDS =       226.11791317
  atomic energy  EATOM  =      1713.23359074
  ---------------------------------------------------
  free energy    TOTEN  =      -101.99493337 eV

  energy without entropy =     -102.00502532  energy(sigma->0) =     -101.99829735


--------------------------------------------------------------------------------------------------------




----------------------------------------- Iteration    1(   3)  ---------------------------------------


    EDDAV :  VPU time    7.08: CPU time    7.10
    DOS   :  VPU time    0.00: CPU time   -0.00
    ------------------------------------------
      LOOP:  VPU time    7.08: CPU time    7.10

 eigenvalue-minimisations  :   688
 total energy-change (2. order) :-0.1454772E+02  (-0.1379912E+02)
 number of electron   96.0000000 magnetization 
 augmentation part    96.0000000 magnetization 

 Free energy of the ion-electron system (eV)
  ---------------------------------------------------
  alpha Z        PSCENC =        -5.33297230
  Ewald energy   TEWEN  =     -2200.74359207
  -1/2 Hartree   DENC   =        -7.13902087
  -V(xc)+E(xc)   XCENC  =      -850.70964387
  PAW double counting   =      1137.73615723     -115.16745734
  entropy T*S    EENTRO =        -0.02036214
  eigenvalues    EBANDS =       211.60064681
  atomic energy  EATOM  =      1713.23359074
  ---------------------------------------------------
  free energy    TOTEN  =      -116.54265381 eV

  energy without entropy =     -116.52229167  energy(sigma->0) =     -116.53586643


--------------------------------------------------------------------------------------------------------




----------------------------------------- Iteration    1(   4)  ---------------------------------------


    EDDAV :  VPU time    6.75: CPU time    6.76
    DOS   :  VPU time    0.00: CPU time   -0.00
    ------------------------------------------
      LOOP:  VPU time    6.75: CPU time    6.76

 eigenvalue-minimisations  :   640
 total energy-change (2. order) :-0.3438867E+00  (-0.3402916E+00)
 number of electron   96.0000000 magnetization 
 augmentation part    96.0000000 magnetization 

 Free energy of the ion-electron system (eV)
  ---------------------------------------------------
  alpha Z        PSCENC =        -5.33297230
  Ewald energy   TEWEN  =     -2200.74359207
  -1/2 Hartree   DENC   =        -7.13902087
  -V(xc)+E(xc)   XCENC  =      -850.70964387
  PAW double counting   =      1137.73615723     -115.16745734
  entropy T*S    EENTRO =        -0.01996223
  eigenvalues    EBANDS =       211.25636018
  atomic energy  EATOM  =      1713.23359074
  ---------------------------------------------------
  free energy    TOTEN  =      -116.88654054 eV

  energy without entropy =     -116.86657831  energy(sigma->0) =     -116.87988646


--------------------------------------------------------------------------------------------------------




----------------------------------------- Iteration    1(   5)  ---------------------------------------


    EDDAV :  VPU time    6.65: CPU time    6.66
    DOS   :  VPU time    0.00: CPU time   -0.00
    CHARGE:  VPU time    1.04: CPU time    1.04
    MIXING:  VPU time    0.01: CPU time    0.01
    ------------------------------------------
      LOOP:  VPU time    7.70: CPU time    7.72

 eigenvalue-minimisations  :   636
 total energy-change (2. order) :-0.4809778E-02  (-0.4808412E-02)
 number of electron   96.0000000 magnetization 
 augmentation part    -1.3269429 magnetization 

 Broyden mixing:
  rms(total) = 0.48622E+00    rms(broyden)= 0.48622E+00
  rms(prec ) = 0.71264E+00
  weight for this iteration     100.00

 Free energy of the ion-electron system (eV)
  ---------------------------------------------------
  alpha Z        PSCENC =        -5.33297230
  Ewald energy   TEWEN  =     -2200.74359207
  -1/2 Hartree   DENC   =        -7.13902087
  -V(xc)+E(xc)   XCENC  =      -850.70964387
  PAW double counting   =      1137.73615723     -115.16745734
  entropy T*S    EENTRO =        -0.01991493
  eigenvalues    EBANDS =       211.25150310
  atomic energy  EATOM  =      1713.23359074
  ---------------------------------------------------
  free energy    TOTEN  =      -116.89135032 eV

  energy without entropy =     -116.87143539  energy(sigma->0) =     -116.88471201


--------------------------------------------------------------------------------------------------------




----------------------------------------- Iteration    1(   6)  ---------------------------------------


    POTLOK:  VPU time    0.46: CPU time    0.46
    SETDIJ:  VPU time    0.33: CPU time    0.33
    EDDAV :  VPU time    6.53: CPU time    6.55
    DOS   :  VPU time    0.00: CPU time   -0.00
    CHARGE:  VPU time    1.04: CPU time    1.04
    MIXING:  VPU time    0.01: CPU time    0.01
    ------------------------------------------
      LOOP:  VPU time    8.37: CPU time    8.39

 eigenvalue-minimisations  :   616
 total energy-change (2. order) : 0.3848643E+00  (-0.7957751E-02)
 number of electron   96.0000000 magnetization 
 augmentation part    -1.3486226 magnetization 

 Broyden mixing:
  rms(total) = 0.30154E+00    rms(broyden)= 0.30154E+00
  rms(prec ) = 0.44346E+00
  weight for this iteration     100.00

 eigenvalues of (default mixing * dielectric matrix)
  average eigenvalue GAMMA=   2.6222
  2.6222

 Free energy of the ion-electron system (eV)
  ---------------------------------------------------
  alpha Z        PSCENC =        -5.33297230
  Ewald energy   TEWEN  =     -2200.74359207
  -1/2 Hartree   DENC   =        -5.30734346
  -V(xc)+E(xc)   XCENC  =      -850.08271405
  PAW double counting   =      1132.40450238     -109.61953027
  entropy T*S    EENTRO =        -0.01906483
  eigenvalues    EBANDS =       208.96063790
  atomic energy  EATOM  =      1713.23359074
  ---------------------------------------------------
  free energy    TOTEN  =      -116.50648598 eV

  energy without entropy =     -116.48742114  energy(sigma->0) =     -116.50013103


--------------------------------------------------------------------------------------------------------




----------------------------------------- Iteration    1(   7)  ---------------------------------------


    POTLOK:  VPU time    0.49: CPU time    0.49
    SETDIJ:  VPU time    0.31: CPU time    0.31
    EDDAV :  VPU time    6.22: CPU time    6.24
    DOS   :  VPU time    0.00: CPU time   -0.00
    CHARGE:  VPU time    1.03: CPU time    1.04
    MIXING:  VPU time    0.01: CPU time    0.01
    ------------------------------------------
      LOOP:  VPU time    8.06: CPU time    8.08

 eigenvalue-minimisations  :   572
 total energy-change (2. order) : 0.2764987E+00  (-0.2299082E-01)
 number of electron   96.0000000 magnetization 
 augmentation part    -1.3882525 magnetization 

 Broyden mixing:
  rms(total) = 0.13564E-01    rms(broyden)= 0.13564E-01
  rms(prec ) = 0.15989E-01
  weight for this iteration     100.00

 eigenvalues of (default mixing * dielectric matrix)
  average eigenvalue GAMMA=   2.5283
  2.5283  2.5283

 Free energy of the ion-electron system (eV)
  ---------------------------------------------------
  alpha Z        PSCENC =        -5.33297230
  Ewald energy   TEWEN  =     -2200.74359207
  -1/2 Hartree   DENC   =        -3.66567706
  -V(xc)+E(xc)   XCENC  =      -848.64571569
  PAW double counting   =      1124.81426016     -101.74797858
  entropy T*S    EENTRO =        -0.01873110
  eigenvalues    EBANDS =       205.87682862
  atomic energy  EATOM  =      1713.23359074
  ---------------------------------------------------
  free energy    TOTEN  =      -116.22998728 eV

  energy without entropy =     -116.21125618  energy(sigma->0) =     -116.22374358


--------------------------------------------------------------------------------------------------------




----------------------------------------- Iteration    1(   8)  ---------------------------------------


    POTLOK:  VPU time    0.45: CPU time    0.45
    SETDIJ:  VPU time    0.30: CPU time    0.30
    EDDAV :  VPU time    6.76: CPU time    6.78
    DOS   :  VPU time    0.00: CPU time   -0.00
    CHARGE:  VPU time    0.98: CPU time    0.98
    MIXING:  VPU time    0.01: CPU time    0.01
    ------------------------------------------
      LOOP:  VPU time    8.50: CPU time    8.52

 eigenvalue-minimisations  :   640
 total energy-change (2. order) : 0.2458508E-03  (-0.1589144E-03)
 number of electron   96.0000000 magnetization 
 augmentation part    -1.3898487 magnetization 

 Broyden mixing:
  rms(total) = 0.34648E-02    rms(broyden)= 0.34648E-02
  rms(prec ) = 0.49067E-02
  weight for this iteration     100.00

 eigenvalues of (default mixing * dielectric matrix)
  average eigenvalue GAMMA=   2.0588
  0.9490  2.6667  2.5607

 Free energy of the ion-electron system (eV)
  ---------------------------------------------------
  alpha Z        PSCENC =        -5.33297230
  Ewald energy   TEWEN  =     -2200.74359207
  -1/2 Hartree   DENC   =        -3.73672743
  -V(xc)+E(xc)   XCENC  =      -848.60594056
  PAW double counting   =      1126.57063419     -103.61421993
  entropy T*S    EENTRO =        -0.01874625
  eigenvalues    EBANDS =       206.01823220
  atomic energy  EATOM  =      1713.23359074
  ---------------------------------------------------
  free energy    TOTEN  =      -116.22974143 eV

  energy without entropy =     -116.21099517  energy(sigma->0) =     -116.22349267


--------------------------------------------------------------------------------------------------------




----------------------------------------- Iteration    1(   9)  ---------------------------------------


    POTLOK:  VPU time    0.40: CPU time    0.40
    SETDIJ:  VPU time    0.26: CPU time    0.26
    EDDAV :  VPU time    5.81: CPU time    5.82
    DOS   :  VPU time    0.00: CPU time   -0.00
    ------------------------------------------
      LOOP:  VPU time    6.48: CPU time    6.49

 eigenvalue-minimisations  :   596
 total energy-change (2. order) :-0.8523915E-05  (-0.4342913E-05)
 number of electron   96.0000000 magnetization 
 augmentation part    -1.3898487 magnetization 

 Free energy of the ion-electron system (eV)
  ---------------------------------------------------
  alpha Z        PSCENC =        -5.33297230
  Ewald energy   TEWEN  =     -2200.74359207
  -1/2 Hartree   DENC   =        -3.74799555
  -V(xc)+E(xc)   XCENC  =      -848.57579232
  PAW double counting   =      1126.86621750     -103.93314713
  entropy T*S    EENTRO =        -0.01875827
  eigenvalues    EBANDS =       206.02269945
  atomic energy  EATOM  =      1713.23359074
  ---------------------------------------------------
  free energy    TOTEN  =      -116.22974995 eV

  energy without entropy =     -116.21099168  energy(sigma->0) =     -116.22349719


--------------------------------------------------------------------------------------------------------




 average (electrostatic) potential at core
  the test charge radii are     1.0406
  (the norm of the test charge is              1.0000)
       1 -74.8363       2 -74.8363       3 -74.8363       4 -74.8363       5 -74.8363
       6 -74.8363       7 -74.8363       8 -74.8363       9 -74.8363      10 -74.8363
      11 -74.8363      12 -74.8363      13 -74.8363      14 -74.8363      15 -74.8363
      16 -74.8363      17 -74.8363      18 -74.8363      19 -74.8363      20 -74.8363
      21 -74.8363      22 -74.8363      23 -74.8363      24 -74.8363      25 -74.8363
      26 -74.8363      27 -74.8363      28 -74.8363      29 -74.8363      30 -74.8363
      31 -74.8363      32 -74.8363
 
 
 
 E-fermi :   5.9147     XC(G=0):  -9.4933     alpha+bet :-12.1791
   add alpha+bet to get absolut eigen values

 k-point   1 :       0.0000    0.0000    0.0000
  band No.  band energies     occupation 
      1      -3.7610      2.00000
      2      -1.7906      2.00000
      3      -1.7906      2.00000
      4      -1.7906      2.00000
      5      -1.7906      2.00000
      6      -1.7906      2.00000
      7      -1.7906      2.00000
      8       0.1557      2.00000
      9       0.1557      2.00000
     10       0.1557      2.00000
     11       0.1557      2.00000
     12       0.1557      2.00000
     13       0.1557      2.00000
     14       0.1557      2.00000
     15       0.1557      2.00000
     16       0.1557      2.00000
     17       0.1557      2.00000
     18       0.1557      2.00000
     19       0.1557      2.00000
     20       1.9288      2.00000
     21       1.9288      2.00000
     22       1.9288      2.00000
     23       1.9288      2.00000
     24       2.2405      2.00000
     25       2.2405      2.00000
     26       2.2405      2.00000
     27       2.2405      2.00000
     28       3.6206      2.00000
     29       3.6206      2.00000
     30       3.6206      2.00000
     31       4.4246      2.00000
     32       4.4246      2.00000
     33       4.4246      2.00000
     34       5.4710      2.00742
     35       5.4710      2.00742
     36       5.4710      2.00742
     37       5.4710      2.00742
     38       5.4710      2.00742
     39       5.4710      2.00742
     40       5.4710      2.00742
     41       5.4710      2.00742
     42       5.4710      2.00742
     43       5.4710      2.00742
     44       5.4710      2.00742
     45       5.4710      2.00742
     46       6.1507     -0.07026
     47       6.1507     -0.07026
     48       6.1507     -0.07026
     49       6.1507     -0.07026
     50       6.1507     -0.07026
     51       6.1507     -0.07026
     52       6.5547     -0.00006
     53       6.5547     -0.00006
     54       6.5547     -0.00006
     55       6.5547     -0.00006
     56       6.5547     -0.00006
     57       6.5547     -0.00006
     58       7.3205     -0.00000
     59       7.3205     -0.00000
     60       7.3205     -0.00000
     61       7.3205     -0.00000
     62       7.3205     -0.00000
     63       7.3205     -0.00000
     64       7.3205     -0.00000
     65       7.3205     -0.00000
     66       7.3205     -0.00000
     67       7.3205     -0.00000
     68       7.3205     -0.00000

 k-point   2 :       0.3333    0.0000    0.0000
  band No.  band energies     occupation 
      1      -3.5409      2.00000
      2      -2.8824      2.00000
      3      -1.5732      2.00000
      4      -1.5732      2.00000
      5      -1.5732      2.00000
      6      -1.5732      2.00000
      7      -0.9229      2.00000
      8      -0.9229      2.00000
      9      -0.9229      2.00000
     10      -0.9229      2.00000
     11      -0.2743      2.00000
     12       0.3697      2.00000
     13       0.3697      2.00000
     14       0.3697      2.00000
     15       0.3697      2.00000
     16       1.0084      2.00000
     17       1.0084      2.00000
     18       1.0084      2.00000
     19       1.0084      2.00000
     20       1.6484      2.00000
     21       1.6533      2.00000
     22       1.6533      2.00000
     23       1.6533      2.00000
     24       1.6533      2.00000
     25       3.5499      2.00000
     26       3.5499      2.00000
     27       3.5499      2.00000
     28       3.5499      2.00000
     29       3.5754      2.00000
     30       3.5754      2.00000
     31       3.5754      2.00000
     32       3.5754      2.00000
     33       3.8261      2.00000
     34       3.8261      2.00000
     35       4.4427      2.00000
     36       4.4427      2.00000
     37       4.6394      2.00000
     38       4.6394      2.00000
     39       5.2766      2.00006
     40       5.2766      2.00006
     41       5.4461      2.00454
     42       5.4461      2.00454
     43       5.4461      2.00454
     44       5.4461      2.00454
     45       5.6765      2.07055
     46       5.6765      2.07055
     47       5.6765      2.07055
     48       5.6765      2.07055
     49       6.2931     -0.02231
     50       6.2931     -0.02231
     51       6.2931     -0.02231
     52       6.2931     -0.02231
     53       6.5600     -0.00005
     54       6.5600     -0.00005
     55       6.5600     -0.00005
     56       6.5600     -0.00005
     57       6.7836     -0.00000
     58       6.9111     -0.00000
     59       6.9111     -0.00000
     60       7.1920     -0.00000
     61       7.1920     -0.00000
     62       7.1920     -0.00000
     63       7.1920     -0.00000
     64       7.8137     -0.00000
     65       7.8137     -0.00000
     66       8.6541     -0.00000
     67       8.6586     -0.00000
     68       8.6827     -0.00000

 k-point   3 :       0.3333    0.3333    0.0000
  band No.  band energies     occupation 
      1      -3.3212      2.00000
      2      -2.6636      2.00000
      3      -2.6636      2.00000
      4      -2.0088      2.00000
      5      -1.3563      2.00000
      6      -1.3563      2.00000
      7      -0.7069      2.00000
      8      -0.7069      2.00000
      9      -0.7069      2.00000
     10      -0.7069      2.00000
     11      -0.0609      2.00000
     12      -0.0609      2.00000
     13      -0.0591      2.00000
     14      -0.0591      2.00000
     15       0.5851      2.00000
     16       0.5851      2.00000
     17       1.8608      2.00000
     18       1.8608      2.00000
     19       1.8635      2.00000
     20       1.8635      2.00000
     21       1.8635      2.00000
     22       1.8635      2.00000
     23       2.3648      2.00000
     24       2.3648      2.00000
     25       2.4966      2.00000
     26       2.4966      2.00000
     27       2.6519      2.00000
     28       2.6519      2.00000
     29       3.1353      2.00000
     30       3.6565      2.00000
     31       3.6565      2.00000
     32       3.8745      2.00000
     33       3.8745      2.00000
     34       4.0316      2.00000
     35       4.4030      2.00000
     36       4.4030      2.00000
     37       4.4030      2.00000
     38       4.4030      2.00000
     39       4.6482      2.00000
     40       4.6482      2.00000
     41       4.8509      2.00000
     42       4.9862      2.00000
     43       4.9862      2.00000
     44       5.0398      2.00000
     45       5.0398      2.00000
     46       5.2649      2.00004
     47       5.5394      2.02334
     48       5.5394      2.02334
     49       6.1483     -0.06986
     50       6.8896     -0.00000
     51       6.8968     -0.00000
     52       6.8968     -0.00000
     53       6.8968     -0.00000
     54       6.8968     -0.00000
     55       6.9895     -0.00000
     56       6.9895     -0.00000
     57       7.1164     -0.00000
     58       7.1164     -0.00000
     59       7.5703     -0.00000
     60       7.5703     -0.00000
     61       7.7321     -0.00000
     62       7.7321     -0.00000
     63       8.0566     -0.00000
     64       8.0566     -0.00000
     65       8.6132     -0.00000
     66       8.6185     -0.00000
     67       8.7323     -0.00000
     68       8.7337     -0.00000

 k-point   4 :       0.3333    0.3333    0.3333
  band No.  band energies     occupation 
      1      -3.1017      2.00000
      2      -2.4451      2.00000
      3      -2.4451      2.00000
      4      -2.4451      2.00000
      5      -1.7912      2.00000
      6      -1.7912      2.00000
      7      -1.7912      2.00000
      8      -1.1402      2.00000
      9       0.1558      2.00000
     10       0.1558      2.00000
     11       0.1558      2.00000
     12       0.7987      2.00000
     13       0.7987      2.00000
     14       0.7987      2.00000
     15       0.7987      2.00000
     16       0.7987      2.00000
     17       0.7987      2.00000
     18       1.4364      2.00000
     19       1.4364      2.00000
     20       1.4364      2.00000
     21       2.0728      2.00000
     22       2.0728      2.00000
     23       2.0728      2.00000
     24       2.7063      2.00000
     25       2.7063      2.00000
     26       2.7063      2.00000
     27       2.7063      2.00000
     28       2.7063      2.00000
     29       2.7063      2.00000
     30       3.2288      2.00000
     31       3.2288      2.00000
     32       3.2288      2.00000
     33       3.4690      2.00000
     34       3.4690      2.00000
     35       3.4690      2.00000
     36       3.9938      2.00000
     37       3.9938      2.00000
     38       3.9938      2.00000
     39       5.2340      2.00002
     40       5.2340      2.00002
     41       5.2340      2.00002
     42       5.2340      2.00002
     43       5.2340      2.00002
     44       5.2340      2.00002
     45       5.8599      1.44471
     46       5.8599      1.44471
     47       5.8599      1.44471
     48       5.8599      1.44471
     49       5.8599      1.44471
     50       5.8599      1.44471
     51       6.4948     -0.00032
     52       7.0399     -0.00000
     53       7.0399     -0.00000
     54       7.0399     -0.00000
     55       7.2514     -0.00000
     56       7.2514     -0.00000
     57       7.2514     -0.00000
     58       7.7054     -0.00000
     59       7.7054     -0.00000
     60       7.7054     -0.00000
     61       7.8232     -0.00000
     62       7.8232     -0.00000
     63       7.8232     -0.00000
     64       7.8232     -0.00000
     65       7.8232     -0.00000
     66       7.8232     -0.00000
     67       8.3359     -0.00000
     68       8.3361     -0.00000


--------------------------------------------------------------------------------------------------------


 soft charge-density along one line, spin component           1
         0         1         2         3         4         5         6         7         8         9
 total charge-density along one line
 
 pseudopotential strength for first ion, spin component:           1
  8.508  -0.003   0.000  -0.000  -0.000   0.000  -0.000  -0.000
 -0.003   0.000   0.000  -0.000  -0.000  -0.000   0.000   0.000
  0.000   0.000   1.980  -0.000  -0.000  -0.020   0.000   0.000
 -0.000  -0.000  -0.000   1.980  -0.000   0.000  -0.020   0.000
 -0.000  -0.000  -0.000  -0.000   1.980   0.000   0.000  -0.020
  0.000  -0.000  -0.020   0.000   0.000  -0.013   0.000   0.000
 -0.000   0.000   0.000  -0.020   0.000   0.000  -0.013   0.000
 -0.000   0.000   0.000   0.000  -0.020   0.000   0.000  -0.013
 total augmentation occupancy for first ion, spin component:           1
  1.414  -0.270   0.000  -0.000   0.000  -0.000  -0.000   0.000
 -0.270   0.297   0.000  -0.000   0.000  -0.000   0.000  -0.000
  0.000   0.000   0.586  -0.013  -0.010  -0.103   0.001   0.000
 -0.000  -0.000  -0.013   0.619  -0.013   0.001  -0.105   0.001
  0.000   0.000  -0.010  -0.013   0.582   0.000   0.001  -0.105
 -0.000  -0.000  -0.103   0.001   0.000   0.021   0.000   0.000
 -0.000   0.000   0.001  -0.105   0.001   0.000   0.021   0.000
  0.000  -0.000   0.000   0.001  -0.105   0.000   0.000   0.022


------------------------ aborting loop because EDIFF is reached ----------------------------------------




--------------------------------------------------------------------------------------------------------


    CHARGE:  VPU time    0.90: CPU time    0.90
    FORLOC:  VPU time    0.08: CPU time    0.08
    FORNL :  VPU time    3.56: CPU time    3.56
    STRESS:  VPU time    5.58: CPU time    5.59
    FORCOR:  VPU time    0.44: CPU time    0.44
    FORHAR:  VPU time    0.15: CPU time    0.15
    MIXING:  VPU time    0.01: CPU time    0.01


--------------------------------------------------------------------------------------------------------



  FREE ENERGIE OF THE ION-ELECTRON SYSTEM (eV)
  ---------------------------------------------------
  free  energy   TOTEN  =      -116.229750 eV

  energy  without entropy=     -116.210992  energy(sigma->0) =     -116.223497
 

  FORCE on cell =-STRESS in cart. coord.  units (eV/reduce length):
  Direction    X        Y        Z        XY       YZ       ZX
  --------------------------------------------------------------------------------------
  Alpha Z     -5.33     -5.33     -5.33
  Ewald     -733.58   -733.58   -733.58     -0.00     -0.00     -0.00
  Hartree      1.25      1.25      1.25      0.00      0.00      0.00
  E(xc)     -258.56   -258.56   -258.56      0.00      0.00      0.00
  Local      -19.20    -19.20    -19.20      0.00      0.00      0.00
  n-local    587.44    588.41    585.49     -0.49      0.40      0.40
  augment    -37.20    -37.20    -37.20      0.00      0.00      0.00
  Kinetic    413.44    415.97    444.77     -3.34     -9.28     -9.28
  -------------------------------------------------------------------------------------
  Total      -40.79    -40.79    -40.79     -0.00     -0.00     -0.00
  in kB     -101.33   -101.33   -101.33     -0.00     -0.00     -0.00
  external pressure =     -101.33 kB  Pullay stress =        0.00 kB


 VOLUME and BASIS-vectors are now :
 -----------------------------------------------------------------------------
  energy-cutoff  :      600.00
  volume of cell :      644.94
      direct lattice vectors                 reciprocal lattice vectors
     8.639834860  0.000000000  0.000000000     0.115742953 -0.000000002 -0.000000002
     0.000000160  8.639834860  0.000000000     0.000000000  0.115742953 -0.000000002
     0.000000160  0.000000160  8.639834860     0.000000000  0.000000000  0.115742953

  length of vectors
     8.639834860  8.639834860  8.639834860     0.115742953  0.115742953  0.115742953


 FORCES acting on ions
    electron-ion (+dipol)            ewald-force                    non-local-force                 convergence-correction
 -----------------------------------------------------------------------------------------------
   -.432E-14 -.585E-12 0.261E-12   0.140E-13 0.133E-14 0.220E-14   0.100E-23 0.102E-22 0.359E-23   0.183E-13 0.413E-14 -.736E-13
   -.514E-14 -.212E-12 0.314E-12   0.888E-14 0.178E-14 0.671E-14   -.877E-22 -.227E-22 0.743E-24   0.306E-14 -.432E-13 0.815E-13
   -.586E-14 0.194E-13 0.493E-13   0.400E-14 0.956E-15 0.444E-15   -.825E-22 -.721E-23 0.139E-22   -.101E-13 -.596E-13 0.409E-14
   -.717E-14 -.851E-13 0.142E-12   0.111E-14 0.133E-14 -.146E-14   0.958E-23 -.550E-22 -.183E-23   0.120E-13 -.549E-14 -.250E-13
   0.893E-14 -.933E-14 -.893E-14   -.676E-14 0.444E-15 0.111E-14   0.541E-22 -.256E-23 -.145E-22   -.237E-13 -.700E-14 -.122E-13
   0.760E-14 0.648E-14 -.205E-14   0.302E-14 -.115E-14 -.375E-14   0.344E-22 -.627E-23 -.968E-23   -.541E-14 -.381E-13 -.396E-13
   0.310E-14 -.117E-12 0.596E-13   -.111E-14 0.111E-14 0.157E-14   0.672E-22 0.433E-22 -.899E-23   -.189E-13 0.283E-14 -.358E-13
   -.527E-14 0.318E-12 -.301E-12   0.111E-14 0.201E-14 0.444E-15   -.340E-22 -.278E-22 -.103E-22   0.117E-13 -.114E-13 -.129E-13
   -.764E-14 0.284E-12 0.455E-13   0.533E-14 0.355E-14 0.712E-16   0.818E-22 -.148E-24 -.213E-22   -.192E-13 0.435E-13 0.336E-13
   -.535E-14 0.155E-12 -.693E-13   -.355E-14 0.623E-14 -.355E-14   0.119E-22 0.132E-22 -.129E-23   0.335E-14 0.601E-13 -.437E-13
   0.904E-14 -.118E-13 -.190E-13   -.555E-14 -.444E-14 0.400E-14   0.532E-22 0.403E-22 0.169E-22   0.147E-13 -.178E-13 0.565E-14
   0.994E-14 0.170E-13 0.184E-13   -.730E-15 -.475E-14 -.577E-14   -.232E-22 -.172E-22 0.860E-23   0.334E-13 -.279E-13 0.464E-13
   0.761E-14 -.167E-14 -.901E-14   -.470E-15 -.311E-14 -.444E-15   -.480E-22 -.428E-22 -.289E-22   0.148E-13 0.687E-14 -.231E-13
   0.900E-14 0.676E-15 0.215E-14   0.315E-14 0.489E-14 -.777E-14   0.266E-22 0.278E-22 -.101E-22   -.401E-14 0.387E-13 -.291E-13
   0.296E-14 0.167E-12 0.775E-13   0.000E+00 -.178E-14 0.281E-14   0.312E-22 -.110E-22 0.402E-22   -.361E-14 -.544E-14 0.423E-13
   0.345E-14 0.213E-13 -.149E-12   -.222E-15 -.606E-14 0.400E-14   0.673E-22 -.249E-22 -.300E-22   0.935E-14 -.209E-13 -.343E-13
   0.507E-14 0.871E-13 0.507E-13   0.533E-14 0.666E-15 -.233E-14   -.134E-22 -.268E-22 -.170E-23   -.127E-13 -.381E-14 -.272E-13
   -.334E-14 -.113E-12 -.144E-13   -.725E-14 -.711E-14 0.178E-14   0.818E-23 -.684E-22 0.400E-23   0.242E-13 0.549E-14 -.282E-13
   -.475E-14 0.663E-14 -.115E-12   0.103E-14 -.194E-14 0.357E-14   0.171E-22 0.600E-22 0.880E-23   0.608E-14 -.312E-13 -.601E-13
   -.508E-14 0.127E-12 -.329E-12   -.711E-14 0.176E-14 0.000E+00   0.105E-22 0.187E-23 -.228E-22   0.915E-14 0.119E-13 0.357E-13
   0.826E-14 -.209E-14 -.165E-13   -.916E-14 0.377E-14 -.333E-14   -.426E-22 0.102E-21 -.570E-23   0.133E-13 0.176E-13 0.163E-13
   0.941E-14 -.375E-14 0.776E-14   -.251E-14 0.244E-14 -.288E-14   -.780E-23 0.736E-22 -.259E-23   -.509E-14 0.273E-13 0.354E-13
   0.282E-14 0.854E-14 0.185E-12   -.377E-14 -.309E-14 0.422E-14   -.209E-22 -.429E-22 -.523E-24   -.124E-13 -.127E-13 0.266E-13
   0.478E-14 -.184E-12 0.383E-13   0.000E+00 0.355E-14 -.482E-16   -.402E-22 -.204E-22 0.509E-23   0.185E-13 0.429E-14 0.344E-13
   0.620E-14 0.124E-13 0.398E-13   0.178E-14 0.179E-14 -.355E-14   -.559E-22 -.921E-22 -.324E-22   -.382E-14 0.219E-13 -.418E-13
   -.482E-14 0.120E-12 0.212E-12   -.358E-14 -.178E-14 0.355E-14   0.200E-22 -.153E-22 0.275E-22   -.142E-13 -.213E-13 0.201E-13
   -.455E-14 0.949E-13 0.271E-12   -.666E-14 0.199E-15 -.212E-17   0.719E-22 -.102E-22 0.872E-23   -.328E-13 -.458E-14 0.695E-13
   -.396E-14 -.698E-13 -.993E-13   -.244E-14 -.178E-14 0.178E-14   0.657E-22 -.618E-22 -.339E-22   -.141E-13 -.725E-14 -.555E-13
   -.252E-14 0.109E-13 -.954E-13   -.713E-14 0.330E-17 0.222E-15   -.243E-22 -.268E-23 -.101E-22   0.447E-14 0.331E-13 -.341E-13
   0.571E-14 0.120E-13 -.725E-13   -.355E-14 0.110E-14 -.355E-14   -.510E-22 0.165E-22 0.276E-22   -.960E-14 0.136E-13 0.354E-13
   -.425E-14 -.547E-13 -.108E-12   -.296E-14 -.533E-14 0.000E+00   -.734E-23 -.293E-22 0.892E-23   -.126E-13 0.195E-13 0.463E-13
   -.407E-14 -.138E-12 -.204E-14   -.948E-14 -.533E-14 -.533E-14   -.548E-22 -.767E-22 0.549E-22   0.554E-14 0.623E-14 0.420E-13
 -----------------------------------------------------------------------------------------------
   0.258E-13 -.118E-12 0.364E-12   -.353E-13 -.870E-14 -.532E-14   0.381E-22 -.275E-21 -.171E-22   -.155E-15 -.593E-15 -.101E-14
 
 
 POSITION                                       TOTAL-FORCE (eV/Angst)
 -----------------------------------------------------------------------------------
      6.47988      6.47988      4.31992         0.000000      0.000000      0.000000
      6.47988      6.47988      0.00000         0.000000      0.000000      0.000000
      6.47988      0.00000      2.15996        -0.000000      0.000000      0.000000
      6.47988      2.15996      4.31992         0.000000      0.000000     -0.000000
      0.00000      6.47988      2.15996        -0.000000      0.000000      0.000000
      0.00000      0.00000      4.31992         0.000000      0.000000     -0.000000
      2.15996      6.47988      4.31992        -0.000000     -0.000000      0.000000
      6.47988      0.00000      6.47988         0.000000     -0.000000      0.000000
      6.47988      2.15996      0.00000        -0.000000      0.000000      0.000000
      6.47988      4.31992      2.15996        -0.000000      0.000000     -0.000000
      0.00000      6.47988      6.47988        -0.000000     -0.000000      0.000000
      0.00000      0.00000      0.00000        -0.000000     -0.000000      0.000000
      0.00000      2.15996      2.15996        -0.000000     -0.000000     -0.000000
      0.00000      4.31992      4.31992        -0.000000     -0.000000      0.000000
      2.15996      6.47988      0.00000        -0.000000      0.000000      0.000000
      2.15996      0.00000      2.15996        -0.000000      0.000000      0.000000
      2.15996      2.15996      4.31992         0.000000     -0.000000     -0.000000
      4.31992      6.47988      2.15996        -0.000000      0.000000      0.000000
      4.31992      0.00000      4.31992        -0.000000      0.000000      0.000000
      6.47988      4.31992      6.47988        -0.000000     -0.000000      0.000000
      0.00000      2.15996      6.47988        -0.000000     -0.000000     -0.000000
      0.00000      4.31992      0.00000         0.000000      0.000000      0.000000
      2.15996      0.00000      6.47988         0.000000     -0.000000      0.000000
      2.15996      2.15996      0.00000        -0.000000     -0.000000     -0.000000
      2.15996      4.31992      2.15996         0.000000      0.000000      0.000000
      4.31992      6.47988      6.47988        -0.000000      0.000000     -0.000000
      4.31992      0.00000      0.00000        -0.000000      0.000000     -0.000000
      4.31992      2.15996      2.15996         0.000000      0.000000      0.000000
      4.31992      4.31992      4.31992         0.000000      0.000000     -0.000000
      2.15996      4.31992      6.47988        -0.000000     -0.000000     -0.000000
      4.31992      2.15996      6.47988         0.000000      0.000000      0.000000
      4.31992      4.31992      0.00000        -0.000000     -0.000000     -0.000000
 -----------------------------------------------------------------------------------
    total drift:                               -0.000000     -0.000000      0.000000


--------------------------------------------------------------------------------------------------------




--------------------------------------------------------------------------------------------------------


  
 reached required accuracy - stopping structural energy minimisation
 writing wavefunctions
     LOOP+:  VPU time   77.33: CPU time   78.52

 ----------------------------------------------------------------------------- 
|                                                                             |
|           W    W    AA    RRRRR   N    N  II  N    N   GGGG   !!!           |
|           W    W   A  A   R    R  NN   N  II  NN   N  G    G  !!!           |
|           W    W  A    A  R    R  N N  N  II  N N  N  G       !!!           |
|           W WW W  AAAAAA  RRRRR   N  N N  II  N  N N  G  GGG   !            |
|           WW  WW  A    A  R   R   N   NN  II  N   NN  G    G                |
|           W    W  A    A  R    R  N    N  II  N    N   GGGG   !!!           |
|                                                                             |
|      The partial DOS and the PROCAR file are not evaluated for NPAR/=1      |
|      please rerun with NPAR=1                                               |
|                                                                             |
 ----------------------------------------------------------------------------- 

  
  
 General timing and accounting informations for this job:
 ========================================================
  
                  Total CPU time used (sec):       80.547
                            User time (sec):       77.505
                          System time (sec):        3.042
                         Elapsed time (sec):       81.744
  
                   Maximum memory used (kb):      442840.
                   Average memory used (kb):           0.
  
                          Minor page faults:        71165
                          Major page faults:            0
                 Voluntary context switches:         4396
