 running on    4 nodes
 distr:  one band on    1 nodes,    4 groups
 vasp.4.6.28 25Jul05 complex 
 POSCAR found :  1 types and   32 ions

 ----------------------------------------------------------------------------- 
|                                                                             |
|  ADVICE TO THIS USER RUNNING 'VASP/VAMP'   (HEAR YOUR MASTER'S VOICE ...):  |
|                                                                             |
|      You have a (more or less) 'large supercell' and for larger cells       |
|      it might be more efficient to use real space projection operators      |
|      So try LREAL= Auto  in the INCAR   file.                               |
|      Mind: If you want to do an extremely accurate calculations keep the    |
|      reciprocal projection scheme          (i.e. LREAL=.FALSE.)             |
|                                                                             |
 ----------------------------------------------------------------------------- 

 LDA part: xc-table for Pade appr. of Perdew
 POSCAR, INCAR and KPOINTS ok, starting setup
 FFT: planning ...           2
 reading WAVECAR
 entering main loop
       N       E                     dE             d eps       ncg     rms          rms(c)
DAV:   1     0.136853352236E+03    0.13685E+03   -0.35360E+04   544   0.125E+03
DAV:   2    -0.101994933367E+03   -0.23885E+03   -0.22228E+03   636   0.143E+02
DAV:   3    -0.116542653813E+03   -0.14548E+02   -0.13799E+02   688   0.279E+01
DAV:   4    -0.116886540541E+03   -0.34389E+00   -0.34029E+00   640   0.450E+00
DAV:   5    -0.116891350319E+03   -0.48098E-02   -0.48084E-02   636   0.639E-01    0.486E+00
DAV:   6    -0.116506485975E+03    0.38486E+00   -0.79578E-02   616   0.919E-01    0.302E+00
DAV:   7    -0.116229987276E+03    0.27650E+00   -0.22991E-01   572   0.147E+00    0.136E-01
DAV:   8    -0.116229741426E+03    0.24585E-03   -0.15891E-03   640   0.150E-01    0.346E-02
DAV:   9    -0.116229749949E+03   -0.85239E-05   -0.43429E-05   596   0.191E-02
   1 F= -.11622975E+03 E0= -.11622350E+03  d E =-.116230E+03
 curvature:   0.00 expect dE= 0.000E+00 dE for cont linesearch  0.000E+00
 trial: gam= 0.00000 g(F)=  0.840E-60 g(S)=  0.000E+00 ort = 0.000E+00 (trialstep = 0.100E+01)
 search vector abs. value=  0.100E-09
 reached required accuracy - stopping structural energy minimisation
 writing wavefunctions

 ----------------------------------------------------------------------------- 
|                                                                             |
|           W    W    AA    RRRRR   N    N  II  N    N   GGGG   !!!           |
|           W    W   A  A   R    R  NN   N  II  NN   N  G    G  !!!           |
|           W    W  A    A  R    R  N N  N  II  N N  N  G       !!!           |
|           W WW W  AAAAAA  RRRRR   N  N N  II  N  N N  G  GGG   !            |
|           WW  WW  A    A  R   R   N   NN  II  N   NN  G    G                |
|           W    W  A    A  R    R  N    N  II  N    N   GGGG   !!!           |
|                                                                             |
|      The partial DOS and the PROCAR file are not evaluated for NPAR/=1      |
|      please rerun with NPAR=1                                               |
|                                                                             |
 ----------------------------------------------------------------------------- 

