   4   4   0   0
  0.1063590E+02  0.3490959E-09  0.3490959E-09  0.3490959E-09  0.5000000E-15
  1.000000000000000E-004
  CAR 
 unknown system                          
     28.84343581     -7.06406954  301      4.78513445      1.00000000
     -7.064  0.0000E+00  0.0000E+00
     -6.944  0.0000E+00  0.0000E+00
     -6.825  0.0000E+00  0.0000E+00
     -6.705  0.0000E+00  0.0000E+00
     -6.585  0.0000E+00  0.0000E+00
     -6.466  0.0000E+00  0.0000E+00
     -6.346  0.0000E+00  0.0000E+00
     -6.226  0.0000E+00  0.0000E+00
     -6.107  0.0000E+00  0.0000E+00
     -5.987  0.0000E+00  0.0000E+00
     -5.867  0.0000E+00  0.0000E+00
     -5.747  0.0000E+00  0.0000E+00
     -5.628  0.0000E+00  0.0000E+00
     -5.508  0.0000E+00  0.0000E+00
     -5.388  0.6106E-02  0.7308E-03
     -5.269  0.7307E-01  0.1385E-01
     -5.149  0.3611E-01  0.2400E-01
     -5.029  0.2492E+00  0.5388E-01
     -4.910  0.1010E-01  0.6025E-01
     -4.790  0.1833E+00  0.8972E-01
     -4.670  0.1462E+00  0.1246E+00
     -4.551  0.1461E+00  0.1480E+00
     -4.431  0.2549E-11  0.1829E+00
     -4.311  0.3177E+00  0.2210E+00
     -4.191  0.3441E+00  0.2635E+00
     -4.072  0.3187E+00  0.3042E+00
     -3.952  0.1461E+00  0.3360E+00
     -3.832  0.1829E+00  0.3579E+00
     -3.713  0.4944E+00  0.4345E+00
     -3.593  0.1827E+00  0.4730E+00
     -3.473  0.2923E+00  0.5386E+00
     -3.354  0.2197E+00  0.5649E+00
     -3.234  0.4678E+00  0.6384E+00
     -3.114  0.3099E+00  0.6894E+00
     -2.995  0.1461E+00  0.7442E+00
     -2.875  0.7292E+00  0.8314E+00
     -2.755  0.1475E+00  0.8843E+00
     -2.635  0.4631E+00  0.9570E+00
     -2.516  0.4872E-01  0.9949E+00
     -2.396  0.5081E+00  0.1095E+01
     -2.276  0.2229E+00  0.1157E+01
     -2.157  0.4502E+00  0.1289E+01
     -2.037  0.2938E+00  0.1358E+01
     -1.917  0.5846E+00  0.1445E+01
     -1.798  0.9136E+00  0.1555E+01
     -1.678  0.7427E+00  0.1661E+01
     -1.558  0.1056E+01  0.1838E+01
     -1.439  0.6556E+00  0.1919E+01
     -1.319  0.7539E+00  0.2036E+01
     -1.199  0.1105E+01  0.2266E+01
     -1.079  0.1222E+01  0.2455E+01
     -0.960  0.1581E+01  0.2678E+01
     -0.840  0.1981E+01  0.2978E+01
     -0.720  0.2741E+01  0.3522E+01
     -0.601  0.3707E+01  0.4031E+01
     -0.481  0.4056E+01  0.4615E+01
     -0.361  0.3027E+01  0.5078E+01
     -0.242  0.4232E+01  0.5721E+01
     -0.122  0.5117E+01  0.6502E+01
     -0.002  0.4695E+01  0.7357E+01
      0.117  0.6526E+01  0.8451E+01
      0.237  0.4902E+01  0.9359E+01
      0.357  0.4593E+01  0.1024E+02
      0.477  0.5804E+01  0.1115E+02
      0.596  0.4975E+01  0.1200E+02
      0.716  0.4136E+01  0.1272E+02
      0.836  0.4976E+01  0.1383E+02
      0.955  0.6512E+01  0.1497E+02
      1.075  0.8712E+01  0.1635E+02
      1.195  0.6431E+01  0.1754E+02
      1.314  0.9986E+01  0.1917E+02
      1.434  0.1015E+02  0.2082E+02
      1.554  0.1019E+02  0.2257E+02
      1.673  0.8493E+01  0.2417E+02
      1.793  0.7473E+01  0.2544E+02
      1.913  0.5360E+01  0.2637E+02
      2.032  0.5841E+01  0.2744E+02
      2.152  0.7653E+01  0.2887E+02
      2.272  0.9511E+01  0.3046E+02
      2.392  0.8611E+01  0.3187E+02
      2.511  0.5961E+01  0.3306E+02
      2.631  0.7165E+01  0.3447E+02
      2.751  0.6566E+01  0.3575E+02
      2.870  0.8011E+01  0.3733E+02
      2.990  0.1496E+02  0.3986E+02
      3.110  0.6491E+01  0.4145E+02
      3.229  0.1532E+01  0.4192E+02
      3.349  0.8813E+00  0.4221E+02
      3.469  0.5683E+00  0.4234E+02
      3.588  0.1082E+01  0.4251E+02
      3.708  0.7779E+00  0.4273E+02
      3.828  0.5789E+00  0.4285E+02
      3.948  0.5837E+00  0.4296E+02
      4.067  0.1608E+01  0.4320E+02
      4.187  0.7750E+00  0.4333E+02
      4.307  0.7230E+00  0.4344E+02
      4.426  0.9743E+00  0.4360E+02
      4.546  0.8041E+00  0.4375E+02
      4.666  0.5587E+00  0.4389E+02
      4.785  0.7655E+00  0.4400E+02
      4.905  0.1050E+01  0.4414E+02
      5.025  0.4322E+00  0.4423E+02
      5.144  0.1608E+01  0.4442E+02
      5.264  0.1180E+01  0.4458E+02
      5.384  0.1611E-01  0.4470E+02
      5.504  0.1815E+00  0.4474E+02
      5.623  0.8441E+00  0.4491E+02
      5.743  0.4394E+00  0.4496E+02
      5.863  0.6942E+00  0.4510E+02
      5.982  0.4765E+00  0.4531E+02
      6.102  0.4036E+00  0.4539E+02
      6.222  0.1058E+01  0.4554E+02
      6.341  0.7295E+00  0.4564E+02
      6.461  0.5847E+00  0.4572E+02
      6.581  0.3650E+00  0.4580E+02
      6.700  0.1171E+01  0.4598E+02
      6.820  0.2923E+00  0.4605E+02
      6.940  0.1388E+01  0.4621E+02
      7.060  0.9123E+00  0.4632E+02
      7.179  0.1461E+00  0.4639E+02
      7.299  0.1023E+01  0.4651E+02
      7.419  0.5953E+00  0.4658E+02
      7.538  0.7307E-01  0.4660E+02
      7.658  0.1450E+01  0.4678E+02
      7.778  0.8769E+00  0.4688E+02
      7.897  0.1216E-01  0.4689E+02
      8.017  0.4858E+00  0.4700E+02
      8.137  0.6747E+00  0.4716E+02
      8.256  0.0000E+00  0.4718E+02
      8.376  0.2931E+00  0.4722E+02
      8.496  0.3538E+00  0.4729E+02
      8.616  0.7307E+00  0.4740E+02
      8.735  0.2192E+00  0.4743E+02
      8.855  0.3700E+00  0.4752E+02
      8.975  0.1462E+00  0.4758E+02
      9.094  0.1837E+00  0.4762E+02
      9.214  0.4391E+00  0.4771E+02
      9.334  0.1480E+01  0.4790E+02
      9.453  0.8493E+00  0.4801E+02
      9.573  0.3581E+00  0.4809E+02
      9.693  0.6994E+00  0.4820E+02
      9.812  0.1230E+01  0.4841E+02
      9.932  0.7224E+00  0.4855E+02
     10.052  0.7366E+00  0.4866E+02
     10.172  0.4774E+00  0.4876E+02
     10.291  0.1177E+01  0.4891E+02
     10.411  0.1022E+01  0.4906E+02
     10.531  0.7026E+00  0.4918E+02
     10.650  0.1315E+01  0.4936E+02
     10.770  0.8656E+00  0.4946E+02
     10.890  0.1019E+01  0.4959E+02
     11.009  0.7250E+00  0.4967E+02
     11.129  0.9730E+00  0.4979E+02
     11.249  0.6899E+00  0.4991E+02
     11.368  0.1040E+01  0.5004E+02
     11.488  0.9668E+00  0.5018E+02
     11.608  0.5768E+00  0.5026E+02
     11.728  0.8442E+00  0.5037E+02
     11.847  0.5395E+00  0.5049E+02
     11.967  0.5718E+00  0.5057E+02
     12.087  0.7792E+00  0.5070E+02
     12.206  0.6896E+00  0.5078E+02
     12.326  0.4386E+00  0.5084E+02
     12.446  0.7764E+00  0.5097E+02
     12.565  0.9090E+00  0.5109E+02
     12.685  0.4522E+00  0.5122E+02
     12.805  0.5152E+00  0.5136E+02
     12.924  0.7335E+00  0.5149E+02
     13.044  0.8218E+00  0.5160E+02
     13.164  0.6330E+00  0.5168E+02
     13.284  0.8371E+00  0.5183E+02
     13.403  0.9156E+00  0.5200E+02
     13.523  0.9072E+00  0.5222E+02
     13.643  0.4363E+00  0.5233E+02
     13.762  0.8884E+00  0.5247E+02
     13.882  0.7464E+00  0.5258E+02
     14.002  0.9578E+00  0.5278E+02
     14.121  0.1320E+01  0.5296E+02
     14.241  0.5683E+00  0.5308E+02
     14.361  0.8146E+00  0.5327E+02
     14.480  0.8474E+00  0.5341E+02
     14.600  0.5724E+00  0.5359E+02
     14.720  0.3338E+00  0.5372E+02
     14.840  0.7304E+00  0.5391E+02
     14.959  0.8262E+00  0.5402E+02
     15.079  0.1461E+01  0.5421E+02
     15.199  0.1180E+01  0.5442E+02
     15.318  0.1208E+01  0.5459E+02
     15.438  0.6238E+00  0.5473E+02
     15.558  0.1055E+01  0.5493E+02
     15.677  0.1257E+01  0.5511E+02
     15.797  0.5847E+00  0.5524E+02
     15.917  0.8773E+00  0.5538E+02
     16.036  0.3078E+00  0.5545E+02
     16.156  0.8187E+00  0.5558E+02
     16.276  0.1290E+01  0.5583E+02
     16.396  0.9493E+00  0.5607E+02
     16.515  0.1191E+01  0.5626E+02
     16.635  0.6576E+00  0.5643E+02
     16.755  0.5277E+00  0.5654E+02
     16.874  0.1015E+01  0.5681E+02
     16.994  0.1955E-01  0.5690E+02
     17.114  0.9660E+00  0.5711E+02
     17.233  0.7847E+00  0.5725E+02
     17.353  0.4753E+00  0.5734E+02
     17.473  0.1398E+01  0.5764E+02
     17.592  0.7790E+00  0.5780E+02
     17.712  0.6733E+00  0.5800E+02
     17.832  0.1159E+01  0.5821E+02
     17.951  0.2271E+00  0.5825E+02
     18.071  0.1544E+01  0.5846E+02
     18.191  0.1079E+01  0.5869E+02
     18.311  0.1343E+01  0.5892E+02
     18.430  0.8553E+00  0.5908E+02
     18.550  0.1238E+01  0.5928E+02
     18.670  0.8122E+00  0.5943E+02
     18.789  0.1480E+01  0.5964E+02
     18.909  0.1731E+01  0.5991E+02
     19.029  0.9512E+00  0.6009E+02
     19.148  0.3022E+00  0.6022E+02
     19.268  0.8271E+00  0.6040E+02
     19.388  0.1191E+01  0.6058E+02
     19.507  0.7150E+00  0.6077E+02
     19.627  0.7997E+00  0.6095E+02
     19.747  0.6775E+00  0.6109E+02
     19.867  0.3344E+00  0.6125E+02
     19.986  0.1099E+01  0.6146E+02
     20.106  0.7843E+00  0.6158E+02
     20.226  0.1106E+01  0.6173E+02
     20.345  0.1065E+01  0.6188E+02
     20.465  0.6432E+00  0.6200E+02
     20.585  0.6539E+00  0.6209E+02
     20.704  0.6300E+00  0.6223E+02
     20.824  0.1243E-04  0.6235E+02
     20.944  0.1154E-13  0.6238E+02
     21.063  0.1462E+00  0.6240E+02
     21.183  0.7179E+00  0.6250E+02
     21.303  0.7795E+00  0.6262E+02
     21.423  0.1264E+01  0.6279E+02
     21.542  0.1397E+00  0.6283E+02
     21.662  0.0000E+00  0.6283E+02
     21.782  0.5000E-01  0.6284E+02
     21.901  0.8633E+00  0.6299E+02
     22.021  0.0000E+00  0.6299E+02
     22.141  0.2192E+00  0.6301E+02
     22.260  0.6354E+00  0.6316E+02
     22.380  0.4437E+00  0.6322E+02
     22.500  0.2197E-05  0.6326E+02
     22.619  0.1142E-04  0.6329E+02
     22.739  0.1461E+00  0.6335E+02
     22.859  0.0000E+00  0.6335E+02
     22.979  0.1213E+00  0.6336E+02
     23.098  0.4168E+00  0.6342E+02
     23.218  0.1091E+00  0.6343E+02
     23.338  0.7307E+00  0.6355E+02
     23.457  0.0000E+00  0.6355E+02
     23.577  0.1418E+00  0.6357E+02
     23.697  0.2808E+00  0.6360E+02
     23.816  0.5493E-02  0.6362E+02
     23.936  0.2923E+00  0.6367E+02
     24.056  0.2740E-01  0.6367E+02
     24.175  0.0000E+00  0.6371E+02
     24.295  0.0000E+00  0.6371E+02
     24.415  0.2340E-07  0.6371E+02
     24.535  0.2249E-01  0.6374E+02
     24.654  0.3014E-09  0.6376E+02
     24.774  0.1461E+00  0.6378E+02
     24.894  0.3400E-01  0.6378E+02
     25.013  0.1140E-01  0.6385E+02
     25.133  0.4985E-05  0.6385E+02
     25.253  0.0000E+00  0.6387E+02
     25.372  0.0000E+00  0.6387E+02
     25.492  0.0000E+00  0.6387E+02
     25.612  0.0000E+00  0.6387E+02
     25.731  0.1461E+00  0.6389E+02
     25.851  0.8507E-02  0.6389E+02
     25.971  0.1816E+00  0.6394E+02
     26.091  0.0000E+00  0.6396E+02
     26.210  0.0000E+00  0.6396E+02
     26.330  0.0000E+00  0.6396E+02
     26.450  0.0000E+00  0.6396E+02
     26.569  0.0000E+00  0.6396E+02
     26.689  0.1304E+00  0.6397E+02
     26.809  0.3038E-13  0.6397E+02
     26.928  0.1461E+00  0.6399E+02
     27.048  0.2163E-16  0.6399E+02
     27.168  0.2436E-01  0.6399E+02
     27.287  0.4872E-01  0.6400E+02
     27.407  0.0000E+00  0.6400E+02
     27.527  0.0000E+00  0.6400E+02
     27.647  0.0000E+00  0.6400E+02
     27.766  0.0000E+00  0.6400E+02
     27.886  0.0000E+00  0.6400E+02
     28.006  0.0000E+00  0.6400E+02
     28.125  0.0000E+00  0.6400E+02
     28.245  0.0000E+00  0.6400E+02
     28.365  0.0000E+00  0.6400E+02
     28.484  0.0000E+00  0.6400E+02
     28.604  0.0000E+00  0.6400E+02
     28.724  0.0000E+00  0.6400E+02
     28.843  0.0000E+00  0.6400E+02
