    4    4    1    1
  0.1063590E+02  0.3490959E-09  0.3490959E-09  0.3490959E-09  0.5000000E-15
  1.000000000000000E-004
  CAR 
 unknown system                          
   44  120   32
 
  0.0000000E+00  0.0000000E+00  0.0000000E+00  0.3644315E-03
   1       -5.4319
   2       -0.8100
   3       -0.8100
   4       -0.8100
   5       -0.2850
   6       -0.2850
   7       -0.2850
   8        1.3527
   9        1.3527
  10        1.3527
  11        2.3270
  12        2.3270
  13        2.9728
  14        2.9728
  15        2.9728
  16        3.1547
  17        3.1547
  18        3.1547
  19        3.1547
  20        3.1547
  21        3.1547
  22        6.1841
  23        6.1841
  24        6.1841
  25       12.6332
  26       12.6332
  27       12.6332
  28       18.7872
  29       18.7872
  30       18.7872
  31       18.7872
  32       18.7872
 
  0.7142857E-01  0.0000000E+00  0.0000000E+00  0.2186589E-02
   1       -5.3649
   2       -0.8081
   3       -0.7770
   4       -0.7770
   5       -0.2657
   6       -0.2645
   7       -0.2645
   8        1.3309
   9        1.3700
  10        1.3700
  11        2.3071
  12        2.3349
  13        2.9471
  14        2.9471
  15        2.9645
  16        3.0168
  17        3.0168
  18        3.1244
  19        3.1244
  20        3.1547
  21        3.1547
  22        5.7924
  23        6.3801
  24        6.3801
  25       12.6539
  26       12.6539
  27       13.1516
  28       18.3288
  29       18.3288
  30       18.5172
  31       18.5172
  32       18.8877
 
  0.1428571E+00  0.0000000E+00  0.0000000E+00  0.2186589E-02
   1       -5.1650
   2       -0.8113
   3       -0.6812
   4       -0.6812
   5       -0.2087
   6       -0.2029
   7       -0.2029
   8        1.2665
   9        1.4213
  10        1.4213
  11        2.2490
  12        2.3582
  13        2.6813
  14        2.6813
  15        2.8716
  16        2.8716
  17        2.9401
  18        3.0367
  19        3.0367
  20        3.1548
  21        3.1548
  22        4.8878
  23        6.8898
  24        6.8898
  25       12.7176
  26       12.7176
  27       14.4430
  28       17.3058
  29       17.3058
  30       17.8478
  31       17.8478
  32       19.1855
 
  0.2142857E+00  0.0000000E+00  0.0000000E+00  0.2186589E-02
   1       -4.8361
   2       -0.8503
   3       -0.5331
   4       -0.5331
   5       -0.1163
   6       -0.0995
   7       -0.0995
   8        1.1635
   9        1.5059
  10        1.5059
  11        2.1581
  12        2.2674
  13        2.2674
  14        2.3959
  15        2.7526
  16        2.7526
  17        2.9003
  18        2.9003
  19        2.9008
  20        3.1550
  21        3.1550
  22        3.8542
  23        7.5932
  24        7.5932
  25       12.8282
  26       12.8282
  27       16.1063
  28       16.1063
  29       16.1460
  30       17.0186
  31       17.0186
  32       19.6706
 
  0.2857143E+00  0.0000000E+00  0.0000000E+00  0.2186589E-02
   1       -4.3855
   2       -0.9859
   3       -0.3520
   4       -0.3520
   5        0.0075
   6        0.0466
   7        0.0466
   8        1.0279
   9        1.6221
  10        1.6221
  11        1.8438
  12        1.8438
  13        2.0442
  14        2.4462
  15        2.6032
  16        2.6032
  17        2.7278
  18        2.7278
  19        2.8488
  20        2.9255
  21        3.1552
  22        3.1552
  23        8.4204
  24        8.4204
  25       12.9910
  26       12.9910
  27       14.8771
  28       14.8771
  29       16.1913
  30       16.1913
  31       18.0726
  32       20.3286
 
  0.3571429E+00  0.0000000E+00  0.0000000E+00  0.2186589E-02
   1       -3.8259
   2       -1.3003
   3       -0.1681
   4       -0.1681
   5        0.1574
   6        0.2366
   7        0.2366
   8        0.8674
   9        1.4418
  10        1.4418
  11        1.7672
  12        1.7672
  13        1.9236
  14        2.2528
  15        2.4475
  16        2.4475
  17        2.5066
  18        2.5327
  19        2.5327
  20        2.7868
  21        3.1554
  22        3.1554
  23        9.3382
  24        9.3382
  25       13.2081
  26       13.2081
  27       13.6689
  28       13.6689
  29       15.4547
  30       15.4547
  31       20.1269
  32       21.1428
 
  0.4285714E+00  0.0000000E+00  0.0000000E+00  0.2186589E-02
   1       -3.1798
   2       -1.8259
   3       -0.0248
   4       -0.0248
   5        0.3267
   6        0.4712
   7        0.4712
   8        0.6907
   9        1.0754
  10        1.0754
  11        1.8230
  12        1.8954
  13        1.9373
  14        1.9373
  15        2.3233
  16        2.3233
  17        2.3286
  18        2.3286
  19        2.5743
  20        2.7180
  21        3.1555
  22        3.1555
  23       10.3303
  24       10.3303
  25       12.5023
  26       12.5023
  27       13.4580
  28       13.4580
  29       14.8777
  30       14.8777
  31       22.0962
  32       22.0965
 
  0.5000000E+00  0.0000000E+00  0.0000000E+00  0.1093294E-02
   1       -2.4884
   2       -2.4884
   3        0.0306
   4        0.0306
   5        0.5074
   6        0.5074
   7        0.7510
   8        0.7510
   9        0.7510
  10        0.7510
  11        1.7879
  12        1.7879
  13        2.1269
  14        2.1269
  15        2.1269
  16        2.1269
  17        2.2747
  18        2.2747
  19        2.6460
  20        2.6460
  21        3.1556
  22        3.1556
  23       11.3872
  24       11.3872
  25       11.3872
  26       11.3872
  27       13.6058
  28       13.6058
  29       14.6185
  30       14.6185
  31       23.1725
  32       23.1725
 
  0.7142857E-01  0.7142857E-01  0.0000000E+00  0.4373178E-02
   1       -5.2981
   2       -0.7745
   3       -0.7745
   4       -0.7445
   5       -0.2455
   6       -0.2455
   7       -0.2445
   8        1.3183
   9        1.3782
  10        1.3859
  11        2.3014
  12        2.3298
  13        2.9120
  14        2.9203
  15        2.9203
  16        2.9221
  17        2.9994
  18        2.9994
  19        3.1243
  20        3.1243
  21        3.1354
  22        5.9875
  23        5.9875
  24        6.5625
  25       12.6742
  26       13.1789
  27       13.1789
  28       17.3918
  29       18.4237
  30       18.4237
  31       18.6141
  32       18.6141
 
  0.1428571E+00  0.7142857E-01  0.0000000E+00  0.8746356E-02
   1       -5.0989
   2       -0.7761
   3       -0.6771
   4       -0.6502
   5       -0.1893
   6       -0.1847
   7       -0.1845
   8        1.2598
   9        1.4247
  10        1.4332
  11        2.2504
  12        2.3502
  13        2.6131
  14        2.6225
  15        2.8261
  16        2.8490
  17        2.8799
  18        2.9610
  19        3.0365
  20        3.1243
  21        3.1249
  22        5.0940
  23        6.4839
  24        7.0464
  25       12.7354
  26       13.2625
  27       14.4796
  28       16.2095
  29       17.3938
  30       17.9373
  31       18.7042
  32       18.8172
 
  0.2142857E+00  0.7142857E-01  0.0000000E+00  0.8746356E-02
   1       -4.7713
   2       -0.8124
   3       -0.5264
   4       -0.5044
   5       -0.0983
   6       -0.0842
   7       -0.0828
   8        1.1599
   9        1.5079
  10        1.5101
  11        2.1643
  12        2.2105
  13        2.2247
  14        2.3909
  15        2.6512
  16        2.7335
  17        2.7590
  18        2.9000
  19        2.9087
  20        3.1224
  21        3.1242
  22        4.1065
  23        7.1531
  24        7.7275
  25       12.8358
  26       13.4072
  27       15.0208
  28       16.1869
  29       16.1909
  30       17.1009
  31       18.1493
  32       19.1587
 
  0.2857143E+00  0.7142857E-01  0.0000000E+00  0.8746356E-02
   1       -4.3224
   2       -0.9444
   3       -0.3415
   4       -0.3253
   5        0.0237
   6        0.0565
   7        0.0612
   8        1.0271
   9        1.6106
  10        1.6233
  11        1.7914
  12        1.8187
  13        2.0612
  14        2.3745
  15        2.4460
  16        2.5883
  17        2.6098
  18        2.7273
  19        2.8319
  20        3.1219
  21        3.1240
  22        3.3038
  23        7.9248
  24        8.5384
  25       12.9373
  26       13.6184
  27       13.9285
  28       14.9609
  29       16.2693
  30       17.3096
  31       18.1077
  32       19.7698
 
  0.3571429E+00  0.7142857E-01  0.0000000E+00  0.8746356E-02
   1       -3.7652
   2       -1.2547
   3       -0.1528
   4       -0.1415
   5        0.1713
   6        0.2367
   7        0.2483
   8        0.8695
   9        1.3961
  10        1.4290
  11        1.7086
  12        1.7678
  13        1.9814
  14        2.0208
  15        2.4371
  16        2.4536
  17        2.5128
  18        2.5323
  19        2.6671
  20        2.8913
  21        3.1220
  22        3.1238
  23        8.7667
  24        9.4446
  25       12.5442
  26       13.4544
  27       13.7539
  28       13.8909
  29       15.5402
  30       16.4764
  31       20.0925
  32       20.5162
 
  0.4285714E+00  0.7142857E-01  0.0000000E+00  0.8746356E-02
   1       -3.1222
   2       -1.7763
   3       -0.0036
   4        0.0030
   5        0.3379
   6        0.4578
   7        0.4791
   8        0.6960
   9        1.0381
  10        1.0716
  11        1.7217
  12        1.7730
  13        1.9375
  14        2.0302
  15        2.3179
  16        2.3272
  17        2.3282
  18        2.4155
  19        2.5883
  20        2.7599
  21        3.1225
  22        3.1234
  23        9.6625
  24       10.4282
  25       11.5815
  26       12.5899
  27       13.6778
  28       14.1354
  29       15.0519
  30       15.7374
  31       21.3740
  32       21.5302
 
  0.5000000E+00  0.7142857E-01  0.0000000E+00  0.4373178E-02
   1       -2.4346
   2       -2.4346
   3        0.0568
   4        0.0568
   5        0.5157
   6        0.5157
   7        0.7243
   8        0.7243
   9        0.7539
  10        0.7539
  11        1.6989
  12        1.6989
  13        2.1268
  14        2.1268
  15        2.1976
  16        2.1976
  17        2.2744
  18        2.2744
  19        2.6702
  20        2.6702
  21        3.1230
  22        3.1230
  23       10.6036
  24       10.6036
  25       11.4790
  26       11.4790
  27       14.0072
  28       14.0072
  29       15.1721
  30       15.1721
  31       22.3170
  32       22.3170
 
  0.1428571E+00  0.1428571E+00  0.0000000E+00  0.4373178E-02
   1       -4.9019
   2       -0.6739
   3       -0.6739
   4       -0.5606
   5       -0.1311
   6       -0.1311
   7       -0.1295
   8        1.2226
   9        1.4530
  10        1.4683
  11        2.2311
  12        2.3513
  13        2.4046
  14        2.4726
  15        2.4726
  16        2.7825
  17        2.8775
  18        2.8775
  19        3.0360
  20        3.0360
  21        3.0782
  22        5.5825
  23        5.5825
  24        7.4770
  25       12.7819
  26       14.5906
  27       14.5906
  28       14.9106
  29       17.6535
  30       17.6535
  31       18.2038
  32       18.2038
 
  0.2142857E+00  0.1428571E+00  0.0000000E+00  0.8746356E-02
   1       -4.5780
   2       -0.7021
   3       -0.5151
   4       -0.4216
   5       -0.0442
   6       -0.0381
   7       -0.0334
   8        1.1399
   9        1.5231
  10        1.5235
  11        2.0581
  12        2.0934
  13        2.1666
  14        2.2508
  15        2.3925
  16        2.6769
  17        2.7613
  18        2.8430
  19        2.8990
  20        3.0353
  21        3.0508
  22        4.6076
  23        6.2040
  24        8.1069
  25       12.7815
  26       13.7683
  27       14.7770
  28       16.3073
  29       16.4407
  30       17.3495
  31       18.0735
  32       18.6463
 
  0.2857143E+00  0.1428571E+00  0.0000000E+00  0.8746356E-02
   1       -4.1346
   2       -0.8232
   3       -0.3187
   4       -0.2487
   5        0.0722
   6        0.0869
   7        0.1043
   8        1.0199
   9        1.5861
  10        1.6323
  11        1.6507
  12        1.7413
  13        1.9733
  14        2.0871
  15        2.4617
  16        2.5434
  17        2.6155
  18        2.7261
  19        2.7680
  20        3.0343
  21        3.0383
  22        3.7955
  23        6.8992
  24        8.8775
  25       12.1973
  26       13.3578
  27       15.0273
  28       15.2085
  29       16.5200
  30       18.1812
  31       18.6370
  32       18.9484
 
  0.3571429E+00  0.1428571E+00  0.0000000E+00  0.8746356E-02
   1       -3.5848
   2       -1.1216
   3       -0.1146
   4       -0.0656
   5        0.2128
   6        0.2390
   7        0.2827
   8        0.8734
   9        1.2736
  10        1.3895
  11        1.6224
  12        1.7100
  13        1.7729
  14        2.0480
  15        2.4048
  16        2.4605
  17        2.5312
  18        2.5498
  19        2.6397
  20        3.0330
  21        3.0331
  22        3.2527
  23        7.6480
  24        9.7535
  25       11.1937
  26       13.5335
  27       14.0047
  28       15.1935
  29       15.9508
  30       18.1746
  31       19.3246
  32       19.6559
 
  0.4285714E+00  0.1428571E+00  0.0000000E+00  0.8746356E-02
   1       -2.9516
   2       -1.6306
   3        0.0534
   4        0.0839
   5        0.3712
   6        0.4193
   7        0.5021
   8        0.7103
   9        0.9371
  10        1.0593
  11        1.5631
  12        1.5938
  13        1.9400
  14        2.1105
  15        2.2985
  16        2.3277
  17        2.3304
  18        2.4548
  19        2.6542
  20        2.9520
  21        3.0312
  22        3.0320
  23        8.4465
  24       10.2136
  25       10.7147
  26       12.8482
  27       13.8605
  28       14.8111
  29       16.1472
  30       17.4006
  31       20.1168
  32       20.5913
 
  0.5000000E+00  0.1428571E+00  0.0000000E+00  0.4373178E-02
   1       -2.2759
   2       -2.2759
   3        0.1318
   4        0.1318
   5        0.5399
   6        0.5399
   7        0.6495
   8        0.6495
   9        0.7617
  10        0.7617
  11        1.5460
  12        1.5460
  13        2.1274
  14        2.1274
  15        2.2608
  16        2.2608
  17        2.2679
  18        2.2679
  19        2.7795
  20        2.7795
  21        3.0312
  22        3.0312
  23        9.2990
  24        9.2990
  25       11.7490
  26       11.7490
  27       14.2946
  28       14.2946
  29       16.7062
  30       16.7062
  31       20.9960
  32       20.9960
 
  0.2142857E+00  0.2142857E+00  0.0000000E+00  0.4373178E-02
   1       -4.2604
   2       -0.5297
   3       -0.5297
   4       -0.2935
   5        0.0384
   6        0.0464
   7        0.0464
   8        1.0866
   9        1.5440
  10        1.5723
  11        1.8418
  12        1.8418
  13        1.8791
  14        2.1332
  15        2.4368
  16        2.5858
  17        2.7349
  18        2.7349
  19        2.8976
  20        2.8976
  21        2.9842
  22        5.1897
  23        5.1897
  24        8.6811
  25       12.0662
  26       13.3145
  27       16.4849
  28       16.4849
  29       16.8449
  30       16.8449
  31       17.7920
  32       17.7920
 
  0.2857143E+00  0.2142857E+00  0.0000000E+00  0.8746356E-02
   1       -3.8266
   2       -0.6330
   3       -0.3140
   4       -0.1332
   5        0.1401
   6        0.1530
   7        0.1737
   8        0.9946
   9        1.4592
  10        1.5626
  11        1.6047
  12        1.6099
  13        1.6628
  14        2.0767
  15        2.4694
  16        2.5278
  17        2.5960
  18        2.6658
  19        2.7245
  20        2.8960
  21        2.9400
  22        4.3191
  23        5.8204
  24        9.4032
  25       10.9430
  26       13.4437
  27       15.6092
  28       16.4727
  29       17.2254
  30       17.3880
  31       17.9548
  32       18.8212
 
  0.3571429E+00  0.2142857E+00  0.0000000E+00  0.8746356E-02
   1       -3.2902
   2       -0.9120
   3       -0.0842
   4        0.0455
   5        0.2509
   6        0.2814
   7        0.3377
   8        0.8718
   9        1.1131
  10        1.3202
  11        1.4234
  12        1.5509
  13        1.7912
  14        2.0518
  15        2.3480
  16        2.4453
  17        2.5304
  18        2.5481
  19        2.6510
  20        2.8947
  21        2.9149
  22        3.6789
  23        6.4965
  24        9.8723
  25       10.2402
  26       13.7133
  27       14.4099
  28       15.8452
  29       17.4544
  30       18.0531
  31       18.7484
  32       20.0106
 
  0.4285714E+00  0.2142857E+00  0.0000000E+00  0.8746356E-02
   1       -2.6746
   2       -1.3993
   3        0.1173
   4        0.2101
   5        0.3600
   6        0.4253
   7        0.5379
   8        0.7294
   9        0.8074
  10        1.0358
  11        1.3620
  12        1.4870
  13        1.9501
  14        2.1049
  15        2.2583
  16        2.3139
  17        2.3289
  18        2.3913
  19        2.8023
  20        2.8943
  21        2.9020
  22        3.2614
  23        7.2256
  24        8.8990
  25       11.1709
  26       13.2644
  27       14.0874
  28       15.1595
  29       17.9561
  30       18.8241
  31       19.2891
  32       19.5334
 
  0.5000000E+00  0.2142857E+00  0.0000000E+00  0.4373178E-02
   1       -2.0207
   2       -2.0207
   3        0.2366
   4        0.2366
   5        0.5466
   6        0.5466
   7        0.5775
   8        0.5775
   9        0.7721
  10        0.7721
  11        1.4035
  12        1.4035
  13        2.1321
  14        2.1321
  15        2.2296
  16        2.2296
  17        2.2424
  18        2.2424
  19        2.8961
  20        2.8961
  21        2.9932
  22        2.9932
  23        8.0211
  24        8.0211
  25       12.1821
  26       12.1821
  27       14.5685
  28       14.5685
  29       18.5813
  30       18.5813
  31       19.6874
  32       19.6874
 
  0.2857143E+00  0.2857143E+00  0.0000000E+00  0.4373178E-02
   1       -3.4073
   2       -0.3931
   3       -0.3931
   4        0.0048
   5        0.2157
   6        0.2659
   7        0.2659
   8        0.9401
   9        1.2738
  10        1.2738
  11        1.4304
  12        1.5392
  13        1.7286
  14        2.0316
  15        2.3717
  16        2.5341
  17        2.5341
  18        2.6508
  19        2.7234
  20        2.7234
  21        2.8560
  22        4.8763
  23        4.8763
  24        9.7465
  25       10.0791
  26       13.6637
  27       16.1480
  28       16.1480
  29       17.1559
  30       17.1559
  31       19.0163
  32       19.0163
 
  0.3571429E+00  0.2857143E+00  0.0000000E+00  0.8746356E-02
   1       -2.8914
   2       -0.6467
   3       -0.1337
   4        0.1503
   5        0.2993
   6        0.3760
   7        0.4099
   8        0.8552
   9        0.9826
  10        1.1727
  11        1.2195
  12        1.4939
  13        1.8344
  14        2.0022
  15        2.2677
  16        2.3898
  17        2.4251
  18        2.5315
  19        2.7239
  20        2.7966
  21        2.8149
  22        4.1431
  23        5.4765
  24        8.6669
  25       10.8762
  26       13.9803
  27       14.9545
  28       16.3153
  29       16.8093
  30       17.7780
  31       19.4350
  32       20.4328
 
  0.4285714E+00  0.2857143E+00  0.0000000E+00  0.8746356E-02
   1       -2.3036
   2       -1.1017
   3        0.1019
   4        0.2792
   5        0.3716
   6        0.4979
   7        0.5831
   8        0.7314
   9        0.7466
  10        0.9975
  11        1.1908
  12        1.4041
  13        1.9762
  14        2.0371
  15        2.1921
  16        2.2610
  17        2.2825
  18        2.3349
  19        2.7280
  20        2.7595
  21        3.0166
  22        3.6261
  23        6.1354
  24        7.7117
  25       11.7742
  26       13.8220
  27       14.3972
  28       15.5628
  29       17.5784
  30       18.4921
  31       19.3968
  32       19.9769
 
  0.5000000E+00  0.2857143E+00  0.0000000E+00  0.4373178E-02
   1       -1.6849
   2       -1.6849
   3        0.2599
   4        0.2599
   5        0.5208
   6        0.5208
   7        0.6243
   8        0.6243
   9        0.7814
  10        0.7814
  11        1.2873
  12        1.2873
  13        2.1401
  14        2.1401
  15        2.1462
  16        2.1462
  17        2.1858
  18        2.1858
  19        2.7385
  20        2.7385
  21        3.2726
  22        3.2726
  23        6.8734
  24        6.8734
  25       12.7594
  26       12.7594
  27       14.9227
  28       14.9227
  29       18.4437
  30       18.4437
  31       19.3086
  32       19.3086
 
  0.3571429E+00  0.3571429E+00  0.0000000E+00  0.4373178E-02
   1       -2.4054
   2       -0.3586
   3       -0.3586
   4        0.1910
   5        0.4145
   6        0.4944
   7        0.4944
   8        0.8162
   9        0.9628
  10        0.9628
  11        1.0903
  12        1.4315
  13        1.9123
  14        1.9517
  15        2.1763
  16        2.2892
  17        2.2892
  18        2.5373
  19        2.5373
  20        2.6977
  21        3.0241
  22        4.6534
  23        4.6534
  24        7.6005
  25       11.6368
  26       14.3405
  27       15.6225
  28       15.6225
  29       16.8702
  30       16.8702
  31       19.2958
  32       20.1605
 
  0.4285714E+00  0.3571429E+00  0.0000000E+00  0.8746356E-02
   1       -1.8591
   2       -0.7687
   3       -0.0949
   4        0.1780
   5        0.5436
   6        0.5850
   7        0.6328
   8        0.7542
   9        0.7950
  10        0.9413
  11        1.0541
  12        1.3325
  13        1.9560
  14        2.0278
  15        2.1056
  16        2.1584
  17        2.1677
  18        2.3504
  19        2.5514
  20        2.6257
  21        3.2787
  22        4.0404
  23        5.2286
  24        6.6790
  25       12.5032
  26       14.5044
  27       14.8028
  28       16.0650
  29       16.4001
  30       17.5302
  31       18.2428
  32       19.1755
 
  0.5000000E+00  0.3571429E+00  0.0000000E+00  0.4373178E-02
   1       -1.2938
   2       -1.2938
   3        0.0916
   4        0.0916
   5        0.6629
   6        0.6629
   7        0.6744
   8        0.6744
   9        0.7849
  10        0.7849
  11        1.1951
  12        1.1951
  13        2.0334
  14        2.0334
  15        2.0978
  16        2.0978
  17        2.1767
  18        2.1767
  19        2.5788
  20        2.5788
  21        3.6018
  22        3.6018
  23        5.8949
  24        5.8949
  25       13.4623
  26       13.4623
  27       15.3757
  28       15.3757
  29       17.2761
  30       17.2761
  31       18.2985
  32       18.2985
 
  0.4285714E+00  0.4285714E+00  0.0000000E+00  0.4373178E-02
   1       -1.3717
   2       -0.4423
   3       -0.4423
   4        0.0370
   5        0.6808
   6        0.6808
   7        0.7060
   8        0.7460
   9        0.8668
  10        0.9444
  11        0.9444
  12        1.2418
  13        1.9155
  14        2.0266
  15        2.0512
  16        2.0512
  17        2.1122
  18        2.3813
  19        2.3813
  20        2.5154
  21        3.5945
  22        4.5217
  23        4.5217
  24        5.8111
  25       13.3411
  26       15.2972
  27       15.2972
  28       15.3132
  29       16.6749
  30       16.6749
  31       17.1727
  32       18.2296
 
  0.5000000E+00  0.4285714E+00  0.0000000E+00  0.4373178E-02
   1       -0.8835
   2       -0.8835
   3       -0.1663
   4       -0.1663
   5        0.7206
   6        0.7206
   7        0.7776
   8        0.7776
   9        0.8380
  10        0.8380
  11        1.1077
  12        1.1077
  13        1.9519
  14        1.9519
  15        2.0001
  16        2.0001
  17        2.2316
  18        2.2316
  19        2.4344
  20        2.4344
  21        3.9931
  22        3.9931
  23        5.1005
  24        5.1005
  25       14.2754
  26       14.2754
  27       15.9357
  28       15.9357
  29       16.1892
  30       16.1892
  31       17.3958
  32       17.3958
 
  0.5000000E+00  0.5000000E+00  0.0000000E+00  0.1093294E-02
   1       -0.4961
   2       -0.4961
   3       -0.4961
   4       -0.4961
   5        0.7562
   6        0.7562
   7        0.7562
   8        0.7562
   9        0.9931
  10        0.9931
  11        0.9931
  12        0.9931
  13        1.9383
  14        1.9383
  15        1.9383
  16        1.9383
  17        2.3169
  18        2.3169
  19        2.3169
  20        2.3169
  21        4.4784
  22        4.4784
  23        4.4784
  24        4.4784
  25       15.1871
  26       15.1871
  27       15.1871
  28       15.1871
  29       16.6080
  30       16.6080
  31       16.6080
  32       16.6080
 
  0.7142857E-01  0.7142857E-01  0.7142857E-01  0.2915452E-02
   1       -5.2316
   2       -0.7415
   3       -0.7415
   4       -0.7415
   5       -0.2258
   6       -0.2258
   7       -0.2258
   8        1.3063
   9        1.3934
  10        1.3934
  11        2.3109
  12        2.3109
  13        2.8713
  14        2.8713
  15        2.8713
  16        2.9027
  17        2.9027
  18        2.9027
  19        3.1178
  20        3.1178
  21        3.1178
  22        6.1665
  23        6.1665
  24        6.1665
  25       13.2058
  26       13.2058
  27       13.2058
  28       17.4818
  29       17.4818
  30       17.4818
  31       19.0830
  32       19.0830
 
  0.1428571E+00  0.7142857E-01  0.7142857E-01  0.8746356E-02
   1       -5.0331
   2       -0.7417
   3       -0.6459
   4       -0.6459
   5       -0.1704
   6       -0.1666
   7       -0.1666
   8        1.2527
   9        1.4341
  10        1.4387
  11        2.2564
  12        2.3389
  13        2.5615
  14        2.5615
  15        2.7484
  16        2.8355
  17        2.8355
  18        2.8421
  19        3.0707
  20        3.1090
  21        3.1090
  22        5.2738
  23        6.6335
  24        6.6335
  25       13.2869
  26       13.2869
  27       14.5154
  28       16.2959
  29       16.2959
  30       17.7486
  31       18.9102
  32       18.9102
 
  0.2142857E+00  0.7142857E-01  0.7142857E-01  0.8746356E-02
   1       -4.7067
   2       -0.7757
   3       -0.4978
   4       -0.4978
   5       -0.0806
   6       -0.0676
   7       -0.0676
   8        1.1564
   9        1.5095
  10        1.5135
  11        2.1713
  12        2.1713
  13        2.1737
  14        2.3840
  15        2.5376
  16        2.7273
  17        2.7273
  18        2.7378
  19        3.0062
  20        3.1025
  21        3.1025
  22        4.2965
  23        7.2778
  24        7.2778
  25       13.4185
  26       13.4185
  27       15.1091
  28       15.1091
  29       16.2244
  30       18.1855
  31       18.2334
  32       18.2334
 
  0.2857143E+00  0.7142857E-01  0.7142857E-01  0.8746356E-02
   1       -4.2598
   2       -0.9044
   3       -0.3153
   4       -0.3153
   5        0.0398
   6        0.0708
   7        0.0708
   8        1.0268
   9        1.6057
  10        1.6165
  11        1.7693
  12        1.7693
  13        2.0815
  14        2.2352
  15        2.4439
  16        2.5869
  17        2.5869
  18        2.5949
  19        2.9325
  20        3.0986
  21        3.0986
  22        3.4838
  23        8.0307
  24        8.0307
  25       13.4904
  26       13.4904
  27       14.0979
  28       14.0979
  29       17.3868
  30       17.3868
  31       18.1050
  32       18.8188
 
  0.3571429E+00  0.7142857E-01  0.7142857E-01  0.8746356E-02
   1       -3.7051
   2       -1.2109
   3       -0.1269
   4       -0.1269
   5        0.1855
   6        0.2471
   7        0.2471
   8        0.8724
   9        1.3872
  10        1.3872
  11        1.6827
  12        1.7456
  13        1.9065
  14        2.0324
  15        2.4263
  16        2.4378
  17        2.4378
  18        2.5159
  19        2.8526
  20        2.9336
  21        3.0964
  22        3.0964
  23        8.8563
  24        8.8563
  25       12.7215
  26       12.7215
  27       14.0711
  28       14.0711
  29       16.5501
  30       16.5501
  31       19.3647
  32       20.3316
 
  0.4285714E+00  0.7142857E-01  0.7142857E-01  0.8746356E-02
   1       -3.0655
   2       -1.7282
   3        0.0241
   4        0.0241
   5        0.3497
   6        0.4597
   7        0.4597
   8        0.7020
   9        1.0422
  10        1.0422
  11        1.6746
  12        1.6969
  13        1.8973
  14        2.1153
  15        2.2461
  16        2.3174
  17        2.3174
  18        2.5722
  19        2.5963
  20        2.7682
  21        3.0954
  22        3.0954
  23        9.7294
  24        9.7294
  25       11.7203
  26       11.7203
  27       14.4222
  28       14.4222
  29       15.8219
  30       15.8219
  31       20.2104
  32       22.1034
 
  0.5000000E+00  0.7142857E-01  0.7142857E-01  0.4373178E-02
   1       -2.3820
   2       -2.3820
   3        0.0835
   4        0.0835
   5        0.5248
   6        0.5248
   7        0.6603
   8        0.6603
   9        0.7954
  10        0.7954
  11        1.6433
  12        1.6433
  13        2.0666
  14        2.0666
  15        2.2700
  16        2.2700
  17        2.3080
  18        2.3080
  19        2.6816
  20        2.6816
  21        3.0951
  22        3.0951
  23       10.4469
  24       10.4469
  25       10.9569
  26       10.9569
  27       14.6983
  28       14.6983
  29       15.4202
  30       15.4202
  31       21.1207
  32       21.1207
 
  0.1428571E+00  0.1428571E+00  0.7142857E-01  0.8746356E-02
   1       -4.8370
   2       -0.6419
   3       -0.6419
   4       -0.5555
   5       -0.1135
   6       -0.1135
   7       -0.1122
   8        1.2167
   9        1.4612
  10        1.4705
  11        2.2461
  12        2.3350
  13        2.3581
  14        2.4173
  15        2.4173
  16        2.7478
  17        2.7820
  18        2.7820
  19        3.0672
  20        3.0672
  21        3.0802
  22        5.7216
  23        5.7216
  24        7.0407
  25       13.3497
  26       14.6208
  27       14.6208
  28       15.0012
  29       16.5544
  30       16.5544
  31       19.1862
  32       19.1862
 
  0.2142857E+00  0.1428571E+00  0.7142857E-01  0.1749271E-01
   1       -4.5145
   2       -0.6689
   3       -0.4870
   4       -0.4153
   5       -0.0273
   6       -0.0220
   7       -0.0185
   8        1.1377
   9        1.5217
  10        1.5257
  11        2.0251