Automatically generated mesh
     120
Reciprocal lattice
    0.00000000000000    0.00000000000000    0.00000000000000             1
    0.07142857142857    0.00000000000000    0.00000000000000             6
    0.14285714285714    0.00000000000000    0.00000000000000             6
    0.21428571428571    0.00000000000000    0.00000000000000             6
    0.28571428571429    0.00000000000000    0.00000000000000             6
    0.35714285714286    0.00000000000000    0.00000000000000             6
    0.42857142857143    0.00000000000000    0.00000000000000             6
    0.50000000000000    0.00000000000000    0.00000000000000             3
    0.07142857142857    0.07142857142857    0.00000000000000            12
    0.14285714285714    0.07142857142857    0.00000000000000            24
    0.21428571428571    0.07142857142857    0.00000000000000            24
    0.28571428571429    0.07142857142857    0.00000000000000            24
    0.35714285714286    0.07142857142857    0.00000000000000            24
    0.42857142857143    0.07142857142857    0.00000000000000            24
    0.50000000000000    0.07142857142857    0.00000000000000            12
    0.14285714285714    0.14285714285714    0.00000000000000            12
    0.21428571428571    0.14285714285714    0.00000000000000            24
    0.28571428571429    0.14285714285714    0.00000000000000            24
    0.35714285714286    0.14285714285714    0.00000000000000            24
    0.42857142857143    0.14285714285714    0.00000000000000            24
    0.50000000000000    0.14285714285714    0.00000000000000            12
    0.21428571428571    0.21428571428571    0.00000000000000            12
    0.28571428571429    0.21428571428571    0.00000000000000            24
    0.35714285714286    0.21428571428571    0.00000000000000            24
    0.42857142857143    0.21428571428571    0.00000000000000            24
    0.50000000000000    0.21428571428571    0.00000000000000            12
    0.28571428571429    0.28571428571429    0.00000000000000            12
    0.35714285714286    0.28571428571429    0.00000000000000            24
    0.42857142857143    0.28571428571429    0.00000000000000            24
    0.50000000000000    0.28571428571429    0.00000000000000            12
    0.35714285714286    0.35714285714286    0.00000000000000            12
    0.42857142857143    0.35714285714286    0.00000000000000            24
    0.50000000000000    0.35714285714286    0.00000000000000            12
    0.42857142857143    0.42857142857143    0.00000000000000            12
    0.50000000000000    0.42857142857143    0.00000000000000            12
    0.50000000000000    0.50000000000000    0.00000000000000             3
    0.07142857142857    0.07142857142857    0.07142857142857             8
    0.14285714285714    0.07142857142857    0.07142857142857            24
    0.21428571428571    0.07142857142857    0.07142857142857            24
    0.28571428571429    0.07142857142857    0.07142857142857            24
    0.35714285714286    0.07142857142857    0.07142857142857            24
    0.42857142857143    0.07142857142857    0.07142857142857            24
    0.50000000000000    0.07142857142857    0.07142857142857            12
    0.14285714285714    0.14285714285714    0.07142857142857            24
    0.21428571428571    0.14285714285714    0.07142857142857            48
    0.28571428571429    0.14285714285714    0.07142857142857            48
    0.35714285714286    0.14285714285714    0.07142857142857            48
    0.42857142857143    0.14285714285714    0.07142857142857            48
    0.50000000000000    0.14285714285714    0.07142857142857            24
    0.21428571428571    0.21428571428571    0.07142857142857            24
    0.28571428571429    0.21428571428571    0.07142857142857            48
    0.35714285714286    0.21428571428571    0.07142857142857            48
    0.42857142857143    0.21428571428571    0.07142857142857            48
    0.50000000000000    0.21428571428571    0.07142857142857            24
    0.28571428571429    0.28571428571429    0.07142857142857            24
    0.35714285714286    0.28571428571429    0.07142857142857            48
    0.42857142857143    0.28571428571429    0.07142857142857            48
    0.50000000000000    0.28571428571429    0.07142857142857            24
    0.35714285714286    0.35714285714286    0.07142857142857            24
    0.42857142857143    0.35714285714286    0.07142857142857            48
    0.50000000000000    0.35714285714286    0.07142857142857            24
    0.42857142857143    0.42857142857143    0.07142857142857            24
    0.50000000000000    0.42857142857143    0.07142857142857            24
    0.50000000000000    0.50000000000000    0.07142857142857             6
    0.14285714285714    0.14285714285714    0.14285714285714             8
    0.21428571428571    0.14285714285714    0.14285714285714            24
    0.28571428571429    0.14285714285714    0.14285714285714            24
    0.35714285714286    0.14285714285714    0.14285714285714            24
    0.42857142857143    0.14285714285714    0.14285714285714            24
    0.50000000000000    0.14285714285714    0.14285714285714            12
    0.21428571428571    0.21428571428571    0.14285714285714            24
    0.28571428571429    0.21428571428571    0.14285714285714            48
    0.35714285714286    0.21428571428571    0.14285714285714            48
    0.42857142857143    0.21428571428571    0.14285714285714            48
    0.50000000000000    0.21428571428571    0.14285714285714            24
    0.28571428571429    0.28571428571429    0.14285714285714            24
    0.35714285714286    0.28571428571429    0.14285714285714            48
    0.42857142857143    0.28571428571429    0.14285714285714            48
    0.50000000000000    0.28571428571429    0.14285714285714            24
    0.35714285714286    0.35714285714286    0.14285714285714            24
    0.42857142857143    0.35714285714286    0.14285714285714            48
    0.50000000000000    0.35714285714286    0.14285714285714            24
    0.42857142857143    0.42857142857143    0.14285714285714            24
    0.50000000000000    0.42857142857143    0.14285714285714            24
    0.50000000000000    0.50000000000000    0.14285714285714             6
    0.21428571428571    0.21428571428571    0.21428571428571             8
    0.28571428571429    0.21428571428571    0.21428571428571            24
    0.35714285714286    0.21428571428571    0.21428571428571            24
    0.42857142857143    0.21428571428571    0.21428571428571            24
    0.50000000000000    0.21428571428571    0.21428571428571            12
    0.28571428571429    0.28571428571429    0.21428571428571            24
    0.35714285714286    0.28571428571429    0.21428571428571            48
    0.42857142857143    0.28571428571429    0.21428571428571            48
    0.50000000000000    0.28571428571429    0.21428571428571            24
    0.35714285714286    0.35714285714286    0.21428571428571            24
    0.42857142857143    0.35714285714286    0.21428571428571            48
    0.50000000000000    0.35714285714286    0.21428571428571            24
    0.42857142857143    0.42857142857143    0.21428571428571            24
    0.50000000000000    0.42857142857143    0.21428571428571            24
    0.50000000000000    0.50000000000000    0.21428571428571             6
    0.28571428571429    0.28571428571429    0.28571428571429             8
    0.35714285714286    0.28571428571429    0.28571428571429            24
    0.42857142857143    0.28571428571429    0.28571428571429            24
    0.50000000000000    0.28571428571429    0.28571428571429            12
    0.35714285714286    0.35714285714286    0.28571428571429            24
    0.42857142857143    0.35714285714286    0.28571428571429            48
    0.50000000000000    0.35714285714286    0.28571428571429            24
    0.42857142857143    0.42857142857143    0.28571428571429            24
    0.50000000000000    0.42857142857143    0.28571428571429            24
    0.50000000000000    0.50000000000000    0.28571428571429             6
    0.35714285714286    0.35714285714286    0.35714285714286             8
    0.42857142857143    0.35714285714286    0.35714285714286            24
    0.50000000000000    0.35714285714286    0.35714285714286            12
    0.42857142857143    0.42857142857143    0.35714285714286            24
    0.50000000000000    0.42857142857143    0.35714285714286            24
    0.50000000000000    0.50000000000000    0.35714285714286             6
    0.42857142857143    0.42857142857143    0.42857142857143             8
    0.50000000000000    0.42857142857143    0.42857142857143            12
    0.50000000000000    0.50000000000000    0.42857142857143             6
    0.50000000000000    0.50000000000000    0.50000000000000             1
