       N       E                     dE             d eps       ncg     rms          rms(c)
DAV:   1     0.277025014885E+03    0.27703E+03   -0.20144E+04  8112   0.214E+03
DAV:   2     0.761038084645E+00   -0.27626E+03   -0.26127E+03  7736   0.358E+02
DAV:   3    -0.178868660152E+02   -0.18648E+02   -0.18335E+02  8592   0.116E+02
DAV:   4    -0.180923932080E+02   -0.20553E+00   -0.20543E+00  8376   0.140E+01
DAV:   5    -0.180927700975E+02   -0.37689E-03   -0.37689E-03  8704   0.572E-01    0.141E+01
DAV:   6    -0.154947087792E+02    0.25981E+01   -0.20356E+01  8424   0.750E+01    0.492E+00
DAV:   7    -0.145902008913E+02    0.90451E+00   -0.33218E+00  8736   0.294E+01    0.139E+00
DAV:   8    -0.145336177198E+02    0.56583E-01   -0.24022E-02  8936   0.122E+00    0.561E-01
DAV:   9    -0.145267901840E+02    0.68275E-02   -0.56721E-03  9656   0.123E+00    0.313E-02
DAV:  10    -0.145268697102E+02   -0.79526E-04   -0.59710E-04  8424   0.183E-01    0.763E-03
DAV:  11    -0.145268666904E+02    0.30198E-05   -0.53440E-05  8520   0.916E-02    0.647E-03
DAV:  12    -0.145268713420E+02   -0.46516E-05   -0.11732E-06  8680   0.192E-02    0.893E-04
DAV:  13    -0.145268719559E+02   -0.61397E-06   -0.50493E-08  8272   0.301E-03    0.219E-04
DAV:  14    -0.145268720222E+02   -0.66298E-07   -0.27491E-09  4848   0.489E-04    0.616E-05
DAV:  15    -0.145268720074E+02    0.14819E-07   -0.27027E-10  4592   0.150E-04    0.289E-05
DAV:  16    -0.145268720096E+02   -0.21982E-08   -0.38914E-11  4336   0.505E-05
   1 F= -.14526872E+02 E0= -.14526824E+02  d E =-.953084E-04
