<?xml version="1.0" encoding="ISO-8859-1"?>
<modeling>
 <generator>
  <i name="program" type="string">vasp</i>
  <i name="version" type="string">4.6.28 </i>
  <i name="subversion" type="string">25Jul05 complex  parallel</i>
  <i name="platform" type="string">LinuxIFC</i>
  <i name="date" type="string">2016 07 06</i>
  <i name="time" type="string">18:24:23</i>
 </generator>
 <incar>
  <i type="string" name="PREC">accurate</i>
  <i type="int" name="IALGO">    38</i>
  <i type="logical" name="ADDGRID"> T  </i>
  <i name="EDIFF">      0.00000001</i>
  <i type="int" name="IBRION">    -1</i>
  <i name="ENCUT">    500.00000000</i>
  <i type="logical" name="LREAL"> F  </i>
  <i type="int" name="ISMEAR">     0</i>
  <i name="SIGMA">      0.01000000</i>
  <i type="logical" name="LWAVE"> F  </i>
  <i type="logical" name="LCHARG"> F  </i>
 </incar>
 <kpoints>
  <generation param="Auto">
   <i name="subdivisionlength">     50.00000000</i>
   <v type="int" name="divisions">      14      14      14</v>
   <v name="usershift">      0.00000000      0.00000000      0.00000000</v>
   <v name="genvec1">      0.07142857      0.00000000      0.00000000</v>
   <v name="genvec2">      0.00000000      0.07142857      0.00000000</v>
   <v name="genvec3">      0.00000000      0.00000000      0.07142857</v>
   <v name="shift">      0.00000000      0.00000000      0.00000000</v>
  </generation>
  <varray name="kpointlist" >
   <v>       0.00000000      0.00000000      0.00000000</v>
   <v>       0.07142857      0.00000000      0.00000000</v>
   <v>       0.14285714      0.00000000      0.00000000</v>
   <v>       0.21428571      0.00000000      0.00000000</v>
   <v>       0.28571429      0.00000000      0.00000000</v>
   <v>       0.35714286      0.00000000      0.00000000</v>
   <v>       0.42857143      0.00000000      0.00000000</v>
   <v>       0.50000000      0.00000000      0.00000000</v>
   <v>       0.07142857      0.07142857      0.00000000</v>
   <v>       0.14285714      0.07142857      0.00000000</v>
   <v>       0.21428571      0.07142857      0.00000000</v>
   <v>       0.28571429      0.07142857      0.00000000</v>
   <v>       0.35714286      0.07142857      0.00000000</v>
   <v>       0.42857143      0.07142857      0.00000000</v>
   <v>       0.50000000      0.07142857      0.00000000</v>
   <v>       0.14285714      0.14285714      0.00000000</v>
   <v>       0.21428571      0.14285714      0.00000000</v>
   <v>       0.28571429      0.14285714      0.00000000</v>
   <v>       0.35714286      0.14285714      0.00000000</v>
   <v>       0.42857143      0.14285714      0.00000000</v>
   <v>       0.50000000      0.14285714      0.00000000</v>
   <v>       0.21428571      0.21428571      0.00000000</v>
   <v>       0.28571429      0.21428571      0.00000000</v>
   <v>       0.35714286      0.21428571      0.00000000</v>
   <v>       0.42857143      0.21428571      0.00000000</v>
   <v>       0.50000000      0.21428571      0.00000000</v>
   <v>       0.28571429      0.28571429      0.00000000</v>
   <v>       0.35714286      0.28571429      0.00000000</v>
   <v>       0.42857143      0.28571429      0.00000000</v>
   <v>       0.50000000      0.28571429      0.00000000</v>
   <v>       0.35714286      0.35714286      0.00000000</v>
   <v>       0.42857143      0.35714286      0.00000000</v>
   <v>       0.50000000      0.35714286      0.00000000</v>
   <v>       0.42857143      0.42857143      0.00000000</v>
   <v>       0.50000000      0.42857143      0.00000000</v>
   <v>       0.50000000      0.50000000      0.00000000</v>
   <v>       0.07142857      0.07142857      0.07142857</v>
   <v>       0.14285714      0.07142857      0.07142857</v>
   <v>       0.21428571      0.07142857      0.07142857</v>
   <v>       0.28571429      0.07142857      0.07142857</v>
   <v>       0.35714286      0.07142857      0.07142857</v>
   <v>       0.42857143      0.07142857      0.07142857</v>
   <v>       0.50000000      0.07142857      0.07142857</v>
   <v>       0.14285714      0.14285714      0.07142857</v>
   <v>       0.21428571      0.14285714      0.07142857</v>
   <v>       0.28571429      0.14285714      0.07142857</v>
   <v>       0.35714286      0.14285714      0.07142857</v>
   <v>       0.42857143      0.14285714      0.07142857</v>
   <v>       0.50000000      0.14285714      0.07142857</v>
   <v>       0.21428571      0.21428571      0.07142857</v>
   <v>       0.28571429      0.21428571      0.07142857</v>
   <v>       0.35714286      0.21428571      0.07142857</v>
   <v>       0.42857143      0.21428571      0.07142857</v>
   <v>       0.50000000      0.21428571      0.07142857</v>
   <v>       0.28571429      0.28571429      0.07142857</v>
   <v>       0.35714286      0.28571429      0.07142857</v>
   <v>       0.42857143      0.28571429      0.07142857</v>
   <v>       0.50000000      0.28571429      0.07142857</v>
   <v>       0.35714286      0.35714286      0.07142857</v>
   <v>       0.42857143      0.35714286      0.07142857</v>
   <v>       0.50000000      0.35714286      0.07142857</v>
   <v>       0.42857143      0.42857143      0.07142857</v>
   <v>       0.50000000      0.42857143      0.07142857</v>
   <v>       0.50000000      0.50000000      0.07142857</v>
   <v>       0.14285714      0.14285714      0.14285714</v>
   <v>       0.21428571      0.14285714      0.14285714</v>
   <v>       0.28571429      0.14285714      0.14285714</v>
   <v>       0.35714286      0.14285714      0.14285714</v>
   <v>       0.42857143      0.14285714      0.14285714</v>
   <v>       0.50000000      0.14285714      0.14285714</v>
   <v>       0.21428571      0.21428571      0.14285714</v>
   <v>       0.28571429      0.21428571      0.14285714</v>
   <v>       0.35714286      0.21428571      0.14285714</v>
   <v>       0.42857143      0.21428571      0.14285714</v>
   <v>       0.50000000      0.21428571      0.14285714</v>
   <v>       0.28571429      0.28571429      0.14285714</v>
   <v>       0.35714286      0.28571429      0.14285714</v>
   <v>       0.42857143      0.28571429      0.14285714</v>
   <v>       0.50000000      0.28571429      0.14285714</v>
   <v>       0.35714286      0.35714286      0.14285714</v>
   <v>       0.42857143      0.35714286      0.14285714</v>
   <v>       0.50000000      0.35714286      0.14285714</v>
   <v>       0.42857143      0.42857143      0.14285714</v>
   <v>       0.50000000      0.42857143      0.14285714</v>
   <v>       0.50000000      0.50000000      0.14285714</v>
   <v>       0.21428571      0.21428571      0.21428571</v>
   <v>       0.28571429      0.21428571      0.21428571</v>
   <v>       0.35714286      0.21428571      0.21428571</v>
   <v>       0.42857143      0.21428571      0.21428571</v>
   <v>       0.50000000      0.21428571      0.21428571</v>
   <v>       0.28571429      0.28571429      0.21428571</v>
   <v>       0.35714286      0.28571429      0.21428571</v>
   <v>       0.42857143      0.28571429      0.21428571</v>
   <v>       0.50000000      0.28571429      0.21428571</v>
   <v>       0.35714286      0.35714286      0.21428571</v>
   <v>       0.42857143      0.35714286      0.21428571</v>
   <v>       0.50000000      0.35714286      0.21428571</v>
   <v>       0.42857143      0.42857143      0.21428571</v>
   <v>       0.50000000      0.42857143      0.21428571</v>
   <v>       0.50000000      0.50000000      0.21428571</v>
   <v>       0.28571429      0.28571429      0.28571429</v>
   <v>       0.35714286      0.28571429      0.28571429</v>
   <v>       0.42857143      0.28571429      0.28571429</v>
   <v>       0.50000000      0.28571429      0.28571429</v>
   <v>       0.35714286      0.35714286      0.28571429</v>
   <v>       0.42857143      0.35714286      0.28571429</v>
   <v>       0.50000000      0.35714286      0.28571429</v>
   <v>       0.42857143      0.42857143      0.28571429</v>
   <v>       0.50000000      0.42857143      0.28571429</v>
   <v>       0.50000000      0.50000000      0.28571429</v>
   <v>       0.35714286      0.35714286      0.35714286</v>
   <v>       0.42857143      0.35714286      0.35714286</v>
   <v>       0.50000000      0.35714286      0.35714286</v>
   <v>       0.42857143      0.42857143      0.35714286</v>
   <v>       0.50000000      0.42857143      0.35714286</v>
   <v>       0.50000000      0.50000000      0.35714286</v>
   <v>       0.42857143      0.42857143      0.42857143</v>
   <v>       0.50000000      0.42857143      0.42857143</v>
   <v>       0.50000000      0.50000000      0.42857143</v>
   <v>       0.50000000      0.50000000      0.50000000</v>
  </varray>
  <varray name="weights" >
   <v>       0.00036443</v>
   <v>       0.00218659</v>
   <v>       0.00218659</v>
   <v>       0.00218659</v>
   <v>       0.00218659</v>
   <v>       0.00218659</v>
   <v>       0.00218659</v>
   <v>       0.00109329</v>
   <v>       0.00437318</v>
   <v>       0.00874636</v>
   <v>       0.00874636</v>
   <v>       0.00874636</v>
   <v>       0.00874636</v>
   <v>       0.00874636</v>
   <v>       0.00437318</v>
   <v>       0.00437318</v>
   <v>       0.00874636</v>
   <v>       0.00874636</v>
   <v>       0.00874636</v>
   <v>       0.00874636</v>
   <v>       0.00437318</v>
   <v>       0.00437318</v>
   <v>       0.00874636</v>
   <v>       0.00874636</v>
   <v>       0.00874636</v>
   <v>       0.00437318</v>
   <v>       0.00437318</v>
   <v>       0.00874636</v>
   <v>       0.00874636</v>
   <v>       0.00437318</v>
   <v>       0.00437318</v>
   <v>       0.00874636</v>
   <v>       0.00437318</v>
   <v>       0.00437318</v>
   <v>       0.00437318</v>
   <v>       0.00109329</v>
   <v>       0.00291545</v>
   <v>       0.00874636</v>
   <v>       0.00874636</v>
   <v>       0.00874636</v>
   <v>       0.00874636</v>
   <v>       0.00874636</v>
   <v>       0.00437318</v>
   <v>       0.00874636</v>
   <v>       0.01749271</v>
   <v>       0.01749271</v>
   <v>       0.01749271</v>
   <v>       0.01749271</v>
   <v>       0.00874636</v>
   <v>       0.00874636</v>
   <v>       0.01749271</v>
   <v>       0.01749271</v>
   <v>       0.01749271</v>
   <v>       0.00874636</v>
   <v>       0.00874636</v>
   <v>       0.01749271</v>
   <v>       0.01749271</v>
   <v>       0.00874636</v>
   <v>       0.00874636</v>
   <v>       0.01749271</v>
   <v>       0.00874636</v>
   <v>       0.00874636</v>
   <v>       0.00874636</v>
   <v>       0.00218659</v>
   <v>       0.00291545</v>
   <v>       0.00874636</v>
   <v>       0.00874636</v>
   <v>       0.00874636</v>
   <v>       0.00874636</v>
   <v>       0.00437318</v>
   <v>       0.00874636</v>
   <v>       0.01749271</v>
   <v>       0.01749271</v>
   <v>       0.01749271</v>
   <v>       0.00874636</v>
   <v>       0.00874636</v>
   <v>       0.01749271</v>
   <v>       0.01749271</v>
   <v>       0.00874636</v>
   <v>       0.00874636</v>
   <v>       0.01749271</v>
   <v>       0.00874636</v>
   <v>       0.00874636</v>
   <v>       0.00874636</v>
   <v>       0.00218659</v>
   <v>       0.00291545</v>
   <v>       0.00874636</v>
   <v>       0.00874636</v>
   <v>       0.00874636</v>
   <v>       0.00437318</v>
   <v>       0.00874636</v>
   <v>       0.01749271</v>
   <v>       0.01749271</v>
   <v>       0.00874636</v>
   <v>       0.00874636</v>
   <v>       0.01749271</v>
   <v>       0.00874636</v>
   <v>       0.00874636</v>
   <v>       0.00874636</v>
   <v>       0.00218659</v>
   <v>       0.00291545</v>
   <v>       0.00874636</v>
   <v>       0.00874636</v>
   <v>       0.00437318</v>
   <v>       0.00874636</v>
   <v>       0.01749271</v>
   <v>       0.00874636</v>
   <v>       0.00874636</v>
   <v>       0.00874636</v>
   <v>       0.00218659</v>
   <v>       0.00291545</v>
   <v>       0.00874636</v>
   <v>       0.00437318</v>
   <v>       0.00874636</v>
   <v>       0.00874636</v>
   <v>       0.00218659</v>
   <v>       0.00291545</v>
   <v>       0.00437318</v>
   <v>       0.00218659</v>
   <v>       0.00036443</v>
  </varray>
 </kpoints>
 <parameters>
  <separator name="general" >
   <i type="string" name="SYSTEM">unknown system</i>
   <i type="logical" name="LCOMPAT"> F  </i>
  </separator>
  <separator name="electronic" >
   <i type="string" name="PREC">accura</i>
   <i name="ENMAX">    500.00000000</i>
   <i name="ENAUG">    516.45600000</i>
   <i name="EDIFF">      0.00000001</i>
   <i type="int" name="IALGO">    38</i>
   <i type="int" name="IWAVPR">    10</i>
   <i type="int" name="NBANDS">    26</i>
   <i name="NELECT">     44.00000000</i>
   <separator name="electronic smearing" >
    <i type="int" name="ISMEAR">     0</i>
    <i name="SIGMA">      0.01000000</i>
   </separator>
   <separator name="electronic projectors" >
    <i type="logical" name="LREAL"> F  </i>
    <v name="ROPT">      0.00000000</v>
    <i type="int" name="LMAXPAW">  -100</i>
    <i type="int" name="LMAXMIX">     2</i>
   </separator>
   <separator name="electronic startup" >
    <i type="int" name="ISTART">     0</i>
    <i type="int" name="ICHARG">     2</i>
    <i type="int" name="INIWAV">     1</i>
   </separator>
   <separator name="electronic spin" >
    <i type="int" name="ISPIN">     1</i>
    <i type="logical" name="LNONCOLLINEAR"> F  </i>
    <v name="MAGMOM">      1.00000000      1.00000000      1.00000000      1.00000000</v>
    <i name="NUPDOWN">     -1.00000000</i>
    <i type="logical" name="LSORBIT"> F  </i>
    <v name="SAXIS">      0.00000000      0.00000000      1.00000000</v>
    <i type="logical" name="LSPIRAL"> F  </i>
    <v name="QSPIRAL">      0.00000000      0.00000000      0.00000000</v>
    <i type="logical" name="LZEROZ"> F  </i>
   </separator>
   <separator name="electronic exchange-correlation" >
    <i type="string" name="GGA">--</i>
    <i type="int" name="VOSKOWN">     0</i>
    <i type="logical" name="LASPH"> F  </i>
    <i type="logical" name="LMETAGGA"> F  </i>
    <i type="string" name="GGA2">--</i>
   </separator>
   <separator name="electronic convergence" >
    <i type="int" name="NELM">    60</i>
    <i type="int" name="NELMDL">     0</i>
    <i type="int" name="NELMIN">     2</i>
    <i name="ENINI">    500.00000000</i>
    <separator name="electronic convergence detail" >
     <i type="logical" name="LDIAG"> T  </i>
     <i name="WEIMIN">      0.00000000</i>
     <i name="EBREAK">      0.00000000</i>
     <i name="DEPER">      0.30000000</i>
     <i type="int" name="NRMM">     4</i>
     <i name="TIME">      0.10000000</i>
    </separator>
   </separator>
   <separator name="electronic mixer" >
    <i name="AMIX">      0.40000000</i>
    <i name="BMIX">      1.00000000</i>
    <i name="AMIN">      0.10000000</i>
    <i name="AMIX_MAG">      1.60000000</i>
    <i name="BMIX_MAG">      1.00000000</i>
    <separator name="electronic mixer details" >
     <i type="int" name="IMIX">     4</i>
     <i type="int" name="MAXMIX">   -45</i>
     <i name="WC">    100.00000000</i>
     <i type="int" name="INIMIX">     1</i>
     <i type="int" name="MIXPRE">     1</i>
     <i type="int" name="MREMOVE">     5</i>
    </separator>
   </separator>
   <separator name="electronic dipolcorrection" >
    <i type="int" name="IDIPOL">     0</i>
    <i type="logical" name="LDIPOL"> F  </i>
    <v name="DIPOL">   -100.00000000</v>
    <i name="EFIELD">      0.00000000</i>
   </separator>
  </separator>
  <separator name="grids" >
   <i type="int" name="NGX">    28</i>
   <i type="int" name="NGY">    28</i>
   <i type="int" name="NGZ">    28</i>
   <i type="int" name="NGXF">    56</i>
   <i type="int" name="NGYF">    56</i>
   <i type="int" name="NGZF">    56</i>
   <i type="logical" name="ADDGRID"> T  </i>
  </separator>
  <separator name="ionic" >
   <i type="int" name="NSW">     0</i>
   <i type="int" name="IBRION">    -1</i>
   <i type="int" name="ISIF">     2</i>
   <i name="PSTRESS">      0.00000000</i>
   <i name="EDIFFG">      0.00000010</i>
   <i type="int" name="NFREE">     0</i>
   <i name="POTIM">      0.50000000</i>
   <i name="SMASS">     -3.00000000</i>
  </separator>
  <separator name="ionic md" >
   <i name="TEBEG">      0.00010000</i>
   <i name="TEEND">      0.00010000</i>
   <i type="int" name="NBLOCK">     1</i>
   <i type="int" name="KBLOCK">     1</i>
   <i type="int" name="NPACO">   256</i>
   <i name="APACO">     16.00000000</i>
  </separator>
  <separator name="symmetry" >
   <i type="int" name="ISYM">     2</i>
   <i name="SYMPREC">      0.00001000</i>
  </separator>
  <separator name="dos" >
   <i type="logical" name="LORBIT"> F  </i>
   <v name="RWIGS">     -1.00000000</v>
   <i type="int" name="NEDOS">   301</i>
   <i name="EMIN">     10.00000000</i>
   <i name="EMAX">    -10.00000000</i>
  </separator>
  <separator name="writing" >
   <i type="int" name="NWRITE">     2</i>
   <i type="logical" name="LWAVE"> F  </i>
   <i type="logical" name="LCHARG"> F  </i>
   <i type="logical" name="LPARD"> F  </i>
   <i type="logical" name="LVTOT"> F  </i>
   <i type="logical" name="LELF"> F  </i>
   <i type="logical" name="LOPTICS"> F  </i>
   <i name="STM">      0.00000000</i>
  </separator>
  <separator name="performance" >
   <i type="int" name="NPAR">     8</i>
   <i type="int" name="NSIM">     4</i>
   <i type="int" name="NBLK">    96</i>
   <i type="logical" name="LPLANE"> T  </i>
   <i type="logical" name="LCRITICAL_MEM"> F  </i>
   <i type="logical" name="LSCALAPACK"> F  </i>
   <i type="logical" name="LSCALU"> F  </i>
   <i type="logical" name="LASYNC"> F  </i>
  </separator>
  <separator name="miscellaneous" >
   <i type="int" name="IDIOT">     3</i>
   <i type="logical" name="LMUSIC"> F  </i>
   <v name="POMASS">     63.54600000</v>
   <i type="logical" name="LCORR"> T  </i>
  </separator>
  <i type="logical" name="LREAL_COMPAT"> F  </i>
  <i type="logical" name="GGA_COMPAT"> T  </i>
  <i type="logical" name="LBERRY"> F  </i>
  <i type="int" name="ICORELEVEL">     0</i>
  <i type="logical" name="LDAU"> F  </i>
  <i type="int" name="I_CONSTRAINED_M">     0</i>
 </parameters>
 <atominfo>
  <atoms>       4</atoms>
  <types>       1</types>
  <array name="atoms" >
   <dimension dim="1">ion</dimension>
   <field type="string">element</field>
   <field type="int">atomtype</field>
   <set>
    <rc><c>Cu</c><c>   1</c></rc>
    <rc><c>Cu</c><c>   1</c></rc>
    <rc><c>Cu</c><c>   1</c></rc>
    <rc><c>Cu</c><c>   1</c></rc>
   </set>
  </array>
  <array name="atomtypes" >
   <dimension dim="1">type</dimension>
   <field type="int">atomspertype</field>
   <field type="string">element</field>
   <field>mass</field>
   <field>valence</field>
   <field type="string">pseudopotential</field>
   <set>
    <rc><c>   4</c><c>Cu</c><c>     63.54600000</c><c>     11.00000000</c><c> PAW_PBE Cu 05Jan2001                   </c></rc>
   </set>
  </array>
 </atominfo>
 <structure name="initialpos" >
  <crystal>
   <varray name="basis" >
    <v>       3.49095918      0.00000000      0.00000000</v>
    <v>       0.00000000      3.49095918      0.00000000</v>
    <v>       0.00000000      0.00000000      3.49095918</v>
   </varray>
   <i name="volume">     42.54360733</i>
   <varray name="rec_basis" >
    <v>       0.28645422      0.00000000      0.00000000</v>
    <v>       0.00000000      0.28645422      0.00000000</v>
    <v>       0.00000000      0.00000000      0.28645422</v>
   </varray>
  </crystal>
  <varray name="positions" >
   <v>       0.00000000      0.00000000      0.00000000</v>
   <v>       0.50000000      0.50000000      0.00000000</v>
   <v>       0.50000000      0.00000000      0.50000000</v>
   <v>       0.00000000      0.50000000      0.50000000</v>
  </varray>
 </structure>
 <calculation>
  <scstep>
   <time name="dav">    1.89    1.91</time>
   <time name="total">    1.93    1.95</time>
   <energy>
    <i name="alphaZ">    480.49523212</i>
    <i name="ewald">  -4576.70530040</i>
    <i name="hartreedc">  -1224.09438641</i>
    <i name="XCdc">    176.86106456</i>
    <i name="pawpsdc">   4328.20916945</i>
    <i name="pawaedc">  -4904.30802700</i>
    <i name="eentropy">     -0.00012249</i>
    <i name="bandstr">    432.66006444</i>
    <i name="atom">   5563.90732063</i>
    <i name="e_fr_energy">    277.02501488</i>
    <i name="e_wo_entrp">    277.02513737</i>
    <i name="e_0_energy">    277.02507613</i>
   </energy>
  </scstep>
  <scstep>
   <time name="dav">    1.81    1.81</time>
   <time name="total">    1.81    1.81</time>
   <energy>
    <i name="e_fr_energy">      0.76103808</i>
    <i name="e_wo_entrp">      0.76111679</i>
    <i name="e_0_energy">      0.76107744</i>
   </energy>
  </scstep>
  <scstep>
   <time name="dav">    1.97    1.97</time>
   <time name="total">    1.97    1.97</time>
   <energy>
    <i name="e_fr_energy">    -17.88686602</i>
    <i name="e_wo_entrp">    -17.88674456</i>
    <i name="e_0_energy">    -17.88680529</i>
   </energy>
  </scstep>
  <scstep>
   <time name="dav">    1.93    1.93</time>
   <time name="total">    1.93    1.94</time>
   <energy>
    <i name="e_fr_energy">    -18.09239321</i>
    <i name="e_wo_entrp">    -18.09227520</i>
    <i name="e_0_energy">    -18.09233420</i>
   </energy>
  </scstep>
  <scstep>
   <time name="dav">    1.99    1.99</time>
   <time name="total">    2.11    2.11</time>
   <energy>
    <i name="e_fr_energy">    -18.09277010</i>
    <i name="e_wo_entrp">    -18.09265209</i>
    <i name="e_0_energy">    -18.09271109</i>
   </energy>
  </scstep>
  <scstep>
   <time name="dav">    1.92    1.92</time>
   <time name="total">    2.07    2.07</time>
   <energy>
    <i name="e_fr_energy">    -15.49470878</i>
    <i name="e_wo_entrp">    -15.49465146</i>
    <i name="e_0_energy">    -15.49468012</i>
   </energy>
  </scstep>
  <scstep>
   <time name="dav">    1.97    1.97</time>
   <time name="total">    2.12    2.12</time>
   <energy>
    <i name="e_fr_energy">    -14.59020089</i>
    <i name="e_wo_entrp">    -14.59010558</i>
    <i name="e_0_energy">    -14.59015324</i>
   </energy>
  </scstep>
  <scstep>
   <time name="dav">    2.00    2.00</time>
   <time name="total">    2.14    2.15</time>
   <energy>
    <i name="e_fr_energy">    -14.53361772</i>
    <i name="e_wo_entrp">    -14.53352241</i>
    <i name="e_0_energy">    -14.53357007</i>
   </energy>
  </scstep>
  <scstep>
   <time name="dav">    2.14    2.14</time>
   <time name="total">    2.29    2.29</time>
   <energy>
    <i name="e_fr_energy">    -14.52679018</i>
    <i name="e_wo_entrp">    -14.52669488</i>
    <i name="e_0_energy">    -14.52674253</i>
   </energy>
  </scstep>
  <scstep>
   <time name="dav">    1.92    1.92</time>
   <time name="total">    2.06    2.06</time>
   <energy>
    <i name="e_fr_energy">    -14.52686971</i>
    <i name="e_wo_entrp">    -14.52677440</i>
    <i name="e_0_energy">    -14.52682206</i>
   </energy>
  </scstep>
  <scstep>
   <time name="dav">    1.93    1.93</time>
   <time name="total">    2.08    2.08</time>
   <energy>
    <i name="e_fr_energy">    -14.52686669</i>
    <i name="e_wo_entrp">    -14.52677138</i>
    <i name="e_0_energy">    -14.52681904</i>
   </energy>
  </scstep>
  <scstep>
   <time name="dav">    1.96    1.96</time>
   <time name="total">    2.11    2.11</time>
   <energy>
    <i name="e_fr_energy">    -14.52687134</i>
    <i name="e_wo_entrp">    -14.52677603</i>
    <i name="e_0_energy">    -14.52682369</i>
   </energy>
  </scstep>
  <scstep>
   <time name="dav">    1.90    1.90</time>
   <time name="total">    2.05    2.05</time>
   <energy>
    <i name="e_fr_energy">    -14.52687196</i>
    <i name="e_wo_entrp">    -14.52677665</i>
    <i name="e_0_energy">    -14.52682430</i>
   </energy>
  </scstep>
  <scstep>
   <time name="dav">    1.35    1.35</time>
   <time name="total">    1.49    1.49</time>
   <energy>
    <i name="e_fr_energy">    -14.52687202</i>
    <i name="e_wo_entrp">    -14.52677671</i>
    <i name="e_0_energy">    -14.52682437</i>
   </energy>
  </scstep>
  <scstep>
   <time name="dav">    1.32    1.31</time>
   <time name="total">    1.46    1.47</time>
   <energy>
    <i name="e_fr_energy">    -14.52687201</i>
    <i name="e_wo_entrp">    -14.52677670</i>
    <i name="e_0_energy">    -14.52682435</i>
   </energy>
  </scstep>
  <scstep>
   <time name="dav">    1.26    1.26</time>
   <time name="total">    1.29    1.29</time>
   <energy>
    <i name="alphaZ">    480.49523212</i>
    <i name="ewald">  -4576.70530040</i>
    <i name="hartreedc">  -1132.71675250</i>
    <i name="XCdc">    172.25269549</i>
    <i name="pawpsdc">   4467.77020340</i>
    <i name="pawaedc">  -5049.38752962</i>
    <i name="eentropy">     -0.00009531</i>
    <i name="bandstr">     59.85735419</i>
    <i name="atom">   5563.90732063</i>
    <i name="e_fr_energy">    -14.52687201</i>
    <i name="e_wo_entrp">    -14.52677670</i>
    <i name="e_0_energy">    -14.52682436</i>
   </energy>
  </scstep>
  <structure>
   <crystal>
    <varray name="basis" >
     <v>       3.49095918      0.00000000      0.00000000</v>
     <v>       0.00000000      3.49095918      0.00000000</v>
     <v>       0.00000000      0.00000000      3.49095918</v>
    </varray>
    <i name="volume">     42.54360733</i>
    <varray name="rec_basis" >
     <v>       0.28645422      0.00000000      0.00000000</v>
     <v>       0.00000000      0.28645422      0.00000000</v>
     <v>       0.00000000      0.00000000      0.28645422</v>
    </varray>
   </crystal>
   <varray name="positions" >
    <v>       0.00000000      0.00000000      0.00000000</v>
    <v>       0.50000000      0.50000000      0.00000000</v>
    <v>       0.50000000      0.00000000      0.50000000</v>
    <v>       0.00000000      0.50000000      0.50000000</v>
   </varray>
  </structure>
  <varray name="forces" >
   <v>       0.00000000     -0.00000000      0.00000000</v>
   <v>       0.00000000      0.00000000     -0.00000000</v>
   <v>      -0.00000000      0.00000000      0.00000000</v>
   <v>      -0.00000000      0.00000000      0.00000000</v>
  </varray>
  <varray name="stress" >
   <v>     230.13741476      0.00000000      0.00000000</v>
   <v>      -0.00000000    230.13741476      0.00000000</v>
   <v>      -0.00000000     -0.00000000    230.13741476</v>
  </varray>
  <energy>
   <i name="e_fr_energy">    -14.52687201</i>
   <i name="e_wo_entrp">    -14.52682436</i>
   <i name="e_0_energy">     -0.00009531</i>
  </energy>
  <eigenvalues>
   <array>
    <dimension dim="1">band</dimension>
    <dimension dim="2">kpoint</dimension>
    <dimension dim="3">spin</dimension>
    <field>eigene</field>
    <field>occ</field>
    <set>
     <set comment="spin 1">
      <set comment="kpoint 1">
       <r>  -5.4319  1.0000</r>
       <r>  -0.8100  1.0000</r>
       <r>  -0.8100  1.0000</r>
       <r>  -0.8100  1.0000</r>
       <r>  -0.2850  1.0000</r>
       <r>  -0.2850  1.0000</r>
       <r>  -0.2850  1.0000</r>
       <r>   1.3527  1.0000</r>
       <r>   1.3527  1.0000</r>
       <r>   1.3527  1.0000</r>
       <r>   2.3270  1.0000</r>
       <r>   2.3270  1.0000</r>
       <r>   2.9728  1.0000</r>
       <r>   2.9728  1.0000</r>
       <r>   2.9728  1.0000</r>
       <r>   3.1547  1.0000</r>
       <r>   3.1547  1.0000</r>
       <r>   3.1547  1.0000</r>
       <r>   3.1547  1.0000</r>
       <r>   3.1547  1.0000</r>
       <r>   3.1547  1.0000</r>
       <r>   6.1841  0.0000</r>
       <r>   6.1841  0.0000</r>
       <r>   6.1841  0.0000</r>
       <r>  12.6332  0.0000</r>
       <r>  12.6332  0.0000</r>
       <r>  12.6332  0.0000</r>
       <r>  18.7872  0.0000</r>
       <r>  18.7872  0.0000</r>
       <r>  18.7872  0.0000</r>
       <r>  18.7872  0.0000</r>
       <r>  18.7872  0.0000</r>
      </set>
      <set comment="kpoint 2">
       <r>  -5.3649  1.0000</r>
       <r>  -0.8081  1.0000</r>
       <r>  -0.7770  1.0000</r>
       <r>  -0.7770  1.0000</r>
       <r>  -0.2657  1.0000</r>
       <r>  -0.2645  1.0000</r>
       <r>  -0.2645  1.0000</r>
       <r>   1.3309  1.0000</r>
       <r>   1.3700  1.0000</r>
       <r>   1.3700  1.0000</r>
       <r>   2.3071  1.0000</r>
       <r>   2.3349  1.0000</r>
       <r>   2.9471  1.0000</r>
       <r>   2.9471  1.0000</r>
       <r>   2.9645  1.0000</r>
       <r>   3.0168  1.0000</r>
       <r>   3.0168  1.0000</r>
       <r>   3.1244  1.0000</r>
       <r>   3.1244  1.0000</r>
       <r>   3.1547  1.0000</r>
       <r>   3.1547  1.0000</r>
       <r>   5.7924  0.0000</r>
       <r>   6.3801  0.0000</r>
       <r>   6.3801  0.0000</r>
       <r>  12.6539  0.0000</r>
       <r>  12.6539  0.0000</r>
       <r>  13.1516  0.0000</r>
       <r>  18.3288  0.0000</r>
       <r>  18.3288  0.0000</r>
       <r>  18.5172  0.0000</r>
       <r>  18.5172  0.0000</r>
       <r>  18.8877  0.0000</r>
      </set>
      <set comment="kpoint 3">
       <r>  -5.1650  1.0000</r>
       <r>  -0.8113  1.0000</r>
       <r>  -0.6812  1.0000</r>
       <r>  -0.6812  1.0000</r>
       <r>  -0.2087  1.0000</r>
       <r>  -0.2029  1.0000</r>
       <r>  -0.2029  1.0000</r>
       <r>   1.2665  1.0000</r>
       <r>   1.4213  1.0000</r>
       <r>   1.4213  1.0000</r>
       <r>   2.2490  1.0000</r>
       <r>   2.3582  1.0000</r>
       <r>   2.6813  1.0000</r>
       <r>   2.6813  1.0000</r>
       <r>   2.8716  1.0000</r>
       <r>   2.8716  1.0000</r>
       <r>   2.9401  1.0000</r>
       <r>   3.0367  1.0000</r>
       <r>   3.0367  1.0000</r>
       <r>   3.1548  1.0000</r>
       <r>   3.1548  1.0000</r>
       <r>   4.8878  0.0000</r>
       <r>   6.8898  0.0000</r>
       <r>   6.8898  0.0000</r>
       <r>  12.7176  0.0000</r>
       <r>  12.7176  0.0000</r>
       <r>  14.4430  0.0000</r>
       <r>  17.3058  0.0000</r>
       <r>  17.3058  0.0000</r>
       <r>  17.8478  0.0000</r>
       <r>  17.8478  0.0000</r>
       <r>  19.1855  0.0000</r>
      </set>
      <set comment="kpoint 4">
       <r>  -4.8361  1.0000</r>
       <r>  -0.8503  1.0000</r>
       <r>  -0.5331  1.0000</r>
       <r>  -0.5331  1.0000</r>
       <r>  -0.1163  1.0000</r>
       <r>  -0.0995  1.0000</r>
       <r>  -0.0995  1.0000</r>
       <r>   1.1635  1.0000</r>
       <r>   1.5059  1.0000</r>
       <r>   1.5059  1.0000</r>
       <r>   2.1581  1.0000</r>
       <r>   2.2674  1.0000</r>
       <r>   2.2674  1.0000</r>
       <r>   2.3959  1.0000</r>
       <r>   2.7526  1.0000</r>
       <r>   2.7526  1.0000</r>
       <r>   2.9003  1.0000</r>
       <r>   2.9003  1.0000</r>
       <r>   2.9008  1.0000</r>
       <r>   3.1550  1.0000</r>
       <r>   3.1550  1.0000</r>
       <r>   3.8542  1.0000</r>
       <r>   7.5932  0.0000</r>
       <r>   7.5932  0.0000</r>
       <r>  12.8282  0.0000</r>
       <r>  12.8282  0.0000</r>
       <r>  16.1063  0.0000</r>
       <r>  16.1063  0.0000</r>
       <r>  16.1460  0.0000</r>
       <r>  17.0186  0.0000</r>
       <r>  17.0186  0.0000</r>
       <r>  19.6706  0.0000</r>
      </set>
      <set comment="kpoint 5">
       <r>  -4.3855  1.0000</r>
       <r>  -0.9859  1.0000</r>
       <r>  -0.3520  1.0000</r>
       <r>  -0.3520  1.0000</r>
       <r>   0.0075  1.0000</r>
       <r>   0.0466  1.0000</r>
       <r>   0.0466  1.0000</r>
       <r>   1.0279  1.0000</r>
       <r>   1.6221  1.0000</r>
       <r>   1.6221  1.0000</r>
       <r>   1.8438  1.0000</r>
       <r>   1.8438  1.0000</r>
       <r>   2.0442  1.0000</r>
       <r>   2.4462  1.0000</r>
       <r>   2.6032  1.0000</r>
       <r>   2.6032  1.0000</r>
       <r>   2.7278  1.0000</r>
       <r>   2.7278  1.0000</r>
       <r>   2.8488  1.0000</r>
       <r>   2.9255  1.0000</r>
       <r>   3.1552  1.0000</r>
       <r>   3.1552  1.0000</r>
       <r>   8.4204  0.0000</r>
       <r>   8.4204  0.0000</r>
       <r>  12.9910  0.0000</r>
       <r>  12.9910  0.0000</r>
       <r>  14.8771  0.0000</r>
       <r>  14.8771  0.0000</r>
       <r>  16.1913  0.0000</r>
       <r>  16.1913  0.0000</r>
       <r>  18.0726  0.0000</r>
       <r>  20.3286  0.0000</r>
      </set>
      <set comment="kpoint 6">
       <r>  -3.8259  1.0000</r>
       <r>  -1.3003  1.0000</r>
       <r>  -0.1681  1.0000</r>
       <r>  -0.1681  1.0000</r>
       <r>   0.1574  1.0000</r>
       <r>   0.2366  1.0000</r>
       <r>   0.2366  1.0000</r>
       <r>   0.8674  1.0000</r>
       <r>   1.4418  1.0000</r>
       <r>   1.4418  1.0000</r>
       <r>   1.7672  1.0000</r>
       <r>   1.7672  1.0000</r>
       <r>   1.9236  1.0000</r>
       <r>   2.2528  1.0000</r>
       <r>   2.4475  1.0000</r>
       <r>   2.4475  1.0000</r>
       <r>   2.5066  1.0000</r>
       <r>   2.5327  1.0000</r>
       <r>   2.5327  1.0000</r>
       <r>   2.7868  1.0000</r>
       <r>   3.1554  1.0000</r>
       <r>   3.1554  1.0000</r>
       <r>   9.3382  0.0000</r>
       <r>   9.3382  0.0000</r>
       <r>  13.2081  0.0000</r>
       <r>  13.2081  0.0000</r>
       <r>  13.6689  0.0000</r>
       <r>  13.6689  0.0000</r>
       <r>  15.4547  0.0000</r>
       <r>  15.4547  0.0000</r>
       <r>  20.1269  0.0000</r>
       <r>  21.1428  0.0000</r>
      </set>
      <set comment="kpoint 7">
       <r>  -3.1798  1.0000</r>
       <r>  -1.8259  1.0000</r>
       <r>  -0.0248  1.0000</r>
       <r>  -0.0248  1.0000</r>
       <r>   0.3267  1.0000</r>
       <r>   0.4712  1.0000</r>
       <r>   0.4712  1.0000</r>
       <r>   0.6907  1.0000</r>
       <r>   1.0754  1.0000</r>
       <r>   1.0754  1.0000</r>
       <r>   1.8230  1.0000</r>
       <r>   1.8954  1.0000</r>
       <r>   1.9373  1.0000</r>
       <r>   1.9373  1.0000</r>
       <r>   2.3233  1.0000</r>
       <r>   2.3233  1.0000</r>
       <r>   2.3286  1.0000</r>
       <r>   2.3286  1.0000</r>
       <r>   2.5743  1.0000</r>
       <r>   2.7180  1.0000</r>
       <r>   3.1555  1.0000</r>
       <r>   3.1555  1.0000</r>
       <r>  10.3303  0.0000</r>
       <r>  10.3303  0.0000</r>
       <r>  12.5023  0.0000</r>
       <r>  12.5023  0.0000</r>
       <r>  13.4580  0.0000</r>
       <r>  13.4580  0.0000</r>
       <r>  14.8777  0.0000</r>
       <r>  14.8777  0.0000</r>
       <r>  22.0962  0.0000</r>
       <r>  22.0965  0.0000</r>
      </set>
      <set comment="kpoint 8">
       <r>  -2.4884  1.0000</r>
       <r>  -2.4884  1.0000</r>
       <r>   0.0306  1.0000</r>
       <r>   0.0306  1.0000</r>
       <r>   0.5074  1.0000</r>
       <r>   0.5074  1.0000</r>
       <r>   0.7510  1.0000</r>
       <r>   0.7510  1.0000</r>
       <r>   0.7510  1.0000</r>
       <r>   0.7510  1.0000</r>
       <r>   1.7879  1.0000</r>
       <r>   1.7879  1.0000</r>
       <r>   2.1269  1.0000</r>
       <r>   2.1269  1.0000</r>
       <r>   2.1269  1.0000</r>
       <r>   2.1269  1.0000</r>
       <r>   2.2747  1.0000</r>
       <r>   2.2747  1.0000</r>
       <r>   2.6460  1.0000</r>
       <r>   2.6460  1.0000</r>
       <r>   3.1556  1.0000</r>
       <r>   3.1556  1.0000</r>
       <r>  11.3872  0.0000</r>
       <r>  11.3872  0.0000</r>
       <r>  11.3872  0.0000</r>
       <r>  11.3872  0.0000</r>
       <r>  13.6058  0.0000</r>
       <r>  13.6058  0.0000</r>
       <r>  14.6185  0.0000</r>
       <r>  14.6185  0.0000</r>
       <r>  23.1725  0.0000</r>
       <r>  23.1725  0.0000</r>
      </set>
      <set comment="kpoint 9">
       <r>  -5.2981  1.0000</r>
       <r>  -0.7745  1.0000</r>
       <r>  -0.7745  1.0000</r>
       <r>  -0.7445  1.0000</r>
       <r>  -0.2455  1.0000</r>
       <r>  -0.2455  1.0000</r>
       <r>  -0.2445  1.0000</r>
       <r>   1.3183  1.0000</r>
       <r>   1.3782  1.0000</r>
       <r>   1.3859  1.0000</r>
       <r>   2.3014  1.0000</r>
       <r>   2.3298  1.0000</r>
       <r>   2.9120  1.0000</r>
       <r>   2.9203  1.0000</r>
       <r>   2.9203  1.0000</r>
       <r>   2.9221  1.0000</r>
       <r>   2.9994  1.0000</r>
       <r>   2.9994  1.0000</r>
       <r>   3.1243  1.0000</r>
       <r>   3.1243  1.0000</r>
       <r>   3.1354  1.0000</r>
       <r>   5.9875  0.0000</r>
       <r>   5.9875  0.0000</r>
       <r>   6.5625  0.0000</r>
       <r>  12.6742  0.0000</r>
       <r>  13.1789  0.0000</r>
       <r>  13.1789  0.0000</r>
       <r>  17.3918  0.0000</r>
       <r>  18.4237  0.0000</r>
       <r>  18.4237  0.0000</r>
       <r>  18.6141  0.0000</r>
       <r>  18.6141  0.0000</r>
      </set>
      <set comment="kpoint 10">
       <r>  -5.0989  1.0000</r>
       <r>  -0.7761  1.0000</r>
       <r>  -0.6771  1.0000</r>
       <r>  -0.6502  1.0000</r>
       <r>  -0.1893  1.0000</r>
       <r>  -0.1847  1.0000</r>
       <r>  -0.1845  1.0000</r>
       <r>   1.2598  1.0000</r>
       <r>   1.4247  1.0000</r>
       <r>   1.4332  1.0000</r>
       <r>   2.2504  1.0000</r>
       <r>   2.3502  1.0000</r>
       <r>   2.6131  1.0000</r>
       <r>   2.6225  1.0000</r>
       <r>   2.8261  1.0000</r>
       <r>   2.8490  1.0000</r>
       <r>   2.8799  1.0000</r>
       <r>   2.9610  1.0000</r>
       <r>   3.0365  1.0000</r>
       <r>   3.1243  1.0000</r>
       <r>   3.1249  1.0000</r>
       <r>   5.0940  0.0000</r>
       <r>   6.4839  0.0000</r>
       <r>   7.0464  0.0000</r>
       <r>  12.7354  0.0000</r>
       <r>  13.2625  0.0000</r>
       <r>  14.4796  0.0000</r>
       <r>  16.2095  0.0000</r>
       <r>  17.3938  0.0000</r>
       <r>  17.9373  0.0000</r>
       <r>  18.7042  0.0000</r>
       <r>  18.8172  0.0000</r>
      </set>
      <set comment="kpoint 11">
       <r>  -4.7713  1.0000</r>
       <r>  -0.8124  1.0000</r>
       <r>  -0.5264  1.0000</r>
       <r>  -0.5044  1.0000</r>
       <r>  -0.0983  1.0000</r>
       <r>  -0.0842  1.0000</r>
       <r>  -0.0828  1.0000</r>
       <r>   1.1599  1.0000</r>
       <r>   1.5079  1.0000</r>
       <r>   1.5101  1.0000</r>
       <r>   2.1643  1.0000</r>
       <r>   2.2105  1.0000</r>
       <r>   2.2247  1.0000</r>
       <r>   2.3909  1.0000</r>
       <r>   2.6512  1.0000</r>
       <r>   2.7335  1.0000</r>
       <r>   2.7590  1.0000</r>
       <r>   2.9000  1.0000</r>
       <r>   2.9087  1.0000</r>
       <r>   3.1224  1.0000</r>
       <r>   3.1242  1.0000</r>
       <r>   4.1065  1.0000</r>
       <r>   7.1531  0.0000</r>
       <r>   7.7275  0.0000</r>
       <r>  12.8358  0.0000</r>
       <r>  13.4072  0.0000</r>
       <r>  15.0208  0.0000</r>
       <r>  16.1869  0.0000</r>
       <r>  16.1909  0.0000</r>
       <r>  17.1009  0.0000</r>
       <r>  18.1493  0.0000</r>
       <r>  19.1587  0.0000</r>
      </set>
      <set comment="kpoint 12">
       <r>  -4.3224  1.0000</r>
       <r>  -0.9444  1.0000</r>
       <r>  -0.3415  1.0000</r>
       <r>  -0.3253  1.0000</r>
       <r>   0.0237  1.0000</r>
       <r>   0.0565  1.0000</r>
       <r>   0.0612  1.0000</r>
       <r>   1.0271  1.0000</r>
       <r>   1.6106  1.0000</r>
       <r>   1.6233  1.0000</r>
       <r>   1.7914  1.0000</r>
       <r>   1.8187  1.0000</r>
       <r>   2.0612  1.0000</r>
       <r>   2.3745  1.0000</r>
       <r>   2.4460  1.0000</r>
       <r>   2.5883  1.0000</r>
       <r>   2.6098  1.0000</r>
       <r>   2.7273  1.0000</r>
       <r>   2.8319  1.0000</r>
       <r>   3.1219  1.0000</r>
       <r>   3.1240  1.0000</r>
       <r>   3.3038  1.0000</r>
       <r>   7.9248  0.0000</r>
       <r>   8.5384  0.0000</r>
       <r>  12.9373  0.0000</r>
       <r>  13.6184  0.0000</r>
       <r>  13.9285  0.0000</r>
       <r>  14.9609  0.0000</r>
       <r>  16.2693  0.0000</r>
       <r>  17.3096  0.0000</r>
       <r>  18.1077  0.0000</r>
       <r>  19.7698  0.0000</r>
      </set>
      <set comment="kpoint 13">
       <r>  -3.7652  1.0000</r>
       <r>  -1.2547  1.0000</r>
       <r>  -0.1528  1.0000</r>
       <r>  -0.1415  1.0000</r>
       <r>   0.1713  1.0000</r>
       <r>   0.2367  1.0000</r>
       <r>   0.2483  1.0000</r>
       <r>   0.8695  1.0000</r>
       <r>   1.3961  1.0000</r>
       <r>   1.4290  1.0000</r>
       <r>   1.7086  1.0000</r>
       <r>   1.7678  1.0000</r>
       <r>   1.9814  1.0000</r>
       <r>   2.0208  1.0000</r>
       <r>   2.4371  1.0000</r>
       <r>   2.4536  1.0000</r>
       <r>   2.5128  1.0000</r>
       <r>   2.5323  1.0000</r>
       <r>   2.6671  1.0000</r>
       <r>   2.8913  1.0000</r>
       <r>   3.1220  1.0000</r>
       <r>   3.1238  1.0000</r>
       <r>   8.7667  0.0000</r>
       <r>   9.4446  0.0000</r>
       <r>  12.5442  0.0000</r>
       <r>  13.4544  0.0000</r>
       <r>  13.7539  0.0000</r>
       <r>  13.8909  0.0000</r>
       <r>  15.5402  0.0000</r>
       <r>  16.4764  0.0000</r>
       <r>  20.0925  0.0000</r>
       <r>  20.5162  0.0000</r>
      </set>
      <set comment="kpoint 14">
       <r>  -3.1222  1.0000</r>
       <r>  -1.7763  1.0000</r>
       <r>  -0.0036  1.0000</r>
       <r>   0.0030  1.0000</r>
       <r>   0.3379  1.0000</r>
       <r>   0.4578  1.0000</r>
       <r>   0.4791  1.0000</r>
       <r>   0.6960  1.0000</r>
       <r>   1.0381  1.0000</r>
       <r>   1.0716  1.0000</r>
       <r>   1.7217  1.0000</r>
       <r>   1.7730  1.0000</r>
       <r>   1.9375  1.0000</r>
       <r>   2.0302  1.0000</r>
       <r>   2.3179  1.0000</r>
       <r>   2.3272  1.0000</r>
       <r>   2.3282  1.0000</r>
       <r>   2.4155  1.0000</r>
       <r>   2.5883  1.0000</r>
       <r>   2.7599  1.0000</r>
       <r>   3.1225  1.0000</r>
       <r>   3.1234  1.0000</r>
       <r>   9.6625  0.0000</r>
       <r>  10.4282  0.0000</r>
       <r>  11.5815  0.0000</r>
       <r>  12.5899  0.0000</r>
       <r>  13.6778  0.0000</r>
       <r>  14.1354  0.0000</r>
       <r>  15.0519  0.0000</r>
       <r>  15.7374  0.0000</r>
       <r>  21.3740  0.0000</r>
       <r>  21.5302  0.0000</r>
      </set>
      <set comment="kpoint 15">
       <r>  -2.4346  1.0000</r>
       <r>  -2.4346  1.0000</r>
       <r>   0.0568  1.0000</r>
       <r>   0.0568  1.0000</r>
       <r>   0.5157  1.0000</r>
       <r>   0.5157  1.0000</r>
       <r>   0.7243  1.0000</r>
       <r>   0.7243  1.0000</r>
       <r>   0.7539  1.0000</r>
       <r>   0.7539  1.0000</r>
       <r>   1.6989  1.0000</r>
       <r>   1.6989  1.0000</r>
       <r>   2.1268  1.0000</r>
       <r>   2.1268  1.0000</r>
       <r>   2.1976  1.0000</r>
       <r>   2.1976  1.0000</r>
       <r>   2.2744  1.0000</r>
       <r>   2.2744  1.0000</r>
       <r>   2.6702  1.0000</r>
       <r>   2.6702  1.0000</r>
       <r>   3.1230  1.0000</r>
       <r>   3.1230  1.0000</r>
       <r>  10.6036  0.0000</r>
       <r>  10.6036  0.0000</r>
       <r>  11.4790  0.0000</r>
       <r>  11.4790  0.0000</r>
       <r>  14.0072  0.0000</r>
       <r>  14.0072  0.0000</r>
       <r>  15.1721  0.0000</r>
       <r>  15.1721  0.0000</r>
       <r>  22.3170  0.0000</r>
       <r>  22.3170  0.0000</r>
      </set>
      <set comment="kpoint 16">
       <r>  -4.9019  1.0000</r>
       <r>  -0.6739  1.0000</r>
       <r>  -0.6739  1.0000</r>
       <r>  -0.5606  1.0000</r>
       <r>  -0.1311  1.0000</r>
       <r>  -0.1311  1.0000</r>
       <r>  -0.1295  1.0000</r>
       <r>   1.2226  1.0000</r>
       <r>   1.4530  1.0000</r>
       <r>   1.4683  1.0000</r>
       <r>   2.2311  1.0000</r>
       <r>   2.3513  1.0000</r>
       <r>   2.4046  1.0000</r>
       <r>   2.4726  1.0000</r>
       <r>   2.4726  1.0000</r>
       <r>   2.7825  1.0000</r>
       <r>   2.8775  1.0000</r>
       <r>   2.8775  1.0000</r>
       <r>   3.0360  1.0000</r>
       <r>   3.0360  1.0000</r>
       <r>   3.0782  1.0000</r>
       <r>   5.5825  0.0000</r>
       <r>   5.5825  0.0000</r>
       <r>   7.4770  0.0000</r>
       <r>  12.7819  0.0000</r>
       <r>  14.5906  0.0000</r>
       <r>  14.5906  0.0000</r>
       <r>  14.9106  0.0000</r>
       <r>  17.6535  0.0000</r>
       <r>  17.6535  0.0000</r>
       <r>  18.2038  0.0000</r>
       <r>  18.2038  0.0000</r>
      </set>
      <set comment="kpoint 17">
       <r>  -4.5780  1.0000</r>
       <r>  -0.7021  1.0000</r>
       <r>  -0.5151  1.0000</r>
       <r>  -0.4216  1.0000</r>
       <r>  -0.0442  1.0000</r>
       <r>  -0.0381  1.0000</r>
       <r>  -0.0334  1.0000</r>
       <r>   1.1399  1.0000</r>
       <r>   1.5231  1.0000</r>
       <r>   1.5235  1.0000</r>
       <r>   2.0581  1.0000</r>
       <r>   2.0934  1.0000</r>
       <r>   2.1666  1.0000</r>
       <r>   2.2508  1.0000</r>
       <r>   2.3925  1.0000</r>
       <r>   2.6769  1.0000</r>
       <r>   2.7613  1.0000</r>
       <r>   2.8430  1.0000</r>
       <r>   2.8990  1.0000</r>
       <r>   3.0353  1.0000</r>
       <r>   3.0508  1.0000</r>
       <r>   4.6076  1.0000</r>
       <r>   6.2040  0.0000</r>
       <r>   8.1069  0.0000</r>
       <r>  12.7815  0.0000</r>
       <r>  13.7683  0.0000</r>
       <r>  14.7770  0.0000</r>
       <r>  16.3073  0.0000</r>
       <r>  16.4407  0.0000</r>
       <r>  17.3495  0.0000</r>
       <r>  18.0735  0.0000</r>
       <r>  18.6463  0.0000</r>
      </set>
      <set comment="kpoint 18">
       <r>  -4.1346  1.0000</r>
       <r>  -0.8232  1.0000</r>
       <r>  -0.3187  1.0000</r>
       <r>  -0.2487  1.0000</r>
       <r>   0.0722  1.0000</r>
       <r>   0.0869  1.0000</r>
       <r>   0.1043  1.0000</r>
       <r>   1.0199  1.0000</r>
       <r>   1.5861  1.0000</r>
       <r>   1.6323  1.0000</r>
       <r>   1.6507  1.0000</r>
       <r>   1.7413  1.0000</r>
       <r>   1.9733  1.0000</r>
       <r>   2.0871  1.0000</r>
       <r>   2.4617  1.0000</r>
       <r>   2.5434  1.0000</r>
       <r>   2.6155  1.0000</r>
       <r>   2.7261  1.0000</r>
       <r>   2.7680  1.0000</r>
       <r>   3.0343  1.0000</r>
       <r>   3.0383  1.0000</r>
       <r>   3.7955  1.0000</r>
       <r>   6.8992  0.0000</r>
       <r>   8.8775  0.0000</r>
       <r>  12.1973  0.0000</r>
       <r>  13.3578  0.0000</r>
       <r>  15.0273  0.0000</r>
       <r>  15.2085  0.0000</r>
       <r>  16.5200  0.0000</r>
       <r>  18.1812  0.0000</r>
       <r>  18.6370  0.0000</r>
       <r>  18.9484  0.0000</r>
      </set>
      <set comment="kpoint 19">
       <r>  -3.5848  1.0000</r>
       <r>  -1.1216  1.0000</r>
       <r>  -0.1146  1.0000</r>
       <r>  -0.0656  1.0000</r>
       <r>   0.2128  1.0000</r>
       <r>   0.2390  1.0000</r>
       <r>   0.2827  1.0000</r>
       <r>   0.8734  1.0000</r>
       <r>   1.2736  1.0000</r>
       <r>   1.3895  1.0000</r>
       <r>   1.6224  1.0000</r>
       <r>   1.7100  1.0000</r>
       <r>   1.7729  1.0000</r>
       <r>   2.0480  1.0000</r>
       <r>   2.4048  1.0000</r>
       <r>   2.4605  1.0000</r>
       <r>   2.5312  1.0000</r>
       <r>   2.5498  1.0000</r>
       <r>   2.6397  1.0000</r>
       <r>   3.0330  1.0000</r>
       <r>   3.0331  1.0000</r>
       <r>   3.2527  1.0000</r>
       <r>   7.6480  0.0000</r>
       <r>   9.7535  0.0000</r>
       <r>  11.1937  0.0000</r>
       <r>  13.5335  0.0000</r>
       <r>  14.0047  0.0000</r>
       <r>  15.1935  0.0000</r>
       <r>  15.9508  0.0000</r>
       <r>  18.1746  0.0000</r>
       <r>  19.3246  0.0000</r>
       <r>  19.6559  0.0000</r>
      </set>
      <set comment="kpoint 20">
       <r>  -2.9516  1.0000</r>
       <r>  -1.6306  1.0000</r>
       <r>   0.0534  1.0000</r>
       <r>   0.0839  1.0000</r>
       <r>   0.3712  1.0000</r>
       <r>   0.4193  1.0000</r>
       <r>   0.5021  1.0000</r>
       <r>   0.7103  1.0000</r>
       <r>   0.9371  1.0000</r>
       <r>   1.0593  1.0000</r>
       <r>   1.5631  1.0000</r>
       <r>   1.5938  1.0000</r>
       <r>   1.9400  1.0000</r>
       <r>   2.1105  1.0000</r>
       <r>   2.2985  1.0000</r>
       <r>   2.3277  1.0000</r>
       <r>   2.3304  1.0000</r>
       <r>   2.4548  1.0000</r>
       <r>   2.6542  1.0000</r>
       <r>   2.9520  1.0000</r>
       <r>   3.0312  1.0000</r>
       <r>   3.0320  1.0000</r>
       <r>   8.4465  0.0000</r>
       <r>  10.2136  0.0000</r>
       <r>  10.7147  0.0000</r>
       <r>  12.8482  0.0000</r>
       <r>  13.8605  0.0000</r>
       <r>  14.8111  0.0000</r>
       <r>  16.1472  0.0000</r>
       <r>  17.4006  0.0000</r>
       <r>  20.1168  0.0000</r>
       <r>  20.5913  0.0000</r>
      </set>
      <set comment="kpoint 21">
       <r>  -2.2759  1.0000</r>
       <r>  -2.2759  1.0000</r>
       <r>   0.1318  1.0000</r>
       <r>   0.1318  1.0000</r>
       <r>   0.5399  1.0000</r>
       <r>   0.5399  1.0000</r>
       <r>   0.6495  1.0000</r>
       <r>   0.6495  1.0000</r>
       <r>   0.7617  1.0000</r>
       <r>   0.7617  1.0000</r>
       <r>   1.5460  1.0000</r>
       <r>   1.5460  1.0000</r>
       <r>   2.1274  1.0000</r>
       <r>   2.1274  1.0000</r>
       <r>   2.2608  1.0000</r>
       <r>   2.2608  1.0000</r>
       <r>   2.2679  1.0000</r>
       <r>   2.2679  1.0000</r>
       <r>   2.7795  1.0000</r>
       <r>   2.7795  1.0000</r>
       <r>   3.0312  1.0000</r>
       <r>   3.0312  1.0000</r>
       <r>   9.2990  0.0000</r>
       <r>   9.2990  0.0000</r>
       <r>  11.7490  0.0000</r>
       <r>  11.7490  0.0000</r>
       <r>  14.2946  0.0000</r>
       <r>  14.2946  0.0000</r>
       <r>  16.7062  0.0000</r>
       <r>  16.7062  0.0000</r>
       <r>  20.9960  0.0000</r>
       <r>  20.9960  0.0000</r>
      </set>
      <set comment="kpoint 22">
       <r>  -4.2604  1.0000</r>
       <r>  -0.5297  1.0000</r>
       <r>  -0.5297  1.0000</r>
       <r>  -0.2935  1.0000</r>
       <r>   0.0384  1.0000</r>
       <r>   0.0464  1.0000</r>
       <r>   0.0464  1.0000</r>
       <r>   1.0866  1.0000</r>
       <r>   1.5440  1.0000</r>
       <r>   1.5723  1.0000</r>
       <r>   1.8418  1.0000</r>
       <r>   1.8418  1.0000</r>
       <r>   1.8791  1.0000</r>
       <r>   2.1332  1.0000</r>
       <r>   2.4368  1.0000</r>
       <r>   2.5858  1.0000</r>
       <r>   2.7349  1.0000</r>
       <r>   2.7349  1.0000</r>
       <r>   2.8976  1.0000</r>
       <r>   2.8976  1.0000</r>
       <r>   2.9842  1.0000</r>
       <r>   5.1897  0.0000</r>
       <r>   5.1897  0.0000</r>
       <r>   8.6811  0.0000</r>
       <r>  12.0662  0.0000</r>
       <r>  13.3145  0.0000</r>
       <r>  16.4849  0.0000</r>
       <r>  16.4849  0.0000</r>
       <r>  16.8449  0.0000</r>
       <r>  16.8449  0.0000</r>
       <r>  17.7920  0.0000</r>
       <r>  17.7920  0.0000</r>
      </set>
      <set comment="kpoint 23">
       <r>  -3.8266  1.0000</r>
       <r>  -0.6330  1.0000</r>
       <r>  -0.3140  1.0000</r>
       <r>  -0.1332  1.0000</r>
       <r>   0.1401  1.0000</r>
       <r>   0.1530  1.0000</r>
       <r>   0.1737  1.0000</r>
       <r>   0.9946  1.0000</r>
       <r>   1.4592  1.0000</r>
       <r>   1.5626  1.0000</r>
       <r>   1.6047  1.0000</r>
       <r>   1.6099  1.0000</r>
       <r>   1.6628  1.0000</r>
       <r>   2.0767  1.0000</r>
       <r>   2.4694  1.0000</r>
       <r>   2.5278  1.0000</r>
       <r>   2.5960  1.0000</r>
       <r>   2.6658  1.0000</r>
       <r>   2.7245  1.0000</r>
       <r>   2.8960  1.0000</r>
       <r>   2.9400  1.0000</r>
       <r>   4.3191  1.0000</r>
       <r>   5.8204  0.0000</r>
       <r>   9.4032  0.0000</r>
       <r>  10.9430  0.0000</r>
       <r>  13.4437  0.0000</r>
       <r>  15.6092  0.0000</r>
       <r>  16.4727  0.0000</r>
       <r>  17.2254  0.0000</r>
       <r>  17.3880  0.0000</r>
       <r>  17.9548  0.0000</r>
       <r>  18.8212  0.0000</r>
      </set>
      <set comment="kpoint 24">
       <r>  -3.2902  1.0000</r>
       <r>  -0.9120  1.0000</r>
       <r>  -0.0842  1.0000</r>
       <r>   0.0455  1.0000</r>
       <r>   0.2509  1.0000</r>
       <r>   0.2814  1.0000</r>
       <r>   0.3377  1.0000</r>
       <r>   0.8718  1.0000</r>
       <r>   1.1131  1.0000</r>
       <r>   1.3202  1.0000</r>
       <r>   1.4234  1.0000</r>
       <r>   1.5509  1.0000</r>
       <r>   1.7912  1.0000</r>
       <r>   2.0518  1.0000</r>
       <r>   2.3480  1.0000</r>
       <r>   2.4453  1.0000</r>
       <r>   2.5304  1.0000</r>
       <r>   2.5481  1.0000</r>
       <r>   2.6510  1.0000</r>
       <r>   2.8947  1.0000</r>
       <r>   2.9149  1.0000</r>
       <r>   3.6789  1.0000</r>
       <r>   6.4965  0.0000</r>
       <r>   9.8723  0.0000</r>
       <r>  10.2402  0.0000</r>
       <r>  13.7133  0.0000</r>
       <r>  14.4099  0.0000</r>
       <r>  15.8452  0.0000</r>
       <r>  17.4544  0.0000</r>
       <r>  18.0531  0.0000</r>
       <r>  18.7484  0.0000</r>
       <r>  20.0106  0.0000</r>
      </set>
      <set comment="kpoint 25">
       <r>  -2.6746  1.0000</r>
       <r>  -1.3993  1.0000</r>
       <r>   0.1173  1.0000</r>
       <r>   0.2101  1.0000</r>
       <r>   0.3600  1.0000</r>
       <r>   0.4253  1.0000</r>
       <r>   0.5379  1.0000</r>
       <r>   0.7294  1.0000</r>
       <r>   0.8074  1.0000</r>
       <r>   1.0358  1.0000</r>
       <r>   1.3620  1.0000</r>
       <r>   1.4870  1.0000</r>
       <r>   1.9501  1.0000</r>
       <r>   2.1049  1.0000</r>
       <r>   2.2583  1.0000</r>
       <r>   2.3139  1.0000</r>
       <r>   2.3289  1.0000</r>
       <r>   2.3913  1.0000</r>
       <r>   2.8023  1.0000</r>
       <r>   2.8943  1.0000</r>
       <r>   2.9020  1.0000</r>
       <r>   3.2614  1.0000</r>
       <r>   7.2256  0.0000</r>
       <r>   8.8990  0.0000</r>
       <r>  11.1709  0.0000</r>
       <r>  13.2644  0.0000</r>
       <r>  14.0874  0.0000</r>
       <r>  15.1595  0.0000</r>
       <r>  17.9561  0.0000</r>
       <r>  18.8241  0.0000</r>
       <r>  19.2891  0.0000</r>
       <r>  19.5334  0.0000</r>
      </set>
      <set comment="kpoint 26">
       <r>  -2.0207  1.0000</r>
       <r>  -2.0207  1.0000</r>
       <r>   0.2366  1.0000</r>
       <r>   0.2366  1.0000</r>
       <r>   0.5466  1.0000</r>
       <r>   0.5466  1.0000</r>
       <r>   0.5775  1.0000</r>
       <r>   0.5775  1.0000</r>
       <r>   0.7721  1.0000</r>
       <r>   0.7721  1.0000</r>
       <r>   1.4035  1.0000</r>
       <r>   1.4035  1.0000</r>
       <r>   2.1321  1.0000</r>
       <r>   2.1321  1.0000</r>
       <r>   2.2296  1.0000</r>
       <r>   2.2296  1.0000</r>
       <r>   2.2424  1.0000</r>
       <r>   2.2424  1.0000</r>
       <r>   2.8961  1.0000</r>
       <r>   2.8961  1.0000</r>
       <r>   2.9932  1.0000</r>
       <r>   2.9932  1.0000</r>
       <r>   8.0211  0.0000</r>
       <r>   8.0211  0.0000</r>
       <r>  12.1821  0.0000</r>
       <r>  12.1821  0.0000</r>
       <r>  14.5685  0.0000</r>
       <r>  14.5685  0.0000</r>
       <r>  18.5813  0.0000</r>
       <r>  18.5813  0.0000</r>
       <r>  19.6874  0.0000</r>
       <r>  19.6874  0.0000</r>
      </set>
      <set comment="kpoint 27">
       <r>  -3.4073  1.0000</r>
       <r>  -0.3931  1.0000</r>
       <r>  -0.3931  1.0000</r>
       <r>   0.0048  1.0000</r>
       <r>   0.2157  1.0000</r>
       <r>   0.2659  1.0000</r>
       <r>   0.2659  1.0000</r>
       <r>   0.9401  1.0000</r>
       <r>   1.2738  1.0000</r>
       <r>   1.2738  1.0000</r>
       <r>   1.4304  1.0000</r>
       <r>   1.5392  1.0000</r>
       <r>   1.7286  1.0000</r>
       <r>   2.0316  1.0000</r>
       <r>   2.3717  1.0000</r>
       <r>   2.5341  1.0000</r>
       <r>   2.5341  1.0000</r>
       <r>   2.6508  1.0000</r>
       <r>   2.7234  1.0000</r>
       <r>   2.7234  1.0000</r>
       <r>   2.8560  1.0000</r>
       <r>   4.8763  0.0000</r>
       <r>   4.8763  0.0000</r>
       <r>   9.7465  0.0000</r>
       <r>  10.0791  0.0000</r>
       <r>  13.6637  0.0000</r>
       <r>  16.1480  0.0000</r>
       <r>  16.1480  0.0000</r>
       <r>  17.1559  0.0000</r>
       <r>  17.1559  0.0000</r>
       <r>  19.0163  0.0000</r>
       <r>  19.0163  0.0000</r>
      </set>
      <set comment="kpoint 28">
       <r>  -2.8914  1.0000</r>
       <r>  -0.6467  1.0000</r>
       <r>  -0.1337  1.0000</r>
       <r>   0.1503  1.0000</r>
       <r>   0.2993  1.0000</r>
       <r>   0.3760  1.0000</r>
       <r>   0.4099  1.0000</r>
       <r>   0.8552  1.0000</r>
       <r>   0.9826  1.0000</r>
       <r>   1.1727  1.0000</r>
       <r>   1.2195  1.0000</r>
       <r>   1.4939  1.0000</r>
       <r>   1.8344  1.0000</r>
       <r>   2.0022  1.0000</r>
       <r>   2.2677  1.0000</r>
       <r>   2.3898  1.0000</r>
       <r>   2.4251  1.0000</r>
       <r>   2.5315  1.0000</r>
       <r>   2.7239  1.0000</r>
       <r>   2.7966  1.0000</r>
       <r>   2.8149  1.0000</r>
       <r>   4.1431  1.0000</r>
       <r>   5.4765  0.0000</r>
       <r>   8.6669  0.0000</r>
       <r>  10.8762  0.0000</r>
       <r>  13.9803  0.0000</r>
       <r>  14.9545  0.0000</r>
       <r>  16.3153  0.0000</r>
       <r>  16.8093  0.0000</r>
       <r>  17.7780  0.0000</r>
       <r>  19.4350  0.0000</r>
       <r>  20.4328  0.0000</r>
      </set>
      <set comment="kpoint 29">
       <r>  -2.3036  1.0000</r>
       <r>  -1.1017  1.0000</r>
       <r>   0.1019  1.0000</r>
       <r>   0.2792  1.0000</r>
       <r>   0.3716  1.0000</r>
       <r>   0.4979  1.0000</r>
       <r>   0.5831  1.0000</r>
       <r>   0.7314  1.0000</r>
       <r>   0.7466  1.0000</r>
       <r>   0.9975  1.0000</r>
       <r>   1.1908  1.0000</r>
       <r>   1.4041  1.0000</r>
       <r>   1.9762  1.0000</r>
       <r>   2.0371  1.0000</r>
       <r>   2.1921  1.0000</r>
       <r>   2.2610  1.0000</r>
       <r>   2.2825  1.0000</r>
       <r>   2.3349  1.0000</r>
       <r>   2.7280  1.0000</r>
       <r>   2.7595  1.0000</r>
       <r>   3.0166  1.0000</r>
       <r>   3.6261  1.0000</r>
       <r>   6.1354  0.0000</r>
       <r>   7.7117  0.0000</r>
       <r>  11.7742  0.0000</r>
       <r>  13.8220  0.0000</r>
       <r>  14.3972  0.0000</r>
       <r>  15.5628  0.0000</r>
       <r>  17.5784  0.0000</r>
       <r>  18.4921  0.0000</r>
       <r>  19.3968  0.0000</r>
       <r>  19.9769  0.0000</r>
      </set>
      <set comment="kpoint 30">
       <r>  -1.6849  1.0000</r>
       <r>  -1.6849  1.0000</r>
       <r>   0.2599  1.0000</r>
       <r>   0.2599  1.0000</r>
       <r>   0.5208  1.0000</r>
       <r>   0.5208  1.0000</r>
       <r>   0.6243  1.0000</r>
       <r>   0.6243  1.0000</r>
       <r>   0.7814  1.0000</r>
       <r>   0.7814  1.0000</r>
       <r>   1.2873  1.0000</r>
       <r>   1.2873  1.0000</r>
       <r>   2.1401  1.0000</r>
       <r>   2.1401  1.0000</r>
       <r>   2.1462  1.0000</r>
       <r>   2.1462  1.0000</r>
       <r>   2.1858  1.0000</r>
       <r>   2.1858  1.0000</r>
       <r>   2.7385  1.0000</r>
       <r>   2.7385  1.0000</r>
       <r>   3.2726  1.0000</r>
       <r>   3.2726  1.0000</r>
       <r>   6.8734  0.0000</r>
       <r>   6.8734  0.0000</r>
       <r>  12.7594  0.0000</r>
       <r>  12.7594  0.0000</r>
       <r>  14.9227  0.0000</r>
       <r>  14.9227  0.0000</r>
       <r>  18.4437  0.0000</r>
       <r>  18.4437  0.0000</r>
       <r>  19.3086  0.0000</r>
       <r>  19.3086  0.0000</r>
      </set>
      <set comment="kpoint 31">
       <r>  -2.4054  1.0000</r>
       <r>  -0.3586  1.0000</r>
       <r>  -0.3586  1.0000</r>
       <r>   0.1910  1.0000</r>
       <r>   0.4145  1.0000</r>
       <r>   0.4944  1.0000</r>
       <r>   0.4944  1.0000</r>
       <r>   0.8162  1.0000</r>
       <r>   0.9628  1.0000</r>
       <r>   0.9628  1.0000</r>
       <r>   1.0903  1.0000</r>
       <r>   1.4315  1.0000</r>
       <r>   1.9123  1.0000</r>
       <r>   1.9517  1.0000</r>
       <r>   2.1763  1.0000</r>
       <r>   2.2892  1.0000</r>
       <r>   2.2892  1.0000</r>
       <r>   2.5373  1.0000</r>
       <r>   2.5373  1.0000</r>
       <r>   2.6977  1.0000</r>
       <r>   3.0241  1.0000</r>
       <r>   4.6534  1.0000</r>
       <r>   4.6534  1.0000</r>
       <r>   7.6005  0.0000</r>
       <r>  11.6368  0.0000</r>
       <r>  14.3405  0.0000</r>
       <r>  15.6225  0.0000</r>
       <r>  15.6225  0.0000</r>
       <r>  16.8702  0.0000</r>
       <r>  16.8702  0.0000</r>
       <r>  19.2958  0.0000</r>
       <r>  20.1605  0.0000</r>
      </set>
      <set comment="kpoint 32">
       <r>  -1.8591  1.0000</r>
       <r>  -0.7687  1.0000</r>
       <r>  -0.0949  1.0000</r>
       <r>   0.1780  1.0000</r>
       <r>   0.5436  1.0000</r>
       <r>   0.5850  1.0000</r>
       <r>   0.6328  1.0000</r>
       <r>   0.7542  1.0000</r>
       <r>   0.7950  1.0000</r>
       <r>   0.9413  1.0000</r>
       <r>   1.0541  1.0000</r>
       <r>   1.3325  1.0000</r>
       <r>   1.9560  1.0000</r>
       <r>   2.0278  1.0000</r>
       <r>   2.1056  1.0000</r>
       <r>   2.1584  1.0000</r>
       <r>   2.1677  1.0000</r>
       <r>   2.3504  1.0000</r>
       <r>   2.5514  1.0000</r>
       <r>   2.6257  1.0000</r>
       <r>   3.2787  1.0000</r>
       <r>   4.0404  1.0000</r>
       <r>   5.2286  0.0000</r>
       <r>   6.6790  0.0000</r>
       <r>  12.5032  0.0000</r>
       <r>  14.5044  0.0000</r>
       <r>  14.8028  0.0000</r>
       <r>  16.0650  0.0000</r>
       <r>  16.4001  0.0000</r>
       <r>  17.5302  0.0000</r>
       <r>  18.2428  0.0000</r>
       <r>  19.1755  0.0000</r>
      </set>
      <set comment="kpoint 33">
       <r>  -1.2938  1.0000</r>
       <r>  -1.2938  1.0000</r>
       <r>   0.0916  1.0000</r>
       <r>   0.0916  1.0000</r>
       <r>   0.6629  1.0000</r>
       <r>   0.6629  1.0000</r>
       <r>   0.6744  1.0000</r>
       <r>   0.6744  1.0000</r>
       <r>   0.7849  1.0000</r>
       <r>   0.7849  1.0000</r>
       <r>   1.1951  1.0000</r>
       <r>   1.1951  1.0000</r>
       <r>   2.0334  1.0000</r>
       <r>   2.0334  1.0000</r>
       <r>   2.0978  1.0000</r>
       <r>   2.0978  1.0000</r>
       <r>   2.1767  1.0000</r>
       <r>   2.1767  1.0000</r>
       <r>   2.5788  1.0000</r>
       <r>   2.5788  1.0000</r>
       <r>   3.6018  1.0000</r>
       <r>   3.6018  1.0000</r>
       <r>   5.8949  0.0000</r>
       <r>   5.8949  0.0000</r>
       <r>  13.4623  0.0000</r>
       <r>  13.4623  0.0000</r>
       <r>  15.3757  0.0000</r>
       <r>  15.3757  0.0000</r>
       <r>  17.2761  0.0000</r>
       <r>  17.2761  0.0000</r>
       <r>  18.2985  0.0000</r>
       <r>  18.2985  0.0000</r>
      </set>
      <set comment="kpoint 34">
       <r>  -1.3717  1.0000</r>
       <r>  -0.4423  1.0000</r>
       <r>  -0.4423  1.0000</r>
       <r>   0.0370  1.0000</r>
       <r>   0.6808  1.0000</r>
       <r>   0.6808  1.0000</r>
       <r>   0.7060  1.0000</r>
       <r>   0.7460  1.0000</r>
       <r>   0.8668  1.0000</r>
       <r>   0.9444  1.0000</r>
       <r>   0.9444  1.0000</r>
       <r>   1.2418  1.0000</r>
       <r>   1.9155  1.0000</r>
       <r>   2.0266  1.0000</r>
       <r>   2.0512  1.0000</r>
       <r>   2.0512  1.0000</r>
       <r>   2.1122  1.0000</r>
       <r>   2.3813  1.0000</r>
       <r>   2.3813  1.0000</r>
       <r>   2.5154  1.0000</r>
       <r>   3.5945  1.0000</r>
       <r>   4.5217  1.0000</r>
       <r>   4.5217  1.0000</r>
       <r>   5.8111  0.0000</r>
       <r>  13.3411  0.0000</r>
       <r>  15.2972  0.0000</r>
       <r>  15.2972  0.0000</r>
       <r>  15.3132  0.0000</r>
       <r>  16.6749  0.0000</r>
       <r>  16.6749  0.0000</r>
       <r>  17.1727  0.0000</r>
       <r>  18.2296  0.0000</r>
      </set>
      <set comment="kpoint 35">
       <r>  -0.8835  1.0000</r>
       <r>  -0.8835  1.0000</r>
       <r>  -0.1663  1.0000</r>
       <r>  -0.1663  1.0000</r>
       <r>   0.7206  1.0000</r>
       <r>   0.7206  1.0000</r>
       <r>   0.7776  1.0000</r>
       <r>   0.7776  1.0000</r>
       <r>   0.8380  1.0000</r>
       <r>   0.8380  1.0000</r>
       <r>   1.1077  1.0000</r>
       <r>   1.1077  1.0000</r>
       <r>   1.9519  1.0000</r>
       <r>   1.9519  1.0000</r>
       <r>   2.0001  1.0000</r>
       <r>   2.0001  1.0000</r>
       <r>   2.2316  1.0000</r>
       <r>   2.2316  1.0000</r>
       <r>   2.4344  1.0000</r>
       <r>   2.4344  1.0000</r>
       <r>   3.9931  1.0000</r>
       <r>   3.9931  1.0000</r>
       <r>   5.1005  0.0000</r>
       <r>   5.1005  0.0000</r>
       <r>  14.2754  0.0000</r>
       <r>  14.2754  0.0000</r>
       <r>  15.9357  0.0000</r>
       <r>  15.9357  0.0000</r>
       <r>  16.1892  0.0000</r>
       <r>  16.1892  0.0000</r>
       <r>  17.3958  0.0000</r>
       <r>  17.3958  0.0000</r>
      </set>
      <set comment="kpoint 36">
       <r>  -0.4961  1.0000</r>
       <r>  -0.4961  1.0000</r>
       <r>  -0.4961  1.0000</r>
       <r>  -0.4961  1.0000</r>
       <r>   0.7562  1.0000</r>
       <r>   0.7562  1.0000</r>
       <r>   0.7562  1.0000</r>
       <r>   0.7562  1.0000</r>
       <r>   0.9931  1.0000</r>
       <r>   0.9931  1.0000</r>
       <r>   0.9931  1.0000</r>
       <r>   0.9931  1.0000</r>
       <r>   1.9383  1.0000</r>
       <r>   1.9383  1.0000</r>
       <r>   1.9383  1.0000</r>
       <r>   1.9383  1.0000</r>
       <r>   2.3169  1.0000</r>
       <r>   2.3169  1.0000</r>
       <r>   2.3169  1.0000</r>
       <r>   2.3169  1.0000</r>
       <r>   4.4784  1.0000</r>
       <r>   4.4784  1.0000</r>
       <r>   4.4784  1.0000</r>
       <r>   4.4784  1.0000</r>
       <r>  15.1871  0.0000</r>
       <r>  15.1871  0.0000</r>
       <r>  15.1871  0.0000</r>
       <r>  15.1871  0.0000</r>
       <r>  16.6080  0.0000</r>
       <r>  16.6080  0.0000</r>
       <r>  16.6080  0.0000</r>
       <r>  16.6080  0.0000</r>
      </set>
      <set comment="kpoint 37">
       <r>  -5.2316  1.0000</r>
       <r>  -0.7415  1.0000</r>
       <r>  -0.7415  1.0000</r>
       <r>  -0.7415  1.0000</r>
       <r>  -0.2258  1.0000</r>
       <r>  -0.2258  1.0000</r>
       <r>  -0.2258  1.0000</r>
       <r>   1.3063  1.0000</r>
       <r>   1.3934  1.0000</r>
       <r>   1.3934  1.0000</r>
       <r>   2.3109  1.0000</r>
       <r>   2.3109  1.0000</r>
       <r>   2.8713  1.0000</r>
       <r>   2.8713  1.0000</r>
       <r>   2.8713  1.0000</r>
       <r>   2.9027  1.0000</r>
       <r>   2.9027  1.0000</r>
       <r>   2.9027  1.0000</r>
       <r>   3.1178  1.0000</r>
       <r>   3.1178  1.0000</r>
       <r>   3.1178  1.0000</r>
       <r>   6.1665  0.0000</r>
       <r>   6.1665  0.0000</r>
       <r>   6.1665  0.0000</r>
       <r>  13.2058  0.0000</r>
       <r>  13.2058  0.0000</r>
       <r>  13.2058  0.0000</r>
       <r>  17.4818  0.0000</r>
       <r>  17.4818  0.0000</r>
       <r>  17.4818  0.0000</r>
       <r>  19.0830  0.0000</r>
       <r>  19.0830  0.0000</r>
      </set>
      <set comment="kpoint 38">
       <r>  -5.0331  1.0000</r>
       <r>  -0.7417  1.0000</r>
       <r>  -0.6459  1.0000</r>
       <r>  -0.6459  1.0000</r>
       <r>  -0.1704  1.0000</r>
       <r>  -0.1666  1.0000</r>
       <r>  -0.1666  1.0000</r>
       <r>   1.2527  1.0000</r>
       <r>   1.4341  1.0000</r>
       <r>   1.4387  1.0000</r>
       <r>   2.2564  1.0000</r>
       <r>   2.3389  1.0000</r>
       <r>   2.5615  1.0000</r>
       <r>   2.5615  1.0000</r>
       <r>   2.7484  1.0000</r>
       <r>   2.8355  1.0000</r>
       <r>   2.8355  1.0000</r>
       <r>   2.8421  1.0000</r>
       <r>   3.0707  1.0000</r>
       <r>   3.1090  1.0000</r>
       <r>   3.1090  1.0000</r>
       <r>   5.2738  0.0000</r>
       <r>   6.6335  0.0000</r>
       <r>   6.6335  0.0000</r>
       <r>  13.2869  0.0000</r>
       <r>  13.2869  0.0000</r>
       <r>  14.5154  0.0000</r>
       <r>  16.2959  0.0000</r>
       <r>  16.2959  0.0000</r>
       <r>  17.7486  0.0000</r>
       <r>  18.9102  0.0000</r>
       <r>  18.9102  0.0000</r>
      </set>
      <set comment="kpoint 39">
       <r>  -4.7067  1.0000</r>
       <r>  -0.7757  1.0000</r>
       <r>  -0.4978  1.0000</r>
       <r>  -0.4978  1.0000</r>
       <r>  -0.0806  1.0000</r>
       <r>  -0.0676  1.0000</r>
       <r>  -0.0676  1.0000</r>
       <r>   1.1564  1.0000</r>
       <r>   1.5095  1.0000</r>
       <r>   1.5135  1.0000</r>
       <r>   2.1713  1.0000</r>
       <r>   2.1713  1.0000</r>
       <r>   2.1737  1.0000</r>
       <r>   2.3840  1.0000</r>
       <r>   2.5376  1.0000</r>
       <r>   2.7273  1.0000</r>
       <r>   2.7273  1.0000</r>
       <r>   2.7378  1.0000</r>
       <r>   3.0062  1.0000</r>
       <r>   3.1025  1.0000</r>
       <r>   3.1025  1.0000</r>
       <r>   4.2965  1.0000</r>
       <r>   7.2778  0.0000</r>
       <r>   7.2778  0.0000</r>
       <r>  13.4185  0.0000</r>
       <r>  13.4185  0.0000</r>
       <r>  15.1091  0.0000</r>
       <r>  15.1091  0.0000</r>
       <r>  16.2244  0.0000</r>
       <r>  18.1855  0.0000</r>
       <r>  18.2334  0.0000</r>
       <r>  18.2334  0.0000</r>
      </set>
      <set comment="kpoint 40">
       <r>  -4.2598  1.0000</r>
       <r>  -0.9044  1.0000</r>
       <r>  -0.3153  1.0000</r>
       <r>  -0.3153  1.0000</r>
       <r>   0.0398  1.0000</r>
       <r>   0.0708  1.0000</r>
       <r>   0.0708  1.0000</r>
       <r>   1.0268  1.0000</r>
       <r>   1.6057  1.0000</r>
       <r>   1.6165  1.0000</r>
       <r>   1.7693  1.0000</r>
       <r>   1.7693  1.0000</r>
       <r>   2.0815  1.0000</r>
       <r>   2.2352  1.0000</r>
       <r>   2.4439  1.0000</r>
       <r>   2.5869  1.0000</r>
       <r>   2.5869  1.0000</r>
       <r>   2.5949  1.0000</r>
       <r>   2.9325  1.0000</r>
       <r>   3.0986  1.0000</r>
       <r>   3.0986  1.0000</r>
       <r>   3.4838  1.0000</r>
       <r>   8.0307  0.0000</r>
       <r>   8.0307  0.0000</r>
       <r>  13.4904  0.0000</r>
       <r>  13.4904  0.0000</r>
       <r>  14.0979  0.0000</r>
       <r>  14.0979  0.0000</r>
       <r>  17.3868  0.0000</r>
       <r>  17.3868  0.0000</r>
       <r>  18.1050  0.0000</r>
       <r>  18.8188  0.0000</r>
      </set>
      <set comment="kpoint 41">
       <r>  -3.7051  1.0000</r>
       <r>  -1.2109  1.0000</r>
       <r>  -0.1269  1.0000</r>
       <r>  -0.1269  1.0000</r>
       <r>   0.1855  1.0000</r>
       <r>   0.2471  1.0000</r>
       <r>   0.2471  1.0000</r>
       <r>   0.8724  1.0000</r>
       <r>   1.3872  1.0000</r>
       <r>   1.3872  1.0000</r>
       <r>   1.6827  1.0000</r>
       <r>   1.7456  1.0000</r>
       <r>   1.9065  1.0000</r>
       <r>   2.0324  1.0000</r>
       <r>   2.4263  1.0000</r>
       <r>   2.4378  1.0000</r>
       <r>   2.4378  1.0000</r>
       <r>   2.5159  1.0000</r>
       <r>   2.8526  1.0000</r>
       <r>   2.9336  1.0000</r>
       <r>   3.0964  1.0000</r>
       <r>   3.0964  1.0000</r>
       <r>   8.8563  0.0000</r>
       <r>   8.8563  0.0000</r>
       <r>  12.7215  0.0000</r>
       <r>  12.7215  0.0000</r>
       <r>  14.0711  0.0000</r>
       <r>  14.0711  0.0000</r>
       <r>  16.5501  0.0000</r>
       <r>  16.5501  0.0000</r>
       <r>  19.3647  0.0000</r>
       <r>  20.3316  0.0000</r>
      </set>
      <set comment="kpoint 42">
       <r>  -3.0655  1.0000</r>
       <r>  -1.7282  1.0000</r>
       <r>   0.0241  1.0000</r>
       <r>   0.0241  1.0000</r>
       <r>   0.3497  1.0000</r>
       <r>   0.4597  1.0000</r>
       <r>   0.4597  1.0000</r>
       <r>   0.7020  1.0000</r>
       <r>   1.0422  1.0000</r>
       <r>   1.0422  1.0000</r>
       <r>   1.6746  1.0000</r>
       <r>   1.6969  1.0000</r>
       <r>   1.8973  1.0000</r>
       <r>   2.1153  1.0000</r>
       <r>   2.2461  1.0000</r>
       <r>   2.3174  1.0000</r>
       <r>   2.3174  1.0000</r>
       <r>   2.5722  1.0000</r>
       <r>   2.5963  1.0000</r>
       <r>   2.7682  1.0000</r>
       <r>   3.0954  1.0000</r>
       <r>   3.0954  1.0000</r>
       <r>   9.7294  0.0000</r>
       <r>   9.7294  0.0000</r>
       <r>  11.7203  0.0000</r>
       <r>  11.7203  0.0000</r>
       <r>  14.4222  0.0000</r>
       <r>  14.4222  0.0000</r>
       <r>  15.8219  0.0000</r>
       <r>  15.8219  0.0000</r>
       <r>  20.2104  0.0000</r>
       <r>  22.1034  0.0000</r>
      </set>
      <set comment="kpoint 43">
       <r>  -2.3820  1.0000</r>
       <r>  -2.3820  1.0000</r>
       <r>   0.0835  1.0000</r>
       <r>   0.0835  1.0000</r>
       <r>   0.5248  1.0000</r>
       <r>   0.5248  1.0000</r>
       <r>   0.6603  1.0000</r>
       <r>   0.6603  1.0000</r>
       <r>   0.7954  1.0000</r>
       <r>   0.7954  1.0000</r>
       <r>   1.6433  1.0000</r>
       <r>   1.6433  1.0000</r>
       <r>   2.0666  1.0000</r>
       <r>   2.0666  1.0000</r>
       <r>   2.2700  1.0000</r>
       <r>   2.2700  1.0000</r>
       <r>   2.3080  1.0000</r>
       <r>   2.3080  1.0000</r>
       <r>   2.6816  1.0000</r>
       <r>   2.6816  1.0000</r>
       <r>   3.0951  1.0000</r>
       <r>   3.0951  1.0000</r>
       <r>  10.4469  0.0000</r>
       <r>  10.4469  0.0000</r>
       <r>  10.9569  0.0000</r>
       <r>  10.9569  0.0000</r>
       <r>  14.6983  0.0000</r>
       <r>  14.6983  0.0000</r>
       <r>  15.4202  0.0000</r>
       <r>  15.4202  0.0000</r>
       <r>  21.1207  0.0000</r>
       <r>  21.1207  0.0000</r>
      </set>
      <set comment="kpoint 44">
       <r>  -4.8370  1.0000</r>
       <r>  -0.6419  1.0000</r>
       <r>  -0.6419  1.0000</r>
       <r>  -0.5555  1.0000</r>
       <r>  -0.1135  1.0000</r>
       <r>  -0.1135  1.0000</r>
       <r>  -0.1122  1.0000</r>
       <r>   1.2167  1.0000</r>
       <r>   1.4612  1.0000</r>
       <r>   1.4705  1.0000</r>
       <r>   2.2461  1.0000</r>
       <r>   2.3350  1.0000</r>
       <r>   2.3581  1.0000</r>
       <r>   2.4173  1.0000</r>
       <r>   2.4173  1.0000</r>
       <r>   2.7478  1.0000</r>
       <r>   2.7820  1.0000</r>
       <r>   2.7820  1.0000</r>
       <r>   3.0672  1.0000</r>
       <r>   3.0672  1.0000</r>
       <r>   3.0802  1.0000</r>
       <r>   5.7216  0.0000</r>
       <r>   5.7216  0.0000</r>
       <r>   7.0407  0.0000</r>
       <r>  13.3497  0.0000</r>
       <r>  14.6208  0.0000</r>
       <r>  14.6208  0.0000</r>
       <r>  15.0012  0.0000</r>
       <r>  16.5544  0.0000</r>
       <r>  16.5544  0.0000</r>
       <r>  19.1862  0.0000</r>
       <r>  19.1862  0.0000</r>
      </set>
      <set comment="kpoint 45">
       <r>  -4.5145  1.0000</r>
       <r>  -0.6689  1.0000</r>
       <r>  -0.4870  1.0000</r>
       <r>  -0.4153  1.0000</r>
       <r>  -0.0273  1.0000</r>
       <r>  -0.0220  1.0000</r>
       <r>  -0.0185  1.0000</r>
       <r>   1.1377  1.0000</r>
       <r>   1.5217  1.0000</r>
       <r>   1.5257  1.0000</r>
       <r>   2.0251  1.0000</r>
       <r>   2.0476  1.0000</r>
       <r>   2.1851  1.0000</r>
       <r>   2.1946  1.0000</r>
       <r>   2.3808  1.0000</r>
       <r>   2.6457  1.0000</r>
       <r>   2.6777  1.0000</r>
       <r>   2.6937  1.0000</r>
       <r>   3.0080  1.0000</r>
       <r>   3.0495  1.0000</r>
       <r>   3.0538  1.0000</r>
       <r>   4.7346  1.0000</r>
       <r>   6.3134  0.0000</r>
       <r>   7.6271  0.0000</r>
       <r>  13.2775  0.0000</r>
       <r>  13.9688  0.0000</r>
       <r>  14.7482  0.0000</r>
       <r>  15.4101  0.0000</r>
       <r>  16.3030  0.0000</r>
       <r>  17.0133  0.0000</r>
       <r>  18.4842  0.0000</r>
       <r>  19.6228  0.0000</r>
      </set>
      <set comment="kpoint 46">
       <r>  -4.0734  1.0000</r>
       <r>  -0.7881  1.0000</r>
       <r>  -0.2947  1.0000</r>
       <r>  -0.2408  1.0000</r>
       <r>   0.0883  1.0000</r>
       <r>   0.1007  1.0000</r>
       <r>   0.1137  1.0000</r>
       <r>   1.0215  1.0000</r>
       <r>   1.5835  1.0000</r>
       <r>   1.6189  1.0000</r>
       <r>   1.6358  1.0000</r>
       <r>   1.7003  1.0000</r>
       <r>   1.9180  1.0000</r>
       <r>   2.1167  1.0000</r>
       <r>   2.4541  1.0000</r>
       <r>   2.5222  1.0000</r>
       <r>   2.5328  1.0000</r>
       <r>   2.5693  1.0000</r>
       <r>   2.9308  1.0000</r>
       <r>   3.0343  1.0000</r>
       <r>   3.0351  1.0000</r>
       <r>   3.8937  1.0000</r>
       <r>   6.9875  0.0000</r>
       <r>   8.3301  0.0000</r>
       <r>  12.3935  0.0000</r>
       <r>  13.9187  0.0000</r>
       <r>  14.0842  0.0000</r>
       <r>  15.1900  0.0000</r>
       <r>  17.4148  0.0000</r>
       <r>  17.6200  0.0000</r>
       <r>  18.3900  0.0000</r>
       <r>  19.0261  0.0000</r>
      </set>
      <set comment="kpoint 47">
       <r>  -3.5268  1.0000</r>
       <r>  -1.0835  1.0000</r>
       <r>  -0.0924  1.0000</r>
       <r>  -0.0540  1.0000</r>
       <r>   0.2280  1.0000</r>
       <r>   0.2464  1.0000</r>
       <r>   0.2787  1.0000</r>
       <r>   0.8787  1.0000</r>
       <r>   1.2757  1.0000</r>
       <r>   1.3590  1.0000</r>
       <r>   1.6133  1.0000</r>
       <r>   1.6648  1.0000</r>
       <r>   1.7357  1.0000</r>
       <r>   2.1049  1.0000</r>
       <r>   2.3657  1.0000</r>
       <r>   2.3905  1.0000</r>
       <r>   2.4287  1.0000</r>
       <r>   2.5445  1.0000</r>
       <r>   2.8229  1.0000</r>
       <r>   3.0240  1.0000</r>
       <r>   3.0246  1.0000</r>
       <r>   3.2910  1.0000</r>
       <r>   7.7187  0.0000</r>
       <r>   9.1005  0.0000</r>
       <r>  11.3674  0.0000</r>
       <r>  13.0119  0.0000</r>
       <r>  14.2147  0.0000</r>
       <r>  15.5170  0.0000</r>
       <r>  16.7893  0.0000</r>
       <r>  18.1144  0.0000</r>
       <r>  18.2455  0.0000</r>
       <r>  20.3719  0.0000</r>
      </set>
      <set comment="kpoint 48">
       <r>  -2.8977  1.0000</r>
       <r>  -1.5876  1.0000</r>
       <r>   0.0790  1.0000</r>
       <r>   0.1042  1.0000</r>
       <r>   0.3850  1.0000</r>
       <r>   0.4065  1.0000</r>
       <r>   0.4637  1.0000</r>
       <r>   0.7189  1.0000</r>
       <r>   0.9669  1.0000</r>
       <r>   1.0503  1.0000</r>
       <r>   1.5310  1.0000</r>
       <r>   1.5767  1.0000</r>
       <r>   1.8716  1.0000</r>
       <r>   2.1927  1.0000</r>
       <r>   2.2076  1.0000</r>
       <r>   2.2858  1.0000</r>
       <r>   2.3081  1.0000</r>
       <r>   2.6431  1.0000</r>
       <r>   2.6479  1.0000</r>
       <r>   2.9396  1.0000</r>
       <r>   3.0186  1.0000</r>
       <r>   3.0193  1.0000</r>
       <r>   8.4966  0.0000</r>
       <r>   9.7635  0.0000</r>
       <r>  10.5810  0.0000</r>
       <r>  11.9888  0.0000</r>
       <r>  14.6379  0.0000</r>
       <r>  15.6781  0.0000</r>
       <r>  16.3357  0.0000</r>
       <r>  17.4683  0.0000</r>
       <r>  18.8966  0.0000</r>
       <r>  20.7270  0.0000</r>
      </set>
      <set comment="kpoint 49">
       <r>  -2.2272  1.0000</r>
       <r>  -2.2272  1.0000</r>
       <r>   0.1597  1.0000</r>
       <r>   0.1597  1.0000</r>
       <r>   0.5514  1.0000</r>
       <r>   0.5514  1.0000</r>
       <r>   0.5590  1.0000</r>
       <r>   0.5590  1.0000</r>
       <r>   0.8333  1.0000</r>
       <r>   0.8333  1.0000</r>
       <r>   1.5229  1.0000</r>
       <r>   1.5229  1.0000</r>
       <r>   2.0254  1.0000</r>
       <r>   2.0254  1.0000</r>
       <r>   2.2520  1.0000</r>
       <r>   2.2520  1.0000</r>
       <r>   2.4047  1.0000</r>
       <r>   2.4047  1.0000</r>
       <r>   2.7675  1.0000</r>
       <r>   2.7675  1.0000</r>
       <r>   3.0173  1.0000</r>
       <r>   3.0173  1.0000</r>
       <r>   9.3009  0.0000</r>
       <r>   9.3009  0.0000</r>
       <r>  11.0529  0.0000</r>
       <r>  11.0529  0.0000</r>
       <r>  15.1673  0.0000</r>
       <r>  15.1673  0.0000</r>
       <r>  16.7802  0.0000</r>
       <r>  16.7802  0.0000</r>
       <r>  19.7695  0.0000</r>
       <r>  19.7695  0.0000</r>
      </set>
      <set comment="kpoint 50">
       <r>  -4.1989  1.0000</r>
       <r>  -0.5026  1.0000</r>
       <r>  -0.5026  1.0000</r>
       <r>  -0.2884  1.0000</r>
       <r>   0.0539  1.0000</r>
       <r>   0.0617  1.0000</r>
       <r>   0.0617  1.0000</r>
       <r>   1.0875  1.0000</r>
       <r>   1.5428  1.0000</r>
       <r>   1.5651  1.0000</r>
       <r>   1.8146  1.0000</r>
       <r>   1.8146  1.0000</r>
       <r>   1.8409  1.0000</r>
       <r>   2.1613  1.0000</r>
       <r>   2.4234  1.0000</r>
       <r>   2.5418  1.0000</r>
       <r>   2.6112  1.0000</r>
       <r>   2.6112  1.0000</r>
       <r>   2.9758  1.0000</r>
       <r>   2.9758  1.0000</r>
       <r>   3.0019  1.0000</r>
       <r>   5.2818  0.0000</r>
       <r>   5.2818  0.0000</r>
       <r>   8.1460  0.0000</r>
       <r>  12.2642  0.0000</r>
       <r>  13.8615  0.0000</r>
       <r>  15.6496  0.0000</r>
       <r>  15.6496  0.0000</r>
       <r>  16.6576  0.0000</r>
       <r>  16.6576  0.0000</r>
       <r>  18.8998  0.0000</r>
[...]
       <r>   0.7743  1.0000</r>
       <r>   0.9395  1.0000</r>
       <r>   1.1572  1.0000</r>
       <r>   1.2955  1.0000</r>
       <r>   1.3852  1.0000</r>
       <r>   1.3852  1.0000</r>
       <r>   1.3938  1.0000</r>
       <r>   1.5224  1.0000</r>
       <r>   1.6680  1.0000</r>
       <r>   1.7677  1.0000</r>
       <r>   1.7677  1.0000</r>
       <r>   2.7651  1.0000</r>
       <r>   2.7939  1.0000</r>
       <r>   2.9523  1.0000</r>
       <r>   2.9523  1.0000</r>
       <r>   2.9749  1.0000</r>
       <r>   3.7740  1.0000</r>
       <r>   6.2016  0.0000</r>
       <r>   6.2016  0.0000</r>
       <r>   9.6380  0.0000</r>
       <r>   9.6380  0.0000</r>
       <r>  12.5144  0.0000</r>
       <r>  14.2324  0.0000</r>
       <r>  20.7049  0.0000</r>
       <r>  20.7049  0.0000</r>
       <r>  22.3417  0.0000</r>
       <r>  22.3417  0.0000</r>
      </set>
      <set comment="kpoint 104">
       <r>  -1.2941  1.0000</r>
       <r>  -1.2941  1.0000</r>
       <r>  -0.3129  1.0000</r>
       <r>  -0.3129  1.0000</r>
       <r>   0.7987  1.0000</r>
       <r>   0.7987  1.0000</r>
       <r>   1.0914  1.0000</r>
       <r>   1.0914  1.0000</r>
       <r>   1.3248  1.0000</r>
       <r>   1.3248  1.0000</r>
       <r>   1.4155  1.0000</r>
       <r>   1.4155  1.0000</r>
       <r>   1.5799  1.0000</r>
       <r>   1.5799  1.0000</r>
       <r>   1.7432  1.0000</r>
       <r>   1.7432  1.0000</r>
       <r>   2.8989  1.0000</r>
       <r>   2.8989  1.0000</r>
       <r>   2.9331  1.0000</r>
       <r>   2.9331  1.0000</r>
       <r>   3.1627  1.0000</r>
       <r>   3.1627  1.0000</r>
       <r>   6.3245  0.0000</r>
       <r>   6.3245  0.0000</r>
       <r>   9.3920  0.0000</r>
       <r>   9.3920  0.0000</r>
       <r>  13.3213  0.0000</r>
       <r>  13.3213  0.0000</r>
       <r>  21.0896  0.0000</r>
       <r>  21.0896  0.0000</r>
       <r>  21.8919  0.0000</r>
       <r>  21.8919  0.0000</r>
      </set>
      <set comment="kpoint 105">
       <r>  -1.8350  1.0000</r>
       <r>  -0.5495  1.0000</r>
       <r>  -0.5495  1.0000</r>
       <r>  -0.3852  1.0000</r>
       <r>   0.8193  1.0000</r>
       <r>   0.8853  1.0000</r>
       <r>   0.8853  1.0000</r>
       <r>   1.2900  1.0000</r>
       <r>   1.3788  1.0000</r>
       <r>   1.3788  1.0000</r>
       <r>   1.4397  1.0000</r>
       <r>   1.4583  1.0000</r>
       <r>   1.4599  1.0000</r>
       <r>   1.7003  1.0000</r>
       <r>   1.7003  1.0000</r>
       <r>   1.7184  1.0000</r>
       <r>   2.6043  1.0000</r>
       <r>   2.7924  1.0000</r>
       <r>   2.9779  1.0000</r>
       <r>   2.9944  1.0000</r>
       <r>   2.9944  1.0000</r>
       <r>   4.8887  0.0000</r>
       <r>   4.8887  0.0000</r>
       <r>   5.9956  0.0000</r>
       <r>   9.5797  0.0000</r>
       <r>  10.8224  0.0000</r>
       <r>  10.8224  0.0000</r>
       <r>  14.1375  0.0000</r>
       <r>  20.6535  0.0000</r>
       <r>  22.2001  0.0000</r>
       <r>  22.2001  0.0000</r>
       <r>  23.6384  0.0000</r>
      </set>
      <set comment="kpoint 106">
       <r>  -1.4806  1.0000</r>
       <r>  -0.8254  1.0000</r>
       <r>  -0.5274  1.0000</r>
       <r>  -0.4473  1.0000</r>
       <r>   0.9097  1.0000</r>
       <r>   0.9503  1.0000</r>
       <r>   1.0777  1.0000</r>
       <r>   1.3664  1.0000</r>
       <r>   1.3995  1.0000</r>
       <r>   1.4140  1.0000</r>
       <r>   1.4704  1.0000</r>
       <r>   1.4927  1.0000</r>
       <r>   1.5547  1.0000</r>
       <r>   1.5961  1.0000</r>
       <r>   1.6500  1.0000</r>
       <r>   1.6531  1.0000</r>
       <r>   2.7060  1.0000</r>
       <r>   2.9419  1.0000</r>
       <r>   2.9481  1.0000</r>
       <r>   2.9515  1.0000</r>
       <r>   2.9976  1.0000</r>
       <r>   4.0231  1.0000</r>
       <r>   5.2435  0.0000</r>
       <r>   5.8974  0.0000</r>
       <r>   9.3054  0.0000</r>
       <r>  10.0294  0.0000</r>
       <r>  11.4806  0.0000</r>
       <r>  13.1396  0.0000</r>
       <r>  21.2309  0.0000</r>
       <r>  22.3949  0.0000</r>
       <r>  23.2881  0.0000</r>
       <r>  23.9023  0.0000</r>
      </set>
      <set comment="kpoint 107">
       <r>  -1.1382  1.0000</r>
       <r>  -1.1382  1.0000</r>
       <r>  -0.4946  1.0000</r>
       <r>  -0.4946  1.0000</r>
       <r>   0.9540  1.0000</r>
       <r>   0.9540  1.0000</r>
       <r>   1.2461  1.0000</r>
       <r>   1.2461  1.0000</r>
       <r>   1.4285  1.0000</r>
       <r>   1.4285  1.0000</r>
       <r>   1.5197  1.0000</r>
       <r>   1.5197  1.0000</r>
       <r>   1.5736  1.0000</r>
       <r>   1.5736  1.0000</r>
       <r>   1.6295  1.0000</r>
       <r>   1.6295  1.0000</r>
       <r>   2.8554  1.0000</r>
       <r>   2.8554  1.0000</r>
       <r>   2.9238  1.0000</r>
       <r>   2.9238  1.0000</r>
       <r>   3.3770  1.0000</r>
       <r>   3.3770  1.0000</r>
       <r>   5.6110  0.0000</r>
       <r>   5.6110  0.0000</r>
       <r>   9.4899  0.0000</r>
       <r>   9.4899  0.0000</r>
       <r>  12.2540  0.0000</r>
       <r>  12.2540  0.0000</r>
       <r>  21.8773  0.0000</r>
       <r>  21.8773  0.0000</r>
       <r>  23.6974  0.0000</r>
       <r>  23.6974  0.0000</r>
      </set>
      <set comment="kpoint 108">
       <r>  -1.2269  1.0000</r>
       <r>  -0.7503  1.0000</r>
       <r>  -0.7503  1.0000</r>
       <r>  -0.5653  1.0000</r>
       <r>   1.0216  1.0000</r>
       <r>   1.1156  1.0000</r>
       <r>   1.1156  1.0000</r>
       <r>   1.3360  1.0000</r>
       <r>   1.4441  1.0000</r>
       <r>   1.5233  1.0000</r>
       <r>   1.5233  1.0000</r>
       <r>   1.5685  1.0000</r>
       <r>   1.5953  1.0000</r>
       <r>   1.6235  1.0000</r>
       <r>   1.6235  1.0000</r>
       <r>   1.6823  1.0000</r>
       <r>   2.7041  1.0000</r>
       <r>   2.8953  1.0000</r>
       <r>   2.8953  1.0000</r>
       <r>   2.9023  1.0000</r>
       <r>   3.2780  1.0000</r>
       <r>   4.3846  1.0000</r>
       <r>   4.3846  1.0000</r>
       <r>   5.3925  0.0000</r>
       <r>   9.4436  0.0000</r>
       <r>  10.6057  0.0000</r>
       <r>  10.6057  0.0000</r>
       <r>  12.1694  0.0000</r>
       <r>  21.8360  0.0000</r>
       <r>  23.2798  0.0000</r>
       <r>  23.2798  0.0000</r>
       <r>  24.9129  0.0000</r>
      </set>
      <set comment="kpoint 109">
       <r>  -0.9827  1.0000</r>
       <r>  -0.9827  1.0000</r>
       <r>  -0.6654  1.0000</r>
       <r>  -0.6654  1.0000</r>
       <r>   1.0924  1.0000</r>
       <r>   1.0924  1.0000</r>
       <r>   1.2485  1.0000</r>
       <r>   1.2485  1.0000</r>
       <r>   1.4696  1.0000</r>
       <r>   1.4696  1.0000</r>
       <r>   1.5294  1.0000</r>
       <r>   1.5294  1.0000</r>
       <r>   1.6623  1.0000</r>
       <r>   1.6623  1.0000</r>
       <r>   1.7153  1.0000</r>
       <r>   1.7153  1.0000</r>
       <r>   2.7956  1.0000</r>
       <r>   2.7956  1.0000</r>
       <r>   2.8728  1.0000</r>
       <r>   2.8728  1.0000</r>
       <r>   3.7169  1.0000</r>
       <r>   3.7169  1.0000</r>
       <r>   4.8517  0.0000</r>
       <r>   4.8517  0.0000</r>
       <r>   9.9112  0.0000</r>
       <r>   9.9112  0.0000</r>
       <r>  11.3235  0.0000</r>
       <r>  11.3235  0.0000</r>
       <r>  22.5304  0.0000</r>
       <r>  22.5304  0.0000</r>
       <r>  24.0651  0.0000</r>
       <r>  24.0651  0.0000</r>
      </set>
      <set comment="kpoint 110">
       <r>  -0.8267  1.0000</r>
       <r>  -0.8267  1.0000</r>
       <r>  -0.8267  1.0000</r>
       <r>  -0.8267  1.0000</r>
       <r>   1.1946  1.0000</r>
       <r>   1.1946  1.0000</r>
       <r>   1.1946  1.0000</r>
       <r>   1.1946  1.0000</r>
       <r>   1.4770  1.0000</r>
       <r>   1.4770  1.0000</r>
       <r>   1.4770  1.0000</r>
       <r>   1.4770  1.0000</r>
       <r>   1.7649  1.0000</r>
       <r>   1.7649  1.0000</r>
       <r>   1.7649  1.0000</r>
       <r>   1.7649  1.0000</r>
       <r>   2.8076  1.0000</r>
       <r>   2.8076  1.0000</r>
       <r>   2.8076  1.0000</r>
       <r>   2.8076  1.0000</r>
       <r>   4.2013  1.0000</r>
       <r>   4.2013  1.0000</r>
       <r>   4.2013  1.0000</r>
       <r>   4.2013  1.0000</r>
       <r>  10.5372  0.0000</r>
       <r>  10.5372  0.0000</r>
       <r>  10.5372  0.0000</r>
       <r>  10.5372  0.0000</r>
       <r>  23.2585  0.0000</r>
       <r>  23.2585  0.0000</r>
       <r>  23.2585  0.0000</r>
       <r>  23.2585  0.0000</r>
      </set>
      <set comment="kpoint 111">
       <r>  -1.5816  1.0000</r>
       <r>  -0.6050  1.0000</r>
       <r>  -0.6050  1.0000</r>
       <r>  -0.6050  1.0000</r>
       <r>   0.9934  1.0000</r>
       <r>   0.9934  1.0000</r>
       <r>   0.9934  1.0000</r>
       <r>   1.4170  1.0000</r>
       <r>   1.4170  1.0000</r>
       <r>   1.5627  1.0000</r>
       <r>   1.5814  1.0000</r>
       <r>   1.5814  1.0000</r>
       <r>   1.5814  1.0000</r>
       <r>   1.5975  1.0000</r>
       <r>   1.5975  1.0000</r>
       <r>   1.5975  1.0000</r>
       <r>   2.7467  1.0000</r>
       <r>   2.7467  1.0000</r>
       <r>   3.0065  1.0000</r>
       <r>   3.0065  1.0000</r>
       <r>   3.0065  1.0000</r>
       <r>   5.0125  0.0000</r>
       <r>   5.0125  0.0000</r>
       <r>   5.0125  0.0000</r>
       <r>   9.9610  0.0000</r>
       <r>   9.9610  0.0000</r>
       <r>   9.9610  0.0000</r>
       <r>  13.0465  0.0000</r>
       <r>  22.7000  0.0000</r>
       <r>  22.7000  0.0000</r>
       <r>  22.7000  0.0000</r>
       <r>  25.0184  0.0000</r>
      </set>
      <set comment="kpoint 112">
       <r>  -1.3240  1.0000</r>
       <r>  -0.8344  1.0000</r>
       <r>  -0.6416  1.0000</r>
       <r>  -0.6416  1.0000</r>
       <r>   1.0579  1.0000</r>
       <r>   1.0579  1.0000</r>
       <r>   1.1546  1.0000</r>
       <r>   1.3674  1.0000</r>
       <r>   1.4099  1.0000</r>
       <r>   1.5026  1.0000</r>
       <r>   1.5343  1.0000</r>
       <r>   1.5343  1.0000</r>
       <r>   1.7015  1.0000</r>
       <r>   1.7602  1.0000</r>
       <r>   1.7602  1.0000</r>
       <r>   1.7737  1.0000</r>
       <r>   2.8634  1.0000</r>
       <r>   2.8862  1.0000</r>
       <r>   2.9799  1.0000</r>
       <r>   2.9799  1.0000</r>
       <r>   2.9968  1.0000</r>
       <r>   4.1058  1.0000</r>
       <r>   5.1210  0.0000</r>
       <r>   5.1210  0.0000</r>
       <r>   9.3932  0.0000</r>
       <r>   9.3932  0.0000</r>
       <r>  10.5282  0.0000</r>
       <r>  12.0798  0.0000</r>
       <r>  23.2227  0.0000</r>
       <r>  23.2227  0.0000</r>
       <r>  24.6958  0.0000</r>
       <r>  24.9093  0.0000</r>
      </set>
      <set comment="kpoint 113">
       <r>  -1.0738  1.0000</r>
       <r>  -1.0738  1.0000</r>
       <r>  -0.6543  1.0000</r>
       <r>  -0.6543  1.0000</r>
       <r>   1.0790  1.0000</r>
       <r>   1.0790  1.0000</r>
       <r>   1.2816  1.0000</r>
       <r>   1.2816  1.0000</r>
       <r>   1.4389  1.0000</r>
       <r>   1.4389  1.0000</r>
       <r>   1.5131  1.0000</r>
       <r>   1.5131  1.0000</r>
       <r>   1.7942  1.0000</r>
       <r>   1.7942  1.0000</r>
       <r>   1.8347  1.0000</r>
       <r>   1.8347  1.0000</r>
       <r>   2.9483  1.0000</r>
       <r>   2.9483  1.0000</r>
       <r>   2.9606  1.0000</r>
       <r>   2.9606  1.0000</r>
       <r>   3.3624  1.0000</r>
       <r>   3.3624  1.0000</r>
       <r>   5.1659  0.0000</r>
       <r>   5.1659  0.0000</r>
       <r>   9.1920  0.0000</r>
       <r>   9.1920  0.0000</r>
       <r>  11.2390  0.0000</r>
       <r>  11.2390  0.0000</r>
       <r>  23.5637  0.0000</r>
       <r>  23.5637  0.0000</r>
       <r>  24.5417  0.0000</r>
       <r>  24.5417  0.0000</r>
      </set>
      <set comment="kpoint 114">
       <r>  -1.1633  1.0000</r>
       <r>  -0.8252  1.0000</r>
       <r>  -0.8252  1.0000</r>
       <r>  -0.7306  1.0000</r>
       <r>   1.1394  1.0000</r>
       <r>   1.1878  1.0000</r>
       <r>   1.1878  1.0000</r>
       <r>   1.3505  1.0000</r>
       <r>   1.3753  1.0000</r>
       <r>   1.4474  1.0000</r>
       <r>   1.4474  1.0000</r>
       <r>   1.4626  1.0000</r>
       <r>   1.9611  1.0000</r>
       <r>   1.9611  1.0000</r>
       <r>   1.9769  1.0000</r>
       <r>   2.0993  1.0000</r>
       <r>   2.8299  1.0000</r>
       <r>   2.9674  1.0000</r>
       <r>   2.9737  1.0000</r>
       <r>   2.9737  1.0000</r>
       <r>   3.0952  1.0000</r>
       <r>   4.2896  1.0000</r>
       <r>   4.2896  1.0000</r>
       <r>   4.8775  0.0000</r>
       <r>   9.1564  0.0000</r>
       <r>   9.7898  0.0000</r>
       <r>   9.7898  0.0000</r>
       <r>  11.1615  0.0000</r>
       <r>  23.8290  0.0000</r>
       <r>  24.9024  0.0000</r>
       <r>  24.9024  0.0000</r>
       <r>  25.9125  0.0000</r>
      </set>
      <set comment="kpoint 115">
       <r>  -0.9982  1.0000</r>
       <r>  -0.9982  1.0000</r>
       <r>  -0.7917  1.0000</r>
       <r>  -0.7917  1.0000</r>
       <r>   1.1841  1.0000</r>
       <r>   1.1841  1.0000</r>
       <r>   1.2869  1.0000</r>
       <r>   1.2869  1.0000</r>
       <r>   1.3929  1.0000</r>
       <r>   1.3929  1.0000</r>
       <r>   1.4320  1.0000</r>
       <r>   1.4320  1.0000</r>
       <r>   2.0707  1.0000</r>
       <r>   2.0707  1.0000</r>
       <r>   2.1218  1.0000</r>
       <r>   2.1218  1.0000</r>
       <r>   2.9148  1.0000</r>
       <r>   2.9148  1.0000</r>
       <r>   2.9493  1.0000</r>
       <r>   2.9493  1.0000</r>
       <r>   3.5605  1.0000</r>
       <r>   3.5605  1.0000</r>
       <r>   4.5675  1.0000</r>
       <r>   4.5675  1.0000</r>
       <r>   9.3108  0.0000</r>
       <r>   9.3108  0.0000</r>
       <r>  10.3929  0.0000</r>
       <r>  10.3929  0.0000</r>
       <r>  24.4519  0.0000</r>
       <r>  24.4519  0.0000</r>
       <r>  25.8645  0.0000</r>
       <r>  25.8645  0.0000</r>
      </set>
      <set comment="kpoint 116">
       <r>  -0.9056  1.0000</r>
       <r>  -0.9056  1.0000</r>
       <r>  -0.9056  1.0000</r>
       <r>  -0.9056  1.0000</r>
       <r>   1.2574  1.0000</r>
       <r>   1.2574  1.0000</r>
       <r>   1.2574  1.0000</r>
       <r>   1.2574  1.0000</r>
       <r>   1.3880  1.0000</r>
       <r>   1.3880  1.0000</r>
       <r>   1.3880  1.0000</r>
       <r>   1.3880  1.0000</r>
       <r>   2.2166  1.0000</r>
       <r>   2.2166  1.0000</r>
       <r>   2.2166  1.0000</r>
       <r>   2.2166  1.0000</r>
       <r>   2.9062  1.0000</r>
       <r>   2.9062  1.0000</r>
       <r>   2.9062  1.0000</r>
       <r>   2.9062  1.0000</r>
       <r>   3.9832  1.0000</r>
       <r>   3.9832  1.0000</r>
       <r>   3.9832  1.0000</r>
       <r>   3.9832  1.0000</r>
       <r>   9.7371  0.0000</r>
       <r>   9.7371  0.0000</r>
       <r>   9.7371  0.0000</r>
       <r>   9.7371  0.0000</r>
       <r>  25.1612  0.0000</r>
       <r>  25.1612  0.0000</r>
       <r>  25.1612  0.0000</r>
       <r>  25.1612  0.0000</r>
      </set>
      <set comment="kpoint 117">
       <r>  -1.0864  1.0000</r>
       <r>  -0.8730  1.0000</r>
       <r>  -0.8730  1.0000</r>
       <r>  -0.8730  1.0000</r>
       <r>   1.2367  1.0000</r>
       <r>   1.2367  1.0000</r>
       <r>   1.2367  1.0000</r>
       <r>   1.3421  1.0000</r>
       <r>   1.3421  1.0000</r>
       <r>   1.3870  1.0000</r>
       <r>   1.3871  1.0000</r>
       <r>   1.3871  1.0000</r>
       <r>   2.2768  1.0000</r>
       <r>   2.2768  1.0000</r>
       <r>   2.2768  1.0000</r>
       <r>   2.6594  1.0000</r>
       <r>   2.9233  1.0000</r>
       <r>   2.9233  1.0000</r>
       <r>   2.9938  1.0000</r>
       <r>   2.9938  1.0000</r>
       <r>   2.9938  1.0000</r>
       <r>   4.1903  1.0000</r>
       <r>   4.1903  1.0000</r>
       <r>   4.1903  1.0000</r>
       <r>   9.2696  0.0000</r>
       <r>   9.2696  0.0000</r>
       <r>   9.2696  0.0000</r>
       <r>  10.3257  0.0000</r>
       <r>  25.6788  0.0000</r>
       <r>  25.6788  0.0000</r>
       <r>  25.6788  0.0000</r>
       <r>  27.2113  0.0000</r>
      </set>
      <set comment="kpoint 118">
       <r>  -0.9911  1.0000</r>
       <r>  -0.9911  1.0000</r>
       <r>  -0.8894  1.0000</r>
       <r>  -0.8894  1.0000</r>
       <r>   1.2554  1.0000</r>
       <r>   1.2554  1.0000</r>
       <r>   1.3050  1.0000</r>
       <r>   1.3050  1.0000</r>
       <r>   1.3461  1.0000</r>
       <r>   1.3461  1.0000</r>
       <r>   1.3646  1.0000</r>
       <r>   1.3646  1.0000</r>
       <r>   2.4204  1.0000</r>
       <r>   2.4204  1.0000</r>
       <r>   2.5622  1.0000</r>
       <r>   2.5622  1.0000</r>
       <r>   2.9790  1.0000</r>
       <r>   2.9790  1.0000</r>
       <r>   2.9818  1.0000</r>
       <r>   2.9818  1.0000</r>
       <r>   3.4569  1.0000</r>
       <r>   3.4569  1.0000</r>
       <r>   4.1441  1.0000</r>
       <r>   4.1441  1.0000</r>
       <r>   9.0904  0.0000</r>
       <r>   9.0904  0.0000</r>
       <r>   9.6829  0.0000</r>
       <r>   9.6829  0.0000</r>
       <r>  25.9758  0.0000</r>
       <r>  25.9758  0.0000</r>
       <r>  26.8599  0.0000</r>
       <r>  26.8600  0.0000</r>
      </set>
      <set comment="kpoint 119">
       <r>  -0.9558  1.0000</r>
       <r>  -0.9558  1.0000</r>
       <r>  -0.9558  1.0000</r>
       <r>  -0.9558  1.0000</r>
       <r>   1.2992  1.0000</r>
       <r>   1.2992  1.0000</r>
       <r>   1.2992  1.0000</r>
       <r>   1.2992  1.0000</r>
       <r>   1.3326  1.0000</r>
       <r>   1.3326  1.0000</r>
       <r>   1.3326  1.0000</r>
       <r>   1.3326  1.0000</r>
       <r>   2.6822  1.0000</r>
       <r>   2.6822  1.0000</r>
       <r>   2.6822  1.0000</r>
       <r>   2.6822  1.0000</r>
       <r>   2.9682  1.0000</r>
       <r>   2.9682  1.0000</r>
       <r>   2.9682  1.0000</r>
       <r>   2.9682  1.0000</r>
       <r>   3.6815  1.0000</r>
       <r>   3.6815  1.0000</r>
       <r>   3.6815  1.0000</r>
       <r>   3.6815  1.0000</r>
       <r>   9.2322  0.0000</r>
       <r>   9.2322  0.0000</r>
       <r>   9.2322  0.0000</r>
       <r>   9.2322  0.0000</r>
       <r>  26.6802  0.0000</r>
       <r>  26.6802  0.0000</r>
       <r>  26.6802  0.0000</r>
       <r>  26.6802  0.0000</r>
      </set>
      <set comment="kpoint 120">
       <r>  -0.9729  1.0000</r>
       <r>  -0.9729  1.0000</r>
       <r>  -0.9729  1.0000</r>
       <r>  -0.9729  1.0000</r>
       <r>   1.3138  1.0000</r>
       <r>   1.3138  1.0000</r>
       <r>   1.3138  1.0000</r>
       <r>   1.3138  1.0000</r>
       <r>   1.3138  1.0000</r>
       <r>   1.3138  1.0000</r>
       <r>   1.3138  1.0000</r>
       <r>   1.3138  1.0000</r>
       <r>   2.9894  1.0000</r>
       <r>   2.9894  1.0000</r>
       <r>   2.9894  1.0000</r>
       <r>   2.9894  1.0000</r>
       <r>   2.9894  1.0000</r>
       <r>   2.9894  1.0000</r>
       <r>   2.9894  1.0000</r>
       <r>   2.9894  1.0000</r>
       <r>   3.4331  1.0000</r>
       <r>   3.4331  1.0000</r>
       <r>   3.4331  1.0000</r>
       <r>   3.4331  1.0000</r>
       <r>   9.0595  0.0000</r>
       <r>   9.0595  0.0000</r>
       <r>   9.0595  0.0000</r>
       <r>   9.0595  0.0000</r>
       <r>  27.1043  0.0000</r>
       <r>  27.1043  0.0000</r>
       <r>  27.1043  0.0000</r>
       <r>  27.1043  0.0000</r>
      </set>
     </set>
    </set>
   </array>
  </eigenvalues>
 </calculation>
 <structure name="finalpos" >
  <crystal>
   <varray name="basis" >
    <v>       3.49095918      0.00000000      0.00000000</v>
    <v>       0.00000000      3.49095918      0.00000000</v>
    <v>       0.00000000      0.00000000      3.49095918</v>
   </varray>
   <i name="volume">     42.54360733</i>
   <varray name="rec_basis" >
    <v>       0.28645422      0.00000000      0.00000000</v>
    <v>       0.00000000      0.28645422      0.00000000</v>
    <v>       0.00000000      0.00000000      0.28645422</v>
   </varray>
  </crystal>
  <varray name="positions" >
   <v>       0.00000000      0.00000000      0.00000000</v>
   <v>       0.50000000      0.50000000      0.00000000</v>
   <v>       0.50000000      0.00000000      0.50000000</v>
   <v>       0.00000000      0.50000000      0.50000000</v>
  </varray>
 </structure>
</modeling>
