 running on    4 nodes
 distr:  one band on    1 nodes,    4 groups
 vasp.4.6.28 25Jul05 complex 
 POSCAR found :  1 types and   32 ions

 ----------------------------------------------------------------------------- 
|                                                                             |
|  ADVICE TO THIS USER RUNNING 'VASP/VAMP'   (HEAR YOUR MASTER'S VOICE ...):  |
|                                                                             |
|      You have a (more or less) 'large supercell' and for larger cells       |
|      it might be more efficient to use real space projection operators      |
|      So try LREAL= Auto  in the INCAR   file.                               |
|      Mind: If you want to do an extremely accurate calculations keep the    |
|      reciprocal projection scheme          (i.e. LREAL=.FALSE.)             |
|                                                                             |
 ----------------------------------------------------------------------------- 

 LDA part: xc-table for Pade appr. of Perdew
 found WAVECAR, reading the header
 POSCAR, INCAR and KPOINTS ok, starting setup
 WARNING: wrap around errors must be expected
 FFT: planning ...           1
 reading WAVECAR
 the WAVECAR file was read sucessfully
 initial charge from wavefunction
 entering main loop
       N       E                     dE             d eps       ncg     rms          rms(c)
DAV:   1    -0.103009904726E+03   -0.10301E+03   -0.35105E+00   432   0.412E+00    0.100E+00
DAV:   2    -0.102933998733E+03    0.75906E-01   -0.29900E-01   520   0.304E+00    0.498E-01
DAV:   3    -0.102929011363E+03    0.49874E-02   -0.35454E-02   500   0.106E+00    0.247E-01
DAV:   4    -0.102928978314E+03    0.33049E-04   -0.68237E-03   444   0.234E-01    0.124E-01
DAV:   5    -0.102928968727E+03    0.95875E-05   -0.46106E-04   504   0.986E-02    0.531E-02
DAV:   6    -0.102928981665E+03   -0.12939E-04   -0.11875E-04   444   0.457E-02    0.978E-03
DAV:   7    -0.102928978584E+03    0.30812E-05   -0.15656E-05   256   0.172E-02
   1 F= -.10292898E+03 E0= -.10287319E+03  d E =-.167365E+00

 ----------------------------------------------------------------------------- 
|                                                                             |
|           W    W    AA    RRRRR   N    N  II  N    N   GGGG   !!!           |
|           W    W   A  A   R    R  NN   N  II  NN   N  G    G  !!!           |
|           W    W  A    A  R    R  N N  N  II  N N  N  G       !!!           |
|           W WW W  AAAAAA  RRRRR   N  N N  II  N  N N  G  GGG   !            |
|           WW  WW  A    A  R   R   N   NN  II  N   NN  G    G                |
|           W    W  A    A  R    R  N    N  II  N    N   GGGG   !!!           |
|                                                                             |
|      The partial DOS and the PROCAR file are not evaluated for NPAR/=1      |
|      please rerun with NPAR=1                                               |
|                                                                             |
 ----------------------------------------------------------------------------- 

