   4   4   0   0
  0.1392114E+02  0.3818665E-09  0.3818665E-09  0.3818665E-09  0.5000000E-15
  1.000000000000000E-004
  CAR 
 unknown system                          
     23.61774643     -7.06480574  301      2.50660929      1.00000000
     -7.065  0.0000E+00  0.0000E+00
     -6.963  0.0000E+00  0.0000E+00
     -6.860  0.0000E+00  0.0000E+00
     -6.758  0.0000E+00  0.0000E+00
     -6.656  0.0000E+00  0.0000E+00
     -6.553  0.0000E+00  0.0000E+00
     -6.451  0.0000E+00  0.0000E+00
     -6.349  0.0000E+00  0.0000E+00
     -6.247  0.0000E+00  0.0000E+00
     -6.144  0.0000E+00  0.0000E+00
     -6.042  0.0000E+00  0.0000E+00
     -5.940  0.0000E+00  0.0000E+00
     -5.838  0.0000E+00  0.0000E+00
     -5.735  0.0000E+00  0.0000E+00
     -5.633  0.1589E-01  0.1625E-02
     -5.531  0.8190E-01  0.1185E-01
     -5.428  0.1252E+00  0.2845E-01
     -5.326  0.1619E+00  0.4823E-01
     -5.224  0.1858E+00  0.7203E-01
     -5.122  0.2026E+00  0.9749E-01
     -5.019  0.1985E+00  0.1261E+00
     -4.917  0.2767E+00  0.1599E+00
     -4.815  0.2397E+00  0.1911E+00
     -4.712  0.2669E+00  0.2286E+00
     -4.610  0.3210E+00  0.2664E+00
     -4.508  0.2832E+00  0.3055E+00
     -4.406  0.3869E+00  0.3524E+00
     -4.303  0.3313E+00  0.3933E+00
     -4.201  0.3767E+00  0.4440E+00
     -4.099  0.3624E+00  0.4930E+00
     -3.997  0.4323E+00  0.5480E+00
     -3.894  0.3627E+00  0.5980E+00
     -3.792  0.4637E+00  0.6590E+00
     -3.690  0.5070E+00  0.7169E+00
     -3.587  0.4712E+00  0.7738E+00
     -3.485  0.4853E+00  0.8424E+00
     -3.383  0.5012E+00  0.9068E+00
     -3.281  0.5488E+00  0.9776E+00
     -3.178  0.5519E+00  0.1051E+01
     -3.076  0.5499E+00  0.1122E+01
     -2.974  0.5587E+00  0.1206E+01
     -2.872  0.6583E+00  0.1288E+01
     -2.769  0.6770E+00  0.1378E+01
     -2.667  0.7483E+00  0.1471E+01
     -2.565  0.7521E+00  0.1567E+01
     -2.462  0.8459E+00  0.1671E+01
     -2.360  0.8254E+00  0.1785E+01
     -2.258  0.9238E+00  0.1909E+01
     -2.156  0.1029E+01  0.2042E+01
     -2.053  0.1102E+01  0.2186E+01
     -1.951  0.1384E+01  0.2358E+01
     -1.849  0.1558E+01  0.2557E+01
     -1.746  0.1919E+01  0.2804E+01
     -1.644  0.2513E+01  0.3146E+01
     -1.542  0.2991E+01  0.3535E+01
     -1.440  0.4199E+01  0.4069E+01
     -1.337  0.4411E+01  0.4647E+01
     -1.235  0.4724E+01  0.5252E+01
     -1.133  0.5381E+01  0.5943E+01
     -1.031  0.7394E+01  0.6882E+01
     -0.928  0.8821E+01  0.8016E+01
     -0.826  0.9258E+01  0.9220E+01
     -0.724  0.7863E+01  0.1027E+02
     -0.621  0.8649E+01  0.1139E+02
     -0.519  0.8231E+01  0.1245E+02
     -0.417  0.1007E+02  0.1373E+02
     -0.315  0.1176E+02  0.1528E+02
     -0.212  0.1256E+02  0.1698E+02
     -0.110  0.1535E+02  0.1892E+02
     -0.008  0.1646E+02  0.2106E+02
      0.094  0.1870E+02  0.2350E+02
      0.197  0.1203E+02  0.2511E+02
      0.299  0.1026E+02  0.2647E+02
      0.401  0.1225E+02  0.2803E+02
      0.504  0.1500E+02  0.2997E+02
      0.606  0.1485E+02  0.3196E+02
      0.708  0.1304E+02  0.3368E+02
      0.810  0.1340E+02  0.3541E+02
      0.913  0.1630E+02  0.3750E+02
      1.015  0.2493E+02  0.4066E+02
      1.117  0.7645E+01  0.4185E+02
      1.219  0.1618E+01  0.4205E+02
      1.322  0.1487E+01  0.4224E+02
      1.424  0.1278E+01  0.4242E+02
      1.526  0.1232E+01  0.4259E+02
      1.629  0.1128E+01  0.4275E+02
      1.731  0.1241E+01  0.4292E+02
      1.833  0.1161E+01  0.4307E+02
      1.935  0.1109E+01  0.4321E+02
      2.038  0.9965E+00  0.4336E+02
      2.140  0.1123E+01  0.4352E+02
      2.242  0.9771E+00  0.4365E+02
      2.345  0.1266E+01  0.4381E+02
      2.447  0.9000E+00  0.4393E+02
      2.549  0.1123E+01  0.4407E+02
      2.651  0.9574E+00  0.4420E+02
      2.754  0.1016E+01  0.4433E+02
      2.856  0.9074E+00  0.4446E+02
      2.958  0.7805E+00  0.4457E+02
      3.060  0.1146E+01  0.4472E+02
      3.163  0.8052E+00  0.4483E+02
      3.265  0.1072E+01  0.4496E+02
      3.367  0.9342E+00  0.4508E+02
      3.470  0.7535E+00  0.4518E+02
      3.572  0.1021E+01  0.4532E+02
      3.674  0.7004E+00  0.4542E+02
      3.776  0.9074E+00  0.4553E+02
      3.879  0.9068E+00  0.4565E+02
      3.981  0.7603E+00  0.4576E+02
      4.083  0.8577E+00  0.4587E+02
      4.185  0.9190E+00  0.4600E+02
      4.288  0.7626E+00  0.4609E+02
      4.390  0.9585E+00  0.4621E+02
      4.492  0.7847E+00  0.4631E+02
      4.595  0.7717E+00  0.4641E+02
      4.697  0.7078E+00  0.4650E+02
      4.799  0.8110E+00  0.4661E+02
      4.901  0.6451E+00  0.4670E+02
      5.004  0.5739E+00  0.4679E+02
      5.106  0.7489E+00  0.4688E+02
      5.208  0.5553E+00  0.4697E+02
      5.310  0.5845E+00  0.4704E+02
      5.413  0.7573E+00  0.4713E+02
      5.515  0.6014E+00  0.4722E+02
      5.617  0.8358E+00  0.4732E+02
      5.720  0.8719E+00  0.4743E+02
      5.822  0.1056E+01  0.4758E+02
      5.924  0.1063E+01  0.4771E+02
      6.026  0.9524E+00  0.4783E+02
      6.129  0.1053E+01  0.4796E+02
      6.231  0.1056E+01  0.4809E+02
      6.333  0.9018E+00  0.4822E+02
      6.436  0.1022E+01  0.4835E+02
      6.538  0.1044E+01  0.4848E+02
      6.640  0.9747E+00  0.4861E+02
      6.742  0.9556E+00  0.4873E+02
      6.845  0.9070E+00  0.4885E+02
      6.947  0.1061E+01  0.4898E+02
      7.049  0.9350E+00  0.4910E+02
      7.151  0.9293E+00  0.4922E+02
      7.254  0.8170E+00  0.4933E+02
      7.356  0.1044E+01  0.4946E+02
      7.458  0.8981E+00  0.4957E+02
      7.561  0.8755E+00  0.4969E+02
      7.663  0.7403E+00  0.4979E+02
      7.765  0.1013E+01  0.4991E+02
      7.867  0.8516E+00  0.5002E+02
      7.970  0.7012E+00  0.5012E+02
      8.072  0.9362E+00  0.5023E+02
      8.174  0.8191E+00  0.5034E+02
      8.276  0.7654E+00  0.5044E+02
      8.379  0.7632E+00  0.5054E+02
      8.481  0.7349E+00  0.5064E+02
      8.583  0.7939E+00  0.5075E+02
      8.686  0.1071E+01  0.5089E+02
      8.788  0.1030E+01  0.5102E+02
      8.890  0.1095E+01  0.5114E+02
      8.992  0.1076E+01  0.5128E+02
      9.095  0.1076E+01  0.5143E+02
      9.197  0.9688E+00  0.5157E+02
      9.299  0.1204E+01  0.5171E+02
      9.401  0.1100E+01  0.5186E+02
      9.504  0.1216E+01  0.5202E+02
      9.606  0.1036E+01  0.5216E+02
      9.708  0.1124E+01  0.5231E+02
      9.811  0.1212E+01  0.5246E+02
      9.913  0.1217E+01  0.5263E+02
     10.015  0.1195E+01  0.5278E+02
     10.117  0.1065E+01  0.5293E+02
     10.220  0.1178E+01  0.5308E+02
     10.322  0.1226E+01  0.5324E+02
     10.424  0.1242E+01  0.5340E+02
     10.527  0.1248E+01  0.5356E+02
     10.629  0.1068E+01  0.5370E+02
     10.731  0.1195E+01  0.5386E+02
     10.833  0.1229E+01  0.5402E+02
     10.936  0.1408E+01  0.5419E+02
     11.038  0.1251E+01  0.5434E+02
     11.140  0.1251E+01  0.5450E+02
     11.242  0.1119E+01  0.5466E+02
     11.345  0.1305E+01  0.5482E+02
     11.447  0.1203E+01  0.5498E+02
     11.549  0.1145E+01  0.5513E+02
     11.652  0.1343E+01  0.5531E+02
     11.754  0.1163E+01  0.5547E+02
     11.856  0.1143E+01  0.5563E+02
     11.958  0.1224E+01  0.5579E+02
     12.061  0.1454E+01  0.5597E+02
     12.163  0.1283E+01  0.5613E+02
     12.265  0.1416E+01  0.5631E+02
     12.367  0.1208E+01  0.5646E+02
     12.470  0.1393E+01  0.5663E+02
     12.572  0.1098E+01  0.5679E+02
     12.674  0.1333E+01  0.5697E+02
     12.777  0.1335E+01  0.5713E+02
     12.879  0.1311E+01  0.5730E+02
     12.981  0.1364E+01  0.5749E+02
     13.083  0.1279E+01  0.5767E+02
     13.186  0.1125E+01  0.5781E+02
     13.288  0.1475E+01  0.5800E+02
     13.390  0.1438E+01  0.5819E+02
     13.493  0.1188E+01  0.5835E+02
     13.595  0.1331E+01  0.5853E+02
     13.697  0.1379E+01  0.5872E+02
     13.799  0.1071E+01  0.5888E+02
     13.902  0.1617E+01  0.5908E+02
     14.004  0.1275E+01  0.5925E+02
     14.106  0.1421E+01  0.5943E+02
     14.208  0.1599E+01  0.5964E+02
     14.311  0.1352E+01  0.5982E+02
     14.413  0.1449E+01  0.6002E+02
     14.515  0.1516E+01  0.6022E+02
     14.618  0.1387E+01  0.6040E+02
     14.720  0.1500E+01  0.6058E+02
     14.822  0.1230E+01  0.6075E+02
     14.924  0.1233E+01  0.6093E+02
     15.027  0.1305E+01  0.6110E+02
     15.129  0.1233E+01  0.6127E+02
     15.231  0.1239E+01  0.6142E+02
     15.333  0.1051E+01  0.6156E+02
     15.436  0.1113E+01  0.6171E+02
     15.538  0.8419E+00  0.6183E+02
     15.640  0.1051E+01  0.6197E+02
     15.743  0.9255E+00  0.6208E+02
     15.845  0.7688E+00  0.6218E+02
     15.947  0.8216E+00  0.6229E+02
     16.049  0.6593E+00  0.6237E+02
     16.152  0.5527E+00  0.6245E+02
     16.254  0.6744E+00  0.6254E+02
     16.356  0.6581E+00  0.6263E+02
     16.458  0.5297E+00  0.6269E+02
     16.561  0.6003E+00  0.6277E+02
     16.663  0.5028E+00  0.6283E+02
     16.765  0.4667E+00  0.6290E+02
     16.868  0.5174E+00  0.6296E+02
     16.970  0.4412E+00  0.6302E+02
     17.072  0.3554E+00  0.6307E+02
     17.174  0.4587E+00  0.6313E+02
     17.277  0.3325E+00  0.6318E+02
     17.379  0.2080E+00  0.6322E+02
     17.481  0.3931E+00  0.6327E+02
     17.584  0.2968E+00  0.6331E+02
     17.686  0.3401E+00  0.6335E+02
     17.788  0.2755E+00  0.6339E+02
     17.890  0.3027E+00  0.6343E+02
     17.993  0.1752E+00  0.6345E+02
     18.095  0.3199E+00  0.6349E+02
     18.197  0.2082E+00  0.6352E+02
     18.299  0.1691E+00  0.6355E+02
     18.402  0.2858E+00  0.6358E+02
     18.504  0.1735E+00  0.6361E+02
     18.606  0.1881E+00  0.6363E+02
     18.709  0.1623E+00  0.6366E+02
     18.811  0.2271E+00  0.6368E+02
     18.913  0.1826E+00  0.6370E+02
     19.015  0.1308E+00  0.6372E+02
     19.118  0.1741E+00  0.6375E+02
     19.220  0.5990E-01  0.6376E+02
     19.322  0.2206E+00  0.6378E+02
     19.424  0.1006E+00  0.6379E+02
     19.527  0.1988E+00  0.6382E+02
     19.629  0.5267E-01  0.6383E+02
     19.731  0.1728E+00  0.6384E+02
     19.834  0.1121E+00  0.6386E+02
     19.936  0.1184E+00  0.6387E+02
     20.038  0.5992E-01  0.6388E+02
     20.140  0.7267E-01  0.6389E+02
     20.243  0.1052E+00  0.6391E+02
     20.345  0.2610E-01  0.6391E+02
     20.447  0.1006E+00  0.6392E+02
     20.549  0.5030E-01  0.6393E+02
     20.652  0.8047E-01  0.6394E+02
     20.754  0.4024E-01  0.6394E+02
     20.856  0.1018E+00  0.6395E+02
     20.959  0.1138E-01  0.6396E+02
     21.061  0.7955E-01  0.6397E+02
     21.163  0.1012E-01  0.6397E+02
     21.265  0.5030E-01  0.6398E+02
     21.368  0.2049E-01  0.6398E+02
     21.470  0.4025E-01  0.6398E+02
     21.572  0.3873E-01  0.6399E+02
     21.675  0.1006E-01  0.6399E+02
     21.777  0.3526E-01  0.6399E+02
     21.879  0.1020E-01  0.6399E+02
     21.981  0.8865E-02  0.6400E+02
     22.084  0.1276E-01  0.6400E+02
     22.186  0.4962E-02  0.6400E+02
     22.288  0.1677E-02  0.6400E+02
     22.390  0.0000E+00  0.6400E+02
     22.493  0.0000E+00  0.6400E+02
     22.595  0.0000E+00  0.6400E+02
     22.697  0.0000E+00  0.6400E+02
     22.800  0.0000E+00  0.6400E+02
     22.902  0.0000E+00  0.6400E+02
     23.004  0.0000E+00  0.6400E+02
     23.106  0.0000E+00  0.6400E+02
     23.209  0.0000E+00  0.6400E+02
     23.311  0.0000E+00  0.6400E+02
     23.413  0.0000E+00  0.6400E+02
     23.515  0.0000E+00  0.6400E+02
     23.618  0.0000E+00  0.6400E+02
