 running on    2 nodes
 distr:  one band on    1 nodes,    2 groups
 vasp.4.6.28 25Jul05 complex 
 POSCAR found :  1 types and    4 ions
 LDA part: xc-table for Pade appr. of Perdew
 POSCAR, INCAR and KPOINTS ok, starting setup
 FFT: planning ...           1
 reading WAVECAR
 WARNING: random wavefunctions but no delay for mixing, default for NELMDL
 entering main loop
       N       E                     dE             d eps       ncg     rms          rms(c)
DAV:   1     0.309861874720E+03    0.30986E+03   -0.26889E+04  4368   0.312E+03
DAV:   2     0.216438168550E+01   -0.30770E+03   -0.30193E+03  4368   0.456E+02
DAV:   3    -0.166802700677E+02   -0.18845E+02   -0.18150E+02  4532   0.142E+02
DAV:   4    -0.169432831637E+02   -0.26301E+00   -0.26211E+00  4646   0.174E+01
DAV:   5    -0.169445706959E+02   -0.12875E-02   -0.12873E-02  4566   0.897E-01    0.130E+01
DAV:   6    -0.158537330121E+02    0.10908E+01   -0.41293E+01  4568   0.973E+01    0.811E+00
DAV:   7    -0.140290708458E+02    0.18247E+01   -0.83133E+00  4732   0.444E+01    0.654E-01
DAV:   8    -0.140312635866E+02   -0.21927E-02   -0.20692E-01  4732   0.519E+00    0.100E+00
DAV:   9    -0.140119066176E+02    0.19357E-01   -0.96450E-02  4656   0.457E+00    0.111E-01
DAV:  10    -0.140118022207E+02    0.10440E-03   -0.20134E-03  4660   0.599E-01    0.171E-02
DAV:  11    -0.140118008837E+02    0.13370E-05   -0.31072E-05  4524   0.687E-02    0.138E-03
DAV:  12    -0.140118024065E+02   -0.15227E-05   -0.45798E-07  4686   0.809E-03    0.143E-03
DAV:  13    -0.140118034915E+02   -0.10850E-05   -0.13588E-07  4604   0.533E-03    0.196E-04
DAV:  14    -0.140118034880E+02    0.34743E-08   -0.33722E-09  2254   0.718E-04
   1 F= -.14011803E+02 E0= -.14011780E+02  d E =-.474634E-04
