   4   4   0   0
  0.1514370E+02  0.3927329E-09  0.3927329E-09  0.3927329E-09  0.5000000E-15
  1.000000000000000E-004
  CAR 
 unknown system                          
     11.03056227     -6.49367682  301      1.94336677      1.00000000
     -6.494  0.0000E+00  0.0000E+00
     -6.435  0.0000E+00  0.0000E+00
     -6.377  0.0000E+00  0.0000E+00
     -6.318  0.0000E+00  0.0000E+00
     -6.260  0.0000E+00  0.0000E+00
     -6.202  0.0000E+00  0.0000E+00
     -6.143  0.0000E+00  0.0000E+00
     -6.085  0.0000E+00  0.0000E+00
     -6.026  0.0000E+00  0.0000E+00
     -5.968  0.0000E+00  0.0000E+00
     -5.910  0.0000E+00  0.0000E+00
     -5.851  0.0000E+00  0.0000E+00
     -5.793  0.0000E+00  0.0000E+00
     -5.734  0.1451E-08  0.8473E-10
     -5.676  0.1979E-01  0.1156E-02
     -5.617  0.1064E+00  0.7374E-02
     -5.559  0.8898E-01  0.1257E-01
     -5.501  0.1638E+00  0.2214E-01
     -5.442  0.1560E+00  0.3125E-01
     -5.384  0.1189E+00  0.3819E-01
     -5.325  0.4744E+00  0.6590E-01
     -5.267  0.4258E+00  0.9078E-01
     -5.209  0.5087E-01  0.9375E-01
     -5.150  0.7705E-02  0.9420E-01
     -5.092  0.2303E+00  0.1077E+00
     -5.033  0.5941E+00  0.1424E+00
     -4.975  0.4754E+00  0.1701E+00
     -4.916  0.4648E+00  0.1973E+00
     -4.858  0.1395E+00  0.2054E+00
     -4.800  0.1437E+00  0.2138E+00
     -4.741  0.3894E+00  0.2366E+00
     -4.683  0.9232E+00  0.2905E+00
     -4.624  0.1010E-06  0.2905E+00
     -4.566  0.1189E+00  0.2975E+00
     -4.508  0.9460E+00  0.3527E+00
     -4.449  0.6552E+00  0.3910E+00
     -4.391  0.4164E+00  0.4153E+00
     -4.332  0.2209E+00  0.4282E+00
     -4.274  0.4286E+00  0.4533E+00
     -4.216  0.9262E+00  0.5074E+00
     -4.157  0.4482E+00  0.5336E+00
     -4.099  0.6418E-04  0.5336E+00
     -4.040  0.4755E+00  0.5613E+00
     -3.982  0.5935E+00  0.5960E+00
     -3.923  0.1414E+01  0.6786E+00
     -3.865  0.6101E+00  0.7143E+00
     -3.807  0.3736E-01  0.7164E+00
     -3.748  0.1224E+01  0.7879E+00
     -3.690  0.7013E+00  0.8289E+00
     -3.631  0.4521E+00  0.8553E+00
     -3.573  0.5496E-01  0.8585E+00
     -3.515  0.6272E+00  0.8952E+00
     -3.456  0.1016E+01  0.9545E+00
     -3.398  0.6268E+00  0.9911E+00
     -3.339  0.1250E+01  0.1064E+01
     -3.281  0.1702E+00  0.1074E+01
     -3.222  0.1389E+01  0.1155E+01
     -3.164  0.4533E+00  0.1182E+01
     -3.106  0.3188E+00  0.1200E+01
     -3.047  0.1186E+01  0.1270E+01
     -2.989  0.1890E+01  0.1380E+01
     -2.930  0.4103E+00  0.1404E+01
     -2.872  0.8143E+00  0.1452E+01
     -2.814  0.1055E+01  0.1513E+01
     -2.755  0.1142E+01  0.1580E+01
     -2.697  0.4654E-02  0.1580E+01
     -2.638  0.2003E+01  0.1697E+01
     -2.580  0.4966E+00  0.1726E+01
     -2.522  0.1176E+01  0.1795E+01
     -2.463  0.9427E+00  0.1850E+01
     -2.405  0.3155E+01  0.2034E+01
     -2.346  0.1417E+01  0.2117E+01
     -2.288  0.4066E+00  0.2141E+01
     -2.229  0.1446E+01  0.2225E+01
     -2.171  0.1661E+01  0.2322E+01
     -2.113  0.7710E+00  0.2367E+01
     -2.054  0.3406E+01  0.2566E+01
     -1.996  0.3013E+01  0.2742E+01
     -1.937  0.1667E+01  0.2840E+01
     -1.879  0.4496E+01  0.3102E+01
     -1.821  0.3608E+01  0.3313E+01
     -1.762  0.3634E+01  0.3525E+01
     -1.704  0.4298E+01  0.3776E+01
     -1.645  0.7338E+01  0.4205E+01
     -1.587  0.5521E+01  0.4528E+01
     -1.528  0.6369E+01  0.4900E+01
     -1.470  0.6386E+01  0.5273E+01
     -1.412  0.6178E+01  0.5634E+01
     -1.353  0.9050E+01  0.6162E+01
     -1.295  0.1143E+02  0.6830E+01
     -1.236  0.9871E+01  0.7407E+01
     -1.178  0.1409E+02  0.8230E+01
     -1.120  0.1421E+02  0.9060E+01
     -1.061  0.1094E+02  0.9699E+01
     -1.003  0.9420E+01  0.1025E+02
     -0.944  0.1483E+02  0.1112E+02
     -0.886  0.1224E+02  0.1183E+02
     -0.828  0.9809E+01  0.1240E+02
     -0.769  0.1736E+02  0.1342E+02
     -0.711  0.1436E+02  0.1426E+02
     -0.652  0.1689E+02  0.1524E+02
     -0.594  0.1849E+02  0.1632E+02
     -0.535  0.2042E+02  0.1752E+02
     -0.477  0.2290E+02  0.1885E+02
     -0.419  0.2412E+02  0.2026E+02
     -0.360  0.2600E+02  0.2178E+02
     -0.302  0.2749E+02  0.2339E+02
     -0.243  0.2007E+02  0.2456E+02
     -0.185  0.1540E+02  0.2546E+02
     -0.127  0.1326E+02  0.2623E+02
     -0.068  0.1704E+02  0.2723E+02
     -0.010  0.2103E+02  0.2846E+02
      0.049  0.2164E+02  0.2972E+02
      0.107  0.2173E+02  0.3099E+02
      0.166  0.2234E+02  0.3230E+02
      0.224  0.1890E+02  0.3340E+02
      0.282  0.1747E+02  0.3442E+02
      0.341  0.2179E+02  0.3569E+02
      0.399  0.2349E+02  0.3707E+02
      0.458  0.3004E+02  0.3882E+02
      0.516  0.3311E+02  0.4076E+02
      0.574  0.1751E+02  0.4178E+02
      0.633  0.3181E+01  0.4196E+02
      0.691  0.1047E+01  0.4203E+02
      0.750  0.9017E+00  0.4208E+02
      0.808  0.3855E+01  0.4230E+02
      0.867  0.2040E+01  0.4242E+02
      0.925  0.1284E+01  0.4250E+02
      0.983  0.6122E+00  0.4253E+02
      1.042  0.1012E+01  0.4259E+02
      1.100  0.3421E+01  0.4279E+02
      1.159  0.1059E+01  0.4285E+02
      1.217  0.3445E+01  0.4306E+02
      1.275  0.2257E+00  0.4307E+02
      1.334  0.1449E+01  0.4315E+02
      1.392  0.1404E+01  0.4323E+02
      1.451  0.4869E-06  0.4323E+02
      1.509  0.1479E+01  0.4332E+02
      1.567  0.2210E+01  0.4345E+02
      1.626  0.3104E+01  0.4363E+02
      1.684  0.4636E+00  0.4366E+02
      1.743  0.2205E+01  0.4379E+02
      1.801  0.1815E+01  0.4389E+02
      1.860  0.4516E+00  0.4392E+02
      1.918  0.9536E+00  0.4398E+02
      1.976  0.9431E+00  0.4403E+02
      2.035  0.5567E+00  0.4406E+02
      2.093  0.1008E+01  0.4412E+02
      2.152  0.2838E+01  0.4429E+02
      2.210  0.1454E+01  0.4437E+02
      2.268  0.2219E+01  0.4450E+02
      2.327  0.1450E+01  0.4459E+02
      2.385  0.1535E+01  0.4468E+02
      2.444  0.9505E+00  0.4473E+02
      2.502  0.1199E-11  0.4473E+02
      2.561  0.1028E+01  0.4479E+02
      2.619  0.1350E+01  0.4487E+02
      2.677  0.2137E+01  0.4500E+02
      2.736  0.1192E+01  0.4507E+02
      2.794  0.7620E-01  0.4507E+02
      2.853  0.1984E+01  0.4519E+02
      2.911  0.1464E+01  0.4527E+02
      2.969  0.1093E+01  0.4534E+02
      3.028  0.9848E+00  0.4539E+02
      3.086  0.1551E+01  0.4548E+02
      3.145  0.1314E+01  0.4556E+02
      3.203  0.1277E+01  0.4564E+02
      3.261  0.1426E+01  0.4572E+02
      3.320  0.1230E+00  0.4573E+02
      3.378  0.4751E+00  0.4575E+02
      3.437  0.2376E+01  0.4589E+02
      3.495  0.4279E+00  0.4592E+02
      3.554  0.5244E+00  0.4595E+02
      3.612  0.1311E+01  0.4602E+02
      3.670  0.7132E+00  0.4607E+02
      3.729  0.1930E+01  0.4618E+02
      3.787  0.2528E+01  0.4633E+02
      3.846  0.4725E+00  0.4635E+02
      3.904  0.6703E+00  0.4639E+02
      3.962  0.1920E+01  0.4651E+02
      4.021  0.5011E+00  0.4653E+02
      4.079  0.1415E+01  0.4662E+02
      4.138  0.1239E-01  0.4662E+02
      4.196  0.7101E+00  0.4666E+02
      4.255  0.9133E-01  0.4666E+02
      4.313  0.2096E+01  0.4679E+02
      4.371  0.6690E+00  0.4683E+02
      4.430  0.1423E+01  0.4691E+02
      4.488  0.3639E-02  0.4691E+02
      4.547  0.2726E-01  0.4691E+02
      4.605  0.2935E+01  0.4708E+02
      4.663  0.1121E+01  0.4715E+02
      4.722  0.2569E+00  0.4716E+02
      4.780  0.1837E+01  0.4727E+02
      4.839  0.1358E+01  0.4735E+02
      4.897  0.3146E+00  0.4737E+02
      4.955  0.1547E+01  0.4746E+02
      5.014  0.2266E+01  0.4759E+02
      5.072  0.1164E+00  0.4760E+02
      5.131  0.2309E+01  0.4773E+02
      5.189  0.1956E+01  0.4785E+02
      5.248  0.9207E+00  0.4790E+02
      5.306  0.9831E+00  0.4796E+02
      5.364  0.4791E+00  0.4799E+02
      5.423  0.7880E+00  0.4803E+02
      5.481  0.1294E+01  0.4811E+02
      5.540  0.8018E+00  0.4815E+02
      5.598  0.1411E+01  0.4824E+02
      5.656  0.2610E+01  0.4839E+02
      5.715  0.1179E+01  0.4846E+02
      5.773  0.2370E+00  0.4847E+02
      5.832  0.1903E+01  0.4858E+02
      5.890  0.1388E+01  0.4866E+02
      5.949  0.1423E+01  0.4875E+02
      6.007  0.9711E+00  0.4880E+02
      6.065  0.1168E+01  0.4887E+02
      6.124  0.8331E+00  0.4892E+02
      6.182  0.2416E+00  0.4894E+02
      6.241  0.9341E+00  0.4899E+02
      6.299  0.7583E+00  0.4903E+02
      6.357  0.2113E+01  0.4916E+02
      6.416  0.1422E+01  0.4924E+02
      6.474  0.1525E+01  0.4933E+02
      6.533  0.6224E+00  0.4937E+02
      6.591  0.2366E+00  0.4938E+02
      6.650  0.4931E+00  0.4941E+02
      6.708  0.1031E+01  0.4947E+02
      6.766  0.1290E+01  0.4954E+02
      6.825  0.2719E+00  0.4956E+02
      6.883  0.1406E+01  0.4964E+02
      6.942  0.1024E+01  0.4970E+02
      7.000  0.1154E+01  0.4977E+02
      7.058  0.8548E+00  0.4982E+02
      7.117  0.1405E+01  0.4990E+02
      7.175  0.7880E+00  0.4995E+02
      7.234  0.9147E+00  0.5000E+02
      7.292  0.1199E+01  0.5007E+02
      7.350  0.3175E+00  0.5009E+02
      7.409  0.1308E+01  0.5017E+02
      7.467  0.1323E+00  0.5017E+02
      7.526  0.1231E+01  0.5025E+02
      7.584  0.1594E+00  0.5025E+02
      7.643  0.3413E+01  0.5045E+02
      7.701  0.6765E+00  0.5049E+02
      7.759  0.4365E+00  0.5052E+02
      7.818  0.1306E+01  0.5060E+02
      7.876  0.4739E+00  0.5062E+02
      7.935  0.2277E+00  0.5064E+02
      7.993  0.7655E+00  0.5068E+02
      8.051  0.9275E+00  0.5074E+02
      8.110  0.1708E+01  0.5084E+02
      8.168  0.8843E+00  0.5089E+02
      8.227  0.8863E+00  0.5094E+02
      8.285  0.9393E+00  0.5099E+02
      8.344  0.3085E+01  0.5117E+02
      8.402  0.1111E+01  0.5124E+02
      8.460  0.9462E+00  0.5129E+02
      8.519  0.1346E+01  0.5137E+02
      8.577  0.1395E+01  0.5145E+02
      8.636  0.1777E+01  0.5156E+02
      8.694  0.3674E+00  0.5158E+02
      8.752  0.6021E+00  0.5161E+02
      8.811  0.1170E+01  0.5168E+02
      8.869  0.4754E+00  0.5171E+02
      8.928  0.3930E-09  0.5171E+02
      8.986  0.9349E+00  0.5177E+02
      9.044  0.5966E+00  0.5180E+02
      9.103  0.1328E+00  0.5181E+02
      9.161  0.3072E+00  0.5183E+02
      9.220  0.6297E+00  0.5186E+02
      9.278  0.2519E+00  0.5188E+02
      9.337  0.4699E+00  0.5190E+02
      9.395  0.7909E-01  0.5191E+02
      9.453  0.4020E+00  0.5193E+02
      9.512  0.7763E+00  0.5198E+02
      9.570  0.1623E-01  0.5198E+02
      9.629  0.0000E+00  0.5198E+02
      9.687  0.1171E-01  0.5198E+02
      9.745  0.2261E+00  0.5199E+02
      9.804  0.0000E+00  0.5199E+02
      9.862  0.0000E+00  0.5199E+02
      9.921  0.0000E+00  0.5199E+02
      9.979  0.0000E+00  0.5199E+02
     10.038  0.0000E+00  0.5199E+02
     10.096  0.0000E+00  0.5199E+02
     10.154  0.0000E+00  0.5199E+02
     10.213  0.1584E-03  0.5199E+02
     10.271  0.1187E+00  0.5200E+02
     10.330  0.0000E+00  0.5200E+02
     10.388  0.0000E+00  0.5200E+02
     10.446  0.0000E+00  0.5200E+02
     10.505  0.0000E+00  0.5200E+02
     10.563  0.0000E+00  0.5200E+02
     10.622  0.0000E+00  0.5200E+02
     10.680  0.0000E+00  0.5200E+02
     10.738  0.0000E+00  0.5200E+02
     10.797  0.0000E+00  0.5200E+02
     10.855  0.0000E+00  0.5200E+02
     10.914  0.0000E+00  0.5200E+02
     10.972  0.0000E+00  0.5200E+02
     11.031  0.0000E+00  0.5200E+02
