    4    4    1    1
  0.1514370E+02  0.3927329E-09  0.3927329E-09  0.3927329E-09  0.5000000E-15
  1.000000000000000E-004
  CAR 
 unknown system                          
   44   84   26
 
  0.0000000E+00  0.0000000E+00  0.0000000E+00  0.5787037E-03
   1       -5.6971
   2       -1.7217
   3       -1.7217
   4       -1.7217
   5       -1.4083
   6       -1.4083
   7       -1.4083
   8       -0.4686
   9       -0.4686
  10       -0.4686
  11        0.0932
  12        0.0932
  13        0.4683
  14        0.4683
  15        0.4683
  16        0.5730
  17        0.5730
  18        0.5730
  19        0.5730
  20        0.5730
  21        0.5730
  22        3.6093
  23        3.6093
  24        3.6093
  25        7.4518
  26        7.4518
 
  0.8333333E-01  0.0000000E+00  0.0000000E+00  0.3472222E-02
   1       -5.6263
   2       -1.7253
   3       -1.6926
   4       -1.6926
   5       -1.3928
   6       -1.3917
   7       -1.3917
   8       -0.4850
   9       -0.4547
  10       -0.4547
  11        0.0782
  12        0.0995
  13        0.4490
  14        0.4490
  15        0.4618
  16        0.4857
  17        0.4857
  18        0.5500
  19        0.5500
  20        0.5730
  21        0.5730
  22        3.0715
  23        3.7628
  24        3.7628
  25        7.4843
  26        7.4843
 
  0.1666667E+00  0.0000000E+00  0.0000000E+00  0.3472222E-02
   1       -5.4151
   2       -1.7505
   3       -1.6096
   4       -1.6096
   5       -1.3472
   6       -1.3416
   7       -1.3416
   8       -0.5333
   9       -0.4135
  10       -0.4135
  11        0.0352
  12        0.1179
  13        0.2667
  14        0.2667
  15        0.3930
  16        0.3930
  17        0.4428
  18        0.4841
  19        0.4841
  20        0.5731
  21        0.5731
  22        2.0322
  23        4.1800
  24        4.1800
  25        7.5843
  26        7.5843
 
  0.2500000E+00  0.0000000E+00  0.0000000E+00  0.3472222E-02
   1       -5.0672
   2       -1.8496
   3       -1.4858
   4       -1.4858
   5       -1.2743
   6       -1.2571
   7       -1.2571
   8       -0.6098
   9       -0.3460
  10       -0.3460
  11       -0.0305
  12       -0.0095
  13       -0.0095
  14        0.1474
  15        0.3062
  16        0.3062
  17        0.3833
  18        0.3833
  19        0.4126
  20        0.5732
  21        0.5732
  22        1.0208
  23        4.7854
  24        4.7854
  25        7.7584
  26        7.7584
 
  0.3333333E+00  0.0000000E+00  0.0000000E+00  0.3472222E-02
   1       -4.5906
   2       -2.1290
   3       -1.3455
   4       -1.3455
   5       -1.1788
   6       -1.1369
   7       -1.1369
   8       -0.7089
   9       -0.2918
  10       -0.2918
  11       -0.2544
  12       -0.2544
  13       -0.1081
  14        0.1858
  15        0.2031
  16        0.2031
  17        0.2588
  18        0.2588
  19        0.2749
  20        0.3734
  21        0.5734
  22        0.5734
  23        5.5258
  24        5.5258
  25        8.0160
  26        8.0160
 
  0.4166667E+00  0.0000000E+00  0.0000000E+00  0.3472222E-02
   1       -4.0008
   2       -2.6591
   3       -1.2271
   4       -1.2271
   5       -1.0668
   6       -0.9797
   7       -0.9797
   8       -0.8235
   9       -0.5543
  10       -0.5543
  11       -0.1778
  12       -0.1420
  13       -0.1420
  14       -0.0994
  15        0.1121
  16        0.1121
  17        0.1227
  18        0.1227
  19        0.2308
  20        0.3279
  21        0.5734
  22        0.5734
  23        6.3729
  24        6.3729
  25        8.3322
  26        8.3492
 
  0.5000000E+00  0.0000000E+00  0.0000000E+00  0.1736111E-02
   1       -3.3316
   2       -3.3316
   3       -1.1790
   4       -1.1790
   5       -0.9456
   6       -0.9456
   7       -0.7851
   8       -0.7851
   9       -0.7851
  10       -0.7851
  11       -0.2017
  12       -0.2017
  13       -0.0139
  14       -0.0139
  15       -0.0139
  16       -0.0139
  17        0.0740
  18        0.0740
  19        0.2793
  20        0.2793
  21        0.5735
  22        0.5735
  23        7.3109
  24        7.3109
  25        7.3109
  26        7.3109
 
  0.8333333E-01  0.8333333E-01  0.0000000E+00  0.6944444E-02
   1       -5.5558
   2       -1.6954
   3       -1.6954
   4       -1.6644
   5       -1.3765
   6       -1.3765
   7       -1.3756
   8       -0.4938
   9       -0.4482
  10       -0.4422
  11        0.0743
  12        0.0961
  13        0.4207
  14        0.4238
  15        0.4238
  16        0.4306
  17        0.4774
  18        0.4774
  19        0.5500
  20        0.5500
  21        0.5581
  22        3.2185
  23        3.2185
  24        3.9091
  25        7.5175
  26        8.1822
 
  0.1666667E+00  0.8333333E-01  0.0000000E+00  0.1388889E-01
   1       -5.3453
   2       -1.7179
   3       -1.6100
   4       -1.5840
   5       -1.3318
   6       -1.3273
   7       -1.3268
   8       -0.5371
   9       -0.4110
  10       -0.4053
  11        0.0371
  12        0.1131
  13        0.2199
  14        0.2249
  15        0.3461
  16        0.3768
  17        0.4008
  18        0.4540
  19        0.4839
  20        0.5499
  21        0.5501
  22        2.1850
  23        3.6087
  24        4.3114
  25        7.6193
  26        8.3130
 
  0.2500000E+00  0.8333333E-01  0.0000000E+00  0.1388889E-01
   1       -4.9987
   2       -1.8121
   3       -1.4822
   4       -1.4638
   5       -1.2604
   6       -1.2453
   7       -1.2444
   8       -0.6108
   9       -0.3470
  10       -0.3448
  11       -0.0554
  12       -0.0346
  13       -0.0230
  14        0.1460
  15        0.2086
  16        0.2933
  17        0.3130
  18        0.3829
  19        0.4153
  20        0.5483
  21        0.5497
  22        1.2129
  23        4.1595
  24        4.9023
  25        7.7960
  26        8.5383
 
  0.3333333E+00  0.8333333E-01  0.0000000E+00  0.1388889E-01
   1       -4.5242
   2       -2.0844
   3       -1.3364
   4       -1.3256
   5       -1.1668
   6       -1.1322
   7       -1.1266
   8       -0.7073
   9       -0.3336
  10       -0.3047
  11       -0.2795
  12       -0.2538
  13       -0.0815
  14       -0.0083
  15        0.1898
  16        0.1940
  17        0.2097
  18        0.2584
  19        0.3493
  20        0.5480
  21        0.5494
  22        0.5811
  23        4.8189
  24        5.6316
  25        8.0337
  26        8.3149
 
  0.4166667E+00  0.8333333E-01  0.0000000E+00  0.1388889E-01
   1       -3.9375
   2       -2.6068
   3       -1.2114
   4       -1.2053
   5       -1.0572
   6       -0.9892
   7       -0.9729
   8       -0.8193
   9       -0.5891
  10       -0.5584
  11       -0.2556
  12       -0.2088
  13       -0.1419
  14       -0.0692
  15        0.1075
  16        0.1169
  17        0.1223
  18        0.1977
  19        0.2417
  20        0.3728
  21        0.5483
  22        0.5491
  23        5.5629
  24        6.4705
  25        7.2835
  26        8.4183
 
  0.5000000E+00  0.8333333E-01  0.0000000E+00  0.6944444E-02
   1       -3.2728
   2       -3.2728
   3       -1.1576
   4       -1.1576
   5       -0.9386
   6       -0.9386
   7       -0.8097
   8       -0.8097
   9       -0.7829
  10       -0.7829
  11       -0.2696
  12       -0.2696
  13       -0.0142
  14       -0.0142
  15        0.0403
  16        0.0403
  17        0.0746
  18        0.0746
  19        0.3002
  20        0.3002
  21        0.5487
  22        0.5487
  23        6.3843
  24        6.3843
  25        7.4027
  26        7.4027
 
  0.1666667E+00  0.1666667E+00  0.0000000E+00  0.6944444E-02
   1       -5.1371
   2       -1.6246
   3       -1.6246
   4       -1.5112
   5       -1.2854
   6       -1.2854
   7       -1.2822
   8       -0.5622
   9       -0.3891
  10       -0.3817
  11        0.0238
  12        0.0915
  13        0.1038
  14        0.1038
  15        0.1193
  16        0.3292
  17        0.3989
  18        0.3989
  19        0.4833
  20        0.4833
  21        0.5136
  22        2.5629
  23        2.5629
  24        4.6806
  25        7.7263
  26        9.2265
 
  0.2500000E+00  0.1666667E+00  0.0000000E+00  0.1388889E-01
   1       -4.7947
   2       -1.7043
   3       -1.4841
   4       -1.4026
   5       -1.2185
   6       -1.2085
   7       -1.2073
   8       -0.6209
   9       -0.3471
  10       -0.3335
  11       -0.1744
  12       -0.1137
  13       -0.0654
  14       -0.0183
  15        0.1582
  16        0.2548
  17        0.3159
  18        0.3692
  19        0.3820
  20        0.4825
  21        0.4929
  22        1.5968
  23        3.0670
  24        5.2374
  25        7.8758
  26        8.0621
 
  0.3333333E+00  0.1666667E+00  0.0000000E+00  0.1388889E-01
   1       -4.3266
   2       -1.9557
   3       -1.3209
   4       -1.2731
   5       -1.1309
   6       -1.1139
   7       -1.0967
   8       -0.7061
   9       -0.4416
  10       -0.3454
  11       -0.3198
  12       -0.2540
  13       -0.2481
  14       -0.0533
  15        0.1661
  16        0.2153
  17        0.2192
  18        0.2573
  19        0.3041
  20        0.4815
  21        0.4840
  22        0.9213
  23        3.6586
  24        5.9386
  25        6.9224
  26        8.2062
 
  0.4166667E+00  0.1666667E+00  0.0000000E+00  0.1388889E-01
   1       -3.7498
   2       -2.4544
   3       -1.1740
   4       -1.1453
   5       -1.0286
   6       -1.0140
   7       -0.9531
   8       -0.8082
   9       -0.6798
  10       -0.5720
  11       -0.3662
  12       -0.3344
  13       -0.1394
  14       -0.0264
  15        0.0911
  16        0.1208
  17        0.1217
  18        0.1962
  19        0.2972
  20        0.4805
  21        0.4807
  22        0.5668
  23        4.3309
  24        5.9517
  25        6.7560
  26        8.6058
 
  0.5000000E+00  0.1666667E+00  0.0000000E+00  0.6944444E-02
   1       -3.0998
   2       -3.0998
   3       -1.0976
   4       -1.0976
   5       -0.9184
   6       -0.9184
   7       -0.8777
   8       -0.8777
   9       -0.7772
  10       -0.7772
  11       -0.3727
  12       -0.3727
  13       -0.0137
  14       -0.0137
  15        0.0694
  16        0.0694
  17        0.0702
  18        0.0702
  19        0.3991
  20        0.3991
  21        0.4800
  22        0.4800
  23        5.0912
  24        5.0912
  25        7.6727
  26        7.6727
 
  0.2500000E+00  0.2500000E+00  0.0000000E+00  0.6944444E-02
   1       -4.4598
   2       -1.5409
   3       -1.5409
   4       -1.3146
   5       -1.1482
   6       -1.1482
   7       -1.1458
   8       -0.6538
   9       -0.3445
  10       -0.3323
  11       -0.3323
  12       -0.2965
  13       -0.2471
  14       -0.0416
  15        0.1931
  16        0.2108
  17        0.2925
  18        0.2925
  19        0.3807
  20        0.3807
  21        0.4411
  22        2.0590
  23        2.0590
  24        5.7555
  25        6.7866
  26        8.1297
 
  0.3333333E+00  0.2500000E+00  0.0000000E+00  0.1388889E-01
   1       -4.0038
   2       -1.7598
   3       -1.3481
   4       -1.2114
   5       -1.0714
   6       -1.0682
   7       -1.0494
   8       -0.7142
   9       -0.5709
  10       -0.4658
  11       -0.4172
  12       -0.3516
  13       -0.2268
  14       -0.0676
  15        0.1183
  16        0.1971
  17        0.2318
  18        0.2564
  19        0.2992
  20        0.3796
  21        0.4080
  22        1.3030
  23        2.5890
  24        5.6935
  25        6.4221
  26        8.4311
 
  0.4166667E+00  0.2500000E+00  0.0000000E+00  0.1388889E-01
   1       -3.4458
   2       -2.2176
   3       -1.1653
   4       -1.0933
   5       -1.0142
   6       -0.9822
   7       -0.9227
   8       -0.7954
   9       -0.7760
  10       -0.5981
  11       -0.5027
  12       -0.3931
  13       -0.1284
  14       -0.0476
  15        0.0567
  16        0.1039
  17        0.1226
  18        0.1357
  19        0.3796
  20        0.3904
  21        0.4164
  22        0.8372
  23        3.1988
  24        4.7351
  25        7.2117
  26        8.8446
 
  0.5000000E+00  0.2500000E+00  0.0000000E+00  0.6944444E-02
   1       -2.8241
   2       -2.8241
   3       -1.0440
   4       -1.0440
   5       -0.9468
   6       -0.9468
   7       -0.8876
   8       -0.8876
   9       -0.7704
  10       -0.7704
  11       -0.4592
  12       -0.4592
  13       -0.0090
  14       -0.0090
  15        0.0295
  16        0.0295
  17        0.0474
  18        0.0474
  19        0.3824
  20        0.3824
  21        0.5773
  22        0.5773
  23        3.9078
  24        3.9078
  25        8.1071
  26        8.1071
 
  0.3333333E+00  0.3333333E+00  0.0000000E+00  0.6944444E-02
   1       -3.5678
   2       -1.5279
   3       -1.5279
   4       -1.1649
   5       -0.9919
   6       -0.9889
   7       -0.9889
   8       -0.7410
   9       -0.6403
  10       -0.6403
  11       -0.5188
  12       -0.3815
  13       -0.1787
  14       -0.1000
  15        0.0564
  16        0.1419
  17        0.1419
  18        0.2571
  19        0.2571
  20        0.3434
  21        0.4222
  22        1.7421
  23        1.7421
  24        4.6079
  25        7.0553
  26        8.7629
 
  0.4166667E+00  0.3333333E+00  0.0000000E+00  0.1388889E-01
   1       -3.0415
   2       -1.9270
   3       -1.3098
   4       -1.1394
   5       -0.9205
   6       -0.9180
   7       -0.8859
   8       -0.7885
   9       -0.7731
  10       -0.6402
  11       -0.6074
  12       -0.4360
  13       -0.0998
  14       -0.0986
  15        0.0031
  16        0.0532
  17        0.0537
  18        0.1281
  19        0.2619
  20        0.2996
  21        0.5838
  22        1.1637
  23        2.2643
  24        3.6769
  25        7.8163
  26        9.2112
 
  0.5000000E+00  0.3333333E+00  0.0000000E+00  0.6944444E-02
   1       -2.4685
   2       -2.4685
   3       -1.1704
   4       -1.1704
   5       -0.8594
   6       -0.8594
   7       -0.8511
   8       -0.8511
   9       -0.7668
  10       -0.7668
  11       -0.5219
  12       -0.5219
  13       -0.0397
  14       -0.0397
  15       -0.0026
  16       -0.0026
  17        0.0055
  18        0.0055
  19        0.2743
  20        0.2743
  21        0.8088
  22        0.8088
  23        2.9003
  24        2.9003
  25        8.6889
  26        8.6889
 
  0.4166667E+00  0.4166667E+00  0.0000000E+00  0.6944444E-02
   1       -2.5669
   2       -1.6316
   3       -1.6316
   4       -1.2322
   5       -0.8479
   6       -0.8479
   7       -0.8153
   8       -0.7943
   9       -0.6993
  10       -0.6807
  11       -0.6807
  12       -0.4863
  13       -0.1302
  14       -0.0527
  15       -0.0455
  16       -0.0263
  17       -0.0263
  18        0.1431
  19        0.1431
  20        0.2250
  21        0.8016
  22        1.5712
  23        1.5712
  24        2.7975
  25        8.5513
  26        9.6987
 
  0.5000000E+00  0.4166667E+00  0.0000000E+00  0.6944444E-02
   1       -2.0733
   2       -2.0733
   3       -1.3901
   4       -1.3901
   5       -0.8153
   6       -0.8153
   7       -0.7712
   8       -0.7712
   9       -0.7392
  10       -0.7392
  11       -0.5715
  12       -0.5715
  13       -0.1022
  14       -0.1022
  15       -0.0701
  16       -0.0701
  17        0.0371
  18        0.0371
  19        0.1734
  20        0.1734
  21        1.1070
  22        1.1070
  23        2.1021
  24        2.1021
  25        9.4022
  26        9.4022
 
  0.5000000E+00  0.5000000E+00  0.0000000E+00  0.1736111E-02
   1       -1.6960
   2       -1.6960
   3       -1.6960
   4       -1.6960
   5       -0.7872
   6       -0.7872
   7       -0.7872
   8       -0.7872
   9       -0.6374
  10       -0.6374
  11       -0.6374
  12       -0.6374
  13       -0.1166
  14       -0.1166
  15       -0.1166
  16       -0.1166
  17        0.0925
  18        0.0925
  19        0.0925
  20        0.0925
  21        1.5175
  22        1.5175
  23        1.5175
  24        1.5175
  25       10.2340
  26       10.2340
 
  0.8333333E-01  0.8333333E-01  0.8333333E-01  0.4629630E-02
   1       -5.4855
   2       -1.6666
   3       -1.6666
   4       -1.6666
   5       -1.3606
   6       -1.3606
   7       -1.3606
   8       -0.5018
   9       -0.4366
  10       -0.4366
  11        0.0823
  12        0.0823
  13        0.3895
  14        0.3895
  15        0.3895
  16        0.4136
  17        0.4136
  18        0.4136
  19        0.5471
  20        0.5471
  21        0.5471
  22        3.3566
  23        3.3566
  24        3.3566
  25        8.2255
  26        8.2255
 
  0.1666667E+00  0.8333333E-01  0.8333333E-01  0.1388889E-01
   1       -5.2758
   2       -1.6867
   3       -1.5841
   4       -1.5841
   5       -1.3166
   6       -1.3127
   7       -1.3127
   8       -0.5408
   9       -0.4049
  10       -0.4020
  11        0.0430
  12        0.1056
  13        0.1838
  14        0.1838
  15        0.2946
  16        0.3624
  17        0.3660
  18        0.3660
  19        0.5175
  20        0.5399
  21        0.5399
  22        2.3217
  23        3.7292
  24        3.7292
  25        8.3576
  26        8.3576
 
  0.2500000E+00  0.8333333E-01  0.8333333E-01  0.1388889E-01
   1       -4.9306
   2       -1.7766
   3       -1.4607
   4       -1.4607
   5       -1.2464
   6       -1.2325
   7       -1.2325
   8       -0.6113
   9       -0.3482
  10       -0.3450
  11       -0.0772
  12       -0.0772
  13       -0.0120
  14        0.1294
  15        0.1427
  16        0.2799
  17        0.2895
  18        0.2895
  19        0.4752
  20        0.5340
  21        0.5340
  22        1.3566
  23        4.2639
  24        4.2639
  25        8.5790
  26        8.5790
 
  0.3333333E+00  0.8333333E-01  0.8333333E-01  0.1388889E-01
   1       -4.4583
   2       -2.0422
   3       -1.3181
   4       -1.3181
   5       -1.1544
   6       -1.1221
   7       -1.1221
   8       -0.7049
   9       -0.3427
  10       -0.3427
  11       -0.2901
  12       -0.2670
  13       -0.0961
  14       -0.0532
  15        0.1745
  16        0.1908
  17        0.1940
  18        0.1940
  19        0.4242
  20        0.5307
  21        0.5307
  22        0.6941
  23        4.9108
  24        4.9108
  25        8.3336
  26        8.3336
 
  0.4166667E+00  0.8333333E-01  0.8333333E-01  0.1388889E-01
   1       -3.8750
   2       -2.5564
   3       -1.1907
   4       -1.1907
   5       -1.0467
   6       -0.9873
   7       -0.9873
   8       -0.8139
   9       -0.5853
  10       -0.5853
  11       -0.2844
  12       -0.2662
  13       -0.1707
  14       -0.0109
  15        0.0576
  16        0.1075
  17        0.1075
  18        0.2467
  19        0.3366
  20        0.3670
  21        0.5291
  22        0.5291
  23        5.6452
  24        5.6452
  25        7.3639
  26        7.3639
 
  0.5000000E+00  0.8333333E-01  0.8333333E-01  0.6944444E-02
   1       -3.2154
   2       -3.2154
   3       -1.1358
   4       -1.1358
   5       -0.9306
   6       -0.9306
   7       -0.8642
   8       -0.8642
   9       -0.7490
  10       -0.7490
  11       -0.3073
  12       -0.3073
  13       -0.0604
  14       -0.0604
  15        0.0707
  16        0.0707
  17        0.1251
  18        0.1251
  19        0.3067
  20        0.3067
  21        0.5286
  22        0.5286
  23        6.3955
  24        6.3955
  25        6.5325
  26        6.5325
 
  0.1666667E+00  0.1666667E+00  0.8333333E-01  0.1388889E-01
   1       -5.0686
   2       -1.5978
   3       -1.5978
   4       -1.5107
   5       -1.2709
   6       -1.2709
   7       -1.2683
   8       -0.5641
   9       -0.3855
  10       -0.3812
  11        0.0381
  12        0.0551
  13        0.0712
  14        0.0712
  15        0.1080
  16        0.2999
  17        0.3214
  18        0.3214
  19        0.5137
  20        0.5137
  21        0.5191
  22        2.6734
  23        2.6734
  24        4.0639
  25        8.4872
  26        9.3205
 
  0.2500000E+00  0.1666667E+00  0.8333333E-01  0.2777778E-01
   1       -4.7279
   2       -1.6754
   3       -1.4646
   4       -1.4017
   5       -1.2039
   6       -1.1950
   7       -1.1943
   8       -0.6191
   9       -0.3486
  10       -0.3387
  11       -0.1903
  12       -0.1484
  13       -0.0988
  14        0.0018
  15        0.1501
  16        0.2295
  17        0.2387
  18        0.2629
  19        0.4745
  20        0.4973
  21        0.4984
  22        1.6945
  23        3.1581
  24        4.5600
  25        8.0750
  26        8.7726
 
  0.3333333E+00  0.1666667E+00  0.8333333E-01  0.2777778E-01
   1       -4.2626
   2       -1.9215
   3       -1.3095
   4       -1.2721
   5       -1.1165
   6       -1.1025
   7       -1.0904
   8       -0.7006
   9       -0.4408
  10       -0.3724
  11       -0.3240
  12       -0.2830
  13       -0.2712
  14       -0.0157
  15        0.1322
  16        0.1493
  17        0.1807
  18        0.2131
  19        0.4173
  20        0.4838
  21        0.4840
  22        0.9835
  23        3.7368
  24        5.1728
  25        7.0044
  26        8.5824
 
  0.4166667E+00  0.1666667E+00  0.8333333E-01  0.2777778E-01
   1       -3.6902
   2       -2.4107
   3       -1.1620
   4       -1.1381
   5       -1.0194
   6       -1.0150
   7       -0.9792
   8       -0.7993
   9       -0.6506
  10       -0.5786
  11       -0.3855
  12       -0.3434
  13       -0.1886
  14        0.0183
  15        0.0438
  16        0.0778
  17        0.0978
  18        0.2897
  19        0.3260
  20        0.4761
  21        0.4765
  22        0.5735
  23        4.3999
  24        5.8028
  25        6.1190
  26        7.6015
 
  0.5000000E+00  0.1666667E+00  0.8333333E-01  0.1388889E-01
   1       -3.0469
   2       -3.0469
   3       -1.0752
   4       -1.0752
   5       -0.9520
   6       -0.9520
   7       -0.9067
   8       -0.9067
   9       -0.7187
  10       -0.7187
  11       -0.3856
  12       -0.3856
  13       -0.0911
  14       -0.0911
  15        0.0541
  16        0.0541
  17        0.1789
  18        0.1789
  19        0.3874
  20        0.3874
  21        0.4740
  22        0.4740
  23        5.1495
  24        5.1495
  25        6.7167
  26        6.7167
 
  0.2500000E+00  0.2500000E+00  0.8333333E-01  0.1388889E-01
   1       -4.3954
   2       -1.5245
   3       -1.5245
   4       -1.3189
   5       -1.1324
   6       -1.1324
   7       -1.1305
   8       -0.6478
   9       -0.3466
  10       -0.3416
  11       -0.3416
  12       -0.3121
  13       -0.2720
  14       -0.0108
  15        0.1568
  16        0.1966
  17        0.1966
  18        0.2009
  19        0.4468
  20        0.4468
  21        0.4594
  22        2.1333
  23        2.1333
  24        5.0086
  25        6.8711
  26        9.0168
 
  0.3333333E+00  0.2500000E+00  0.8333333E-01  0.2777778E-01
   1       -3.9434
   2       -1.7415
   3       -1.3512
   4       -1.2254
   5       -1.0519
   6       -1.0514
   7       -1.0343
   8       -0.7031
   9       -0.5573
  10       -0.4688
  11       -0.4269
  12       -0.3537
  13       -0.2636
  14       -0.0166
  15        0.0847
  16        0.0982
  17        0.1337
  18        0.2888
  19        0.3783
  20        0.4188
  21        0.4266
  22        1.3478
  23        2.6509
  24        5.4777
  25        5.8922
  26        8.9711
 
  0.4166667E+00  0.2500000E+00  0.8333333E-01  0.2777778E-01
   1       -3.3916
   2       -2.1872
   3       -1.1900
   4       -1.1279
   5       -0.9962
   6       -0.9612
   7       -0.9399
   8       -0.7794
   9       -0.7120
  10       -0.5786
  11       -0.5036
  12       -0.3953
  13       -0.1982
  14       -0.0114
  15        0.0269
  16        0.0387
  17        0.0614
  18        0.2795
  19        0.4020
  20        0.4043
  21        0.4056
  22        0.8460
  23        3.2535
  24        4.7718
  25        6.3293
  26        7.9870
 
  0.5000000E+00  0.2500000E+00  0.8333333E-01  0.1388889E-01
   1       -2.7799
   2       -2.7799
   3       -1.0867
   4       -1.0867
   5       -0.9622
   6       -0.9622
   7       -0.8680
   8       -0.8680
   9       -0.6982
  10       -0.6982
  11       -0.4607
  12       -0.4607
  13       -0.1137
  14       -0.1137
  15        0.0152
  16        0.0152
  17        0.1530
  18        0.1530
  19        0.3976
  20        0.3976
  21        0.5670
  22        0.5670
  23        3.9568
  24        3.9568
  25        7.1051
  26        7.1051
 
  0.3333333E+00  0.3333333E+00  0.8333333E-01  0.1388889E-01
   1       -3.5133
   2       -1.5365
   3       -1.5365
   4       -1.1986
   5       -0.9708
   6       -0.9602
   7       -0.9602
   8       -0.7222
   9       -0.6229
  10       -0.6229
  11       -0.5043
  12       -0.3817
  13       -0.2438
  14       -0.0234
  15        0.0156
  16        0.0509
  17        0.0509
  18        0.3378
  19        0.3378
  20        0.3726
  21        0.4099
  22        1.7794
  23        1.7794
  24        4.6353
  25        6.2005
  26        9.4973
 
  0.4166667E+00  0.3333333E+00  0.8333333E-01  0.2777778E-01
   1       -2.9968
   2       -1.9190
   3       -1.3543
   4       -1.1951
   5       -0.8966
   6       -0.8847
   7       -0.8568
   8       -0.7615
   9       -0.7242
  10       -0.5977
  11       -0.5931
  12       -0.4344
  13       -0.2073
  14       -0.0488
  15       -0.0382
  16       -0.0074
  17        0.0198
  18        0.2347
  19        0.3130
  20        0.3315
  21        0.5705
  22        1.1725
  23        2.2992
  24        3.7124
  25        6.8572
  26        8.5091
 
  0.5000000E+00  0.3333333E+00  0.8333333E-01  0.1388889E-01
   1       -2.4394
   2       -2.4394
   3       -1.2375
   4       -1.2375
   5       -0.8468
   6       -0.8468
   7       -0.8173
   8       -0.8173
   9       -0.6877
  10       -0.6877
  11       -0.5178
  12       -0.5178
  13       -0.1411
  14       -0.1411
  15       -0.0481
  16       -0.0481
  17        0.1176
  18        0.1176
  19        0.3107
  20        0.3107
  21        0.7999
  22        0.7999
  23        2.9356
  24        2.9356
  25        7.6292
  26        7.6292
 
  0.4166667E+00  0.4166667E+00  0.8333333E-01  0.1388889E-01
   1       -2.5380
   2       -1.6555
   3       -1.6555
   4       -1.2961
   5       -0.7966
   6       -0.7896
   7       -0.7896
   8       -0.7537
   9       -0.6651
  10       -0.6651
  11       -0.6281
  12       -0.4814
  13       -0.2085
  14       -0.0984
  15       -0.0943
  16       -0.0943
  17        0.0396
  18        0.2117
  19        0.2117
  20        0.2658
  21        0.7888
  22        1.5827
  23        1.5827
  24        2.8249
  25        7.5101
  26        9.1587
 
  0.5000000E+00  0.4166667E+00  0.8333333E-01  0.1388889E-01
   1       -2.0681
   2       -2.0681
   3       -1.4436
   4       -1.4436
   5       -0.7618
   6       -0.7618
   7       -0.7253
   8       -0.7253
   9       -0.6913
  10       -0.6913
  11       -0.5637
  12       -0.5637
  13       -0.1711
  14       -0.1711
  15       -0.1213
  16       -0.1213
  17        0.1111
  18        0.1111
  19        0.2223
  20        0.2223
  21        1.1010
  22        1.1010
  23        2.1203
  24        2.1203
  25        8.2780
  26        8.2780
 
  0.5000000E+00  0.5000000E+00  0.8333333E-01  0.3472222E-02
   1       -1.7218
   2       -1.7218
   3       -1.7218
   4       -1.7218
   5       -0.7159
   6       -0.7159
   7       -0.7159
   8       -0.7159
   9       -0.6258
  10       -0.6258
  11       -0.6258
  12       -0.6258
  13       -0.1716
  14       -0.1716
  15       -0.1716
  16       -0.1716
  17        0.1488
  18        0.1488
  19        0.1488
  20        0.1488
  21        1.5203
  22        1.5203
  23        1.5203
  24        1.5203
  25        9.0455
  26        9.0455
 
  0.1666667E+00  0.1666667E+00  0.1666667E+00  0.4629630E-02
   1       -4.8643
   2       -1.5225
   3       -1.5225
   4       -1.5225
   5       -1.2267
   6       -1.2267
   7       -1.2267
   8       -0.5783
   9       -0.3726
  10       -0.3726
  11       -0.0509
  12       -0.0509
  13       -0.0509
  14        0.0783
  15        0.0783
  16        0.2275
  17        0.2275
  18        0.2275
  19        0.5222
  20        0.5222
  21        0.5222
  22        2.9751
  23        2.9751
  24        2.9751
  25        9.4975
  26        9.4975
 
  0.2500000E+00  0.1666667E+00  0.1666667E+00  0.1388889E-01
   1       -4.5292
   2       -1.5954
   3       -1.4133
   4       -1.4133
   5       -1.1590
   6       -1.1528
   7       -1.1528
   8       -0.6188
   9       -0.3502
  10       -0.3465
  11       -0.2439
  12       -0.2439
  13       -0.2106
  14        0.0461
  15        0.1332
  16        0.1379
  17        0.1629
  18        0.1629
  19        0.5050
  20        0.5050
  21        0.5088
  22        1.9600
  23        3.4155
  24        3.4155
  25        8.3208
  26        8.3208
 
  0.3333333E+00  0.1666667E+00  0.1666667E+00  0.1388889E-01
   1       -4.0729
   2       -1.8268
   3       -1.2882
   4       -1.2882
   5       -1.0711
   6       -1.0612
   7       -1.0612
   8       -0.6862
   9       -0.4415
  10       -0.4415
  11       -0.3673
  12       -0.3386
  13       -0.3037
  14        0.0304
  15        0.0518
  16        0.0988
  17        0.0988
  18        0.2094
  19        0.4756
  20        0.4807
  21        0.4807
  22        1.1796
  23        3.9590
  24        3.9590
  25        7.2400
  26        7.2400
 
  0.4166667E+00  0.1666667E+00  0.1666667E+00  0.1388889E-01
   1       -3.5146
   2       -2.2868
   3       -1.1618
   4       -1.1618
   5       -0.9975
   6       -0.9975
   7       -0.9720
   8       -0.7726
   9       -0.5912
  10       -0.5912
  11       -0.4387
  12       -0.3697
  13       -0.2426
  14       -0.0712
  15        0.0364
  16        0.0364
  17        0.1449
  18        0.2854
  19        0.4243
  20        0.4626
  21        0.4626
  22        0.6627
  23        4.5822
  24        4.5822
  25        6.2935
  26        6.2935
 
  0.5000000E+00  0.1666667E+00  0.1666667E+00  0.6944444E-02
   1       -2.8929
   2       -2.8929
   3       -1.0753
   4       -1.0753
   5       -1.0098
   6       -1.0098
   7       -0.8701
   8       -0.8701
   9       -0.6433
  10       -0.6433
  11       -0.4211
  12       -0.4211