  32  32   0   0
  0.1202155E+02  0.7272832E-09  0.7272832E-09  0.7272832E-09  0.5000000E-15
  1.000000000000000E-004
  CAR 
 unknown system                          
     14.64299292     -6.53634098  301      3.63908177      1.00000000
     -6.536  0.0000E+00  0.0000E+00
     -6.466  0.0000E+00  0.0000E+00
     -6.395  0.0000E+00  0.0000E+00
     -6.325  0.0000E+00  0.0000E+00
     -6.254  0.0000E+00  0.0000E+00
     -6.183  0.0000E+00  0.0000E+00
     -6.113  0.0000E+00  0.0000E+00
     -6.042  0.0000E+00  0.0000E+00
     -5.972  0.0000E+00  0.0000E+00
     -5.901  0.0000E+00  0.0000E+00
     -5.830  0.0000E+00  0.0000E+00
     -5.760  0.0000E+00  0.0000E+00
     -5.689  0.0000E+00  0.0000E+00
     -5.619  0.8693E-11  0.6137E-12
     -5.548  0.8258E-01  0.5830E-02
     -5.477  0.4957E+00  0.4082E-01
     -5.407  0.9975E+00  0.1112E+00
     -5.336  0.7369E+00  0.1633E+00
     -5.266  0.1750E+01  0.2868E+00
     -5.195  0.2571E+01  0.4683E+00
     -5.124  0.1412E-06  0.4723E+00
     -5.054  0.9915E+00  0.5423E+00
     -4.983  0.2510E+01  0.7195E+00
     -4.913  0.2541E+01  0.8989E+00
     -4.842  0.1978E+01  0.1039E+01
     -4.771  0.2049E+01  0.1183E+01
     -4.701  0.3964E+01  0.1464E+01
     -4.630  0.3586E-02  0.1464E+01
     -4.560  0.1804E+01  0.1591E+01
     -4.489  0.5281E+01  0.1964E+01
     -4.418  0.2326E+01  0.2128E+01
     -4.348  0.1985E+01  0.2268E+01
     -4.277  0.4432E+01  0.2581E+01
     -4.207  0.1512E+01  0.2688E+01
     -4.136  0.1979E+01  0.2828E+01
     -4.065  0.2507E+01  0.3005E+01
     -3.995  0.6379E+01  0.3455E+01
     -3.924  0.2181E+01  0.3609E+01
     -3.854  0.5901E+01  0.4026E+01
     -3.783  0.3964E+01  0.4309E+01
     -3.712  0.3053E+00  0.4331E+01
     -3.642  0.4497E+01  0.4648E+01
     -3.571  0.4090E+01  0.4939E+01
     -3.501  0.5588E+01  0.5333E+01
     -3.430  0.2559E+01  0.5514E+01
     -3.359  0.6173E+01  0.5953E+01
     -3.289  0.3700E+00  0.5979E+01
     -3.218  0.9118E+01  0.6623E+01
     -3.148  0.5773E+01  0.7042E+01
     -3.077  0.2036E+01  0.7185E+01
     -3.006  0.6329E+01  0.7632E+01
     -2.936  0.4156E+01  0.7926E+01
     -2.865  0.5124E+00  0.7962E+01
     -2.795  0.9181E+01  0.8611E+01
     -2.724  0.6013E+01  0.9036E+01
     -2.653  0.2686E+01  0.9233E+01
     -2.583  0.1307E+02  0.1016E+02
     -2.512  0.5835E+01  0.1057E+02
     -2.442  0.2870E+01  0.1079E+02
     -2.371  0.4487E+01  0.1110E+02
     -2.300  0.6514E+01  0.1156E+02
     -2.230  0.8480E+01  0.1216E+02
     -2.159  0.5212E+01  0.1254E+02
     -2.089  0.9941E+01  0.1324E+02
     -2.018  0.1100E+02  0.1402E+02
     -1.947  0.1001E+02  0.1472E+02
     -1.877  0.9842E+00  0.1479E+02
     -1.806  0.1082E+02  0.1556E+02
     -1.736  0.9409E+01  0.1622E+02
     -1.665  0.1851E+02  0.1753E+02
     -1.594  0.1065E+02  0.1829E+02
     -1.524  0.1166E+02  0.1912E+02
     -1.453  0.1481E+02  0.2018E+02
     -1.383  0.1200E+02  0.2104E+02
     -1.312  0.2652E+02  0.2292E+02
     -1.242  0.1914E+02  0.2427E+02
     -1.171  0.3571E+02  0.2679E+02
     -1.100  0.1994E+02  0.2822E+02
     -1.030  0.4650E+02  0.3150E+02
     -0.959  0.4012E+02  0.3436E+02
     -0.889  0.4005E+02  0.3719E+02
     -0.818  0.4362E+02  0.4027E+02
     -0.747  0.3521E+02  0.4278E+02
     -0.677  0.4858E+02  0.4622E+02
     -0.606  0.5735E+02  0.5027E+02
     -0.536  0.6956E+02  0.5519E+02
     -0.465  0.6478E+02  0.5980E+02
     -0.394  0.8247E+02  0.6563E+02
     -0.324  0.8010E+02  0.7130E+02
     -0.253  0.7391E+02  0.7655E+02
     -0.183  0.6542E+02  0.8120E+02
     -0.112  0.6894E+02  0.8608E+02
     -0.041  0.7195E+02  0.9119E+02
      0.029  0.6703E+02  0.9595E+02
      0.100  0.6364E+02  0.1005E+03
      0.170  0.7898E+02  0.1061E+03
      0.241  0.8216E+02  0.1119E+03
      0.312  0.9024E+02  0.1183E+03
      0.382  0.1071E+03  0.1259E+03
      0.453  0.1117E+03  0.1338E+03
      0.523  0.9420E+02  0.1405E+03
      0.594  0.1235E+03  0.1493E+03
      0.665  0.1251E+03  0.1581E+03
      0.735  0.1511E+03  0.1688E+03
      0.806  0.1472E+03  0.1793E+03
      0.876  0.1340E+03  0.1888E+03
      0.947  0.9798E+02  0.1958E+03
      1.018  0.1045E+03  0.2032E+03
      1.088  0.8310E+02  0.2091E+03
      1.159  0.8242E+02  0.2149E+03
      1.229  0.9515E+02  0.2217E+03
      1.300  0.1089E+03  0.2294E+03
      1.371  0.1258E+03  0.2383E+03
      1.441  0.1168E+03  0.2466E+03
      1.512  0.1247E+03  0.2555E+03
      1.582  0.1037E+03  0.2629E+03
      1.653  0.1014E+03  0.2700E+03
      1.724  0.1164E+03  0.2783E+03
      1.794  0.9204E+02  0.2848E+03
      1.865  0.1310E+03  0.2941E+03
      1.935  0.1545E+03  0.3050E+03
      2.006  0.2141E+03  0.3203E+03
      2.077  0.1382E+03  0.3301E+03
      2.147  0.6223E+02  0.3345E+03
      2.218  0.1341E+02  0.3354E+03
      2.288  0.2883E+02  0.3375E+03
      2.359  0.3988E+01  0.3377E+03
      2.430  0.1166E+02  0.3386E+03
      2.500  0.1142E+02  0.3394E+03
      2.571  0.1935E+02  0.3407E+03
      2.641  0.1246E+02  0.3416E+03
      2.712  0.6382E+01  0.3421E+03
      2.783  0.1179E+02  0.3429E+03
      2.853  0.1072E+02  0.3437E+03
      2.924  0.1662E+02  0.3448E+03
      2.994  0.8690E+01  0.3455E+03
      3.065  0.8020E+01  0.3460E+03
      3.136  0.9993E+01  0.3467E+03
      3.206  0.2822E+01  0.3469E+03
      3.277  0.1838E+02  0.3482E+03
      3.347  0.2087E+02  0.3497E+03
      3.418  0.4013E+01  0.3500E+03
      3.489  0.8912E+01  0.3506E+03
      3.559  0.8765E+01  0.3513E+03
      3.630  0.6805E+01  0.3517E+03
      3.700  0.6282E+01  0.3522E+03
      3.771  0.1225E+02  0.3531E+03
      3.842  0.2800E+01  0.3533E+03
      3.912  0.2029E+02  0.3547E+03
      3.983  0.3724E+01  0.3549E+03
      4.053  0.1218E+02  0.3558E+03
      4.124  0.2076E+02  0.3573E+03
      4.195  0.2923E+01  0.3575E+03
      4.265  0.3754E+01  0.3578E+03
      4.336  0.6623E+01  0.3582E+03
      4.406  0.8954E+01  0.3589E+03
      4.477  0.2006E+01  0.3590E+03
      4.548  0.1312E+02  0.3599E+03
      4.618  0.9838E+01  0.3606E+03
      4.689  0.1643E+02  0.3618E+03
      4.759  0.5102E+01  0.3622E+03
      4.830  0.5193E+01  0.3625E+03
      4.900  0.1203E+02  0.3634E+03
      4.971  0.7022E+01  0.3639E+03
      5.042  0.8898E+01  0.3645E+03
      5.112  0.7751E+01  0.3650E+03
      5.183  0.5358E+01  0.3654E+03
      5.253  0.8898E+01  0.3661E+03
      5.324  0.1279E+01  0.3661E+03
      5.395  0.1812E+02  0.3674E+03
      5.465  0.4011E+01  0.3677E+03
      5.536  0.1070E+02  0.3685E+03
      5.606  0.1135E+02  0.3693E+03
      5.677  0.3605E+01  0.3695E+03
      5.748  0.5360E+01  0.3699E+03
      5.818  0.7086E+01  0.3704E+03
      5.889  0.8460E+01  0.3710E+03
      5.959  0.1109E+02  0.3718E+03
      6.030  0.5122E+01  0.3722E+03
      6.101  0.6807E+01  0.3726E+03
      6.171  0.1939E+01  0.3728E+03
      6.242  0.3640E+01  0.3730E+03
      6.312  0.1325E+02  0.3740E+03
      6.383  0.1381E+02  0.3749E+03
      6.454  0.6309E-05  0.3749E+03
      6.524  0.2889E+01  0.3751E+03
      6.595  0.3916E+01  0.3754E+03
      6.665  0.1302E+02  0.3763E+03
      6.736  0.4417E+01  0.3766E+03
      6.807  0.9068E+01  0.3773E+03
      6.877  0.2373E+01  0.3775E+03
      6.948  0.1693E-01  0.3775E+03
      7.018  0.5672E+01  0.3779E+03
      7.089  0.8221E+01  0.3784E+03
      7.160  0.2178E+01  0.3786E+03
      7.230  0.1067E+02  0.3793E+03
      7.301  0.1362E+00  0.3794E+03
      7.371  0.7777E+01  0.3799E+03
      7.442  0.1239E+02  0.3808E+03
      7.513  0.6718E+01  0.3813E+03
      7.583  0.9861E+01  0.3820E+03
      7.654  0.5904E+01  0.3824E+03
      7.724  0.8428E+01  0.3830E+03
      7.795  0.7907E+01  0.3835E+03
      7.866  0.1163E+02  0.3844E+03
      7.936  0.1030E+02  0.3851E+03
      8.007  0.8499E+01  0.3857E+03
      8.077  0.7669E+01  0.3862E+03
      8.148  0.6993E+01  0.3867E+03
      8.219  0.1172E+02  0.3876E+03
      8.289  0.1005E+02  0.3883E+03
      8.360  0.1559E+02  0.3894E+03
      8.430  0.6285E+01  0.3898E+03
      8.501  0.2428E+01  0.3900E+03
      8.572  0.1050E+02  0.3907E+03
      8.642  0.1075E+02  0.3915E+03
      8.713  0.6639E+01  0.3920E+03
      8.783  0.1423E+02  0.3930E+03
      8.854  0.8767E+01  0.3936E+03
      8.925  0.8976E+01  0.3942E+03
      8.995  0.7037E+01  0.3947E+03
      9.066  0.1112E+02  0.3955E+03
      9.136  0.1253E+02  0.3964E+03
      9.207  0.1982E+01  0.3966E+03
      9.278  0.3967E+01  0.3968E+03
      9.348  0.6952E+01  0.3973E+03
      9.419  0.1227E+02  0.3982E+03
      9.489  0.9619E+01  0.3989E+03
      9.560  0.8679E+01  0.3995E+03
      9.631  0.1001E+02  0.4002E+03
      9.701  0.5714E+01  0.4006E+03
      9.772  0.1039E+02  0.4013E+03
      9.842  0.5566E+01  0.4017E+03
      9.913  0.7021E+01  0.4022E+03
      9.984  0.5918E+01  0.4026E+03
     10.054  0.9854E+01  0.4033E+03
     10.125  0.1116E+02  0.4041E+03
     10.195  0.1405E+01  0.4043E+03
     10.266  0.1118E+02  0.4050E+03
     10.337  0.8388E+01  0.4056E+03
     10.407  0.5095E+01  0.4060E+03
     10.478  0.3977E+01  0.4063E+03
     10.548  0.4901E+01  0.4066E+03
     10.619  0.1017E+02  0.4074E+03
     10.690  0.7865E+01  0.4079E+03
     10.760  0.1139E+02  0.4087E+03
     10.831  0.1304E+02  0.4096E+03
     10.901  0.7889E+01  0.4102E+03
     10.972  0.7665E+01  0.4107E+03
     11.043  0.7761E+01  0.4113E+03
     11.113  0.1113E+02  0.4121E+03
     11.184  0.7270E+01  0.4126E+03
     11.254  0.1280E+02  0.4135E+03
     11.325  0.1607E+02  0.4146E+03
     11.395  0.4320E+01  0.4149E+03
     11.466  0.1195E+02  0.4158E+03
     11.537  0.1627E+02  0.4169E+03
     11.607  0.5881E+01  0.4174E+03
     11.678  0.1467E+02  0.4184E+03
     11.748  0.4085E+01  0.4187E+03
     11.819  0.1507E+02  0.4198E+03
     11.890  0.7481E+01  0.4203E+03
     11.960  0.6873E+01  0.4208E+03
     12.031  0.1225E+02  0.4217E+03
     12.101  0.1959E+02  0.4230E+03
     12.172  0.4055E+01  0.4233E+03
     12.243  0.9089E+01  0.4240E+03
     12.313  0.1044E+02  0.4247E+03
     12.384  0.1766E+02  0.4259E+03
     12.454  0.1042E+02  0.4267E+03
     12.525  0.4669E+01  0.4270E+03
     12.596  0.9369E+01  0.4277E+03
     12.666  0.1736E+02  0.4289E+03
     12.737  0.6461E+01  0.4294E+03
     12.807  0.1020E+02  0.4301E+03
     12.878  0.5184E+01  0.4305E+03
     12.949  0.5243E+01  0.4308E+03
     13.019  0.3405E+01  0.4311E+03
     13.090  0.6613E+01  0.4315E+03
     13.160  0.1316E+01  0.4316E+03
     13.231  0.1683E-01  0.4316E+03
     13.302  0.3287E+01  0.4319E+03
     13.372  0.0000E+00  0.4319E+03
     13.443  0.0000E+00  0.4319E+03
     13.513  0.0000E+00  0.4319E+03
     13.584  0.0000E+00  0.4319E+03
     13.655  0.2145E-01  0.4319E+03
     13.725  0.1961E+01  0.4320E+03
     13.796  0.0000E+00  0.4320E+03
     13.866  0.0000E+00  0.4320E+03
     13.937  0.0000E+00  0.4320E+03
     14.008  0.0000E+00  0.4320E+03
     14.078  0.0000E+00  0.4320E+03
     14.149  0.0000E+00  0.4320E+03
     14.219  0.0000E+00  0.4320E+03
     14.290  0.0000E+00  0.4320E+03
     14.361  0.0000E+00  0.4320E+03
     14.431  0.0000E+00  0.4320E+03
     14.502  0.0000E+00  0.4320E+03
     14.572  0.0000E+00  0.4320E+03
     14.643  0.0000E+00  0.4320E+03
