   32   32    1    1
  0.1202155E+02  0.7272832E-09  0.7272832E-09  0.7272832E-09  0.5000000E-15
  1.000000000000000E-004
  CAR 
 unknown system                          
  352   40  216
 
  0.0000000E+00  0.0000000E+00  0.0000000E+00  0.2915452E-02
   1       -5.5736
   2       -2.8657
   3       -2.8419
   4       -2.8419
   5       -2.8419
   6       -2.8418
   7       -2.8191
   8       -1.3538
   9       -1.3538
  10       -1.3536
  11       -1.3534
  12       -1.1533
  13       -1.1516
  14       -1.1513
  15       -1.0015
  16       -0.9866
  17       -0.9866
  18       -0.9779
  19       -0.9768
  20       -0.9767
  21       -0.9761
  22       -0.9761
  23       -0.9742
  24       -0.9663
  25       -0.9663
  26       -0.9495
  27       -0.7114
  28       -0.7106
  29       -0.7106
  30       -0.4438
  31       -0.4287
  32       -0.4287
  33       -0.4287
  34       -0.4285
  35       -0.4156
  36       -0.0668
  37       -0.0532
  38       -0.0532
  39       -0.0516
  40       -0.0515
  41       -0.0410
  42        0.1259
  43        0.1361
  44        0.1361
  45        0.1542
  46        0.1543
  47        0.1543
  48        0.1545
  49        0.1555
  50        0.1556
  51        0.1560
  52        0.1560
  53        0.1577
  54        0.1577
  55        0.1586
  56        0.1587
  57        0.1587
  58        0.1589
  59        0.1600
  60        0.1600
  61        0.1603
  62        0.1607
  63        0.1762
  64        0.1762
  65        0.1917
  66        0.3416
  67        0.3592
  68        0.3592
  69        0.3600
  70        0.3629
  71        0.3629
  72        0.3631
  73        0.3637
  74        0.3641
  75        0.3670
  76        0.3670
  77        0.3840
  78        0.6123
  79        0.6131
  80        0.6131
  81        0.6145
  82        0.6148
  83        0.6148
  84        0.6152
  85        0.6162
  86        0.6419
  87        0.6419
  88        0.6435
  89        0.9961
  90        1.0057
  91        1.0089
  92        1.0089
  93        1.0091
  94        1.0198
  95        1.1200
  96        1.1263
  97        1.1297
  98        1.1297
  99        1.1341
 100        1.1341
 101        1.1342
 102        1.1343
 103        1.1375
 104        1.1375
 105        1.1450
 106        1.1456
 107        1.2713
 108        1.2713
 109        1.2848
 110        1.2848
 111        1.2864
 112        1.2865
 113        1.2873
 114        1.2875
 115        1.2879
 116        1.2879
 117        1.2990
 118        1.2990
 119        1.4020
 120        1.4082
 121        1.4082
 122        1.4107
 123        1.4111
 124        1.4167
 125        1.4314
 126        1.4314
 127        1.4388
 128        1.4393
 129        1.4420
 130        1.4423
 131        1.4424
 132        1.4424
 133        1.4431
 134        1.4457
 135        1.4487
 136        1.4560
 137        1.4592
 138        1.4592
 139        1.7066
 140        1.7130
 141        1.7131
 142        1.7131
 143        1.7131
 144        1.7193
 145        1.9826
 146        1.9831
 147        1.9834
 148        1.9961
 149        1.9967
 150        1.9967
 151        1.9967
 152        1.9969
 153        1.9971
 154        1.9971
 155        1.9977
 156        2.1279
 157        2.1319
 158        2.1328
 159        2.1328
 160        2.1332
 161        2.1332
 162        2.1336
 163        2.1338
 164        2.1338
 165        2.1339
 166        2.1340
 167        2.1388
 168        2.6957
 169        2.6971
 170        2.6971
 171        2.6974
 172        3.2954
 173        3.2973
 174        3.2973
 175        3.3043
 176        3.3060
 177        3.3063
 178        3.3063
 179        3.3063
 180        3.3088
 181        3.3154
 182        3.3154
 183        3.3172
 184        5.1652
 185        5.1652
 186        5.1680
 187        7.3020
 188        7.3020
 189        7.3025
 190        7.3030
 191        9.7588
 192        9.7588
 193        9.7852
 194        9.7852
 195        9.7882
 196        9.7882
 197        9.7885
 198        9.7910
 199        9.7910
 200        9.7911
 201        9.8164
 202        9.8164
 203       10.6342
 204       10.6364
 205       10.6364
 206       11.8513
 207       11.8739
 208       11.8739
 209       11.8747
 210       11.8747
 211       11.8923
 212       12.3170
 213       12.3179
 214       12.3201
 215       12.3207
 216       12.3221
 
  0.1428571E+00  0.0000000E+00  0.0000000E+00  0.5830904E-02
   1       -5.5124
   2       -3.4943
   3       -2.7928
   4       -2.7921
   5       -2.7920
   6       -2.7920
   7       -2.2038
   8       -1.3496
   9       -1.3425
  10       -1.3425
  11       -1.3416
  12       -1.3399
  13       -1.3393
  14       -1.3393
  15       -1.3325
  16       -1.1520
  17       -1.1235
  18       -1.1229
  19       -1.0047
  20       -1.0043
  21       -1.0042
  22       -1.0042
  23       -0.6953
  24       -0.6938
  25       -0.6938
  26       -0.6660
  27       -0.6660
  28       -0.6659
  29       -0.6652
  30       -0.4794
  31       -0.4762
  32       -0.4067
  33       -0.4067
  34       -0.4067
  35       -0.4058
  36       -0.2023
  37       -0.0811
  38       -0.0811
  39       -0.0474
  40       -0.0445
  41       -0.0442
  42       -0.0442
  43        0.0966
  44        0.1190
  45        0.1257
  46        0.1257
  47        0.1284
  48        0.1309
  49        0.1320
  50        0.1324
  51        0.1324
  52        0.1554
  53        0.1582
  54        0.1583
  55        0.1583
  56        0.1774
  57        0.1782
  58        0.1782
  59        0.1870
  60        0.2236
  61        0.2247
  62        0.2247
  63        0.2313
  64        0.2354
  65        0.2355
  66        0.2369
  67        0.2369
  68        0.3771
  69        0.3771
  70        0.3777
  71        0.3784
  72        0.4289
  73        0.4289
  74        0.4530
  75        0.4542
  76        0.4542
  77        0.4557
  78        0.6033
  79        0.6033
  80        0.6038
  81        0.6048
  82        0.6256
  83        0.6279
  84        0.6287
  85        0.6287
  86        0.6301
  87        0.6563
  88        0.6563
  89        0.9325
  90        0.9346
  91        0.9347
  92        0.9347
  93        1.0355
  94        1.0711
  95        1.0734
  96        1.0734
  97        1.0742
  98        1.0981
  99        1.1281
 100        1.1281
 101        1.1445
 102        1.1456
 103        1.1456
 104        1.1487
 105        1.1860
 106        1.1860
 107        1.1875
 108        1.1895
 109        1.2857
 110        1.2857
 111        1.2862
 112        1.2872
 113        1.3445
 114        1.3445
 115        1.3457
 116        1.3466
 117        1.3716
 118        1.3716
 119        1.3718
 120        1.3721
 121        1.4097
 122        1.4108
 123        1.4108
 124        1.4110
 125        1.4325
 126        1.4485
 127        1.4514
 128        1.4550
 129        1.4550
 130        1.4574
 131        1.5038
 132        1.5045
 133        1.5045
 134        1.5068
 135        1.5395
 136        1.5396
 137        1.5414
 138        1.5414
 139        1.6535
 140        1.7332
 141        1.7333
 142        1.7333
 143        1.7333
 144        1.7728
 145        1.8015
 146        1.8020
 147        1.8020
 148        1.8022
 149        1.9618
 150        1.9622
 151        1.9764
 152        1.9796
 153        1.9798
 154        1.9798
 155        1.9806
 156        2.0271
 157        2.0271
 158        2.1072
 159        2.1072
 160        2.1072
 161        2.1072
 162        2.1083
 163        2.1083
 164        2.1279
 165        2.1324
 166        2.1336
 167        2.1387
 168        2.8214
 169        2.8214
 170        2.8215
 171        2.8228
 172        2.8703
 173        2.8707
 174        2.8718
 175        2.8718
 176        3.2989
 177        3.2993
 178        3.2993
 179        3.2993
 180        3.8761
 181        3.8761
 182        3.8763
 183        3.8765
 184        4.7733
 185        5.3265
 186        5.3265
 187        7.4781
 188        7.4781
 189        7.4787
 190        7.4790
 191        8.8233
 192        8.8233
 193        9.0298
 194        9.0298
 195        9.0310
 196        9.0324
 197        9.8707
 198        9.8708
 199        9.8708
 200        9.8708
 201       10.6595
 202       10.6595
 203       10.8127
 204       10.8127
 205       11.1501
 206       11.6086
 207       11.6086
 208       12.1192
 209       12.1192
 210       12.1200
 211       12.1201
 212       12.2611
 213       12.2626
 214       12.2626
 215       12.2635
 216       12.4189
 
  0.2857143E+00  0.0000000E+00  0.0000000E+00  0.5830904E-02
   1       -5.3294
   2       -4.0957
   3       -2.6458
   4       -2.6448
   5       -2.6447
   6       -2.6447
   7       -1.7300
   8       -1.7278
   9       -1.7278
  10       -1.7278
  11       -1.6799
  12       -1.3002
  13       -1.3002
  14       -1.2998
  15       -1.2993
  16       -1.1619
  17       -1.0738
  18       -1.0734
  19       -1.0731
  20       -1.0731
  21       -1.0412
  22       -1.0405
  23       -0.6477
  24       -0.6426
  25       -0.6426
  26       -0.6004
  27       -0.5995
  28       -0.4251
  29       -0.4251
  30       -0.4248
  31       -0.4244
  32       -0.3456
  33       -0.3441
  34       -0.3441
  35       -0.3441
  36       -0.3423
  37       -0.2756
  38       -0.2756
  39       -0.0277
  40       -0.0255
  41       -0.0255
  42       -0.0242
  43        0.0639
  44        0.0656
  45        0.0656
  46        0.0657
  47        0.0848
  48        0.0882
  49        0.0882
  50        0.0893
  51        0.0902
  52        0.0908
  53        0.0908
  54        0.0918
  55        0.1574
  56        0.1642
  57        0.1642
  58        0.1646
  59        0.1839
  60        0.1848
  61        0.1848
  62        0.1920
  63        0.2482
  64        0.3969
  65        0.3969
  66        0.3974
  67        0.3980
  68        0.4282
  69        0.4287
  70        0.4287
  71        0.4295
  72        0.5216
  73        0.5228
  74        0.5228
  75        0.5230
  76        0.5707
  77        0.5709
  78        0.5709
  79        0.5728
  80        0.5741
  81        0.6734
  82        0.6743
  83        0.6743
  84        0.6762
  85        0.6987
  86        0.6987
  87        0.7356
  88        0.7356
  89        0.8072
  90        0.8084
  91        0.8092
  92        0.8092
  93        0.9596
  94        0.9608
  95        0.9608
  96        0.9612
  97        0.9875
  98        0.9875
  99        1.1189
 100        1.2110
 101        1.2126
 102        1.2131
 103        1.2131
 104        1.2673
 105        1.2673
 106        1.2678
 107        1.2682
 108        1.2866
 109        1.2866
 110        1.2866
 111        1.2872
 112        1.3261
 113        1.3261
 114        1.3266
 115        1.3268
 116        1.3842
 117        1.3947
 118        1.3951
 119        1.3982
 120        1.3982
 121        1.4046
 122        1.4076
 123        1.4076
 124        1.4104
 125        1.4242
 126        1.4304
 127        1.4304
 128        1.4306
 129        1.4327
 130        1.4732
 131        1.5536
 132        1.5544
 133        1.5957
 134        1.6214
 135        1.6214
 136        1.6216
 137        1.6226
 138        1.6226
 139        1.6250
 140        1.6591
 141        1.6592
 142        1.6596
 143        1.6596
 144        1.7612
 145        1.7612
 146        1.8246
 147        1.8251
 148        1.8253
 149        1.8253
 150        1.8296
 151        1.9006
 152        1.9012
 153        1.9287
 154        1.9290
 155        1.9290
 156        1.9298
 157        1.9565
 158        2.0319
 159        2.0320
 160        2.0322
 161        2.0322
 162        2.0366
 163        2.0366
 164        2.1279
 165        2.1325
 166        2.1336
 167        2.1387
 168        2.5268
 169        2.5269
 170        2.5269
 171        2.5272
 172        3.0082
 173        3.0094
 174        3.0096
 175        3.0096
 176        3.2755
 177        3.2760
 178        3.2760
 179        3.2761
 180        3.8882
 181        4.6128
 182        4.6128
 183        4.6134
 184        4.6134
 185        5.7573
 186        5.7573
 187        7.7954
 188        7.7954
 189        7.7970
 190        7.7972
 191        7.9225
 192        7.9225
 193        7.9861
 194        7.9871
 195        7.9890
 196        7.9890
 197       10.1135
 198       10.1135
 199       10.1137
 200       10.1137
 201       10.7304
 202       10.7304
 203       10.9649
 204       10.9654
 205       10.9654
 206       10.9660
 207       11.2882
 208       11.2883
 209       11.6705
 210       11.6705
 211       11.6717
 212       11.6718
 213       11.8918
 214       11.8918
 215       12.2896
 216       12.2897
 
  0.4285714E+00  0.0000000E+00  0.0000000E+00  0.5830904E-02
   1       -5.0279
   2       -4.6127
   3       -2.4099
   4       -2.4076
   5       -2.4076
   6       -2.4076
   7       -2.0942
   8       -2.0941
   9       -2.0941
  10       -2.0929
  11       -1.3583
  12       -1.2382
  13       -1.2382
  14       -1.2377
  15       -1.2370
  16       -1.2095
  17       -1.1575
  18       -1.1569
  19       -1.1559
  20       -1.1559
  21       -0.9146
  22       -0.9133
  23       -0.7574
  24       -0.7573
  25       -0.5710
  26       -0.5568
  27       -0.5568
  28       -0.4665
  29       -0.4342
  30       -0.4342
  31       -0.2645
  32       -0.2632
  33       -0.2632
  34       -0.2607
  35       -0.2575
  36       -0.2570
  37       -0.2552
  38       -0.2552
  39       -0.0378
  40       -0.0361
  41       -0.0359
  42       -0.0359
  43       -0.0249
  44       -0.0249
  45       -0.0246
  46       -0.0208
  47        0.0015
  48        0.0059
  49        0.0059
  50        0.0073
  51        0.0465
  52        0.0470
  53        0.0470
  54        0.0471
  55        0.1621
  56        0.1716
  57        0.1716
  58        0.1729
  59        0.1815
  60        0.1831
  61        0.1831
  62        0.1940
  63        0.3780
  64        0.4652
  65        0.4652
  66        0.4655
  67        0.4662
  68        0.4889
  69        0.5222
  70        0.5222
  71        0.5229
  72        0.5230
  73        0.5947
  74        0.5959
  75        0.5959
  76        0.5977
  77        0.6878
  78        0.6878
  79        0.6887
  80        0.6891
  81        0.6926
  82        0.6941
  83        0.6944
  84        0.6944
  85        0.7486
  86        0.7492
  87        0.7492
  88        0.7502
  89        0.7693
  90        0.7693
  91        0.8476
  92        0.8478
  93        0.8479
  94        0.8479
  95        0.8671
  96        0.8671
  97        1.0397
  98        1.0401
  99        1.0404
 100        1.0404
 101        1.0721
 102        1.0721
 103        1.2176
 104        1.2896
 105        1.2896
 106        1.2900
 107        1.2916
 108        1.2969
 109        1.2995
 110        1.2995
 111        1.3002
 112        1.3021
 113        1.3031
 114        1.3041
 115        1.3041
 116        1.3129
 117        1.3397
 118        1.3402
 119        1.3402
 120        1.3408
 121        1.3727
 122        1.3733
 123        1.3746
 124        1.3746
 125        1.3865
 126        1.3865
 127        1.3885
 128        1.3899
 129        1.4240
 130        1.4240
 131        1.5040
 132        1.5471
 133        1.6809
 134        1.6817
 135        1.7421
 136        1.7422
 137        1.7422
 138        1.7426
 139        1.7825
 140        1.7825
 141        1.7906
 142        1.7906
 143        1.7909
 144        1.7910
 145        1.8028
 146        1.8041
 147        1.8477
 148        1.8482
 149        1.8486
 150        1.8486
 151        1.8816
 152        1.9210
 153        1.9210
 154        1.9213
 155        1.9213
 156        1.9239
 157        1.9249
 158        1.9249
 159        2.0049
 160        2.0063
 161        2.0063
 162        2.0063
 163        2.0344
 164        2.1279
 165        2.1326
 166        2.1335
 167        2.1387
 168        2.2433
 169        2.2435
 170        2.2435
 171        2.2439
 172        2.9001
 173        3.1446
 174        3.1448
 175        3.1453
 176        3.1453
 177        3.2291
 178        3.2291
 179        3.2296
 180        3.2307
 181        5.5251
 182        5.5251
 183        5.5257
 184        5.5260
 185        6.3679
 186        6.3679
 187        6.5989
 188        6.5989
 189        6.5990
 190        6.5995
 191        7.1014
 192        7.1014
 193        8.7732
 194        8.7732
 195        8.7736
 196        8.7737
 197        9.7832
 198        9.7832
 199        9.7837
 200        9.7838
 201       10.5050
 202       10.5050
 203       10.5051
 204       10.5052
 205       10.8538
 206       10.8539
 207       11.0296
 208       11.0296
 209       11.0301
 210       11.0301
 211       11.0370
 212       11.0370
 213       12.5255
 214       12.5255
 215       12.5258
 216       12.5259
 
  0.0000000E+00  0.1428571E+00  0.0000000E+00  0.1166181E-01
   1       -5.5123
   2       -3.4942
   3       -2.8098
   4       -2.7920
   5       -2.7919
   6       -2.7750
   7       -2.2039
   8       -1.3597
   9       -1.3486
  10       -1.3440
  11       -1.3406
  12       -1.3398
  13       -1.3369
  14       -1.3333
  15       -1.3238
  16       -1.1522
  17       -1.1242
  18       -1.1229
  19       -1.0127
  20       -1.0056
  21       -1.0029
  22       -0.9949
  23       -0.6960
  24       -0.6948
  25       -0.6942
  26       -0.6766
  27       -0.6660
  28       -0.6655
  29       -0.6541
  30       -0.4787
  31       -0.4763
  32       -0.4163
  33       -0.4067
  34       -0.4065
  35       -0.3969
  36       -0.2022
  37       -0.0827
  38       -0.0794
  39       -0.0543
  40       -0.0461
  41       -0.0445
  42       -0.0350
  43        0.0951
  44        0.1167
  45        0.1203
  46        0.1283
  47        0.1296
  48        0.1297
  49        0.1325
  50        0.1369
  51        0.1409
  52        0.1474
  53        0.1570
  54        0.1583
  55        0.1686
  56        0.1704
  57        0.1772
  58        0.1777
  59        0.1888
  60        0.2186
  61        0.2187
  62        0.2264
  63        0.2304
  64        0.2330
  65        0.2370
  66        0.2407
  67        0.2459
  68        0.3691
  69        0.3746
  70        0.3797
  71        0.3821
  72        0.4266
  73        0.4287
  74        0.4479
  75        0.4550
  76        0.4551
  77        0.4630
  78        0.6005
  79        0.6020
  80        0.6034
  81        0.6036
  82        0.6241
  83        0.6295
  84        0.6300
  85        0.6307
  86        0.6317
  87        0.6562
  88        0.6578
  89        0.9239
  90        0.9342
  91        0.9349
  92        0.9443
  93        1.0361
  94        1.0713
  95        1.0738
  96        1.0742
  97        1.0755
  98        1.1016
  99        1.1278
 100        1.1291
 101        1.1392
 102        1.1453
 103        1.1467
 104        1.1506
 105        1.1807
 106        1.1853
 107        1.1860
 108        1.1914
 109        1.2756
 110        1.2862
 111        1.2868
 112        1.2942
 113        1.3359
 114        1.3453
 115        1.3465
 116        1.3533
 117        1.3631
 118        1.3719
 119        1.3725
 120        1.3798
 121        1.4054
 122        1.4110
 123        1.4132
 124        1.4157
 125        1.4324
 126        1.4459
 127        1.4523
 128        1.4543
 129        1.4551
 130        1.4591
 131        1.4970
 132        1.5040
 133        1.5042
 134        1.5134
 135        1.5332
 136        1.5395
 137        1.5419
 138        1.5471
 139        1.6537
 140        1.7284
 141        1.7333
 142        1.7333
 143        1.7381
 144        1.7725
 145        1.7965
 146        1.8004
 147        1.8043
 148        1.8078
 149        1.9616
 150        1.9625
 151        1.9758
 152        1.9780
 153        1.9795
 154        1.9796
 155        1.9807
 156        2.0263
 157        2.0276
 158        2.1039
 159        2.1064
 160        2.1073
 161        2.1074
 162        2.1086
 163        2.1113
 164        2.1331
 165        2.1334
 166        2.1338
 167        2.1340
 168        2.8162
 169        2.8211
 170        2.8215
 171        2.8288
 172        2.8656
 173        2.8703
 174        2.8709
 175        2.8773
 176        3.2915
 177        3.2987
 178        3.3002
 179        3.3073
 180        3.8677
 181        3.8760
 182        3.8761
 183        3.8849
 184        4.7707
 185        5.3265
 186        5.3291
 187        7.4751
 188        7.4775
 189        7.4794
 190        7.4821
 191        8.8232
 192        8.8234
 193        9.0146
 194        9.0307
 195        9.0309
 196        9.0478
 197        9.8474
 198        9.8705
 199        9.8722
 200        9.8928
 201       10.6553
 202       10.6595
 203       10.8125
 204       10.8136
 205       11.1534
 206       11.6068
 207       11.6087
 208       12.0991
 209       12.1198
 210       12.1207
 211       12.1348
 212       12.2514
 213       12.2625
 214       12.2641
 215       12.2752
 216       12.4137
 
  0.1428571E+00  0.1428571E+00  0.0000000E+00  0.2332362E-01
   1       -5.4512
   2       -3.4488
   3       -3.4328
   4       -2.7436
   5       -2.7431
   6       -2.1654
   7       -2.1513
   8       -1.8036
   9       -1.3771
  10       -1.3763
  11       -1.3520
  12       -1.3514
  13       -1.3406
  14       -1.3399
  15       -1.2792
  16       -1.2785
  17       -1.1239
  18       -1.1228
  19       -1.0953
  20       -0.9273
  21       -0.9194
  22       -0.7229
  23       -0.7204
  24       -0.7117
  25       -0.7078
  26       -0.6785
  27       -0.6769
  28       -0.6766
  29       -0.4766
  30       -0.4675
  31       -0.4567
  32       -0.4556
  33       -0.4461
  34       -0.3844
  35       -0.3840
  36       -0.1966
  37       -0.1892
  38       -0.0958
  39       -0.0874
  40       -0.0761
  41       -0.0710
  42       -0.0372
  43       -0.0371
  44        0.0744
  45        0.0771
  46        0.0895
  47        0.0952
  48        0.1030
  49        0.1096
  50        0.1298
  51        0.1492
  52        0.1748
  53        0.1757
  54        0.1832
  55        0.1836
  56        0.1933
  57        0.1948
  58        0.2220
  59        0.2277
  60        0.2311
  61        0.2337
  62        0.2535
  63        0.2707
  64        0.2741
  65        0.2771
  66        0.2832
  67        0.3151
  68        0.3237
  69        0.3900
  70        0.4007
  71        0.4240
  72        0.4269
  73        0.4601
  74        0.4625
  75        0.4677
  76        0.4702
  77        0.5618
  78        0.5689
  79        0.5700
  80        0.6072
  81        0.6074
  82        0.6150
  83        0.6415
  84        0.6415
  85        0.6557
  86        0.6563
  87        0.6639
  88        0.6696
  89        0.8876
  90        0.8889
  91        0.9509
  92        0.9525
  93        0.9927
  94        1.0023
  95        1.0700
  96        1.0723
  97        1.0729
  98        1.0752
  99        1.1124
 100        1.1227
 101        1.1250
 102        1.1285
 103        1.1314
 104        1.1358
 105        1.1363
 106        1.2012
 107        1.2073
 108        1.2117
 109        1.2284
 110        1.2301
 111        1.2363
 112        1.2386
 113        1.2727
 114        1.4056
 115        1.4056
 116        1.4266
 117        1.4360
 118        1.4382
 119        1.4395
 120        1.4450
 121        1.4462
 122        1.4474
 123        1.4499
 124        1.4508
 125        1.4521
 126        1.4527
 127        1.4564
 128        1.4583
 129        1.4643
 130        1.4920
 131        1.5017
 132        1.5257
 133        1.5344
 134        1.5892
 135        1.5894
 136        1.5926
 137        1.5930
 138        1.5955
 139        1.5981
 140        1.6074
 141        1.6627
 142        1.6684
 143        1.7157
 144        1.7157
 145        1.7426
 146        1.7426
 147        1.8077
 148        1.8082
 149        1.9397
 150        1.9419
 151        1.9439
 152        1.9454
 153        1.9878
 154        1.9883
 155        1.9908
 156        1.9910
 157        2.0110
 158        2.0128
 159        2.0843
 160        2.0845
 161        2.1031
 162        2.1053
 163        2.1070
 164        2.1079
 165        2.1090
 166        2.1114
 167        2.1181
 168        2.5188
 169        2.5678
 170        2.5679
 171        2.8563
 172        2.8568
 173        2.8618
 174        2.8623
 175        3.2315
 176        3.2324
 177        3.3440
 178        3.3523
 179        3.8718
 180        3.8748
 181        3.8796
 182        3.8826
 183        4.5340
 184        4.9292
 185        4.9327
 186        5.4788
 187        7.3356
 188        7.3358
 189        7.9283
 190        7.9288
 191        8.1637
 192        8.1749
 193        8.9020
 194        8.9175
 195        8.9264
 196        8.9282
 197        9.2986
 198        9.2996
 199        9.9278
 200        9.9537
 201       10.6827
 202       10.8850
 203       10.8975
 204       11.1783
 205       11.1834
 206       11.4805
 207       11.4838
 208       11.4874
 209       11.4919
 210       11.5588
 211       11.7021
 212       11.7030
 213       12.3313
 214       12.3509
 215       12.7848
 216       12.7863
 
  0.2857143E+00  0.1428571E+00  0.0000000E+00  0.2332362E-01
   1       -5.2688
   2       -4.0397
   3       -3.2824
   4       -2.5997
   5       -2.5991
   6       -2.2624
   7       -2.0244
   8       -1.7128
   9       -1.7122
  10       -1.6399
  11       -1.3907
  12       -1.3901
  13       -1.3578
  14       -1.3569
  15       -1.2273
  16       -1.1945
  17       -1.1942
  18       -1.1312
  19       -1.0393
  20       -1.0145
  21       -0.8296
  22       -0.8293
  23       -0.6317
  24       -0.6273
  25       -0.6273
  26       -0.5927
  27       -0.5878
  28       -0.5779
  29       -0.4858
  30       -0.4854
  31       -0.4132
  32       -0.3858
  33       -0.3455
  34       -0.3309
  35       -0.3215
  36       -0.3208
  37       -0.2755
  38       -0.2660
  39       -0.1647
  40       -0.1249
  41       -0.0554
  42       -0.0175
  43       -0.0166
  44       -0.0105
  45       -0.0085
  46       -0.0011
  47        0.0150
  48        0.0544
  49        0.0945
  50        0.0946
  51        0.1145
  52        0.1244
  53        0.1265
  54        0.1557
  55        0.1923
  56        0.2234
  57        0.2246
  58        0.2460
  59        0.2689
  60        0.2717
  61        0.2907
  62        0.2912
  63        0.3073
  64        0.3150
  65        0.3367
  66        0.3378
  67        0.4056
  68        0.4145
  69        0.4471
  70        0.4483
  71        0.4940
  72        0.4942
  73        0.5125
  74        0.5129
  75        0.5302
  76        0.5305
  77        0.5678
  78        0.5940
  79        0.5947
  80        0.6356
  81        0.6788
  82        0.6794
  83        0.6954
  84        0.7015
  85        0.7093
  86        0.7112
  87        0.7122
  88        0.7250
  89        0.7887
  90        0.7904
  91        0.8227
  92        0.8474
  93        0.9397
  94        0.9529
  95        0.9533
  96        0.9876
  97        1.0176
  98        1.0186
  99        1.1094
 100        1.1103
 101        1.1316
 102        1.1466
 103        1.1656
 104        1.2002
 105        1.2009
 106        1.2046
 107        1.2103
 108        1.2162
 109        1.2208
 110        1.2731
 111        1.2745
 112        1.2978
 113        1.2984
 114        1.3185
 115        1.3260
 116        1.3536
 117        1.3539
 118        1.3857
 119        1.3933
 120        1.3941
 121        1.4296
 122        1.4394
 123        1.4404
 124        1.4527
 125        1.4583
 126        1.4667
 127        1.4705
 128        1.5199
 129        1.5200
 130        1.5450
 131        1.5592
 132        1.5624
 133        1.5829
 134        1.5835
 135        1.6044
 136        1.6219
 137        1.6371
 138        1.6959
 139        1.6990
 140        1.7006
 141        1.7036
 142        1.7042
 143        1.7088
 144        1.7142
 145        1.7210
 146        1.7426
 147        1.8147
 148        1.8151
 149        1.8687
 150        1.8824
 151        1.9091
 152        1.9247
 153        1.9369
 154        1.9381
 155        1.9643
 156        1.9646
 157        1.9729
 158        1.9780
 159        2.0203
 160        2.0210
 161        2.0320
 162        2.0328
 163        2.0365
 164        2.1025
 165        2.1068
 166        2.1084
 167        2.1128
 168        2.2469
 169        2.5147
 170        2.5149
 171        2.5863
 172        2.5869
 173        2.8252
 174        2.8253
 175        2.9174
 176        3.5722
 177        3.5730
 178        3.8744
 179        3.8753
 180        3.9981
 181        4.0547
 182        4.6242
 183        4.6248
 184        5.3422
 185        5.3474
 186        5.8913
 187        7.0106
 188        7.3581
 189        7.5624
 190        7.5630
 191        7.8173
 192        7.8184
 193        8.0195
 194        8.6260
 195        8.6263
 196        8.6510
 197        9.1681
 198        9.3952
 199        9.3953
 200       10.2201
 201       10.2201
 202       10.7538
 203       10.7900
 204       10.8007
 205       10.8019
 206       10.8673
 207       11.1246
 208       11.2735
 209       11.4100
 210       11.8094
 211       11.8103
 212       11.8367
 213       11.9676
 214       11.9777
 215       12.4494
 216       12.6341
 
  0.4285714E+00  0.1428571E+00  0.0000000E+00  0.2332362E-01
   1       -4.9683
   2       -4.5546
   3       -3.0252
   4       -2.6788
   5       -2.3685
   6       -2.3678
   7       -2.0639
   8       -2.0638
   9       -1.8110
  10       -1.5355
  11       -1.3896
  12       -1.3880
  13       -1.3727
  14       -1.3717
  15       -1.3203
  16       -1.1777
  17       -1.0868
  18       -1.0863
  19       -0.9612
  20       -0.9609
  21       -0.9099
  22       -0.8897
  23       -0.7498
  24       -0.7351
  25       -0.5561
  26       -0.5439
  27       -0.5428
  28       -0.4531
  29       -0.4261
  30       -0.4220