   4   4   0   0
  0.1166843E+02  0.3600456E-09  0.3600456E-09  0.3600456E-09  0.5000000E-15
  1.000000000000000E-004
  CAR 
 unknown system                          
     27.07022954     -7.09767725  301      3.90934976      1.00000000
     -7.098  0.0000E+00  0.0000E+00
     -6.984  0.0000E+00  0.0000E+00
     -6.870  0.0000E+00  0.0000E+00
     -6.756  0.0000E+00  0.0000E+00
     -6.642  0.0000E+00  0.0000E+00
     -6.528  0.0000E+00  0.0000E+00
     -6.414  0.0000E+00  0.0000E+00
     -6.300  0.0000E+00  0.0000E+00
     -6.187  0.0000E+00  0.0000E+00
     -6.073  0.0000E+00  0.0000E+00
     -5.959  0.0000E+00  0.0000E+00
     -5.845  0.0000E+00  0.0000E+00
     -5.731  0.0000E+00  0.0000E+00
     -5.617  0.0000E+00  0.0000E+00
     -5.503  0.1546E-01  0.1761E-02
     -5.389  0.6887E-01  0.1175E-01
     -5.275  0.1144E+00  0.2649E-01
     -5.161  0.9701E-01  0.4736E-01
     -5.048  0.1249E+00  0.6704E-01
     -4.934  0.1828E+00  0.9532E-01
     -4.820  0.1401E+00  0.1229E+00
     -4.706  0.1403E+00  0.1498E+00
     -4.592  0.2225E+00  0.1904E+00
     -4.478  0.2352E+00  0.2231E+00
     -4.364  0.2480E+00  0.2631E+00
     -4.250  0.3022E+00  0.3040E+00
     -4.136  0.3386E+00  0.3437E+00
     -4.023  0.2318E+00  0.3906E+00
     -3.909  0.2052E+00  0.4286E+00
     -3.795  0.3687E+00  0.4863E+00
     -3.681  0.3968E+00  0.5416E+00
     -3.567  0.2585E+00  0.5849E+00
     -3.453  0.4062E+00  0.6451E+00
     -3.339  0.4206E+00  0.7136E+00
     -3.225  0.4329E+00  0.7647E+00
     -3.111  0.3771E+00  0.8313E+00
     -2.998  0.4188E+00  0.8959E+00
     -2.884  0.3825E+00  0.9699E+00
     -2.770  0.3671E+00  0.1034E+01
     -2.656  0.5817E+00  0.1120E+01
     -2.542  0.4271E+00  0.1196E+01
     -2.428  0.4690E+00  0.1284E+01
     -2.314  0.5414E+00  0.1377E+01
     -2.200  0.5567E+00  0.1477E+01
     -2.086  0.6966E+00  0.1573E+01
     -1.972  0.6113E+00  0.1682E+01
     -1.859  0.7118E+00  0.1799E+01
     -1.745  0.1012E+01  0.1939E+01
     -1.631  0.8651E+00  0.2071E+01
     -1.517  0.1105E+01  0.2236E+01
     -1.403  0.1218E+01  0.2426E+01
     -1.289  0.1771E+01  0.2675E+01
     -1.175  0.2111E+01  0.2965E+01
     -1.061  0.2635E+01  0.3366E+01
     -0.947  0.3270E+01  0.3889E+01
     -0.834  0.3443E+01  0.4417E+01
     -0.720  0.3274E+01  0.4980E+01
     -0.606  0.3370E+01  0.5577E+01
     -0.492  0.4739E+01  0.6345E+01
     -0.378  0.5619E+01  0.7293E+01
     -0.264  0.7182E+01  0.8381E+01
     -0.150  0.6254E+01  0.9405E+01
     -0.036  0.5958E+01  0.1034E+02
      0.078  0.6534E+01  0.1130E+02
      0.191  0.5640E+01  0.1220E+02
      0.305  0.5973E+01  0.1320E+02
      0.419  0.7484E+01  0.1436E+02
      0.533  0.8410E+01  0.1575E+02
      0.647  0.9263E+01  0.1718E+02
      0.761  0.1057E+02  0.1882E+02
      0.875  0.1111E+02  0.2057E+02
      0.989  0.1365E+02  0.2264E+02
      1.103  0.9261E+01  0.2430E+02
      1.217  0.8028E+01  0.2558E+02
      1.330  0.6867E+01  0.2668E+02
      1.444  0.8683E+01  0.2801E+02
      1.558  0.9935E+01  0.2958E+02
      1.672  0.1079E+02  0.3133E+02
      1.786  0.9071E+01  0.3281E+02
      1.900  0.9087E+01  0.3424E+02
      2.014  0.9381E+01  0.3572E+02
      2.128  0.1125E+02  0.3748E+02
      2.242  0.1843E+02  0.4028E+02
      2.355  0.8775E+01  0.4176E+02
      2.469  0.8261E+00  0.4199E+02
      2.583  0.8922E+00  0.4221E+02
      2.697  0.1346E+01  0.4240E+02
      2.811  0.8409E+00  0.4254E+02
      2.925  0.1085E+01  0.4274E+02
      3.039  0.9176E+00  0.4288E+02
      3.153  0.9149E+00  0.4305E+02
      3.267  0.8380E+00  0.4319E+02
      3.380  0.1005E+01  0.4336E+02
      3.494  0.7550E+00  0.4348E+02
      3.608  0.1027E+01  0.4364E+02
      3.722  0.5922E+00  0.4379E+02
      3.836  0.7898E+00  0.4390E+02
      3.950  0.1205E+01  0.4407E+02
      4.064  0.7772E+00  0.4418E+02
      4.178  0.5798E+00  0.4431E+02
      4.292  0.8698E+00  0.4445E+02
      4.406  0.7543E+00  0.4458E+02
      4.519  0.8416E+00  0.4469E+02
      4.633  0.7571E+00  0.4481E+02
      4.747  0.7653E+00  0.4496E+02
      4.861  0.6395E+00  0.4506E+02
      4.975  0.5095E+00  0.4518E+02
      5.089  0.8540E+00  0.4530E+02
      5.203  0.7396E+00  0.4544E+02
      5.317  0.4768E+00  0.4554E+02
      5.431  0.6977E+00  0.4564E+02
      5.544  0.7861E+00  0.4577E+02
      5.658  0.7347E+00  0.4590E+02
      5.772  0.8098E+00  0.4601E+02
      5.886  0.4358E+00  0.4610E+02
      6.000  0.6050E+00  0.4619E+02
      6.114  0.8667E+00  0.4634E+02
      6.228  0.8589E+00  0.4645E+02
      6.342  0.3374E+00  0.4651E+02
      6.456  0.7304E+00  0.4662E+02
      6.569  0.3429E+00  0.4668E+02
      6.683  0.7423E+00  0.4681E+02
      6.797  0.2934E+00  0.4688E+02
      6.911  0.6878E+00  0.4699E+02
      7.025  0.4090E+00  0.4704E+02
      7.139  0.3520E+00  0.4712E+02
      7.253  0.3981E+00  0.4719E+02
      7.367  0.7104E+00  0.4730E+02
      7.481  0.2810E+00  0.4735E+02
      7.595  0.2428E+00  0.4741E+02
      7.708  0.2613E+00  0.4746E+02
      7.822  0.7276E+00  0.4759E+02
      7.936  0.7002E+00  0.4769E+02
      8.050  0.8852E+00  0.4783E+02
      8.164  0.4774E+00  0.4794E+02
      8.278  0.1100E+01  0.4809E+02
      8.392  0.8177E+00  0.4822E+02
      8.506  0.9783E+00  0.4836E+02
      8.620  0.7747E+00  0.4848E+02
      8.733  0.9159E+00  0.4861E+02
      8.847  0.5167E+00  0.4873E+02
      8.961  0.9998E+00  0.4887E+02
      9.075  0.7476E+00  0.4900E+02
      9.189  0.7521E+00  0.4912E+02
      9.303  0.8839E+00  0.4926E+02
      9.417  0.6841E+00  0.4938E+02
      9.531  0.8248E+00  0.4951E+02
      9.645  0.5411E+00  0.4962E+02
      9.758  0.7984E+00  0.4973E+02
      9.872  0.7001E+00  0.4985E+02
      9.986  0.5470E+00  0.4995E+02
     10.100  0.8482E+00  0.5009E+02
     10.214  0.6162E+00  0.5020E+02
     10.328  0.6519E+00  0.5028E+02
     10.442  0.6819E+00  0.5040E+02
     10.556  0.6674E+00  0.5053E+02
     10.670  0.4621E+00  0.5061E+02
     10.784  0.5825E+00  0.5071E+02
     10.897  0.5911E+00  0.5081E+02
     11.011  0.7589E+00  0.5092E+02
     11.125  0.8416E+00  0.5105E+02
     11.239  0.5394E+00  0.5113E+02
     11.353  0.8668E+00  0.5128E+02
     11.467  0.8836E+00  0.5143E+02
     11.581  0.1010E+01  0.5158E+02
     11.695  0.7721E+00  0.5170E+02
     11.809  0.6204E+00  0.5181E+02
     11.922  0.9205E+00  0.5197E+02
     12.036  0.9382E+00  0.5211E+02
     12.150  0.1151E+01  0.5231E+02
     12.264  0.1009E+01  0.5246E+02
     12.378  0.9078E+00  0.5261E+02
     12.492  0.8348E+00  0.5275E+02
     12.606  0.8193E+00  0.5289E+02
     12.720  0.1111E+01  0.5307E+02
     12.834  0.1174E+01  0.5326E+02
     12.947  0.7066E+00  0.5340E+02
     13.061  0.1205E+01  0.5357E+02
     13.175  0.8912E+00  0.5370E+02
     13.289  0.8201E+00  0.5385E+02
     13.403  0.1138E+01  0.5402E+02
     13.517  0.9088E+00  0.5419E+02
     13.631  0.1065E+01  0.5439E+02
     13.745  0.7574E+00  0.5452E+02
     13.859  0.6455E+00  0.5468E+02
     13.973  0.1176E+01  0.5484E+02
     14.086  0.1061E+01  0.5501E+02
     14.200  0.1308E+01  0.5521E+02
     14.314  0.1082E+01  0.5535E+02
     14.428  0.9120E+00  0.5551E+02
     14.542  0.1191E+01  0.5567E+02
     14.656  0.1008E+01  0.5585E+02
     14.770  0.1183E+01  0.5603E+02
     14.884  0.8160E+00  0.5617E+02
     14.998  0.1150E+01  0.5636E+02
     15.111  0.1207E+01  0.5656E+02
     15.225  0.1051E+01  0.5670E+02
     15.339  0.7994E+00  0.5683E+02
     15.453  0.1036E+01  0.5702E+02
     15.567  0.1294E+01  0.5724E+02
     15.681  0.8840E+00  0.5739E+02
     15.795  0.9940E+00  0.5756E+02
     15.909  0.1104E+01  0.5774E+02
     16.023  0.1238E+01  0.5792E+02
     16.136  0.1530E+01  0.5815E+02
     16.250  0.9674E+00  0.5829E+02
     16.364  0.1025E+01  0.5843E+02
     16.478  0.1441E+01  0.5865E+02
     16.592  0.1128E+01  0.5883E+02
     16.706  0.9134E+00  0.5899E+02
     16.820  0.1245E+01  0.5919E+02
     16.934  0.1663E+01  0.5943E+02
     17.048  0.9823E+00  0.5959E+02
     17.162  0.1260E+01  0.5977E+02
     17.275  0.9635E+00  0.5997E+02
     17.389  0.1209E+01  0.6016E+02
     17.503  0.1348E+01  0.6038E+02
     17.617  0.8280E+00  0.6054E+02
     17.731  0.1083E+01  0.6070E+02
     17.845  0.9387E+00  0.6087E+02
     17.959  0.1317E+01  0.6107E+02
     18.073  0.9408E+00  0.6124E+02
     18.187  0.8302E+00  0.6137E+02
     18.300  0.1156E+01  0.6154E+02
     18.414  0.9660E+00  0.6169E+02
     18.528  0.8571E+00  0.6183E+02
     18.642  0.6920E+00  0.6193E+02
     18.756  0.7085E+00  0.6204E+02
     18.870  0.5226E+00  0.6212E+02
     18.984  0.8488E+00  0.6227E+02
     19.098  0.6022E+00  0.6237E+02
     19.212  0.3381E+00  0.6244E+02
     19.326  0.5481E+00  0.6251E+02
     19.439  0.7354E+00  0.6263E+02
     19.553  0.3344E+00  0.6269E+02
     19.667  0.6477E+00  0.6277E+02
     19.781  0.2447E+00  0.6282E+02
     19.895  0.4306E+00  0.6289E+02
     20.009  0.3406E+00  0.6295E+02
     20.123  0.3024E+00  0.6301E+02
     20.237  0.3093E+00  0.6306E+02
     20.351  0.5331E+00  0.6312E+02
     20.464  0.4539E+00  0.6320E+02
     20.578  0.1555E+00  0.6323E+02
     20.692  0.1101E+00  0.6325E+02
     20.806  0.5112E+00  0.6331E+02
     20.920  0.2188E+00  0.6335E+02
     21.034  0.1529E+00  0.6337E+02
     21.148  0.4196E+00  0.6343E+02
     21.262  0.1778E-01  0.6345E+02
     21.376  0.3496E+00  0.6349E+02
     21.489  0.1829E+00  0.6353E+02
     21.603  0.2475E+00  0.6355E+02
     21.717  0.1494E+00  0.6358E+02
     21.831  0.1803E+00  0.6360E+02
     21.945  0.2439E+00  0.6364E+02
     22.059  0.6097E-01  0.6366E+02
     22.173  0.6097E-01  0.6366E+02
     22.287  0.2828E+00  0.6370E+02
     22.401  0.1489E+00  0.6371E+02
     22.515  0.2485E+00  0.6375E+02
     22.628  0.9827E-01  0.6377E+02
     22.742  0.2696E-01  0.6378E+02
     22.856  0.3393E-01  0.6379E+02
     22.970  0.1524E+00  0.6381E+02
     23.084  0.2134E+00  0.6384E+02
     23.198  0.9242E-01  0.6385E+02
     23.312  0.4013E-01  0.6386E+02
     23.426  0.3164E-01  0.6387E+02
     23.540  0.1219E+00  0.6389E+02
     23.653  0.5103E-01  0.6389E+02
     23.767  0.3087E-01  0.6390E+02
     23.881  0.3099E-01  0.6391E+02
     23.995  0.1280E+00  0.6393E+02
     24.109  0.6029E-01  0.6394E+02
     24.223  0.0000E+00  0.6394E+02
     24.337  0.6097E-01  0.6395E+02
     24.451  0.1155E-04  0.6395E+02
     24.565  0.9146E-01  0.6397E+02
     24.678  0.6386E-01  0.6397E+02
     24.792  0.0000E+00  0.6397E+02
     24.906  0.3032E-01  0.6398E+02
     25.020  0.7921E-01  0.6399E+02
     25.134  0.5711E-02  0.6399E+02
     25.248  0.0000E+00  0.6399E+02
     25.362  0.3623E-01  0.6400E+02
     25.476  0.4385E-02  0.6400E+02
     25.590  0.1016E-01  0.6400E+02
     25.704  0.0000E+00  0.6400E+02
     25.817  0.0000E+00  0.6400E+02
     25.931  0.0000E+00  0.6400E+02
     26.045  0.0000E+00  0.6400E+02
     26.159  0.0000E+00  0.6400E+02
     26.273  0.0000E+00  0.6400E+02
     26.387  0.0000E+00  0.6400E+02
     26.501  0.0000E+00  0.6400E+02
     26.615  0.0000E+00  0.6400E+02
     26.729  0.0000E+00  0.6400E+02
     26.842  0.0000E+00  0.6400E+02
     26.956  0.0000E+00  0.6400E+02
     27.070  0.0000E+00  0.6400E+02
