    4    4    1    1
  0.1166843E+02  0.3600456E-09  0.3600456E-09  0.3600456E-09  0.5000000E-15
  1.000000000000000E-004
  CAR 
 unknown system                          
   44  455   32
 
  0.0000000E+00  0.0000000E+00  0.0000000E+00  0.7233796E-04
   1       -5.5446
   2       -1.0708
   3       -1.0708
   4       -1.0708
   5       -0.6106
   6       -0.6106
   7       -0.6106
   8        0.8071
   9        0.8071
  10        0.8071
  11        1.6508
  12        1.6508
  13        2.2108
  14        2.2108
  15        2.2108
  16        2.3680
  17        2.3680
  18        2.3680
  19        2.3680
  20        2.3680
  21        2.3680
  22        5.3997
  23        5.3997
  24        5.3997
  25       11.1006
  26       11.1006
  27       11.1006
  28       17.1656
  29       17.1656
  30       17.1656
  31       17.1656
  32       17.1656
 
  0.4166667E-01  0.0000000E+00  0.0000000E+00  0.4340278E-03
   1       -5.5233
   2       -1.0707
   3       -1.0607
   4       -1.0607
   5       -0.6049
   6       -0.6046
   7       -0.6046
   8        0.8007
   9        0.8122
  10        0.8122
  11        1.6449
  12        1.6531
  13        2.2033
  14        2.2033
  15        2.2084
  16        2.3280
  17        2.3280
  18        2.3591
  19        2.3591
  20        2.3680
  21        2.3680
  22        5.2576
  23        5.4586
  24        5.4586
  25       11.1083
  26       11.1083
  27       11.2846
  28       17.0057
  29       17.0057
  30       17.0684
  31       17.0684
  32       17.1970
 
  0.8333333E-01  0.0000000E+00  0.0000000E+00  0.4340278E-03
   1       -5.4594
   2       -1.0711
   3       -1.0308
   4       -1.0308
   5       -0.5878
   6       -0.5864
   7       -0.5864
   8        0.7816
   9        0.8275
  10        0.8275
  11        1.6276
  12        1.6601
  13        2.1809
  14        2.1809
  15        2.2011
  16        2.2167
  17        2.2167
  18        2.3327
  19        2.3327
  20        2.3681
  21        2.3681
  22        4.8795
  23        5.6269
  24        5.6269
  25       11.1315
  26       11.1315
  27       11.7894
  28       16.5873
  29       16.5873
  30       16.7992
  31       16.7992
  32       17.2909
 
  0.1250000E+00  0.0000000E+00  0.0000000E+00  0.4340278E-03
   1       -5.3532
   2       -1.0753
   3       -0.9820
   4       -0.9820
   5       -0.5595
   6       -0.5560
   7       -0.5560
   8        0.7502
   9        0.8529
  10        0.8529
  11        1.5993
  12        1.6716
  13        2.0536
  14        2.0536
  15        2.1442
  16        2.1442
  17        2.1891
  18        2.2898
  19        2.2898
  20        2.3681
  21        2.3681
  22        4.3609
  23        5.8847
  24        5.8847
  25       11.1709
  26       11.1709
  27       12.5218
  28       16.0192
  29       16.0192
  30       16.4087
  31       16.4087
  32       17.4461
 
  0.1666667E+00  0.0000000E+00  0.0000000E+00  0.4340278E-03
   1       -5.2055
   2       -1.0886
   3       -0.9163
   4       -0.9163
   5       -0.5204
   6       -0.5133
   7       -0.5133
   8        0.7072
   9        0.8882
  10        0.8883
  11        1.5609
  12        1.6875
  13        1.8590
  14        1.8590
  15        2.0940
  16        2.0940
  17        2.1726
  18        2.2317
  19        2.2317
  20        2.3682
  21        2.3682
  22        3.7828
  23        6.2118
  24        6.2118
  25       11.2272
  26       11.2272
  27       13.4050
  28       15.3782
  29       15.3782
  30       15.9491
  31       15.9491
  32       17.6611
 
  0.2083333E+00  0.0000000E+00  0.0000000E+00  0.4340278E-03
   1       -5.0171
   2       -1.1199
   3       -0.8361
   4       -0.8361
   5       -0.4712
   6       -0.4581
   7       -0.4581
   8        0.6533
   9        0.9333
  10        0.9333
  11        1.5136
  12        1.6487
  13        1.6487
  14        1.7075
  15        2.0320
  16        2.0320
  17        2.1518
  18        2.1604
  19        2.1604
  20        2.3683
  21        2.3683
  22        3.2007
  23        6.5920
  24        6.5920
  25       11.3018
  26       11.3018
  27       14.3908
  28       14.7064
  29       14.7064
  30       15.4607
  31       15.4607
  32       17.9337
 
  0.2500000E+00  0.0000000E+00  0.0000000E+00  0.4340278E-03
   1       -4.7892
   2       -1.1818
   3       -0.7452
   4       -0.7452
   5       -0.4125
   6       -0.3903
   7       -0.3903
   8        0.5896
   9        0.9878
  10        0.9878
  11        1.4334
  12        1.4334
  13        1.4592
  14        1.7313
  15        1.9604
  16        1.9604
  17        2.0781
  18        2.0781
  19        2.1273
  20        2.3684
  21        2.3684
  22        2.6539
  23        7.0145
  24        7.0145
  25       11.3960
  26       11.3960
  27       14.0255
  28       14.0255
  29       14.9708
  30       14.9708
  31       15.4502
  32       18.2613
 
  0.2916667E+00  0.0000000E+00  0.0000000E+00  0.4340278E-03
   1       -4.5236
   2       -1.2907
   3       -0.6482
   4       -0.6482
   5       -0.3453
   6       -0.3095
   7       -0.3095
   8        0.5174
   9        1.0513
  10        1.0513
  11        1.2201
  12        1.2201
  13        1.4001
  14        1.7584
  15        1.8826
  16        1.8826
  17        1.9871
  18        1.9871
  19        2.0994
  20        2.1736
  21        2.3685
  22        2.3685
  23        7.4719
  24        7.4719
  25       11.5115
  26       11.5115
  27       13.3473
  28       13.3473
  29       14.4976
  30       14.4976
  31       16.5650
  32       18.6411
 
  0.3333333E+00  0.0000000E+00  0.0000000E+00  0.4340278E-03
   1       -4.2229
   2       -1.4630
   3       -0.5510
   4       -0.5510
   5       -0.2706
   6       -0.2156
   7       -0.2156
   8        0.4379
   9        1.0132
  10        1.0132
  11        1.1232
  12        1.1232
  13        1.3392
  14        1.7849
  15        1.7885
  16        1.8034
  17        1.8034
  18        1.8897
  19        1.8897
  20        2.0685
  21        2.3686
  22        2.3686
  23        7.9595
  24        7.9595
  25       11.6495
  26       11.6495
  27       12.6784
  28       12.6784
  29       14.0531
  30       14.0531
  31       17.7223
  32       19.0703
 
  0.3750000E+00  0.0000000E+00  0.0000000E+00  0.4340278E-03
   1       -3.8903
   2       -1.7079
   3       -0.4612
   4       -0.4612
   5       -0.1895
   6       -0.1085
   7       -0.1085
   8        0.3528
   9        0.8157
  10        0.8157
  11        1.2030
  12        1.2030
  13        1.2809
  14        1.5016
  15        1.7288
  16        1.7288
  17        1.7882
  18        1.7882
  19        1.8211
  20        2.0354
  21        2.3687
  22        2.3687
  23        8.4739
  24        8.4739
  25       11.8105
  26       11.8105
  27       12.0227
  28       12.0227
  29       13.6457
  30       13.6457
  31       18.9106
  32       19.5459
 
  0.4166667E+00  0.0000000E+00  0.0000000E+00  0.4340278E-03
   1       -3.5309
   2       -2.0193
   3       -0.3873
   4       -0.3873
   5       -0.1032
   6        0.0122
   7        0.0122
   8        0.2635
   9        0.6293
  10        0.6293
  11        1.2307
  12        1.2898
  13        1.2898
  14        1.3203
  15        1.6666
  16        1.6666
  17        1.6849
  18        1.6849
  19        1.8555
  20        2.0004
  21        2.3687
  22        2.3687
  23        9.0128
  24        9.0128
  25       11.3829
  26       11.3829
  27       11.9914
  28       11.9914
  29       13.2850
  30       13.2850
  31       20.0650
  32       20.0744
 
  0.4583333E+00  0.0000000E+00  0.0000000E+00  0.4340278E-03
   1       -3.1515
   2       -2.3785
   3       -0.3382
   4       -0.3382
   5       -0.0133
   6        0.1464
   7        0.1464
   8        0.1716
   9        0.4552
  10        0.4552
  11        1.1964
  12        1.2237
  13        1.3827
  14        1.3827
  15        1.5817
  16        1.5817
  17        1.6249
  18        1.6249
  19        1.8913
  20        1.9644
  21        2.3688
  22        2.3688
  23        9.5745
  24        9.5745
  25       10.7607
  26       10.7607
  27       12.1745
  28       12.1745
  29       12.9925
  30       12.9925
  31       20.6248
  32       20.6248
 
  0.5000000E+00  0.0000000E+00  0.0000000E+00  0.2170139E-03
   1       -2.7625
   2       -2.7625
   3       -0.3210
   4       -0.3210
   5        0.0788
   6        0.0788
   7        0.2941
   8        0.2941
   9        0.2941
  10        0.2941
  11        1.1890
  12        1.1890
  13        1.4804
  14        1.4804
  15        1.4804
  16        1.4804
  17        1.6101
  18        1.6101
  19        1.9278
  20        1.9278
  21        2.3688
  22        2.3688
  23       10.1575
  24       10.1575
  25       10.1575
  26       10.1575
  27       12.2750
  28       12.2750
  29       12.8553
  30       12.8553
  31       21.2228
  32       21.2228
 
  0.4166667E-01  0.4166667E-01  0.0000000E+00  0.8680556E-03
   1       -5.5020
   2       -1.0605
   3       -1.0605
   4       -1.0507
   5       -0.5989
   6       -0.5989
   7       -0.5986
   8        0.7970
   9        0.8147
  10        0.8172
  11        1.6432
  12        1.6515
  13        2.1959
  14        2.2000
  15        2.2000
  16        2.2951
  17        2.3194
  18        2.3194
  19        2.3591
  20        2.3591
  21        2.3624
  22        5.3163
  23        5.3163
  24        5.5162
  25       11.1160
  26       11.2932
  27       11.2932
  28       16.6326
  29       17.0364
  30       17.0364
  31       17.0994
  32       17.0994
 
  0.8333333E-01  0.4166667E-01  0.0000000E+00  0.1736111E-02
   1       -5.4381
   2       -1.0608
   3       -1.0304
   4       -1.0209
   5       -0.5818
   6       -0.5808
   7       -0.5806
   8        0.7794
   9        0.8286
  10        0.8321
  11        1.6277
  12        1.6571
  13        2.1682
  14        2.1738
  15        2.1897
  16        2.1904
  17        2.2162
  18        2.2942
  19        2.3327
  20        2.3591
  21        2.3593
  22        4.9382
  23        5.4832
  24        5.6810
  25       11.1392
  26       11.3191
  27       11.7998
  28       16.0916
  29       16.6167
  30       16.8290
  31       17.1282
  32       17.1647
 
  0.1250000E+00  0.4166667E-01  0.0000000E+00  0.1736111E-02
   1       -5.3321
   2       -1.0647
   3       -0.9814
   4       -0.9725
   5       -0.5537
   6       -0.5506
   7       -0.5505
   8        0.7486
   9        0.8536
  10        0.8568
  11        1.5999
  12        1.6688
  13        2.0324
  14        2.0340
  15        2.1374
  16        2.1494
  17        2.1700
  18        2.2553
  19        2.2897
  20        2.3584
  21        2.3592
  22        4.4213
  23        5.7378
  24        5.9347
  25       11.1785
  26       11.3629
  27       12.5341
  28       15.4764
  29       16.0472
  30       16.4371
  31       16.8913
  32       17.2799
 
  0.1666667E+00  0.4166667E-01  0.0000000E+00  0.1736111E-02
   1       -5.1845
   2       -1.0775
   3       -0.9152
   4       -0.9071
   5       -0.5148
   6       -0.5081
   7       -0.5080
   8        0.7059
   9        0.8888
  10        0.8912
  11        1.5621
  12        1.6851
  13        1.8410
  14        1.8424
  15        2.0878
  16        2.0971
  17        2.1335
  18        2.2107
  19        2.2317
  20        2.3582
  21        2.3592
  22        3.8484
  23        6.0590
  24        6.2575
  25       11.2347
  26       11.4257
  27       13.4187
  28       14.8285
  29       15.4055
  30       15.9759
  31       16.4827
  32       17.4898
 
  0.2083333E+00  0.4166667E-01  0.0000000E+00  0.1736111E-02
   1       -4.9963
   2       -1.1082
   3       -0.8345
   4       -0.8274
   5       -0.4658
   6       -0.4535
   7       -0.4531
   8        0.6524
   9        0.9337
  10        0.9348
  11        1.5156
  12        1.6312
  13        1.6359
  14        1.7057
  15        2.0263
  16        2.0346
  17        2.0686
  18        2.1604
  19        2.1715
  20        2.3582
  21        2.3592
  22        3.2774
  23        6.4307
  24        6.6341
  25       11.3088
  26       11.5089
  27       14.1717
  28       14.4053
  29       14.7331
  30       15.4860
  31       16.0048
  32       17.7553
 
  0.2500000E+00  0.4166667E-01  0.0000000E+00  0.1736111E-02
   1       -4.7687
   2       -1.1694
   3       -0.7429
   4       -0.7369
   5       -0.4075
   6       -0.3864
   7       -0.3856
   8        0.5891
   9        0.9872
  10        0.9881
  11        1.4165
  12        1.4238
  13        1.4625
  14        1.7302
  15        1.9554
  16        1.9629
  17        1.9716
  18        2.0780
  19        2.1368
  20        2.3583
  21        2.3593
  22        2.7547
  23        6.8418
  24        7.0535
  25       11.4015
  26       11.6140
  27       13.5196
  28       14.0520
  29       14.9948
  30       15.4650
  31       15.5020
  32       18.0738
 
  0.2916667E+00  0.4166667E-01  0.0000000E+00  0.1736111E-02
   1       -4.5035
   2       -1.2775
   3       -0.6451
   4       -0.6402
   5       -0.3406
   6       -0.3068
   7       -0.3052
   8        0.5173
   9        1.0471
  10        1.0515
  11        1.2041
  12        1.2131
  13        1.4060
  14        1.7583
  15        1.8330
  16        1.8784
  17        1.8850
  18        1.9869
  19        2.0972
  20        2.3331
  21        2.3584
  22        2.3593
  23        7.2849
  24        7.5084
  25       11.5123
  26       11.7429
  27       12.8813
  28       13.3738
  29       14.5205
  30       15.0020
  31       16.5793
  32       18.4421
 
  0.3333333E+00  0.4166667E-01  0.0000000E+00  0.1736111E-02
   1       -4.2032
   2       -1.4491
   3       -0.5471
   4       -0.5432
   5       -0.2662
   6       -0.2145
   7       -0.2118
   8        0.4384
   9        0.9983
  10        1.0084
  11        1.1116
  12        1.1234
  13        1.3516
  14        1.6347
  15        1.7894
  16        1.7999
  17        1.8057
  18        1.8895
  19        2.0029
  20        2.1083
  21        2.3586
  22        2.3593
  23        7.7549
  24        7.9938
  25       11.6293
  26       11.8970
  27       12.2738
  28       12.7050
  29       14.0751
  30       14.5223
  31       17.7334
  32       18.8567
 
  0.3750000E+00  0.4166667E-01  0.0000000E+00  0.1736111E-02
   1       -3.8711
   2       -1.6931
   3       -0.4563
   4       -0.4532
   5       -0.1855
   6       -0.1094
   7       -0.1052
   8        0.3537
   9        0.8021
  10        0.8127
  11        1.1689
  12        1.2031
  13        1.3147
  14        1.4253
  15        1.7262
  16        1.7309
  17        1.7880
  18        1.8231
  19        1.8504
  20        2.0520
  21        2.3587
  22        2.3593
  23        8.2484
  24        8.5065
  25       11.5276
  26       11.9248
  27       12.0497
  28       12.0763
  29       13.6681
  30       14.0746
  31       18.9035
  32       19.3140
 
  0.4166667E+00  0.4166667E-01  0.0000000E+00  0.1736111E-02
   1       -3.5122
   2       -2.0036
   3       -0.3813
   4       -0.3791
   5       -0.0998
   6        0.0087
   7        0.0148
   8        0.2649
   9        0.6172
  10        0.6278
  11        1.1823
  12        1.2725
  13        1.2899
  14        1.3366
  15        1.6649
  16        1.6683
  17        1.6847
  18        1.7237
  19        1.8588
  20        2.0117
  21        2.3589
  22        2.3593
  23        8.7627
  24        9.0439
  25       10.9856
  26       11.4103
  27       12.0567
  28       12.2748
  29       13.3121
  30       13.6679
  31       19.8100
  32       19.8467
 
  0.4583333E+00  0.4166667E-01  0.0000000E+00  0.1736111E-02
   1       -3.1335
   2       -2.3619
   3       -0.3312
   4       -0.3300
   5       -0.0103
   6        0.1404
   7        0.1481
   8        0.1736
   9        0.4448
  10        0.4550
  11        1.1639
  12        1.1882
  13        1.3827
  14        1.4123
  15        1.5816
  16        1.6108
  17        1.6240
  18        1.6258
  19        1.8960
  20        1.9728
  21        2.3590
  22        2.3592
  23        9.2957
  24        9.6044
  25       10.4108
  26       10.7888
  27       12.2563
  28       12.4527
  29       13.0509
  30       13.3140
  31       20.3408
  32       20.4349
 
  0.5000000E+00  0.4166667E-01  0.0000000E+00  0.8680556E-03
   1       -2.7452
   2       -2.7452
   3       -0.3131
   4       -0.3131
   5        0.0813
   6        0.0813
   7        0.2857
   8        0.2857
   9        0.2950
  10        0.2950
  11        1.1582
  12        1.1582
  13        1.4803
  14        1.4803
  15        1.5068
  16        1.5068
  17        1.6102
  18        1.6102
  19        1.9342
  20        1.9342
  21        2.3591
  22        2.3591
  23        9.8458
  24        9.8458
  25       10.1864
  26       10.1864
  27       12.4440
  28       12.4440
  29       13.0536
  30       13.0536
  31       20.9016
  32       20.9031
 
  0.8333333E-01  0.8333333E-01  0.0000000E+00  0.8680556E-03
   1       -5.3745
   2       -1.0302
   3       -1.0302
   4       -0.9917
   5       -0.5640
   6       -0.5640
   7       -0.5630
   8        0.7674
   9        0.8372
  10        0.8459
  11        1.6213
  12        1.6547
  13        2.1052
  14        2.1336
  15        2.1336
  16        2.1523
  17        2.2113
  18        2.2113
  19        2.3327
  20        2.3327
  21        2.3454
  22        5.1036
  23        5.1036
  24        5.8371
  25       11.1625
  26       11.8314
  27       11.8314
  28       15.4396
  29       16.7043
  30       16.7043
  31       16.9181
  32       16.9181
 
  0.1250000E+00  0.8333333E-01  0.0000000E+00  0.1736111E-02
   1       -5.2688
   2       -1.0331
   3       -0.9802
   4       -0.9441
   5       -0.5362
   6       -0.5342
   7       -0.5337
   8        0.7406
   9        0.8587
  10        0.8686
  11        1.5987
  12        1.6632
  13        1.9659
  14        1.9845
  15        2.0791
  16        2.1171
  17        2.1557
  18        2.1996
  19        2.2896
  20        2.3326
  21        2.3372
  22        4.5888
  23        5.3524
  24        6.0795
  25       11.2016
  26       11.8847
  27       12.5711
  28       14.7585
  29       16.1311
  30       16.5218
  31       16.8489
  32       17.0655
 
  0.1666667E+00  0.8333333E-01  0.0000000E+00  0.1736111E-02
   1       -5.1217
   2       -1.0447
   3       -0.9128
   4       -0.8799
   5       -0.4980
   6       -0.4925
   7       -0.4923
   8        0.7003
   9        0.8921
  10        0.9000
  11        1.5636
  12        1.6798
  13        1.7907
  14        1.7910
  15        2.0041
  16        2.0690
  17        2.1023
  18        2.1810
  19        2.2315
  20        2.3326
  21        2.3332
  22        4.0243
  23        5.6622
  24        6.3912
  25       11.2570
  26       11.9610
  27       13.4598
  28       14.0748
  29       15.4868
  30       16.0562
  31       17.0486
  32       17.1716
 
  0.2083333E+00  0.8333333E-01  0.0000000E+00  0.1736111E-02
   1       -4.9342
   2       -1.0737
   3       -0.8306
   4       -0.8016
   5       -0.4497
   6       -0.4395
   7       -0.4381
   8        0.6486
   9        0.9361
  10        0.9394
  11        1.5198
  12        1.5812
  13        1.5967
  14        1.7019
  15        1.9060
  16        2.0094
  17        2.0397
  18        2.1557
  19        2.1601
  20        2.3313
  21        2.3325
  22        3.4697
  23        6.0166
  24        6.7578
  25       11.3283
  26       12.0614
  27       13.4037
  28       14.4489
  29       14.8129
  30       15.5620
  31       16.7943
  32       17.3009
 
  0.2500000E+00  0.8333333E-01  0.0000000E+00  0.1736111E-02
   1       -4.7074
   2       -1.1328
   3       -0.7370
   4       -0.7124
   5       -0.3923
   6       -0.3747
   7       -0.3716
   8        0.5870
   9        0.9857
  10        0.9898
  11        1.3679
  12        1.3944
  13        1.4706
  14        1.7287
  15        1.7804
  16        1.9405
  17        1.9681
  18        2.0776
  19        2.1228
  20        2.3304
  21        2.3323
  22        2.9717
  23        6.4048
  24        7.1686
  25       11.4124
  26       12.1877
  27       12.7576
  28       14.1311
  29       15.0669
  30       15.5094
  31       16.3416
  32       17.6028
 
  0.2916667E+00  0.8333333E-01  0.0000000E+00  0.1736111E-02
   1       -4.4432
   2       -1.2386
   3       -0.6369
   4       -0.6167
   5       -0.3264
   6       -0.2984
   7       -0.2924
   8        0.5168
   9        1.0361
  10        1.0528
  11        1.1579
  12        1.1918
  13        1.4208
  14        1.6240
  15        1.7596
  16        1.8657
  17        1.8905
  18        1.9865
  19        2.0789
  20        2.3300
  21        2.3321
  22        2.5706
  23        6.8200
  24        7.6162
  25       11.4843
  26       12.1672
  27       12.3413
  28       13.4528
  29       14.5894
  30       15.8600
  31       16.6211
  32       17.9507
 
  0.3333333E+00  0.8333333E-01  0.0000000E+00  0.1736111E-02
   1       -4.1441
   2       -1.4076
   3       -0.5361
   4       -0.5200
   5       -0.2532
   6       -0.2109
   7       -0.2005
   8        0.4394
   9        0.9553
  10        0.9937
  11        1.0842
  12        1.1243
  13        1.3796
  14        1.4479
  15        1.7894
  16        1.7939
  17        1.8111
  18        1.8891
  19        2.0131
  20        2.2939
  21        2.3299
  22        2.3319
  23        7.2577
  24        8.0956
  25       11.3234
  26       11.8570
  27       12.5222
  28       12.7845
  29       14.1425
  30       15.3777
  31       17.7598
  32       18.3412
 
  0.3750000E+00  0.8333333E-01  0.0000000E+00  0.1736111E-02
   1       -3.8135
   2       -1.6490
   3       -0.4423
   4       -0.4295
   5       -0.1738
   6       -0.1122
   7       -0.0956
   8        0.3563
   9        0.7628
  10        0.8035
  11        1.1153
  12        1.2037
  13        1.2861
  14        1.3652
  15        1.7181
  16        1.7358
  17        1.7876
  18        1.8313
  19        1.9085
  20        2.1411
  21        2.3301
  22        2.3317
  23        7.7153
  24        8.6032
  25       10.8144
  26       11.9448
  27       12.1302
  28       12.7256
  29       13.7402
  30       14.9120
  31       18.7703
  32       18.8036
 
  0.4166667E+00  0.8333333E-01  0.0000000E+00  0.1736111E-02
   1       -3.4563
   2       -1.9570
   3       -0.3640
   4       -0.3546
   5       -0.0894
   6       -0.0015
   7        0.0224
   8        0.2691
   9        0.5821
  10        0.6232
  11        1.1157
  12        1.1706
  13        1.2902
  14        1.3961
  15        1.6593
  16        1.6720
  17        1.6844
  18        1.7830
  19        1.8713
  20        2.0617
  21        2.3303
  22        2.3314
  23        8.1909
  24        9.1365
  25       10.2626
  26       11.4923
  27       12.1262
  28       12.9101
  29       13.4296
  30       14.4742
  31       19.2341
  32       19.4472
 
  0.4583333E+00  0.8333333E-01  0.0000000E+00  0.1736111E-02
   1       -3.0795
   2       -2.3127
   3       -0.3106
   4       -0.3054
   5       -0.0014
   6        0.1226
   7        0.1534
   8        0.1794
   9        0.4146
  10        0.4542
  11        1.0991
  12        1.1087
  13        1.3828
  14        1.4652
  15        1.5813
  16        1.6211
  17        1.6278
  18        1.6636
  19        1.9136
  20        2.0062
  21        2.3305
  22        2.3311
  23        8.6837
  24        9.6934
  25        9.7202
  26       10.8726
  27       12.3487
  28       12.8523
  29       13.4374
  30       14.0724
  31       19.7288
  32       19.9947
 
  0.5000000E+00  0.8333333E-01  0.0000000E+00  0.8680556E-03
   1       -2.6935
   2       -2.6935
   3       -0.2899
   4       -0.2899
   5        0.0887
   6        0.0887
   7        0.2613
   8        0.2613
   9        0.2975
  10        0.2975
  11        1.0902
  12        1.0902
  13        1.4803
  14        1.4803
  15        1.5568
  16        1.5568
  17        1.6098
  18        1.6098
  19        1.9582
  20        1.9582
  21        2.3308
  22        2.3308
  23        9.1935
  24        9.1935
  25       10.2726
  26       10.2726
  27       12.6009
  28       12.6009
  29       13.7161
  30       13.7161
  31       20.2503
  32       20.2503
 
  0.1250000E+00  0.1250000E+00  0.0000000E+00  0.8680556E-03
   1       -5.1638
   2       -0.9817
   3       -0.9817
   4       -0.8980
   5       -0.5071
   6       -0.5071
   7       -0.5057
   8        0.7205
   9        0.8742
  10        0.8880
  11        1.5868
  12        1.6644
  13        1.8532
  14        1.9130
  15        1.9130
  16        2.0837
  17        2.1548
  18        2.1548
  19        2.2895
  20        2.2895
  21        2.3174
  22        4.8350
  23        4.8350
  24        6.3073
  25       11.2398
  26       12.6335
  27       12.6335
  28       14.0347
  29       16.2695
  30       16.2695
  31       16.6621
  32       16.6621
 
  0.1666667E+00  0.1250000E+00  0.0000000E+00  0.1736111E-02
   1       -5.0175
   2       -0.9911
   3       -0.9122
   4       -0.8357
   5       -0.4698
   6       -0.4664
   7       -0.4662
   8        0.6863
   9        0.9028
  10        0.9145
  11        1.5595
  12        1.6781
  13        1.7033
  14        1.7144
  15        1.8209
  16        2.0381
  17        2.1034
  18        2.1443
  19        2.2311
  20        2.2892
  21        2.3038
  22        4.2727
  23        5.1352
  24        6.6037
  25       11.2921
  26       12.7221
  27       13.3266
  28       13.5287
  29       15.6209
  30       16.1892
  31       16.4606
  32       16.8567
 
  0.2083333E+00  0.1250000E+00  0.0000000E+00  0.1736111E-02
   1       -4.8311
   2       -1.0173
   3       -0.8272
   4       -0.7597
   5       -0.4229
   6       -0.4161
   7       -0.4134
   8        0.6392
   9        0.9435
  10        0.9472
  11        1.5042
  12        1.5213
  13        1.5299
  14        1.7014
  15        1.7073
  16        1.9814
  17        2.0420
  18        2.1236
  19        2.1596
  20        2.2889
  21        2.2956
  22        3.7241
  23        5.4734
  24        6.9561
  25       11.3523
  26       12.6505
  27       12.8380
  28       14.5217
  29       14.9446
  30       15.6882
  31       16.7018
  32       17.1044
 
  0.2500000E+00  0.1250000E+00  0.0000000E+00  0.1736111E-02
   1       -4.6057
   2       -1.0730
   3       -0.7303
   4       -0.6728
   5       -0.3669
   6       -0.3550
   7       -0.3485
   8        0.5812
   9        0.9843
  10        0.9952
  11        1.2930
  12        1.3446
  13        1.4779
  14        1.5720
  15        1.7316
  16        1.9157
  17        1.9716
  18        2.0771
  19        2.0922
  20        2.2885
  21        2.2907
  22        3.2309
  23        5.8400
  24        7.3543
  25       11.3822
  26       12.0515
  27       12.9821
  28       14.2616
  29       15.1874
  30       15.5824
  31       16.9901
  32       17.2102
 
  0.2916667E+00  0.1250000E+00  0.0000000E+00  0.1736111E-02
   1       -4.3432
   2       -1.1748
   3       -0.6262
   4       -0.5789
   5       -0.3028
   6       -0.2840
   7       -0.2713
   8        0.5143
   9        1.0218
  10        1.0566
  11        1.0867
  12        1.1556
  13        1.4201
  14        1.4363
  15        1.7671
  16        1.8443
  17        1.8948
  18        1.9859
  19        2.0480
  20        2.2879
  21        2.2881
  22        2.8233
  23        6.2295
  24        7.7912
  25       11.1386
  26       11.7771
  27       13.1540
  28       13.5832
  29       14.7061
  30       16.6847
  31       16.7825
  32       17.3224
 
  0.3333333E+00  0.1250000E+00  0.0000000E+00  0.1736111E-02
   1       -4.0462
   2       -1.3397
   3       -0.5208
   4       -0.4828
   5       -0.2315
   6       -0.2041
   7       -0.1818
   8        0.4400
   9        0.8890
  10        0.9688
  11        1.0521
  12        1.1270
  13        1.2678
  14        1.4072
  15        1.7717
  16        1.8073
  17        1.8158
  18        1.8884
  19        1.9868
  20        2.2863
  21        2.2876
  22        2.5162
  23        6.6388
  24        8.2615
  25       10.6045
  26       11.8476
  27       12.9157
  28       13.3477
  29       14.2633
  30       16.3250
  31       17.6952
  32       17.7448
 
  0.3750000E+00  0.1250000E+00  0.0000000E+00  0.1736111E-02
   1       -3.7181
   2       -1.5768
   3       -0.4217
   4       -0.3914
   5       -0.1542
   6       -0.1159
   7       -0.0797
   8        0.3599
   9        0.7021
  10        0.7877
  11        1.0638
  12        1.1402
  13        1.2056
  14        1.4055
  15        1.7041
  16        1.7402
  17        1.7871
  18        1.8517
  19        1.9039
  20        2.2855
  21        2.2871
  22        2.3061
  23        7.0664
  24        8.7614
  25       10.0407
  26       12.0041
  27       12.2629
  28       13.5035
  29       13.9263
  30       15.8661
  31       18.1051
  32       18.4277
 
  0.4166667E+00  0.1250000E+00  0.0000000E+00  0.1736111E-02
   1       -3.3638
   2       -1.8803
   3       -0.3376
   4       -0.3147
   5       -0.0722
   6       -0.0179
   7        0.0349
   8        0.2756
   9        0.5278
  10        0.6151
  11        1.0526
  12        1.0557
  13        1.2914
  14        1.4400
  15        1.6491
  16        1.6752
  17        1.6840
  18        1.8016
  19        1.9000
  20        2.1711
  21        2.2853
  22        2.2866
  23        7.5121
  24        9.2882
  25        9.4922
  26       11.6273
  27       12.2032
  28       13.3317
  29       13.9900
  30       15.4227
  31       18.5487
  32       18.9295
 
  0.4583333E+00  0.1250000E+00  0.0000000E+00  0.1736111E-02
   1       -2.9904
   2       -2.2316
   3       -0.2783
   4       -0.2653
   5        0.0133
   6        0.0938
   7        0.1619
   8        0.1887
   9        0.3673
  10        0.4526
  11        1.0163