<?xml version="1.0" encoding="ISO-8859-1"?>
<modeling>
 <generator>
  <i name="program" type="string">vasp</i>
  <i name="version" type="string">4.6.28 </i>
  <i name="subversion" type="string">25Jul05 complex  parallel</i>
  <i name="platform" type="string">LinuxIFC</i>
  <i name="date" type="string">2017 01 11</i>
  <i name="time" type="string">18:13:10</i>
 </generator>
 <incar>
  <i type="string" name="PREC">accurate</i>
  <i type="int" name="IALGO">    38</i>
  <i type="logical" name="ADDGRID"> T  </i>
  <i name="EDIFF">      0.00000001</i>
  <i type="int" name="IBRION">    -1</i>
  <i name="ENCUT">    800.00000000</i>
  <i type="logical" name="LREAL"> F  </i>
  <i type="int" name="ISMEAR">     0</i>
  <i name="SIGMA">      0.01000000</i>
  <i type="logical" name="LWAVE"> F  </i>
  <i type="logical" name="LCHARG"> F  </i>
 </incar>
 <kpoints>
  <generation param="Gamma">
   <v type="int" name="divisions">      24      24      24</v>
   <v name="usershift">      0.00000000      0.00000000      0.00000000</v>
   <v name="genvec1">      0.04166667      0.00000000      0.00000000</v>
   <v name="genvec2">      0.00000000      0.04166667      0.00000000</v>
   <v name="genvec3">      0.00000000      0.00000000      0.04166667</v>
   <v name="shift">      0.00000000      0.00000000      0.00000000</v>
  </generation>
  <varray name="kpointlist" >
   <v>       0.00000000      0.00000000      0.00000000</v>
   <v>       0.04166667      0.00000000      0.00000000</v>
   <v>       0.08333333      0.00000000      0.00000000</v>
   <v>       0.12500000      0.00000000      0.00000000</v>
   <v>       0.16666667      0.00000000      0.00000000</v>
   <v>       0.20833333      0.00000000      0.00000000</v>
   <v>       0.25000000      0.00000000      0.00000000</v>
   <v>       0.29166667      0.00000000      0.00000000</v>
   <v>       0.33333333      0.00000000      0.00000000</v>
   <v>       0.37500000      0.00000000      0.00000000</v>
   <v>       0.41666667      0.00000000      0.00000000</v>
   <v>       0.45833333      0.00000000      0.00000000</v>
   <v>       0.50000000      0.00000000      0.00000000</v>
   <v>       0.04166667      0.04166667      0.00000000</v>
   <v>       0.08333333      0.04166667      0.00000000</v>
   <v>       0.12500000      0.04166667      0.00000000</v>
   <v>       0.16666667      0.04166667      0.00000000</v>
   <v>       0.20833333      0.04166667      0.00000000</v>
   <v>       0.25000000      0.04166667      0.00000000</v>
   <v>       0.29166667      0.04166667      0.00000000</v>
   <v>       0.33333333      0.04166667      0.00000000</v>
   <v>       0.37500000      0.04166667      0.00000000</v>
   <v>       0.41666667      0.04166667      0.00000000</v>
   <v>       0.45833333      0.04166667      0.00000000</v>
   <v>       0.50000000      0.04166667      0.00000000</v>
   <v>       0.08333333      0.08333333      0.00000000</v>
   <v>       0.12500000      0.08333333      0.00000000</v>
   <v>       0.16666667      0.08333333      0.00000000</v>
   <v>       0.20833333      0.08333333      0.00000000</v>
   <v>       0.25000000      0.08333333      0.00000000</v>
   <v>       0.29166667      0.08333333      0.00000000</v>
   <v>       0.33333333      0.08333333      0.00000000</v>
   <v>       0.37500000      0.08333333      0.00000000</v>
   <v>       0.41666667      0.08333333      0.00000000</v>
   <v>       0.45833333      0.08333333      0.00000000</v>
   <v>       0.50000000      0.08333333      0.00000000</v>
   <v>       0.12500000      0.12500000      0.00000000</v>
   <v>       0.16666667      0.12500000      0.00000000</v>
   <v>       0.20833333      0.12500000      0.00000000</v>
   <v>       0.25000000      0.12500000      0.00000000</v>
   <v>       0.29166667      0.12500000      0.00000000</v>
   <v>       0.33333333      0.12500000      0.00000000</v>
   <v>       0.37500000      0.12500000      0.00000000</v>
   <v>       0.41666667      0.12500000      0.00000000</v>
   <v>       0.45833333      0.12500000      0.00000000</v>
   <v>       0.50000000      0.12500000      0.00000000</v>
   <v>       0.16666667      0.16666667      0.00000000</v>
   <v>       0.20833333      0.16666667      0.00000000</v>
   <v>       0.25000000      0.16666667      0.00000000</v>
   <v>       0.29166667      0.16666667      0.00000000</v>
   <v>       0.33333333      0.16666667      0.00000000</v>
   <v>       0.37500000      0.16666667      0.00000000</v>
   <v>       0.41666667      0.16666667      0.00000000</v>
   <v>       0.45833333      0.16666667      0.00000000</v>
   <v>       0.50000000      0.16666667      0.00000000</v>
   <v>       0.20833333      0.20833333      0.00000000</v>
   <v>       0.25000000      0.20833333      0.00000000</v>
   <v>       0.29166667      0.20833333      0.00000000</v>
   <v>       0.33333333      0.20833333      0.00000000</v>
   <v>       0.37500000      0.20833333      0.00000000</v>
   <v>       0.41666667      0.20833333      0.00000000</v>
   <v>       0.45833333      0.20833333      0.00000000</v>
   <v>       0.50000000      0.20833333      0.00000000</v>
   <v>       0.25000000      0.25000000      0.00000000</v>
   <v>       0.29166667      0.25000000      0.00000000</v>
   <v>       0.33333333      0.25000000      0.00000000</v>
   <v>       0.37500000      0.25000000      0.00000000</v>
   <v>       0.41666667      0.25000000      0.00000000</v>
   <v>       0.45833333      0.25000000      0.00000000</v>
   <v>       0.50000000      0.25000000      0.00000000</v>
   <v>       0.29166667      0.29166667      0.00000000</v>
   <v>       0.33333333      0.29166667      0.00000000</v>
   <v>       0.37500000      0.29166667      0.00000000</v>
   <v>       0.41666667      0.29166667      0.00000000</v>
   <v>       0.45833333      0.29166667      0.00000000</v>
   <v>       0.50000000      0.29166667      0.00000000</v>
   <v>       0.33333333      0.33333333      0.00000000</v>
   <v>       0.37500000      0.33333333      0.00000000</v>
   <v>       0.41666667      0.33333333      0.00000000</v>
   <v>       0.45833333      0.33333333      0.00000000</v>
   <v>       0.50000000      0.33333333      0.00000000</v>
   <v>       0.37500000      0.37500000      0.00000000</v>
   <v>       0.41666667      0.37500000      0.00000000</v>
   <v>       0.45833333      0.37500000      0.00000000</v>
   <v>       0.50000000      0.37500000      0.00000000</v>
   <v>       0.41666667      0.41666667      0.00000000</v>
   <v>       0.45833333      0.41666667      0.00000000</v>
   <v>       0.50000000      0.41666667      0.00000000</v>
   <v>       0.45833333      0.45833333      0.00000000</v>
   <v>       0.50000000      0.45833333      0.00000000</v>
   <v>       0.50000000      0.50000000      0.00000000</v>
   <v>       0.04166667      0.04166667      0.04166667</v>
   <v>       0.08333333      0.04166667      0.04166667</v>
   <v>       0.12500000      0.04166667      0.04166667</v>
   <v>       0.16666667      0.04166667      0.04166667</v>
   <v>       0.20833333      0.04166667      0.04166667</v>
   <v>       0.25000000      0.04166667      0.04166667</v>
   <v>       0.29166667      0.04166667      0.04166667</v>
   <v>       0.33333333      0.04166667      0.04166667</v>
   <v>       0.37500000      0.04166667      0.04166667</v>
   <v>       0.41666667      0.04166667      0.04166667</v>
   <v>       0.45833333      0.04166667      0.04166667</v>
   <v>       0.50000000      0.04166667      0.04166667</v>
   <v>       0.08333333      0.08333333      0.04166667</v>
   <v>       0.12500000      0.08333333      0.04166667</v>
   <v>       0.16666667      0.08333333      0.04166667</v>
   <v>       0.20833333      0.08333333      0.04166667</v>
   <v>       0.25000000      0.08333333      0.04166667</v>
   <v>       0.29166667      0.08333333      0.04166667</v>
   <v>       0.33333333      0.08333333      0.04166667</v>
   <v>       0.37500000      0.08333333      0.04166667</v>
   <v>       0.41666667      0.08333333      0.04166667</v>
   <v>       0.45833333      0.08333333      0.04166667</v>
   <v>       0.50000000      0.08333333      0.04166667</v>
   <v>       0.12500000      0.12500000      0.04166667</v>
   <v>       0.16666667      0.12500000      0.04166667</v>
   <v>       0.20833333      0.12500000      0.04166667</v>
   <v>       0.25000000      0.12500000      0.04166667</v>
   <v>       0.29166667      0.12500000      0.04166667</v>
   <v>       0.33333333      0.12500000      0.04166667</v>
   <v>       0.37500000      0.12500000      0.04166667</v>
   <v>       0.41666667      0.12500000      0.04166667</v>
   <v>       0.45833333      0.12500000      0.04166667</v>
   <v>       0.50000000      0.12500000      0.04166667</v>
   <v>       0.16666667      0.16666667      0.04166667</v>
   <v>       0.20833333      0.16666667      0.04166667</v>
   <v>       0.25000000      0.16666667      0.04166667</v>
   <v>       0.29166667      0.16666667      0.04166667</v>
   <v>       0.33333333      0.16666667      0.04166667</v>
   <v>       0.37500000      0.16666667      0.04166667</v>
   <v>       0.41666667      0.16666667      0.04166667</v>
   <v>       0.45833333      0.16666667      0.04166667</v>
   <v>       0.50000000      0.16666667      0.04166667</v>
   <v>       0.20833333      0.20833333      0.04166667</v>
   <v>       0.25000000      0.20833333      0.04166667</v>
   <v>       0.29166667      0.20833333      0.04166667</v>
   <v>       0.33333333      0.20833333      0.04166667</v>
   <v>       0.37500000      0.20833333      0.04166667</v>
   <v>       0.41666667      0.20833333      0.04166667</v>
   <v>       0.45833333      0.20833333      0.04166667</v>
   <v>       0.50000000      0.20833333      0.04166667</v>
   <v>       0.25000000      0.25000000      0.04166667</v>
   <v>       0.29166667      0.25000000      0.04166667</v>
   <v>       0.33333333      0.25000000      0.04166667</v>
   <v>       0.37500000      0.25000000      0.04166667</v>
   <v>       0.41666667      0.25000000      0.04166667</v>
   <v>       0.45833333      0.25000000      0.04166667</v>
   <v>       0.50000000      0.25000000      0.04166667</v>
   <v>       0.29166667      0.29166667      0.04166667</v>
   <v>       0.33333333      0.29166667      0.04166667</v>
   <v>       0.37500000      0.29166667      0.04166667</v>
   <v>       0.41666667      0.29166667      0.04166667</v>
   <v>       0.45833333      0.29166667      0.04166667</v>
   <v>       0.50000000      0.29166667      0.04166667</v>
   <v>       0.33333333      0.33333333      0.04166667</v>
   <v>       0.37500000      0.33333333      0.04166667</v>
   <v>       0.41666667      0.33333333      0.04166667</v>
   <v>       0.45833333      0.33333333      0.04166667</v>
   <v>       0.50000000      0.33333333      0.04166667</v>
   <v>       0.37500000      0.37500000      0.04166667</v>
   <v>       0.41666667      0.37500000      0.04166667</v>
   <v>       0.45833333      0.37500000      0.04166667</v>
   <v>       0.50000000      0.37500000      0.04166667</v>
   <v>       0.41666667      0.41666667      0.04166667</v>
   <v>       0.45833333      0.41666667      0.04166667</v>
   <v>       0.50000000      0.41666667      0.04166667</v>
   <v>       0.45833333      0.45833333      0.04166667</v>
   <v>       0.50000000      0.45833333      0.04166667</v>
   <v>       0.50000000      0.50000000      0.04166667</v>
   <v>       0.08333333      0.08333333      0.08333333</v>
   <v>       0.12500000      0.08333333      0.08333333</v>
   <v>       0.16666667      0.08333333      0.08333333</v>
   <v>       0.20833333      0.08333333      0.08333333</v>
   <v>       0.25000000      0.08333333      0.08333333</v>
   <v>       0.29166667      0.08333333      0.08333333</v>
   <v>       0.33333333      0.08333333      0.08333333</v>
   <v>       0.37500000      0.08333333      0.08333333</v>
   <v>       0.41666667      0.08333333      0.08333333</v>
   <v>       0.45833333      0.08333333      0.08333333</v>
   <v>       0.50000000      0.08333333      0.08333333</v>
   <v>       0.12500000      0.12500000      0.08333333</v>
   <v>       0.16666667      0.12500000      0.08333333</v>
   <v>       0.20833333      0.12500000      0.08333333</v>
   <v>       0.25000000      0.12500000      0.08333333</v>
   <v>       0.29166667      0.12500000      0.08333333</v>
   <v>       0.33333333      0.12500000      0.08333333</v>
   <v>       0.37500000      0.12500000      0.08333333</v>
   <v>       0.41666667      0.12500000      0.08333333</v>
   <v>       0.45833333      0.12500000      0.08333333</v>
   <v>       0.50000000      0.12500000      0.08333333</v>
   <v>       0.16666667      0.16666667      0.08333333</v>
   <v>       0.20833333      0.16666667      0.08333333</v>
   <v>       0.25000000      0.16666667      0.08333333</v>
   <v>       0.29166667      0.16666667      0.08333333</v>
   <v>       0.33333333      0.16666667      0.08333333</v>
   <v>       0.37500000      0.16666667      0.08333333</v>
   <v>       0.41666667      0.16666667      0.08333333</v>
   <v>       0.45833333      0.16666667      0.08333333</v>
   <v>       0.50000000      0.16666667      0.08333333</v>
   <v>       0.20833333      0.20833333      0.08333333</v>
   <v>       0.25000000      0.20833333      0.08333333</v>
   <v>       0.29166667      0.20833333      0.08333333</v>
   <v>       0.33333333      0.20833333      0.08333333</v>
   <v>       0.37500000      0.20833333      0.08333333</v>
   <v>       0.41666667      0.20833333      0.08333333</v>
   <v>       0.45833333      0.20833333      0.08333333</v>
   <v>       0.50000000      0.20833333      0.08333333</v>
   <v>       0.25000000      0.25000000      0.08333333</v>
   <v>       0.29166667      0.25000000      0.08333333</v>
   <v>       0.33333333      0.25000000      0.08333333</v>
   <v>       0.37500000      0.25000000      0.08333333</v>
   <v>       0.41666667      0.25000000      0.08333333</v>
   <v>       0.45833333      0.25000000      0.08333333</v>
   <v>       0.50000000      0.25000000      0.08333333</v>
   <v>       0.29166667      0.29166667      0.08333333</v>
   <v>       0.33333333      0.29166667      0.08333333</v>
   <v>       0.37500000      0.29166667      0.08333333</v>
   <v>       0.41666667      0.29166667      0.08333333</v>
   <v>       0.45833333      0.29166667      0.08333333</v>
   <v>       0.50000000      0.29166667      0.08333333</v>
   <v>       0.33333333      0.33333333      0.08333333</v>
   <v>       0.37500000      0.33333333      0.08333333</v>
   <v>       0.41666667      0.33333333      0.08333333</v>
   <v>       0.45833333      0.33333333      0.08333333</v>
   <v>       0.50000000      0.33333333      0.08333333</v>
   <v>       0.37500000      0.37500000      0.08333333</v>
   <v>       0.41666667      0.37500000      0.08333333</v>
   <v>       0.45833333      0.37500000      0.08333333</v>
   <v>       0.50000000      0.37500000      0.08333333</v>
   <v>       0.41666667      0.41666667      0.08333333</v>
   <v>       0.45833333      0.41666667      0.08333333</v>
   <v>       0.50000000      0.41666667      0.08333333</v>
   <v>       0.45833333      0.45833333      0.08333333</v>
   <v>       0.50000000      0.45833333      0.08333333</v>
   <v>       0.50000000      0.50000000      0.08333333</v>
   <v>       0.12500000      0.12500000      0.12500000</v>
   <v>       0.16666667      0.12500000      0.12500000</v>
   <v>       0.20833333      0.12500000      0.12500000</v>
   <v>       0.25000000      0.12500000      0.12500000</v>
   <v>       0.29166667      0.12500000      0.12500000</v>
   <v>       0.33333333      0.12500000      0.12500000</v>
   <v>       0.37500000      0.12500000      0.12500000</v>
   <v>       0.41666667      0.12500000      0.12500000</v>
   <v>       0.45833333      0.12500000      0.12500000</v>
   <v>       0.50000000      0.12500000      0.12500000</v>
   <v>       0.16666667      0.16666667      0.12500000</v>
   <v>       0.20833333      0.16666667      0.12500000</v>
   <v>       0.25000000      0.16666667      0.12500000</v>
   <v>       0.29166667      0.16666667      0.12500000</v>
   <v>       0.33333333      0.16666667      0.12500000</v>
   <v>       0.37500000      0.16666667      0.12500000</v>
   <v>       0.41666667      0.16666667      0.12500000</v>
   <v>       0.45833333      0.16666667      0.12500000</v>
   <v>       0.50000000      0.16666667      0.12500000</v>
   <v>       0.20833333      0.20833333      0.12500000</v>
   <v>       0.25000000      0.20833333      0.12500000</v>
   <v>       0.29166667      0.20833333      0.12500000</v>
   <v>       0.33333333      0.20833333      0.12500000</v>
   <v>       0.37500000      0.20833333      0.12500000</v>
   <v>       0.41666667      0.20833333      0.12500000</v>
   <v>       0.45833333      0.20833333      0.12500000</v>
   <v>       0.50000000      0.20833333      0.12500000</v>
   <v>       0.25000000      0.25000000      0.12500000</v>
   <v>       0.29166667      0.25000000      0.12500000</v>
   <v>       0.33333333      0.25000000      0.12500000</v>
   <v>       0.37500000      0.25000000      0.12500000</v>
   <v>       0.41666667      0.25000000      0.12500000</v>
   <v>       0.45833333      0.25000000      0.12500000</v>
   <v>       0.50000000      0.25000000      0.12500000</v>
   <v>       0.29166667      0.29166667      0.12500000</v>
   <v>       0.33333333      0.29166667      0.12500000</v>
   <v>       0.37500000      0.29166667      0.12500000</v>
   <v>       0.41666667      0.29166667      0.12500000</v>
   <v>       0.45833333      0.29166667      0.12500000</v>
   <v>       0.50000000      0.29166667      0.12500000</v>
   <v>       0.33333333      0.33333333      0.12500000</v>
   <v>       0.37500000      0.33333333      0.12500000</v>
   <v>       0.41666667      0.33333333      0.12500000</v>
   <v>       0.45833333      0.33333333      0.12500000</v>
   <v>       0.50000000      0.33333333      0.12500000</v>
   <v>       0.37500000      0.37500000      0.12500000</v>
   <v>       0.41666667      0.37500000      0.12500000</v>
   <v>       0.45833333      0.37500000      0.12500000</v>
   <v>       0.50000000      0.37500000      0.12500000</v>
   <v>       0.41666667      0.41666667      0.12500000</v>
   <v>       0.45833333      0.41666667      0.12500000</v>
   <v>       0.50000000      0.41666667      0.12500000</v>
   <v>       0.45833333      0.45833333      0.12500000</v>
   <v>       0.50000000      0.45833333      0.12500000</v>
   <v>       0.50000000      0.50000000      0.12500000</v>
   <v>       0.16666667      0.16666667      0.16666667</v>
   <v>       0.20833333      0.16666667      0.16666667</v>
   <v>       0.25000000      0.16666667      0.16666667</v>
   <v>       0.29166667      0.16666667      0.16666667</v>
   <v>       0.33333333      0.16666667      0.16666667</v>
   <v>       0.37500000      0.16666667      0.16666667</v>
   <v>       0.41666667      0.16666667      0.16666667</v>
   <v>       0.45833333      0.16666667      0.16666667</v>
   <v>       0.50000000      0.16666667      0.16666667</v>
   <v>       0.20833333      0.20833333      0.16666667</v>
   <v>       0.25000000      0.20833333      0.16666667</v>
   <v>       0.29166667      0.20833333      0.16666667</v>
   <v>       0.33333333      0.20833333      0.16666667</v>
   <v>       0.37500000      0.20833333      0.16666667</v>
   <v>       0.41666667      0.20833333      0.16666667</v>
   <v>       0.45833333      0.20833333      0.16666667</v>
   <v>       0.50000000      0.20833333      0.16666667</v>
   <v>       0.25000000      0.25000000      0.16666667</v>
   <v>       0.29166667      0.25000000      0.16666667</v>
   <v>       0.33333333      0.25000000      0.16666667</v>
   <v>       0.37500000      0.25000000      0.16666667</v>
   <v>       0.41666667      0.25000000      0.16666667</v>
   <v>       0.45833333      0.25000000      0.16666667</v>
   <v>       0.50000000      0.25000000      0.16666667</v>
   <v>       0.29166667      0.29166667      0.16666667</v>
   <v>       0.33333333      0.29166667      0.16666667</v>
   <v>       0.37500000      0.29166667      0.16666667</v>
   <v>       0.41666667      0.29166667      0.16666667</v>
   <v>       0.45833333      0.29166667      0.16666667</v>
   <v>       0.50000000      0.29166667      0.16666667</v>
   <v>       0.33333333      0.33333333      0.16666667</v>
   <v>       0.37500000      0.33333333      0.16666667</v>
   <v>       0.41666667      0.33333333      0.16666667</v>
   <v>       0.45833333      0.33333333      0.16666667</v>
   <v>       0.50000000      0.33333333      0.16666667</v>
   <v>       0.37500000      0.37500000      0.16666667</v>
   <v>       0.41666667      0.37500000      0.16666667</v>
   <v>       0.45833333      0.37500000      0.16666667</v>
   <v>       0.50000000      0.37500000      0.16666667</v>
   <v>       0.41666667      0.41666667      0.16666667</v>
   <v>       0.45833333      0.41666667      0.16666667</v>
   <v>       0.50000000      0.41666667      0.16666667</v>
   <v>       0.45833333      0.45833333      0.16666667</v>
   <v>       0.50000000      0.45833333      0.16666667</v>
   <v>       0.50000000      0.50000000      0.16666667</v>
   <v>       0.20833333      0.20833333      0.20833333</v>
   <v>       0.25000000      0.20833333      0.20833333</v>
   <v>       0.29166667      0.20833333      0.20833333</v>
   <v>       0.33333333      0.20833333      0.20833333</v>
   <v>       0.37500000      0.20833333      0.20833333</v>
   <v>       0.41666667      0.20833333      0.20833333</v>
   <v>       0.45833333      0.20833333      0.20833333</v>
   <v>       0.50000000      0.20833333      0.20833333</v>
   <v>       0.25000000      0.25000000      0.20833333</v>
   <v>       0.29166667      0.25000000      0.20833333</v>
   <v>       0.33333333      0.25000000      0.20833333</v>
   <v>       0.37500000      0.25000000      0.20833333</v>
   <v>       0.41666667      0.25000000      0.20833333</v>
   <v>       0.45833333      0.25000000      0.20833333</v>
   <v>       0.50000000      0.25000000      0.20833333</v>
   <v>       0.29166667      0.29166667      0.20833333</v>
   <v>       0.33333333      0.29166667      0.20833333</v>
   <v>       0.37500000      0.29166667      0.20833333</v>
   <v>       0.41666667      0.29166667      0.20833333</v>
   <v>       0.45833333      0.29166667      0.20833333</v>
   <v>       0.50000000      0.29166667      0.20833333</v>
   <v>       0.33333333      0.33333333      0.20833333</v>
   <v>       0.37500000      0.33333333      0.20833333</v>
   <v>       0.41666667      0.33333333      0.20833333</v>
   <v>       0.45833333      0.33333333      0.20833333</v>
   <v>       0.50000000      0.33333333      0.20833333</v>
   <v>       0.37500000      0.37500000      0.20833333</v>
   <v>       0.41666667      0.37500000      0.20833333</v>
   <v>       0.45833333      0.37500000      0.20833333</v>
   <v>       0.50000000      0.37500000      0.20833333</v>
   <v>       0.41666667      0.41666667      0.20833333</v>
   <v>       0.45833333      0.41666667      0.20833333</v>
   <v>       0.50000000      0.41666667      0.20833333</v>
   <v>       0.45833333      0.45833333      0.20833333</v>
   <v>       0.50000000      0.45833333      0.20833333</v>
   <v>       0.50000000      0.50000000      0.20833333</v>
   <v>       0.25000000      0.25000000      0.25000000</v>
   <v>       0.29166667      0.25000000      0.25000000</v>
   <v>       0.33333333      0.25000000      0.25000000</v>
   <v>       0.37500000      0.25000000      0.25000000</v>
   <v>       0.41666667      0.25000000      0.25000000</v>
   <v>       0.45833333      0.25000000      0.25000000</v>
   <v>       0.50000000      0.25000000      0.25000000</v>
   <v>       0.29166667      0.29166667      0.25000000</v>
   <v>       0.33333333      0.29166667      0.25000000</v>
   <v>       0.37500000      0.29166667      0.25000000</v>
   <v>       0.41666667      0.29166667      0.25000000</v>
   <v>       0.45833333      0.29166667      0.25000000</v>
   <v>       0.50000000      0.29166667      0.25000000</v>
   <v>       0.33333333      0.33333333      0.25000000</v>
   <v>       0.37500000      0.33333333      0.25000000</v>
   <v>       0.41666667      0.33333333      0.25000000</v>
   <v>       0.45833333      0.33333333      0.25000000</v>
   <v>       0.50000000      0.33333333      0.25000000</v>
   <v>       0.37500000      0.37500000      0.25000000</v>
   <v>       0.41666667      0.37500000      0.25000000</v>
   <v>       0.45833333      0.37500000      0.25000000</v>
   <v>       0.50000000      0.37500000      0.25000000</v>
   <v>       0.41666667      0.41666667      0.25000000</v>
   <v>       0.45833333      0.41666667      0.25000000</v>
   <v>       0.50000000      0.41666667      0.25000000</v>
   <v>       0.45833333      0.45833333      0.25000000</v>
   <v>       0.50000000      0.45833333      0.25000000</v>
   <v>       0.50000000      0.50000000      0.25000000</v>
   <v>       0.29166667      0.29166667      0.29166667</v>
   <v>       0.33333333      0.29166667      0.29166667</v>
   <v>       0.37500000      0.29166667      0.29166667</v>
   <v>       0.41666667      0.29166667      0.29166667</v>
   <v>       0.45833333      0.29166667      0.29166667</v>
   <v>       0.50000000      0.29166667      0.29166667</v>
   <v>       0.33333333      0.33333333      0.29166667</v>
   <v>       0.37500000      0.33333333      0.29166667</v>
   <v>       0.41666667      0.33333333      0.29166667</v>
   <v>       0.45833333      0.33333333      0.29166667</v>
   <v>       0.50000000      0.33333333      0.29166667</v>
   <v>       0.37500000      0.37500000      0.29166667</v>
   <v>       0.41666667      0.37500000      0.29166667</v>
   <v>       0.45833333      0.37500000      0.29166667</v>
   <v>       0.50000000      0.37500000      0.29166667</v>
   <v>       0.41666667      0.41666667      0.29166667</v>
   <v>       0.45833333      0.41666667      0.29166667</v>
   <v>       0.50000000      0.41666667      0.29166667</v>
   <v>       0.45833333      0.45833333      0.29166667</v>
   <v>       0.50000000      0.45833333      0.29166667</v>
   <v>       0.50000000      0.50000000      0.29166667</v>
   <v>       0.33333333      0.33333333      0.33333333</v>
   <v>       0.37500000      0.33333333      0.33333333</v>
   <v>       0.41666667      0.33333333      0.33333333</v>
   <v>       0.45833333      0.33333333      0.33333333</v>
   <v>       0.50000000      0.33333333      0.33333333</v>
   <v>       0.37500000      0.37500000      0.33333333</v>
   <v>       0.41666667      0.37500000      0.33333333</v>
   <v>       0.45833333      0.37500000      0.33333333</v>
   <v>       0.50000000      0.37500000      0.33333333</v>
   <v>       0.41666667      0.41666667      0.33333333</v>
   <v>       0.45833333      0.41666667      0.33333333</v>
   <v>       0.50000000      0.41666667      0.33333333</v>
   <v>       0.45833333      0.45833333      0.33333333</v>
   <v>       0.50000000      0.45833333      0.33333333</v>
   <v>       0.50000000      0.50000000      0.33333333</v>
   <v>       0.37500000      0.37500000      0.37500000</v>
   <v>       0.41666667      0.37500000      0.37500000</v>
   <v>       0.45833333      0.37500000      0.37500000</v>
   <v>       0.50000000      0.37500000      0.37500000</v>
   <v>       0.41666667      0.41666667      0.37500000</v>
   <v>       0.45833333      0.41666667      0.37500000</v>
   <v>       0.50000000      0.41666667      0.37500000</v>
   <v>       0.45833333      0.45833333      0.37500000</v>
   <v>       0.50000000      0.45833333      0.37500000</v>
   <v>       0.50000000      0.50000000      0.37500000</v>
   <v>       0.41666667      0.41666667      0.41666667</v>
   <v>       0.45833333      0.41666667      0.41666667</v>
   <v>       0.50000000      0.41666667      0.41666667</v>
   <v>       0.45833333      0.45833333      0.41666667</v>
   <v>       0.50000000      0.45833333      0.41666667</v>
   <v>       0.50000000      0.50000000      0.41666667</v>
   <v>       0.45833333      0.45833333      0.45833333</v>
   <v>       0.50000000      0.45833333      0.45833333</v>
   <v>       0.50000000      0.50000000      0.45833333</v>
   <v>       0.50000000      0.50000000      0.50000000</v>
  </varray>
  <varray name="weights" >
   <v>       0.00007234</v>
   <v>       0.00043403</v>
   <v>       0.00043403</v>
   <v>       0.00043403</v>
   <v>       0.00043403</v>
   <v>       0.00043403</v>
   <v>       0.00043403</v>
   <v>       0.00043403</v>
   <v>       0.00043403</v>
   <v>       0.00043403</v>
   <v>       0.00043403</v>
   <v>       0.00043403</v>
   <v>       0.00021701</v>
   <v>       0.00086806</v>
   <v>       0.00173611</v>
   <v>       0.00173611</v>
   <v>       0.00173611</v>
   <v>       0.00173611</v>
   <v>       0.00173611</v>
   <v>       0.00173611</v>
   <v>       0.00173611</v>
   <v>       0.00173611</v>
   <v>       0.00173611</v>
   <v>       0.00173611</v>
   <v>       0.00086806</v>
   <v>       0.00086806</v>
   <v>       0.00173611</v>
   <v>       0.00173611</v>
   <v>       0.00173611</v>
   <v>       0.00173611</v>
   <v>       0.00173611</v>
   <v>       0.00173611</v>
   <v>       0.00173611</v>
   <v>       0.00173611</v>
   <v>       0.00173611</v>
   <v>       0.00086806</v>
   <v>       0.00086806</v>
   <v>       0.00173611</v>
   <v>       0.00173611</v>
   <v>       0.00173611</v>
   <v>       0.00173611</v>
   <v>       0.00173611</v>
   <v>       0.00173611</v>
   <v>       0.00173611</v>
   <v>       0.00173611</v>
   <v>       0.00086806</v>
   <v>       0.00086806</v>
   <v>       0.00173611</v>
   <v>       0.00173611</v>
   <v>       0.00173611</v>
   <v>       0.00173611</v>
   <v>       0.00173611</v>
   <v>       0.00173611</v>
   <v>       0.00173611</v>
   <v>       0.00086806</v>
   <v>       0.00086806</v>
   <v>       0.00173611</v>
   <v>       0.00173611</v>
   <v>       0.00173611</v>
   <v>       0.00173611</v>
   <v>       0.00173611</v>
   <v>       0.00173611</v>
   <v>       0.00086806</v>
   <v>       0.00086806</v>
   <v>       0.00173611</v>
   <v>       0.00173611</v>
   <v>       0.00173611</v>
   <v>       0.00173611</v>
   <v>       0.00173611</v>
   <v>       0.00086806</v>
   <v>       0.00086806</v>
   <v>       0.00173611</v>
   <v>       0.00173611</v>
   <v>       0.00173611</v>
   <v>       0.00173611</v>
   <v>       0.00086806</v>
   <v>       0.00086806</v>
   <v>       0.00173611</v>
   <v>       0.00173611</v>
   <v>       0.00173611</v>
   <v>       0.00086806</v>
   <v>       0.00086806</v>
   <v>       0.00173611</v>
   <v>       0.00173611</v>
   <v>       0.00086806</v>
   <v>       0.00086806</v>
   <v>       0.00173611</v>
   <v>       0.00086806</v>
   <v>       0.00086806</v>
   <v>       0.00086806</v>
   <v>       0.00021701</v>
   <v>       0.00057870</v>
   <v>       0.00173611</v>
   <v>       0.00173611</v>
   <v>       0.00173611</v>
   <v>       0.00173611</v>
   <v>       0.00173611</v>
   <v>       0.00173611</v>
   <v>       0.00173611</v>
   <v>       0.00173611</v>
   <v>       0.00173611</v>
   <v>       0.00173611</v>
   <v>       0.00086806</v>
   <v>       0.00173611</v>
   <v>       0.00347222</v>
   <v>       0.00347222</v>
   <v>       0.00347222</v>
   <v>       0.00347222</v>
   <v>       0.00347222</v>
   <v>       0.00347222</v>
   <v>       0.00347222</v>
   <v>       0.00347222</v>
   <v>       0.00347222</v>
   <v>       0.00173611</v>
   <v>       0.00173611</v>
   <v>       0.00347222</v>
   <v>       0.00347222</v>
   <v>       0.00347222</v>
   <v>       0.00347222</v>
   <v>       0.00347222</v>
   <v>       0.00347222</v>
   <v>       0.00347222</v>
   <v>       0.00347222</v>
   <v>       0.00173611</v>
   <v>       0.00173611</v>
   <v>       0.00347222</v>
   <v>       0.00347222</v>
   <v>       0.00347222</v>
   <v>       0.00347222</v>
   <v>       0.00347222</v>
   <v>       0.00347222</v>
   <v>       0.00347222</v>
   <v>       0.00173611</v>
   <v>       0.00173611</v>
   <v>       0.00347222</v>
   <v>       0.00347222</v>
   <v>       0.00347222</v>
   <v>       0.00347222</v>
   <v>       0.00347222</v>
   <v>       0.00347222</v>
   <v>       0.00173611</v>
   <v>       0.00173611</v>
   <v>       0.00347222</v>
   <v>       0.00347222</v>
   <v>       0.00347222</v>
   <v>       0.00347222</v>
   <v>       0.00347222</v>
   <v>       0.00173611</v>
   <v>       0.00173611</v>
   <v>       0.00347222</v>
   <v>       0.00347222</v>
   <v>       0.00347222</v>
   <v>       0.00347222</v>
   <v>       0.00173611</v>
   <v>       0.00173611</v>
   <v>       0.00347222</v>
   <v>       0.00347222</v>
   <v>       0.00347222</v>
   <v>       0.00173611</v>
   <v>       0.00173611</v>
   <v>       0.00347222</v>
   <v>       0.00347222</v>
   <v>       0.00173611</v>
   <v>       0.00173611</v>
   <v>       0.00347222</v>
   <v>       0.00173611</v>
   <v>       0.00173611</v>
   <v>       0.00173611</v>
   <v>       0.00043403</v>
   <v>       0.00057870</v>
   <v>       0.00173611</v>
   <v>       0.00173611</v>
   <v>       0.00173611</v>
   <v>       0.00173611</v>
   <v>       0.00173611</v>
   <v>       0.00173611</v>
   <v>       0.00173611</v>
   <v>       0.00173611</v>
   <v>       0.00173611</v>
   <v>       0.00086806</v>
   <v>       0.00173611</v>
   <v>       0.00347222</v>
   <v>       0.00347222</v>
   <v>       0.00347222</v>
   <v>       0.00347222</v>
   <v>       0.00347222</v>
   <v>       0.00347222</v>
   <v>       0.00347222</v>
   <v>       0.00347222</v>
   <v>       0.00173611</v>
   <v>       0.00173611</v>
   <v>       0.00347222</v>
   <v>       0.00347222</v>
   <v>       0.00347222</v>
   <v>       0.00347222</v>
   <v>       0.00347222</v>
   <v>       0.00347222</v>
   <v>       0.00347222</v>
   <v>       0.00173611</v>
   <v>       0.00173611</v>
   <v>       0.00347222</v>
   <v>       0.00347222</v>
   <v>       0.00347222</v>
   <v>       0.00347222</v>
   <v>       0.00347222</v>
   <v>       0.00347222</v>
   <v>       0.00173611</v>
   <v>       0.00173611</v>
   <v>       0.00347222</v>
   <v>       0.00347222</v>
   <v>       0.00347222</v>
   <v>       0.00347222</v>
   <v>       0.00347222</v>
   <v>       0.00173611</v>
   <v>       0.00173611</v>
   <v>       0.00347222</v>
   <v>       0.00347222</v>
   <v>       0.00347222</v>
   <v>       0.00347222</v>
   <v>       0.00173611</v>
   <v>       0.00173611</v>
   <v>       0.00347222</v>
   <v>       0.00347222</v>
   <v>       0.00347222</v>
   <v>       0.00173611</v>
   <v>       0.00173611</v>
   <v>       0.00347222</v>
   <v>       0.00347222</v>
   <v>       0.00173611</v>
   <v>       0.00173611</v>
   <v>       0.00347222</v>
   <v>       0.00173611</v>
   <v>       0.00173611</v>
   <v>       0.00173611</v>
   <v>       0.00043403</v>
   <v>       0.00057870</v>
   <v>       0.00173611</v>
   <v>       0.00173611</v>
   <v>       0.00173611</v>
   <v>       0.00173611</v>
   <v>       0.00173611</v>
   <v>       0.00173611</v>
   <v>       0.00173611</v>
   <v>       0.00173611</v>
   <v>       0.00086806</v>
   <v>       0.00173611</v>
   <v>       0.00347222</v>
   <v>       0.00347222</v>
   <v>       0.00347222</v>
   <v>       0.00347222</v>
   <v>       0.00347222</v>
   <v>       0.00347222</v>
   <v>       0.00347222</v>
   <v>       0.00173611</v>
   <v>       0.00173611</v>
   <v>       0.00347222</v>
   <v>       0.00347222</v>
   <v>       0.00347222</v>
   <v>       0.00347222</v>
   <v>       0.00347222</v>
   <v>       0.00347222</v>
   <v>       0.00173611</v>
   <v>       0.00173611</v>
   <v>       0.00347222</v>
   <v>       0.00347222</v>
   <v>       0.00347222</v>
   <v>       0.00347222</v>
   <v>       0.00347222</v>
   <v>       0.00173611</v>
   <v>       0.00173611</v>
   <v>       0.00347222</v>
   <v>       0.00347222</v>
   <v>       0.00347222</v>
   <v>       0.00347222</v>
   <v>       0.00173611</v>
   <v>       0.00173611</v>
   <v>       0.00347222</v>
   <v>       0.00347222</v>
   <v>       0.00347222</v>
   <v>       0.00173611</v>
   <v>       0.00173611</v>
   <v>       0.00347222</v>
   <v>       0.00347222</v>
   <v>       0.00173611</v>
   <v>       0.00173611</v>
   <v>       0.00347222</v>
   <v>       0.00173611</v>
   <v>       0.00173611</v>
   <v>       0.00173611</v>
   <v>       0.00043403</v>
   <v>       0.00057870</v>
   <v>       0.00173611</v>
   <v>       0.00173611</v>
   <v>       0.00173611</v>
   <v>       0.00173611</v>
   <v>       0.00173611</v>
   <v>       0.00173611</v>
   <v>       0.00173611</v>
   <v>       0.00086806</v>
   <v>       0.00173611</v>
   <v>       0.00347222</v>
   <v>       0.00347222</v>
   <v>       0.00347222</v>
   <v>       0.00347222</v>
   <v>       0.00347222</v>
   <v>       0.00347222</v>
   <v>       0.00173611</v>
   <v>       0.00173611</v>
   <v>       0.00347222</v>
   <v>       0.00347222</v>
   <v>       0.00347222</v>
   <v>       0.00347222</v>
   <v>       0.00347222</v>
   <v>       0.00173611</v>
   <v>       0.00173611</v>
   <v>       0.00347222</v>
   <v>       0.00347222</v>
   <v>       0.00347222</v>
   <v>       0.00347222</v>
   <v>       0.00173611</v>
   <v>       0.00173611</v>
   <v>       0.00347222</v>
   <v>       0.00347222</v>
   <v>       0.00347222</v>
   <v>       0.00173611</v>
   <v>       0.00173611</v>
   <v>       0.00347222</v>
   <v>       0.00347222</v>
   <v>       0.00173611</v>
   <v>       0.00173611</v>
   <v>       0.00347222</v>
   <v>       0.00173611</v>
   <v>       0.00173611</v>
   <v>       0.00173611</v>
   <v>       0.00043403</v>
   <v>       0.00057870</v>
   <v>       0.00173611</v>
   <v>       0.00173611</v>
   <v>       0.00173611</v>
   <v>       0.00173611</v>
   <v>       0.00173611</v>
   <v>       0.00173611</v>
   <v>       0.00086806</v>
   <v>       0.00173611</v>
   <v>       0.00347222</v>
   <v>       0.00347222</v>
   <v>       0.00347222</v>
   <v>       0.00347222</v>
   <v>       0.00347222</v>
   <v>       0.00173611</v>
   <v>       0.00173611</v>
   <v>       0.00347222</v>
   <v>       0.00347222</v>
   <v>       0.00347222</v>
   <v>       0.00347222</v>
   <v>       0.00173611</v>
   <v>       0.00173611</v>
   <v>       0.00347222</v>
   <v>       0.00347222</v>
   <v>       0.00347222</v>
   <v>       0.00173611</v>
   <v>       0.00173611</v>
   <v>       0.00347222</v>
   <v>       0.00347222</v>
   <v>       0.00173611</v>
   <v>       0.00173611</v>
   <v>       0.00347222</v>
   <v>       0.00173611</v>
   <v>       0.00173611</v>
   <v>       0.00173611</v>
   <v>       0.00043403</v>
   <v>       0.00057870</v>
   <v>       0.00173611</v>
   <v>       0.00173611</v>
   <v>       0.00173611</v>
   <v>       0.00173611</v>
   <v>       0.00173611</v>
   <v>       0.00086806</v>
   <v>       0.00173611</v>
   <v>       0.00347222</v>
   <v>       0.00347222</v>
   <v>       0.00347222</v>
   <v>       0.00347222</v>
   <v>       0.00173611</v>
   <v>       0.00173611</v>
   <v>       0.00347222</v>
   <v>       0.00347222</v>
   <v>       0.00347222</v>
   <v>       0.00173611</v>
   <v>       0.00173611</v>
   <v>       0.00347222</v>
   <v>       0.00347222</v>
   <v>       0.00173611</v>
   <v>       0.00173611</v>
   <v>       0.00347222</v>
   <v>       0.00173611</v>
   <v>       0.00173611</v>
   <v>       0.00173611</v>
   <v>       0.00043403</v>
   <v>       0.00057870</v>
   <v>       0.00173611</v>
   <v>       0.00173611</v>
   <v>       0.00173611</v>
   <v>       0.00173611</v>
   <v>       0.00086806</v>
   <v>       0.00173611</v>
   <v>       0.00347222</v>
   <v>       0.00347222</v>
   <v>       0.00347222</v>
   <v>       0.00173611</v>
   <v>       0.00173611</v>
   <v>       0.00347222</v>
   <v>       0.00347222</v>
   <v>       0.00173611</v>
   <v>       0.00173611</v>
   <v>       0.00347222</v>
   <v>       0.00173611</v>
   <v>       0.00173611</v>
   <v>       0.00173611</v>
   <v>       0.00043403</v>
   <v>       0.00057870</v>
   <v>       0.00173611</v>
   <v>       0.00173611</v>
   <v>       0.00173611</v>
   <v>       0.00086806</v>
   <v>       0.00173611</v>
   <v>       0.00347222</v>
   <v>       0.00347222</v>
   <v>       0.00173611</v>
   <v>       0.00173611</v>
   <v>       0.00347222</v>
   <v>       0.00173611</v>
   <v>       0.00173611</v>
   <v>       0.00173611</v>
   <v>       0.00043403</v>
   <v>       0.00057870</v>
   <v>       0.00173611</v>
   <v>       0.00173611</v>
   <v>       0.00086806</v>
   <v>       0.00173611</v>
   <v>       0.00347222</v>
   <v>       0.00173611</v>
   <v>       0.00173611</v>
   <v>       0.00173611</v>
   <v>       0.00043403</v>
   <v>       0.00057870</v>
   <v>       0.00173611</v>
   <v>       0.00086806</v>
   <v>       0.00173611</v>
   <v>       0.00173611</v>
   <v>       0.00043403</v>
   <v>       0.00057870</v>
   <v>       0.00086806</v>
   <v>       0.00043403</v>
   <v>       0.00007234</v>
  </varray>
 </kpoints>
 <parameters>
  <separator name="general" >
   <i type="string" name="SYSTEM">unknown system</i>
   <i type="logical" name="LCOMPAT"> F  </i>
  </separator>
  <separator name="electronic" >
   <i type="string" name="PREC">accura</i>
   <i name="ENMAX">    800.00000000</i>
   <i name="ENAUG">    516.45600000</i>
   <i name="EDIFF">      0.00000001</i>
   <i type="int" name="IALGO">    38</i>
   <i type="int" name="IWAVPR">    10</i>
   <i type="int" name="NBANDS">    26</i>
   <i name="NELECT">     44.00000000</i>
   <separator name="electronic smearing" >
    <i type="int" name="ISMEAR">     0</i>
    <i name="SIGMA">      0.01000000</i>
   </separator>
   <separator name="electronic projectors" >
    <i type="logical" name="LREAL"> F  </i>
    <v name="ROPT">      0.00000000</v>
    <i type="int" name="LMAXPAW">  -100</i>
    <i type="int" name="LMAXMIX">     2</i>
   </separator>
   <separator name="electronic startup" >
    <i type="int" name="ISTART">     0</i>
    <i type="int" name="ICHARG">     2</i>
    <i type="int" name="INIWAV">     1</i>
   </separator>
   <separator name="electronic spin" >
    <i type="int" name="ISPIN">     1</i>
    <i type="logical" name="LNONCOLLINEAR"> F  </i>
    <v name="MAGMOM">      1.00000000      1.00000000      1.00000000      1.00000000</v>
    <i name="NUPDOWN">     -1.00000000</i>
    <i type="logical" name="LSORBIT"> F  </i>
    <v name="SAXIS">      0.00000000      0.00000000      1.00000000</v>
    <i type="logical" name="LSPIRAL"> F  </i>
    <v name="QSPIRAL">      0.00000000      0.00000000      0.00000000</v>
    <i type="logical" name="LZEROZ"> F  </i>
   </separator>
   <separator name="electronic exchange-correlation" >
    <i type="string" name="GGA">--</i>
    <i type="int" name="VOSKOWN">     0</i>
    <i type="logical" name="LASPH"> F  </i>
    <i type="logical" name="LMETAGGA"> F  </i>
    <i type="string" name="GGA2">--</i>
   </separator>
   <separator name="electronic convergence" >
    <i type="int" name="NELM">    60</i>
    <i type="int" name="NELMDL">     0</i>
    <i type="int" name="NELMIN">     2</i>
    <i name="ENINI">    800.00000000</i>
    <separator name="electronic convergence detail" >
     <i type="logical" name="LDIAG"> T  </i>
     <i name="WEIMIN">      0.00000000</i>
     <i name="EBREAK">      0.00000000</i>
     <i name="DEPER">      0.30000000</i>
     <i type="int" name="NRMM">     4</i>
     <i name="TIME">      0.10000000</i>
    </separator>
   </separator>
   <separator name="electronic mixer" >
    <i name="AMIX">      0.40000000</i>
    <i name="BMIX">      1.00000000</i>
    <i name="AMIN">      0.10000000</i>
    <i name="AMIX_MAG">      1.60000000</i>
    <i name="BMIX_MAG">      1.00000000</i>
    <separator name="electronic mixer details" >
     <i type="int" name="IMIX">     4</i>
     <i type="int" name="MAXMIX">   -45</i>
     <i name="WC">    100.00000000</i>
     <i type="int" name="INIMIX">     1</i>
     <i type="int" name="MIXPRE">     1</i>
     <i type="int" name="MREMOVE">     5</i>
    </separator>
   </separator>
   <separator name="electronic dipolcorrection" >
    <i type="int" name="IDIPOL">     0</i>
    <i type="logical" name="LDIPOL"> F  </i>
    <v name="DIPOL">   -100.00000000</v>
    <i name="EFIELD">      0.00000000</i>
   </separator>
  </separator>
  <separator name="grids" >
   <i type="int" name="NGX">    36</i>
   <i type="int" name="NGY">    36</i>
   <i type="int" name="NGZ">    36</i>
   <i type="int" name="NGXF">    72</i>
   <i type="int" name="NGYF">    72</i>
   <i type="int" name="NGZF">    72</i>
   <i type="logical" name="ADDGRID"> T  </i>
  </separator>
  <separator name="ionic" >
   <i type="int" name="NSW">     0</i>
   <i type="int" name="IBRION">    -1</i>
   <i type="int" name="ISIF">     2</i>
   <i name="PSTRESS">      0.00000000</i>
   <i name="EDIFFG">      0.00000010</i>
   <i type="int" name="NFREE">     0</i>
   <i name="POTIM">      0.50000000</i>
   <i name="SMASS">     -3.00000000</i>
  </separator>
  <separator name="ionic md" >
   <i name="TEBEG">      0.00010000</i>
   <i name="TEEND">      0.00010000</i>
   <i type="int" name="NBLOCK">     1</i>
   <i type="int" name="KBLOCK">     1</i>
   <i type="int" name="NPACO">   256</i>
   <i name="APACO">     16.00000000</i>
  </separator>
  <separator name="symmetry" >
   <i type="int" name="ISYM">     2</i>
   <i name="SYMPREC">      0.00001000</i>
  </separator>
  <separator name="dos" >
   <i type="logical" name="LORBIT"> F  </i>
   <v name="RWIGS">     -1.00000000</v>
   <i type="int" name="NEDOS">   301</i>
   <i name="EMIN">     10.00000000</i>
   <i name="EMAX">    -10.00000000</i>
  </separator>
  <separator name="writing" >
   <i type="int" name="NWRITE">     2</i>
   <i type="logical" name="LWAVE"> F  </i>
   <i type="logical" name="LCHARG"> F  </i>
   <i type="logical" name="LPARD"> F  </i>
   <i type="logical" name="LVTOT"> F  </i>
   <i type="logical" name="LELF"> F  </i>
   <i type="logical" name="LOPTICS"> F  </i>
   <i name="STM">      0.00000000</i>
  </separator>
  <separator name="performance" >
   <i type="int" name="NPAR">     8</i>
   <i type="int" name="NSIM">     4</i>
   <i type="int" name="NBLK">   256</i>
   <i type="logical" name="LPLANE"> T  </i>
   <i type="logical" name="LCRITICAL_MEM"> F  </i>
   <i type="logical" name="LSCALAPACK"> F  </i>
   <i type="logical" name="LSCALU"> F  </i>
   <i type="logical" name="LASYNC"> F  </i>
  </separator>
  <separator name="miscellaneous" >
   <i type="int" name="IDIOT">     3</i>
   <i type="logical" name="LMUSIC"> F  </i>
   <v name="POMASS">     63.54600000</v>
   <i type="logical" name="LCORR"> T  </i>
  </separator>
  <i type="logical" name="LREAL_COMPAT"> F  </i>
  <i type="logical" name="GGA_COMPAT"> T  </i>
  <i type="logical" name="LBERRY"> F  </i>
  <i type="int" name="ICORELEVEL">     0</i>
  <i type="logical" name="LDAU"> F  </i>
  <i type="int" name="I_CONSTRAINED_M">     0</i>
 </parameters>
 <atominfo>
  <atoms>       4</atoms>
  <types>       1</types>
  <array name="atoms" >
   <dimension dim="1">ion</dimension>
   <field type="string">element</field>
   <field type="int">atomtype</field>
   <set>
    <rc><c>Cu</c><c>   1</c></rc>
    <rc><c>Cu</c><c>   1</c></rc>
    <rc><c>Cu</c><c>   1</c></rc>
    <rc><c>Cu</c><c>   1</c></rc>
   </set>
  </array>
  <array name="atomtypes" >
   <dimension dim="1">type</dimension>
   <field type="int">atomspertype</field>
   <field type="string">element</field>
   <field>mass</field>
   <field>valence</field>
   <field type="string">pseudopotential</field>
   <set>
    <rc><c>   4</c><c>Cu</c><c>     63.54600000</c><c>     11.00000000</c><c> PAW_PBE Cu 05Jan2001                   </c></rc>
   </set>
  </array>
 </atominfo>
 <structure name="initialpos" >
  <crystal>
   <varray name="basis" >
    <v>       3.60045598      0.00000000      0.00000000</v>
    <v>       0.00000000      3.60045598      0.00000000</v>
    <v>       0.00000000      0.00000000      3.60045598</v>
   </varray>
   <i name="volume">     46.67373086</i>
   <varray name="rec_basis" >
    <v>       0.27774260      0.00000000      0.00000000</v>
    <v>       0.00000000      0.27774260      0.00000000</v>
    <v>       0.00000000      0.00000000      0.27774260</v>
   </varray>
  </crystal>
  <varray name="positions" >
   <v>       0.00000000      0.00000000      0.00000000</v>
   <v>       0.50000000      0.50000000      0.00000000</v>
   <v>       0.50000000      0.00000000      0.50000000</v>
   <v>       0.00000000      0.50000000      0.50000000</v>
  </varray>
 </structure>
 <calculation>
  <scstep>
   <time name="dav">   58.91   58.95</time>
   <time name="total">   59.57   59.62</time>
   <energy>
    <i name="alphaZ">    437.97656846</i>
    <i name="ewald">  -4437.51887400</i>
    <i name="hartreedc">  -1295.42305704</i>
    <i name="XCdc">    175.74719007</i>
    <i name="pawpsdc">   4328.20916945</i>
    <i name="pawaedc">  -4904.30802700</i>
    <i name="eentropy">     -0.00006010</i>
    <i name="bandstr">    466.56972370</i>
    <i name="atom">   5563.91759264</i>
    <i name="e_fr_energy">    335.17022616</i>
    <i name="e_wo_entrp">    335.17028627</i>
    <i name="e_0_energy">    335.17025621</i>
   </energy>
  </scstep>
  <scstep>
   <time name="dav">   57.68   57.73</time>
   <time name="total">   57.71   57.76</time>
   <energy>
    <i name="e_fr_energy">      7.24106315</i>
    <i name="e_wo_entrp">      7.24116583</i>
    <i name="e_0_energy">      7.24111449</i>
   </energy>
  </scstep>
  <scstep>
   <time name="dav">   61.69   61.74</time>
   <time name="total">   61.71   61.77</time>
   <energy>
    <i name="e_fr_energy">    -18.01807760</i>
    <i name="e_wo_entrp">    -18.01793676</i>
    <i name="e_0_energy">    -18.01800718</i>
   </energy>
  </scstep>
  <scstep>
   <time name="dav">   62.74   62.88</time>
   <time name="total">   62.77   62.93</time>
   <energy>
    <i name="e_fr_energy">    -18.35937262</i>
    <i name="e_wo_entrp">    -18.35923588</i>
    <i name="e_0_energy">    -18.35930425</i>
   </energy>
  </scstep>
  <scstep>
   <time name="dav">   62.56   62.59</time>
   <time name="total">   64.50   64.54</time>
   <energy>
    <i name="e_fr_energy">    -18.36000867</i>
    <i name="e_wo_entrp">    -18.35987194</i>
    <i name="e_0_energy">    -18.35994030</i>
   </energy>
  </scstep>
  <scstep>
   <time name="dav">   61.86   61.91</time>
   <time name="total">   64.40   64.47</time>
   <energy>
    <i name="e_fr_energy">    -16.08827550</i>
    <i name="e_wo_entrp">    -16.08819391</i>
    <i name="e_0_energy">    -16.08823470</i>
   </energy>
  </scstep>
  <scstep>
   <time name="dav">   63.57   63.63</time>
   <time name="total">   66.14   66.21</time>
   <energy>
    <i name="e_fr_energy">    -14.90413363</i>
    <i name="e_wo_entrp">    -14.90405079</i>
    <i name="e_0_energy">    -14.90409221</i>
   </energy>
  </scstep>
  <scstep>
   <time name="dav">   60.82   60.87</time>
   <time name="total">   63.40   63.45</time>
   <energy>
    <i name="e_fr_energy">    -14.86059282</i>
    <i name="e_wo_entrp">    -14.86050028</i>
    <i name="e_0_energy">    -14.86054655</i>
   </energy>
  </scstep>
  <scstep>
   <time name="dav">   65.80   65.83</time>
   <time name="total">   68.39   68.44</time>
   <energy>
    <i name="e_fr_energy">    -14.85310926</i>
    <i name="e_wo_entrp">    -14.85303355</i>
    <i name="e_0_energy">    -14.85307141</i>
   </energy>
  </scstep>
  <scstep>
   <time name="dav">   61.03   61.10</time>
   <time name="total">   63.66   63.75</time>
   <energy>
    <i name="e_fr_energy">    -14.85319214</i>
    <i name="e_wo_entrp">    -14.85311654</i>
    <i name="e_0_energy">    -14.85315434</i>
   </energy>
  </scstep>
  <scstep>
   <time name="dav">   65.62   65.65</time>
   <time name="total">   68.17   68.21</time>
   <energy>
    <i name="e_fr_energy">    -14.85319221</i>
    <i name="e_wo_entrp">    -14.85311656</i>
    <i name="e_0_energy">    -14.85315439</i>
   </energy>
  </scstep>
  <scstep>
   <time name="dav">   63.99   64.04</time>
   <time name="total">   66.54   66.60</time>
   <energy>
    <i name="e_fr_energy">    -14.85319706</i>
    <i name="e_wo_entrp">    -14.85312150</i>
    <i name="e_0_energy">    -14.85315928</i>
   </energy>
  </scstep>
  <scstep>
   <time name="dav">   59.06   59.11</time>
   <time name="total">   61.62   61.68</time>
   <energy>
    <i name="e_fr_energy">    -14.85319735</i>
    <i name="e_wo_entrp">    -14.85312177</i>
    <i name="e_0_energy">    -14.85315956</i>
   </energy>
  </scstep>
  <scstep>
   <time name="dav">   43.27   43.34</time>
   <time name="total">   45.83   45.91</time>
   <energy>
    <i name="e_fr_energy">    -14.85319745</i>
    <i name="e_wo_entrp">    -14.85312187</i>
    <i name="e_0_energy">    -14.85315966</i>
   </energy>
  </scstep>
  <scstep>
   <time name="dav">   42.63   42.70</time>
   <time name="total">   45.16   45.24</time>
   <energy>
    <i name="e_fr_energy">    -14.85319742</i>
    <i name="e_wo_entrp">    -14.85312185</i>
    <i name="e_0_energy">    -14.85315964</i>
   </energy>
  </scstep>
  <scstep>
   <time name="dav">   41.66   41.68</time>
   <time name="total">   42.33   42.35</time>
   <energy>
    <i name="alphaZ">    437.97656846</i>
    <i name="ewald">  -4437.51887400</i>
    <i name="hartreedc">  -1206.71898793</i>
    <i name="XCdc">    171.35238588</i>
    <i name="pawpsdc">   4401.29435539</i>
    <i name="pawaedc">  -4980.60967577</i>
    <i name="eentropy">     -0.00007558</i>
    <i name="bandstr">     35.45351349</i>
    <i name="atom">   5563.91759264</i>
    <i name="e_fr_energy">    -14.85319743</i>
    <i name="e_wo_entrp">    -14.85312186</i>
    <i name="e_0_energy">    -14.85315964</i>
   </energy>
  </scstep>
  <structure>
   <crystal>
    <varray name="basis" >
     <v>       3.60045598      0.00000000      0.00000000</v>
     <v>       0.00000000      3.60045598      0.00000000</v>
     <v>       0.00000000      0.00000000      3.60045598</v>
    </varray>
    <i name="volume">     46.67373086</i>
    <varray name="rec_basis" >
     <v>       0.27774260      0.00000000      0.00000000</v>
     <v>       0.00000000      0.27774260      0.00000000</v>
     <v>       0.00000000      0.00000000      0.27774260</v>
    </varray>
   </crystal>
   <varray name="positions" >
    <v>       0.00000000      0.00000000      0.00000000</v>
    <v>       0.50000000      0.50000000      0.00000000</v>
    <v>       0.50000000      0.00000000      0.50000000</v>
    <v>       0.00000000      0.50000000      0.50000000</v>
   </varray>
  </structure>
  <varray name="forces" >
   <v>      -0.00000000     -0.00000000      0.00000000</v>
   <v>       0.00000000      0.00000000     -0.00000000</v>
   <v>       0.00000000     -0.00000000     -0.00000000</v>
   <v>      -0.00000000     -0.00000000      0.00000000</v>
  </varray>
  <varray name="stress" >
   <v>      44.79942266      0.00000000     -0.00000000</v>
   <v>       0.00000000     44.79942266      0.00000000</v>
   <v>       0.00000000      0.00000000     44.79942266</v>
  </varray>
  <energy>
   <i name="e_fr_energy">    -14.85319743</i>
   <i name="e_wo_entrp">    -14.85315964</i>
   <i name="e_0_energy">     -0.00007558</i>
  </energy>
  <eigenvalues>
   <array>
    <dimension dim="1">band</dimension>
    <dimension dim="2">kpoint</dimension>
    <dimension dim="3">spin</dimension>
    <field>eigene</field>
    <field>occ</field>
    <set>
     <set comment="spin 1">
      <set comment="kpoint 1">
       <r>  -5.5446  1.0000</r>
       <r>  -1.0708  1.0000</r>
       <r>  -1.0708  1.0000</r>
       <r>  -1.0708  1.0000</r>
       <r>  -0.6106  1.0000</r>
       <r>  -0.6106  1.0000</r>
       <r>  -0.6106  1.0000</r>
       <r>   0.8071  1.0000</r>
       <r>   0.8071  1.0000</r>
       <r>   0.8071  1.0000</r>
       <r>   1.6508  1.0000</r>
       <r>   1.6508  1.0000</r>
       <r>   2.2108  1.0000</r>
       <r>   2.2108  1.0000</r>
       <r>   2.2108  1.0000</r>
       <r>   2.3680  1.0000</r>
       <r>   2.3680  1.0000</r>
       <r>   2.3680  1.0000</r>
       <r>   2.3680  1.0000</r>
       <r>   2.3680  1.0000</r>
       <r>   2.3680  1.0000</r>
       <r>   5.3997  0.0000</r>
       <r>   5.3997  0.0000</r>
       <r>   5.3997  0.0000</r>
       <r>  11.1006  0.0000</r>
       <r>  11.1006  0.0000</r>
       <r>  11.1006  0.0000</r>
       <r>  17.1656  0.0000</r>
       <r>  17.1656  0.0000</r>
       <r>  17.1656  0.0000</r>
       <r>  17.1656  0.0000</r>
       <r>  17.1656  0.0000</r>
      </set>
      <set comment="kpoint 2">
       <r>  -5.5233  1.0000</r>
       <r>  -1.0707  1.0000</r>
       <r>  -1.0607  1.0000</r>
       <r>  -1.0607  1.0000</r>
       <r>  -0.6049  1.0000</r>
       <r>  -0.6046  1.0000</r>
       <r>  -0.6046  1.0000</r>
       <r>   0.8007  1.0000</r>
       <r>   0.8122  1.0000</r>
       <r>   0.8122  1.0000</r>
       <r>   1.6449  1.0000</r>
       <r>   1.6531  1.0000</r>
       <r>   2.2033  1.0000</r>
       <r>   2.2033  1.0000</r>
       <r>   2.2084  1.0000</r>
       <r>   2.3280  1.0000</r>
       <r>   2.3280  1.0000</r>
       <r>   2.3591  1.0000</r>
       <r>   2.3591  1.0000</r>
       <r>   2.3680  1.0000</r>
       <r>   2.3680  1.0000</r>
       <r>   5.2576  0.0000</r>
       <r>   5.4586  0.0000</r>
       <r>   5.4586  0.0000</r>
       <r>  11.1083  0.0000</r>
       <r>  11.1083  0.0000</r>
       <r>  11.2846  0.0000</r>
       <r>  17.0057  0.0000</r>
       <r>  17.0057  0.0000</r>
       <r>  17.0684  0.0000</r>
       <r>  17.0684  0.0000</r>
       <r>  17.1970  0.0000</r>
      </set>
      <set comment="kpoint 3">
       <r>  -5.4594  1.0000</r>
       <r>  -1.0711  1.0000</r>
       <r>  -1.0308  1.0000</r>
       <r>  -1.0308  1.0000</r>
       <r>  -0.5878  1.0000</r>
       <r>  -0.5864  1.0000</r>
       <r>  -0.5864  1.0000</r>
       <r>   0.7816  1.0000</r>
       <r>   0.8275  1.0000</r>
       <r>   0.8275  1.0000</r>
       <r>   1.6276  1.0000</r>
       <r>   1.6601  1.0000</r>
       <r>   2.1809  1.0000</r>
       <r>   2.1809  1.0000</r>
       <r>   2.2011  1.0000</r>
       <r>   2.2167  1.0000</r>
       <r>   2.2167  1.0000</r>
       <r>   2.3327  1.0000</r>
       <r>   2.3327  1.0000</r>
       <r>   2.3681  1.0000</r>
       <r>   2.3681  1.0000</r>
       <r>   4.8795  0.0000</r>
       <r>   5.6269  0.0000</r>
       <r>   5.6269  0.0000</r>
       <r>  11.1315  0.0000</r>
       <r>  11.1315  0.0000</r>
       <r>  11.7894  0.0000</r>
       <r>  16.5873  0.0000</r>
       <r>  16.5873  0.0000</r>
       <r>  16.7992  0.0000</r>
       <r>  16.7992  0.0000</r>
       <r>  17.2909  0.0000</r>
      </set>
      <set comment="kpoint 4">
       <r>  -5.3532  1.0000</r>
       <r>  -1.0753  1.0000</r>
       <r>  -0.9820  1.0000</r>
       <r>  -0.9820  1.0000</r>
       <r>  -0.5595  1.0000</r>
       <r>  -0.5560  1.0000</r>
       <r>  -0.5560  1.0000</r>
       <r>   0.7502  1.0000</r>
       <r>   0.8529  1.0000</r>
       <r>   0.8529  1.0000</r>
       <r>   1.5993  1.0000</r>
       <r>   1.6716  1.0000</r>
       <r>   2.0536  1.0000</r>
       <r>   2.0536  1.0000</r>
       <r>   2.1442  1.0000</r>
       <r>   2.1442  1.0000</r>
       <r>   2.1891  1.0000</r>
       <r>   2.2898  1.0000</r>
       <r>   2.2898  1.0000</r>
       <r>   2.3681  1.0000</r>
       <r>   2.3681  1.0000</r>
       <r>   4.3609  0.0000</r>
       <r>   5.8847  0.0000</r>
       <r>   5.8847  0.0000</r>
       <r>  11.1709  0.0000</r>
       <r>  11.1709  0.0000</r>
       <r>  12.5218  0.0000</r>
       <r>  16.0192  0.0000</r>
       <r>  16.0192  0.0000</r>
       <r>  16.4087  0.0000</r>
       <r>  16.4087  0.0000</r>
       <r>  17.4461  0.0000</r>
      </set>
      <set comment="kpoint 5">
       <r>  -5.2055  1.0000</r>
       <r>  -1.0886  1.0000</r>
       <r>  -0.9163  1.0000</r>
       <r>  -0.9163  1.0000</r>
       <r>  -0.5204  1.0000</r>
       <r>  -0.5133  1.0000</r>
       <r>  -0.5133  1.0000</r>
       <r>   0.7072  1.0000</r>
       <r>   0.8882  1.0000</r>
       <r>   0.8883  1.0000</r>
       <r>   1.5609  1.0000</r>
       <r>   1.6875  1.0000</r>
       <r>   1.8590  1.0000</r>
       <r>   1.8590  1.0000</r>
       <r>   2.0940  1.0000</r>
       <r>   2.0940  1.0000</r>
       <r>   2.1726  1.0000</r>
       <r>   2.2317  1.0000</r>
       <r>   2.2317  1.0000</r>
       <r>   2.3682  1.0000</r>
       <r>   2.3682  1.0000</r>
       <r>   3.7828  1.0000</r>
       <r>   6.2118  0.0000</r>
       <r>   6.2118  0.0000</r>
       <r>  11.2272  0.0000</r>
       <r>  11.2272  0.0000</r>
       <r>  13.4050  0.0000</r>
       <r>  15.3782  0.0000</r>
       <r>  15.3782  0.0000</r>
       <r>  15.9491  0.0000</r>
       <r>  15.9491  0.0000</r>
       <r>  17.6611  0.0000</r>
      </set>
      <set comment="kpoint 6">
       <r>  -5.0171  1.0000</r>
       <r>  -1.1199  1.0000</r>
       <r>  -0.8361  1.0000</r>
       <r>  -0.8361  1.0000</r>
       <r>  -0.4712  1.0000</r>
       <r>  -0.4581  1.0000</r>
       <r>  -0.4581  1.0000</r>
       <r>   0.6533  1.0000</r>
       <r>   0.9333  1.0000</r>
       <r>   0.9333  1.0000</r>
       <r>   1.5136  1.0000</r>
       <r>   1.6487  1.0000</r>
       <r>   1.6487  1.0000</r>
       <r>   1.7075  1.0000</r>
       <r>   2.0320  1.0000</r>
       <r>   2.0320  1.0000</r>
       <r>   2.1518  1.0000</r>
       <r>   2.1604  1.0000</r>
       <r>   2.1604  1.0000</r>
       <r>   2.3683  1.0000</r>
       <r>   2.3683  1.0000</r>
       <r>   3.2007  1.0000</r>
       <r>   6.5920  0.0000</r>
       <r>   6.5920  0.0000</r>
       <r>  11.3018  0.0000</r>
       <r>  11.3018  0.0000</r>
       <r>  14.3908  0.0000</r>
       <r>  14.7064  0.0000</r>
       <r>  14.7064  0.0000</r>
       <r>  15.4607  0.0000</r>
       <r>  15.4607  0.0000</r>
       <r>  17.9337  0.0000</r>
      </set>
      <set comment="kpoint 7">
       <r>  -4.7892  1.0000</r>
       <r>  -1.1818  1.0000</r>
       <r>  -0.7452  1.0000</r>
       <r>  -0.7452  1.0000</r>
       <r>  -0.4125  1.0000</r>
       <r>  -0.3903  1.0000</r>
       <r>  -0.3903  1.0000</r>
       <r>   0.5896  1.0000</r>
       <r>   0.9878  1.0000</r>
       <r>   0.9878  1.0000</r>
       <r>   1.4334  1.0000</r>
       <r>   1.4334  1.0000</r>
       <r>   1.4592  1.0000</r>
       <r>   1.7313  1.0000</r>
       <r>   1.9604  1.0000</r>
       <r>   1.9604  1.0000</r>
       <r>   2.0781  1.0000</r>
       <r>   2.0781  1.0000</r>
       <r>   2.1273  1.0000</r>
       <r>   2.3684  1.0000</r>
       <r>   2.3684  1.0000</r>
       <r>   2.6539  1.0000</r>
       <r>   7.0145  0.0000</r>
       <r>   7.0145  0.0000</r>
       <r>  11.3960  0.0000</r>
       <r>  11.3960  0.0000</r>
       <r>  14.0255  0.0000</r>
       <r>  14.0255  0.0000</r>
       <r>  14.9708  0.0000</r>
       <r>  14.9708  0.0000</r>
       <r>  15.4502  0.0000</r>
       <r>  18.2613  0.0000</r>
      </set>
      <set comment="kpoint 8">
       <r>  -4.5236  1.0000</r>
       <r>  -1.2907  1.0000</r>
       <r>  -0.6482  1.0000</r>
       <r>  -0.6482  1.0000</r>
       <r>  -0.3453  1.0000</r>
       <r>  -0.3095  1.0000</r>
       <r>  -0.3095  1.0000</r>
       <r>   0.5174  1.0000</r>
       <r>   1.0513  1.0000</r>
       <r>   1.0513  1.0000</r>
       <r>   1.2201  1.0000</r>
       <r>   1.2201  1.0000</r>
       <r>   1.4001  1.0000</r>
       <r>   1.7584  1.0000</r>
       <r>   1.8826  1.0000</r>
       <r>   1.8826  1.0000</r>
       <r>   1.9871  1.0000</r>
       <r>   1.9871  1.0000</r>
       <r>   2.0994  1.0000</r>
       <r>   2.1736  1.0000</r>
       <r>   2.3685  1.0000</r>
       <r>   2.3685  1.0000</r>
       <r>   7.4719  0.0000</r>
       <r>   7.4719  0.0000</r>
       <r>  11.5115  0.0000</r>
       <r>  11.5115  0.0000</r>
       <r>  13.3473  0.0000</r>
       <r>  13.3473  0.0000</r>
       <r>  14.4976  0.0000</r>
       <r>  14.4976  0.0000</r>
       <r>  16.5650  0.0000</r>
       <r>  18.6411  0.0000</r>
      </set>
      <set comment="kpoint 9">
       <r>  -4.2229  1.0000</r>
       <r>  -1.4630  1.0000</r>
       <r>  -0.5510  1.0000</r>
       <r>  -0.5510  1.0000</r>
       <r>  -0.2706  1.0000</r>
       <r>  -0.2156  1.0000</r>
       <r>  -0.2156  1.0000</r>
       <r>   0.4379  1.0000</r>
       <r>   1.0132  1.0000</r>
       <r>   1.0132  1.0000</r>
       <r>   1.1232  1.0000</r>
       <r>   1.1232  1.0000</r>
       <r>   1.3392  1.0000</r>
       <r>   1.7849  1.0000</r>
       <r>   1.7885  1.0000</r>
       <r>   1.8034  1.0000</r>
       <r>   1.8034  1.0000</r>
       <r>   1.8897  1.0000</r>
       <r>   1.8897  1.0000</r>
       <r>   2.0685  1.0000</r>
       <r>   2.3686  1.0000</r>
       <r>   2.3686  1.0000</r>
       <r>   7.9595  0.0000</r>
       <r>   7.9595  0.0000</r>
       <r>  11.6495  0.0000</r>
       <r>  11.6495  0.0000</r>
       <r>  12.6784  0.0000</r>
       <r>  12.6784  0.0000</r>
       <r>  14.0531  0.0000</r>
       <r>  14.0531  0.0000</r>
       <r>  17.7223  0.0000</r>
       <r>  19.0703  0.0000</r>
      </set>
      <set comment="kpoint 10">
       <r>  -3.8903  1.0000</r>
       <r>  -1.7079  1.0000</r>
       <r>  -0.4612  1.0000</r>
       <r>  -0.4612  1.0000</r>
       <r>  -0.1895  1.0000</r>
       <r>  -0.1085  1.0000</r>
       <r>  -0.1085  1.0000</r>
       <r>   0.3528  1.0000</r>
       <r>   0.8157  1.0000</r>
       <r>   0.8157  1.0000</r>
       <r>   1.2030  1.0000</r>
       <r>   1.2030  1.0000</r>
       <r>   1.2809  1.0000</r>
       <r>   1.5016  1.0000</r>
       <r>   1.7288  1.0000</r>
       <r>   1.7288  1.0000</r>
       <r>   1.7882  1.0000</r>
       <r>   1.7882  1.0000</r>
       <r>   1.8211  1.0000</r>
       <r>   2.0354  1.0000</r>
       <r>   2.3687  1.0000</r>
       <r>   2.3687  1.0000</r>
       <r>   8.4739  0.0000</r>
       <r>   8.4739  0.0000</r>
       <r>  11.8105  0.0000</r>
       <r>  11.8105  0.0000</r>
       <r>  12.0227  0.0000</r>
       <r>  12.0227  0.0000</r>
       <r>  13.6457  0.0000</r>
       <r>  13.6457  0.0000</r>
       <r>  18.9106  0.0000</r>
       <r>  19.5459  0.0000</r>
      </set>
      <set comment="kpoint 11">
       <r>  -3.5309  1.0000</r>
       <r>  -2.0193  1.0000</r>
       <r>  -0.3873  1.0000</r>
       <r>  -0.3873  1.0000</r>
       <r>  -0.1032  1.0000</r>
       <r>   0.0122  1.0000</r>
       <r>   0.0122  1.0000</r>
       <r>   0.2635  1.0000</r>
       <r>   0.6293  1.0000</r>
       <r>   0.6293  1.0000</r>
       <r>   1.2307  1.0000</r>
       <r>   1.2898  1.0000</r>
       <r>   1.2898  1.0000</r>
       <r>   1.3203  1.0000</r>
       <r>   1.6666  1.0000</r>
       <r>   1.6666  1.0000</r>
       <r>   1.6849  1.0000</r>
       <r>   1.6849  1.0000</r>
       <r>   1.8555  1.0000</r>
       <r>   2.0004  1.0000</r>
       <r>   2.3687  1.0000</r>
       <r>   2.3687  1.0000</r>
       <r>   9.0128  0.0000</r>
       <r>   9.0128  0.0000</r>
       <r>  11.3829  0.0000</r>
       <r>  11.3829  0.0000</r>
       <r>  11.9914  0.0000</r>
       <r>  11.9914  0.0000</r>
       <r>  13.2850  0.0000</r>
       <r>  13.2850  0.0000</r>
       <r>  20.0650  0.0000</r>
       <r>  20.0744  0.0000</r>
      </set>
      <set comment="kpoint 12">
       <r>  -3.1515  1.0000</r>
       <r>  -2.3785  1.0000</r>
       <r>  -0.3382  1.0000</r>
       <r>  -0.3382  1.0000</r>
       <r>  -0.0133  1.0000</r>
       <r>   0.1464  1.0000</r>
       <r>   0.1464  1.0000</r>
       <r>   0.1716  1.0000</r>
       <r>   0.4552  1.0000</r>
       <r>   0.4552  1.0000</r>
       <r>   1.1964  1.0000</r>
       <r>   1.2237  1.0000</r>
       <r>   1.3827  1.0000</r>
       <r>   1.3827  1.0000</r>
       <r>   1.5817  1.0000</r>
       <r>   1.5817  1.0000</r>
       <r>   1.6249  1.0000</r>
       <r>   1.6249  1.0000</r>
       <r>   1.8913  1.0000</r>
       <r>   1.9644  1.0000</r>
       <r>   2.3688  1.0000</r>
       <r>   2.3688  1.0000</r>
       <r>   9.5745  0.0000</r>
       <r>   9.5745  0.0000</r>
       <r>  10.7607  0.0000</r>
       <r>  10.7607  0.0000</r>
       <r>  12.1745  0.0000</r>
       <r>  12.1745  0.0000</r>
       <r>  12.9925  0.0000</r>
       <r>  12.9925  0.0000</r>
       <r>  20.6248  0.0000</r>
       <r>  20.6248  0.0000</r>
      </set>
      <set comment="kpoint 13">
       <r>  -2.7625  1.0000</r>
       <r>  -2.7625  1.0000</r>
       <r>  -0.3210  1.0000</r>
       <r>  -0.3210  1.0000</r>
       <r>   0.0788  1.0000</r>
       <r>   0.0788  1.0000</r>
       <r>   0.2941  1.0000</r>
       <r>   0.2941  1.0000</r>
       <r>   0.2941  1.0000</r>
       <r>   0.2941  1.0000</r>
       <r>   1.1890  1.0000</r>
       <r>   1.1890  1.0000</r>
       <r>   1.4804  1.0000</r>
       <r>   1.4804  1.0000</r>
       <r>   1.4804  1.0000</r>
       <r>   1.4804  1.0000</r>
       <r>   1.6101  1.0000</r>
       <r>   1.6101  1.0000</r>
       <r>   1.9278  1.0000</r>
       <r>   1.9278  1.0000</r>
       <r>   2.3688  1.0000</r>
       <r>   2.3688  1.0000</r>
       <r>  10.1575  0.0000</r>
       <r>  10.1575  0.0000</r>
       <r>  10.1575  0.0000</r>
       <r>  10.1575  0.0000</r>
       <r>  12.2750  0.0000</r>
       <r>  12.2750  0.0000</r>
       <r>  12.8553  0.0000</r>
       <r>  12.8553  0.0000</r>
       <r>  21.2228  0.0000</r>
       <r>  21.2228  0.0000</r>
      </set>
      <set comment="kpoint 14">
       <r>  -5.5020  1.0000</r>
       <r>  -1.0605  1.0000</r>
       <r>  -1.0605  1.0000</r>
       <r>  -1.0507  1.0000</r>
       <r>  -0.5989  1.0000</r>
       <r>  -0.5989  1.0000</r>
       <r>  -0.5986  1.0000</r>
       <r>   0.7970  1.0000</r>
       <r>   0.8147  1.0000</r>
       <r>   0.8172  1.0000</r>
       <r>   1.6432  1.0000</r>
       <r>   1.6515  1.0000</r>
       <r>   2.1959  1.0000</r>
       <r>   2.2000  1.0000</r>
       <r>   2.2000  1.0000</r>
       <r>   2.2951  1.0000</r>
       <r>   2.3194  1.0000</r>
       <r>   2.3194  1.0000</r>
       <r>   2.3591  1.0000</r>
       <r>   2.3591  1.0000</r>
       <r>   2.3624  1.0000</r>
       <r>   5.3163  0.0000</r>
       <r>   5.3163  0.0000</r>
       <r>   5.5162  0.0000</r>
       <r>  11.1160  0.0000</r>
       <r>  11.2932  0.0000</r>
       <r>  11.2932  0.0000</r>
       <r>  16.6326  0.0000</r>
       <r>  17.0364  0.0000</r>
       <r>  17.0364  0.0000</r>
       <r>  17.0994  0.0000</r>
       <r>  17.0994  0.0000</r>
      </set>
      <set comment="kpoint 15">
       <r>  -5.4381  1.0000</r>
       <r>  -1.0608  1.0000</r>
       <r>  -1.0304  1.0000</r>
       <r>  -1.0209  1.0000</r>
       <r>  -0.5818  1.0000</r>
       <r>  -0.5808  1.0000</r>
       <r>  -0.5806  1.0000</r>
       <r>   0.7794  1.0000</r>
       <r>   0.8286  1.0000</r>
       <r>   0.8321  1.0000</r>
       <r>   1.6277  1.0000</r>
       <r>   1.6571  1.0000</r>
       <r>   2.1682  1.0000</r>
       <r>   2.1738  1.0000</r>
       <r>   2.1897  1.0000</r>
       <r>   2.1904  1.0000</r>
       <r>   2.2162  1.0000</r>
       <r>   2.2942  1.0000</r>
       <r>   2.3327  1.0000</r>
       <r>   2.3591  1.0000</r>
       <r>   2.3593  1.0000</r>
       <r>   4.9382  0.0000</r>
       <r>   5.4832  0.0000</r>
       <r>   5.6810  0.0000</r>
       <r>  11.1392  0.0000</r>
       <r>  11.3191  0.0000</r>
       <r>  11.7998  0.0000</r>
       <r>  16.0916  0.0000</r>
       <r>  16.6167  0.0000</r>
       <r>  16.8290  0.0000</r>
       <r>  17.1282  0.0000</r>
       <r>  17.1647  0.0000</r>
      </set>
      <set comment="kpoint 16">
       <r>  -5.3321  1.0000</r>
       <r>  -1.0647  1.0000</r>
       <r>  -0.9814  1.0000</r>
       <r>  -0.9725  1.0000</r>
       <r>  -0.5537  1.0000</r>
       <r>  -0.5506  1.0000</r>
       <r>  -0.5505  1.0000</r>
       <r>   0.7486  1.0000</r>
       <r>   0.8536  1.0000</r>
       <r>   0.8568  1.0000</r>
       <r>   1.5999  1.0000</r>
       <r>   1.6688  1.0000</r>
       <r>   2.0324  1.0000</r>
       <r>   2.0340  1.0000</r>
       <r>   2.1374  1.0000</r>
       <r>   2.1494  1.0000</r>
       <r>   2.1700  1.0000</r>
       <r>   2.2553  1.0000</r>
       <r>   2.2897  1.0000</r>
       <r>   2.3584  1.0000</r>
       <r>   2.3592  1.0000</r>
       <r>   4.4213  0.0000</r>
       <r>   5.7378  0.0000</r>
       <r>   5.9347  0.0000</r>
       <r>  11.1785  0.0000</r>
       <r>  11.3629  0.0000</r>
       <r>  12.5341  0.0000</r>
       <r>  15.4764  0.0000</r>
       <r>  16.0472  0.0000</r>
       <r>  16.4371  0.0000</r>
       <r>  16.8913  0.0000</r>
       <r>  17.2799  0.0000</r>
      </set>
      <set comment="kpoint 17">
       <r>  -5.1845  1.0000</r>
       <r>  -1.0775  1.0000</r>
       <r>  -0.9152  1.0000</r>
       <r>  -0.9071  1.0000</r>
       <r>  -0.5148  1.0000</r>
       <r>  -0.5081  1.0000</r>
       <r>  -0.5080  1.0000</r>
       <r>   0.7059  1.0000</r>
       <r>   0.8888  1.0000</r>
       <r>   0.8912  1.0000</r>
       <r>   1.5621  1.0000</r>
       <r>   1.6851  1.0000</r>
       <r>   1.8410  1.0000</r>
       <r>   1.8424  1.0000</r>
       <r>   2.0878  1.0000</r>
       <r>   2.0971  1.0000</r>
       <r>   2.1335  1.0000</r>
       <r>   2.2107  1.0000</r>
       <r>   2.2317  1.0000</r>
       <r>   2.3582  1.0000</r>
       <r>   2.3592  1.0000</r>
       <r>   3.8484  1.0000</r>
       <r>   6.0590  0.0000</r>
       <r>   6.2575  0.0000</r>
       <r>  11.2347  0.0000</r>
       <r>  11.4257  0.0000</r>
       <r>  13.4187  0.0000</r>
       <r>  14.8285  0.0000</r>
       <r>  15.4055  0.0000</r>
       <r>  15.9759  0.0000</r>
       <r>  16.4827  0.0000</r>
       <r>  17.4898  0.0000</r>
      </set>
      <set comment="kpoint 18">
       <r>  -4.9963  1.0000</r>
       <r>  -1.1082  1.0000</r>
       <r>  -0.8345  1.0000</r>
       <r>  -0.8274  1.0000</r>
       <r>  -0.4658  1.0000</r>
       <r>  -0.4535  1.0000</r>
       <r>  -0.4531  1.0000</r>
       <r>   0.6524  1.0000</r>
       <r>   0.9337  1.0000</r>
       <r>   0.9348  1.0000</r>
       <r>   1.5156  1.0000</r>
       <r>   1.6312  1.0000</r>
       <r>   1.6359  1.0000</r>
       <r>   1.7057  1.0000</r>
       <r>   2.0263  1.0000</r>
       <r>   2.0346  1.0000</r>
       <r>   2.0686  1.0000</r>
       <r>   2.1604  1.0000</r>
       <r>   2.1715  1.0000</r>
       <r>   2.3582  1.0000</r>
       <r>   2.3592  1.0000</r>
       <r>   3.2774  1.0000</r>
       <r>   6.4307  0.0000</r>
       <r>   6.6341  0.0000</r>
       <r>  11.3088  0.0000</r>
       <r>  11.5089  0.0000</r>
       <r>  14.1717  0.0000</r>
       <r>  14.4053  0.0000</r>
       <r>  14.7331  0.0000</r>
       <r>  15.4860  0.0000</r>
       <r>  16.0048  0.0000</r>
       <r>  17.7553  0.0000</r>
      </set>
      <set comment="kpoint 19">
       <r>  -4.7687  1.0000</r>
       <r>  -1.1694  1.0000</r>
       <r>  -0.7429  1.0000</r>
       <r>  -0.7369  1.0000</r>
       <r>  -0.4075  1.0000</r>
       <r>  -0.3864  1.0000</r>
       <r>  -0.3856  1.0000</r>
       <r>   0.5891  1.0000</r>
       <r>   0.9872  1.0000</r>
       <r>   0.9881  1.0000</r>
       <r>   1.4165  1.0000</r>
       <r>   1.4238  1.0000</r>
       <r>   1.4625  1.0000</r>
       <r>   1.7302  1.0000</r>
       <r>   1.9554  1.0000</r>
       <r>   1.9629  1.0000</r>
       <r>   1.9716  1.0000</r>
       <r>   2.0780  1.0000</r>
       <r>   2.1368  1.0000</r>
       <r>   2.3583  1.0000</r>
       <r>   2.3593  1.0000</r>
       <r>   2.7547  1.0000</r>
       <r>   6.8418  0.0000</r>
       <r>   7.0535  0.0000</r>
       <r>  11.4015  0.0000</r>
       <r>  11.6140  0.0000</r>
       <r>  13.5196  0.0000</r>
       <r>  14.0520  0.0000</r>
       <r>  14.9948  0.0000</r>
       <r>  15.4650  0.0000</r>
       <r>  15.5020  0.0000</r>
       <r>  18.0738  0.0000</r>
      </set>
      <set comment="kpoint 20">
       <r>  -4.5035  1.0000</r>
       <r>  -1.2775  1.0000</r>
       <r>  -0.6451  1.0000</r>
       <r>  -0.6402  1.0000</r>
       <r>  -0.3406  1.0000</r>
       <r>  -0.3068  1.0000</r>
       <r>  -0.3052  1.0000</r>
       <r>   0.5173  1.0000</r>
       <r>   1.0471  1.0000</r>
       <r>   1.0515  1.0000</r>
       <r>   1.2041  1.0000</r>
       <r>   1.2131  1.0000</r>
       <r>   1.4060  1.0000</r>
       <r>   1.7583  1.0000</r>
       <r>   1.8330  1.0000</r>
       <r>   1.8784  1.0000</r>
       <r>   1.8850  1.0000</r>
       <r>   1.9869  1.0000</r>
       <r>   2.0972  1.0000</r>
       <r>   2.3331  1.0000</r>
       <r>   2.3584  1.0000</r>
       <r>   2.3593  1.0000</r>
       <r>   7.2849  0.0000</r>
       <r>   7.5084  0.0000</r>
       <r>  11.5123  0.0000</r>
       <r>  11.7429  0.0000</r>
       <r>  12.8813  0.0000</r>
       <r>  13.3738  0.0000</r>
       <r>  14.5205  0.0000</r>
       <r>  15.0020  0.0000</r>
       <r>  16.5793  0.0000</r>
       <r>  18.4421  0.0000</r>
      </set>
      <set comment="kpoint 21">
       <r>  -4.2032  1.0000</r>
       <r>  -1.4491  1.0000</r>
       <r>  -0.5471  1.0000</r>
       <r>  -0.5432  1.0000</r>
       <r>  -0.2662  1.0000</r>
       <r>  -0.2145  1.0000</r>
       <r>  -0.2118  1.0000</r>
       <r>   0.4384  1.0000</r>
       <r>   0.9983  1.0000</r>
       <r>   1.0084  1.0000</r>
       <r>   1.1116  1.0000</r>
       <r>   1.1234  1.0000</r>
       <r>   1.3516  1.0000</r>
       <r>   1.6347  1.0000</r>
       <r>   1.7894  1.0000</r>
       <r>   1.7999  1.0000</r>
       <r>   1.8057  1.0000</r>
       <r>   1.8895  1.0000</r>
       <r>   2.0029  1.0000</r>
       <r>   2.1083  1.0000</r>
       <r>   2.3586  1.0000</r>
       <r>   2.3593  1.0000</r>
       <r>   7.7549  0.0000</r>
       <r>   7.9938  0.0000</r>
       <r>  11.6293  0.0000</r>
       <r>  11.8970  0.0000</r>
       <r>  12.2738  0.0000</r>
       <r>  12.7050  0.0000</r>
       <r>  14.0751  0.0000</r>
       <r>  14.5223  0.0000</r>
       <r>  17.7334  0.0000</r>
       <r>  18.8567  0.0000</r>
      </set>
      <set comment="kpoint 22">
       <r>  -3.8711  1.0000</r>
       <r>  -1.6931  1.0000</r>
       <r>  -0.4563  1.0000</r>
       <r>  -0.4532  1.0000</r>
       <r>  -0.1855  1.0000</r>
       <r>  -0.1094  1.0000</r>
       <r>  -0.1052  1.0000</r>
       <r>   0.3537  1.0000</r>
       <r>   0.8021  1.0000</r>
       <r>   0.8127  1.0000</r>
       <r>   1.1689  1.0000</r>
       <r>   1.2031  1.0000</r>
       <r>   1.3147  1.0000</r>
       <r>   1.4253  1.0000</r>
       <r>   1.7262  1.0000</r>
       <r>   1.7309  1.0000</r>
       <r>   1.7880  1.0000</r>
       <r>   1.8231  1.0000</r>
       <r>   1.8504  1.0000</r>
       <r>   2.0520  1.0000</r>
       <r>   2.3587  1.0000</r>
       <r>   2.3593  1.0000</r>
       <r>   8.2484  0.0000</r>
       <r>   8.5065  0.0000</r>
       <r>  11.5276  0.0000</r>
       <r>  11.9248  0.0000</r>
       <r>  12.0497  0.0000</r>
       <r>  12.0763  0.0000</r>
       <r>  13.6681  0.0000</r>
       <r>  14.0746  0.0000</r>
       <r>  18.9035  0.0000</r>
       <r>  19.3140  0.0000</r>
      </set>
      <set comment="kpoint 23">
       <r>  -3.5122  1.0000</r>
       <r>  -2.0036  1.0000</r>
       <r>  -0.3813  1.0000</r>
       <r>  -0.3791  1.0000</r>
       <r>  -0.0998  1.0000</r>
       <r>   0.0087  1.0000</r>
       <r>   0.0148  1.0000</r>
       <r>   0.2649  1.0000</r>
       <r>   0.6172  1.0000</r>
       <r>   0.6278  1.0000</r>
       <r>   1.1823  1.0000</r>
       <r>   1.2725  1.0000</r>
       <r>   1.2899  1.0000</r>
[...]
       <r>   0.6213  1.0000</r>
       <r>   0.7071  1.0000</r>
       <r>   0.7966  1.0000</r>
       <r>   0.8451  1.0000</r>
       <r>   0.8862  1.0000</r>
       <r>   0.9167  1.0000</r>
       <r>   0.9167  1.0000</r>
       <r>   1.3394  1.0000</r>
       <r>   1.3539  1.0000</r>
       <r>   1.3539  1.0000</r>
       <r>   1.4434  1.0000</r>
       <r>   2.1624  1.0000</r>
       <r>   2.2123  1.0000</r>
       <r>   2.2123  1.0000</r>
       <r>   2.2225  1.0000</r>
       <r>   2.3217  1.0000</r>
       <r>   3.0567  1.0000</r>
       <r>   4.1028  0.0000</r>
       <r>   4.1028  0.0000</r>
       <r>   7.8816  0.0000</r>
       <r>   7.8816  0.0000</r>
       <r>   9.0273  0.0000</r>
       <r>   9.8589  0.0000</r>
       <r>  22.2196  0.0000</r>
       <r>  22.2196  0.0000</r>
       <r>  23.2131  0.0000</r>
       <r>  23.2131  0.0000</r>
      </set>
      <set comment="kpoint 439">
       <r>  -1.3442  1.0000</r>
       <r>  -1.3442  1.0000</r>
       <r>  -1.0393  1.0000</r>
       <r>  -1.0393  1.0000</r>
       <r>   0.6269  1.0000</r>
       <r>   0.6269  1.0000</r>
       <r>   0.7571  1.0000</r>
       <r>   0.7571  1.0000</r>
       <r>   0.8604  1.0000</r>
       <r>   0.8604  1.0000</r>
       <r>   0.9101  1.0000</r>
       <r>   0.9101  1.0000</r>
       <r>   1.3823  1.0000</r>
       <r>   1.3823  1.0000</r>
       <r>   1.4104  1.0000</r>
       <r>   1.4104  1.0000</r>
       <r>   2.1980  1.0000</r>
       <r>   2.1980  1.0000</r>
       <r>   2.2060  1.0000</r>
       <r>   2.2060  1.0000</r>
       <r>   2.6495  1.0000</r>
       <r>   2.6495  1.0000</r>
       <r>   4.1167  0.0000</r>
       <r>   4.1167  0.0000</r>
       <r>   7.8135  0.0000</r>
       <r>   7.8135  0.0000</r>
       <r>   9.4199  0.0000</r>
       <r>   9.4199  0.0000</r>
       <r>  22.3922  0.0000</r>
       <r>  22.3922  0.0000</r>
       <r>  23.0344  0.0000</r>
       <r>  23.0344  0.0000</r>
      </set>
      <set comment="kpoint 440">
       <r>  -1.4901  1.0000</r>
       <r>  -1.1206  1.0000</r>
       <r>  -1.1206  1.0000</r>
       <r>  -1.0594  1.0000</r>
       <r>   0.6376  1.0000</r>
       <r>   0.6653  1.0000</r>
       <r>   0.6653  1.0000</r>
       <r>   0.8181  1.0000</r>
       <r>   0.8234  1.0000</r>
       <r>   0.8934  1.0000</r>
       <r>   0.8934  1.0000</r>
       <r>   0.9023  1.0000</r>
       <r>   1.3905  1.0000</r>
       <r>   1.3905  1.0000</r>
       <r>   1.3987  1.0000</r>
       <r>   1.5910  1.0000</r>
       <r>   2.0999  1.0000</r>
       <r>   2.2140  1.0000</r>
       <r>   2.2211  1.0000</r>
       <r>   2.2274  1.0000</r>
       <r>   2.2274  1.0000</r>
       <r>   3.5999  1.0000</r>
       <r>   3.5999  1.0000</r>
       <r>   4.0070  0.0000</r>
       <r>   7.8678  0.0000</r>
       <r>   8.3047  0.0000</r>
       <r>   8.3047  0.0000</r>
       <r>   9.8321  0.0000</r>
       <r>  22.2428  0.0000</r>
       <r>  23.0231  0.0000</r>
       <r>  23.0231  0.0000</r>
       <r>  23.8963  0.0000</r>
      </set>
      <set comment="kpoint 441">
       <r>  -1.3997  1.0000</r>
       <r>  -1.2157  1.0000</r>
       <r>  -1.1180  1.0000</r>
       <r>  -1.0876  1.0000</r>
       <r>   0.6610  1.0000</r>
       <r>   0.6746  1.0000</r>
       <r>   0.7175  1.0000</r>
       <r>   0.7940  1.0000</r>
       <r>   0.8248  1.0000</r>
       <r>   0.8603  1.0000</r>
       <r>   0.8759  1.0000</r>
       <r>   0.8802  1.0000</r>
       <r>   1.4858  1.0000</r>
       <r>   1.4869  1.0000</r>
       <r>   1.5004  1.0000</r>
       <r>   1.6508  1.0000</r>
       <r>   2.1445  1.0000</r>
       <r>   2.2101  1.0000</r>
       <r>   2.2126  1.0000</r>
       <r>   2.2155  1.0000</r>
       <r>   2.4098  1.0000</r>
       <r>   3.1512  1.0000</r>
       <r>   3.7020  1.0000</r>
       <r>   3.9203  0.0609</r>
       <r>   7.7889  0.0000</r>
       <r>   8.0194  0.0000</r>
       <r>   8.6011  0.0000</r>
       <r>   9.3700  0.0000</r>
       <r>  22.5815  0.0000</r>
       <r>  23.1315  0.0000</r>
       <r>  23.7850  0.0000</r>
       <r>  23.9203  0.0000</r>
      </set>
      <set comment="kpoint 442">
       <r>  -1.3085  1.0000</r>
       <r>  -1.3085  1.0000</r>
       <r>  -1.1071  1.0000</r>
       <r>  -1.1071  1.0000</r>
       <r>   0.6734  1.0000</r>
       <r>   0.6734  1.0000</r>
       <r>   0.7604  1.0000</r>
       <r>   0.7604  1.0000</r>
       <r>   0.8374  1.0000</r>
       <r>   0.8374  1.0000</r>
       <r>   0.8713  1.0000</r>
       <r>   0.8713  1.0000</r>
       <r>   1.5201  1.0000</r>
       <r>   1.5201  1.0000</r>
       <r>   1.5962  1.0000</r>
       <r>   1.5962  1.0000</r>
       <r>   2.1888  1.0000</r>
       <r>   2.1888  1.0000</r>
       <r>   2.2047  1.0000</r>
       <r>   2.2047  1.0000</r>
       <r>   2.7422  1.0000</r>
       <r>   2.7422  1.0000</r>
       <r>   3.8136  1.0000</r>
       <r>   3.8136  1.0000</r>
       <r>   7.8428  0.0000</r>
       <r>   7.8428  0.0000</r>
       <r>   8.9584  0.0000</r>
       <r>   8.9584  0.0000</r>
       <r>  22.9144  0.0000</r>
       <r>  22.9144  0.0000</r>
       <r>  23.9662  0.0000</r>
       <r>  23.9662  0.0000</r>
      </set>
      <set comment="kpoint 443">
       <r>  -1.3355  1.0000</r>
       <r>  -1.1954  1.0000</r>
       <r>  -1.1954  1.0000</r>
       <r>  -1.1318  1.0000</r>
       <r>   0.6918  1.0000</r>
       <r>   0.7200  1.0000</r>
       <r>   0.7200  1.0000</r>
       <r>   0.7828  1.0000</r>
       <r>   0.8159  1.0000</r>
       <r>   0.8449  1.0000</r>
       <r>   0.8449  1.0000</r>
       <r>   0.8549  1.0000</r>
       <r>   1.5900  1.0000</r>
       <r>   1.6086  1.0000</r>
       <r>   1.6086  1.0000</r>
       <r>   1.7458  1.0000</r>
       <r>   2.1369  1.0000</r>
       <r>   2.1976  1.0000</r>
       <r>   2.1976  1.0000</r>
       <r>   2.1986  1.0000</r>
       <r>   2.6148  1.0000</r>
       <r>   3.2983  1.0000</r>
       <r>   3.2983  1.0000</r>
       <r>   3.7069  1.0000</r>
       <r>   7.8302  0.0000</r>
       <r>   8.2518  0.0000</r>
       <r>   8.2518  0.0000</r>
       <r>   8.9359  0.0000</r>
       <r>  22.9402  0.0000</r>
       <r>  23.6679  0.0000</r>
       <r>  23.6679  0.0000</r>
       <r>  24.5070  0.0000</r>
      </set>
      <set comment="kpoint 444">
       <r>  -1.2677  1.0000</r>
       <r>  -1.2677  1.0000</r>
       <r>  -1.1676  1.0000</r>
       <r>  -1.1676  1.0000</r>
       <r>   0.7118  1.0000</r>
       <r>   0.7118  1.0000</r>
       <r>   0.7565  1.0000</r>
       <r>   0.7565  1.0000</r>
       <r>   0.8243  1.0000</r>
       <r>   0.8243  1.0000</r>
       <r>   0.8427  1.0000</r>
       <r>   0.8427  1.0000</r>
       <r>   1.6387  1.0000</r>
       <r>   1.6387  1.0000</r>
       <r>   1.7085  1.0000</r>
       <r>   1.7085  1.0000</r>
       <r>   2.1677  1.0000</r>
       <r>   2.1677  1.0000</r>
       <r>   2.1899  1.0000</r>
       <r>   2.1899  1.0000</r>
       <r>   2.9235  1.0000</r>
       <r>   2.9235  1.0000</r>
       <r>   3.4902  1.0000</r>
       <r>   3.4902  1.0000</r>
       <r>   7.9901  0.0000</r>
       <r>   7.9901  0.0000</r>
       <r>   8.5609  0.0000</r>
       <r>   8.5609  0.0000</r>
       <r>  23.3090  0.0000</r>
       <r>  23.3090  0.0000</r>
       <r>  24.0929  0.0000</r>
       <r>  24.0929  0.0000</r>
      </set>
      <set comment="kpoint 445">
       <r>  -1.2210  1.0000</r>
       <r>  -1.2210  1.0000</r>
       <r>  -1.2210  1.0000</r>
       <r>  -1.2210  1.0000</r>
       <r>   0.7405  1.0000</r>
       <r>   0.7405  1.0000</r>
       <r>   0.7405  1.0000</r>
       <r>   0.7405  1.0000</r>
       <r>   0.8261  1.0000</r>
       <r>   0.8261  1.0000</r>
       <r>   0.8261  1.0000</r>
       <r>   0.8261  1.0000</r>
       <r>   1.7152  1.0000</r>
       <r>   1.7152  1.0000</r>
       <r>   1.7152  1.0000</r>
       <r>   1.7152  1.0000</r>
       <r>   2.1702  1.0000</r>
       <r>   2.1702  1.0000</r>
       <r>   2.1702  1.0000</r>
       <r>   2.1702  1.0000</r>
       <r>   3.1820  1.0000</r>
       <r>   3.1820  1.0000</r>
       <r>   3.1820  1.0000</r>
       <r>   3.1820  1.0000</r>
       <r>   8.2346  0.0000</r>
       <r>   8.2346  0.0000</r>
       <r>   8.2346  0.0000</r>
       <r>   8.2346  0.0000</r>
       <r>  23.6984  0.0000</r>
       <r>  23.6984  0.0000</r>
       <r>  23.6984  0.0000</r>
       <r>  23.6984  0.0000</r>
      </set>
      <set comment="kpoint 446">
       <r>  -1.4282  1.0000</r>
       <r>  -1.1433  1.0000</r>
       <r>  -1.1433  1.0000</r>
       <r>  -1.1433  1.0000</r>
       <r>   0.6892  1.0000</r>
       <r>   0.6892  1.0000</r>
       <r>   0.6892  1.0000</r>
       <r>   0.8094  1.0000</r>
       <r>   0.8094  1.0000</r>
       <r>   0.8629  1.0000</r>
       <r>   0.8629  1.0000</r>
       <r>   0.8629  1.0000</r>
       <r>   1.5407  1.0000</r>
       <r>   1.5407  1.0000</r>
       <r>   1.5407  1.0000</r>
       <r>   1.8830  1.0000</r>
       <r>   2.1486  1.0000</r>
       <r>   2.1486  1.0000</r>
       <r>   2.2305  1.0000</r>
       <r>   2.2305  1.0000</r>
       <r>   2.2305  1.0000</r>
       <r>   3.5904  1.0000</r>
       <r>   3.5904  1.0000</r>
       <r>   3.5904  1.0000</r>
       <r>   8.0036  0.0000</r>
       <r>   8.0036  0.0000</r>
       <r>   8.0036  0.0000</r>
       <r>   9.3448  0.0000</r>
       <r>  23.3567  0.0000</r>
       <r>  23.3567  0.0000</r>
       <r>  23.3567  0.0000</r>
       <r>  24.6242  0.0000</r>
      </set>
      <set comment="kpoint 447">
       <r>  -1.3634  1.0000</r>
       <r>  -1.2216  1.0000</r>
       <r>  -1.1571  1.0000</r>
       <r>  -1.1571  1.0000</r>
       <r>   0.7047  1.0000</r>
       <r>   0.7047  1.0000</r>
       <r>   0.7327  1.0000</r>
       <r>   0.7927  1.0000</r>
       <r>   0.8065  1.0000</r>
       <r>   0.8334  1.0000</r>
       <r>   0.8434  1.0000</r>
       <r>   0.8434  1.0000</r>
       <r>   1.6490  1.0000</r>
       <r>   1.6490  1.0000</r>
       <r>   1.6798  1.0000</r>
       <r>   1.9237  1.0000</r>
       <r>   2.1865  1.0000</r>
       <r>   2.2223  1.0000</r>
       <r>   2.2223  1.0000</r>
       <r>   2.2278  1.0000</r>
       <r>   2.3593  1.0000</r>
       <r>   3.1618  1.0000</r>
       <r>   3.5832  1.0000</r>
       <r>   3.5832  1.0000</r>
       <r>   7.8168  0.0000</r>
       <r>   7.8168  0.0000</r>
       <r>   8.2334  0.0000</r>
       <r>   8.9127  0.0000</r>
       <r>  23.6471  0.0000</r>
       <r>  23.6471  0.0000</r>
       <r>  24.3692  0.0000</r>
       <r>  24.6144  0.0000</r>
      </set>
      <set comment="kpoint 448">
       <r>  -1.2948  1.0000</r>
       <r>  -1.2948  1.0000</r>
       <r>  -1.1618  1.0000</r>
       <r>  -1.1618  1.0000</r>
       <r>   0.7102  1.0000</r>
       <r>   0.7102  1.0000</r>
       <r>   0.7672  1.0000</r>
       <r>   0.7672  1.0000</r>
       <r>   0.8145  1.0000</r>
       <r>   0.8145  1.0000</r>
       <r>   0.8365  1.0000</r>
       <r>   0.8365  1.0000</r>
       <r>   1.6897  1.0000</r>
       <r>   1.6897  1.0000</r>
       <r>   1.8117  1.0000</r>
       <r>   1.8117  1.0000</r>
       <r>   2.2131  1.0000</r>
       <r>   2.2131  1.0000</r>
       <r>   2.2165  1.0000</r>
       <r>   2.2165  1.0000</r>
       <r>   2.7435  1.0000</r>
       <r>   2.7435  1.0000</r>
       <r>   3.5804  1.0000</r>
       <r>   3.5804  1.0000</r>
       <r>   7.7534  0.0000</r>
       <r>   7.7534  0.0000</r>
       <r>   8.5400  0.0000</r>
       <r>   8.5400  0.0000</r>
       <r>  23.8016  0.0000</r>
       <r>  23.8016  0.0000</r>
       <r>  24.4745  0.0000</r>
       <r>  24.4745  0.0000</r>
      </set>
      <set comment="kpoint 449">
       <r>  -1.3217  1.0000</r>
       <r>  -1.2192  1.0000</r>
       <r>  -1.2192  1.0000</r>
       <r>  -1.1871  1.0000</r>
       <r>   0.7270  1.0000</r>
       <r>   0.7408  1.0000</r>
       <r>   0.7408  1.0000</r>
       <r>   0.7877  1.0000</r>
       <r>   0.7950  1.0000</r>
       <r>   0.8166  1.0000</r>
       <r>   0.8166  1.0000</r>
       <r>   0.8214  1.0000</r>
       <r>   1.7778  1.0000</r>
       <r>   1.8048  1.0000</r>
       <r>   1.8048  1.0000</r>
       <r>   2.0401  1.0000</r>
       <r>   2.1769  1.0000</r>
       <r>   2.2187  1.0000</r>
       <r>   2.2208  1.0000</r>
       <r>   2.2208  1.0000</r>
       <r>   2.5188  1.0000</r>
       <r>   3.2154  1.0000</r>
       <r>   3.2154  1.0000</r>
       <r>   3.4471  1.0000</r>
       <r>   7.7418  0.0000</r>
       <r>   7.9600  0.0000</r>
       <r>   7.9600  0.0000</r>
       <r>   8.5201  0.0000</r>
       <r>  24.0011  0.0000</r>
       <r>  24.4917  0.0000</r>
       <r>  24.4917  0.0000</r>
       <r>  25.1403  0.0000</r>
      </set>
      <set comment="kpoint 450">
       <r>  -1.2739  1.0000</r>
       <r>  -1.2739  1.0000</r>
       <r>  -1.2078  1.0000</r>
       <r>  -1.2078  1.0000</r>
       <r>   0.7396  1.0000</r>
       <r>   0.7396  1.0000</r>
       <r>   0.7687  1.0000</r>
       <r>   0.7687  1.0000</r>
       <r>   0.8002  1.0000</r>
       <r>   0.8002  1.0000</r>
       <r>   0.8120  1.0000</r>
       <r>   0.8120  1.0000</r>
       <r>   1.8404  1.0000</r>
       <r>   1.8404  1.0000</r>
       <r>   1.9466  1.0000</r>
       <r>   1.9466  1.0000</r>
       <r>   2.2040  1.0000</r>
       <r>   2.2040  1.0000</r>
       <r>   2.2134  1.0000</r>
       <r>   2.2134  1.0000</r>
       <r>   2.8460  1.0000</r>
       <r>   2.8460  1.0000</r>
       <r>   3.3158  1.0000</r>
       <r>   3.3158  1.0000</r>
       <r>   7.7924  0.0000</r>
       <r>   7.7924  0.0000</r>
       <r>   8.1993  0.0000</r>
       <r>   8.1993  0.0000</r>
       <r>  24.3103  0.0000</r>
       <r>  24.3103  0.0000</r>
       <r>  24.9784  0.0000</r>
       <r>  24.9785  0.0000</r>
      </set>
      <set comment="kpoint 451">
       <r>  -1.2451  1.0000</r>
       <r>  -1.2451  1.0000</r>
       <r>  -1.2451  1.0000</r>
       <r>  -1.2451  1.0000</r>
       <r>   0.7602  1.0000</r>
       <r>   0.7602  1.0000</r>
       <r>   0.7602  1.0000</r>
       <r>   0.7602  1.0000</r>
       <r>   0.7987  1.0000</r>
       <r>   0.7987  1.0000</r>
       <r>   0.7987  1.0000</r>
       <r>   0.7987  1.0000</r>
       <r>   1.9466  1.0000</r>
       <r>   1.9466  1.0000</r>
       <r>   1.9466  1.0000</r>
       <r>   1.9466  1.0000</r>
       <r>   2.2006  1.0000</r>
       <r>   2.2006  1.0000</r>
       <r>   2.2006  1.0000</r>
       <r>   2.2006  1.0000</r>
       <r>   3.0541  1.0000</r>
       <r>   3.0541  1.0000</r>
       <r>   3.0541  1.0000</r>
       <r>   3.0541  1.0000</r>
       <r>   7.9459  0.0000</r>
       <r>   7.9459  0.0000</r>
       <r>   7.9459  0.0000</r>
       <r>   7.9459  0.0000</r>
       <r>  24.6735  0.0000</r>
       <r>  24.6735  0.0000</r>
       <r>  24.6735  0.0000</r>
       <r>  24.6735  0.0000</r>
      </set>
      <set comment="kpoint 452">
       <r>  -1.3006  1.0000</r>
       <r>  -1.2337  1.0000</r>
       <r>  -1.2337  1.0000</r>
       <r>  -1.2337  1.0000</r>
       <r>   0.7547  1.0000</r>
       <r>   0.7547  1.0000</r>
       <r>   0.7547  1.0000</r>
       <r>   0.7850  1.0000</r>
       <r>   0.7850  1.0000</r>
       <r>   0.7984  1.0000</r>
       <r>   0.7984  1.0000</r>
       <r>   0.7984  1.0000</r>
       <r>   1.9564  1.0000</r>
       <r>   1.9564  1.0000</r>
       <r>   1.9564  1.0000</r>
       <r>   2.2056  1.0000</r>
       <r>   2.2056  1.0000</r>
       <r>   2.2266  1.0000</r>
       <r>   2.2266  1.0000</r>
       <r>   2.2266  1.0000</r>
       <r>   2.5498  1.0000</r>
       <r>   3.1450  1.0000</r>
       <r>   3.1450  1.0000</r>
       <r>   3.1450  1.0000</r>
       <r>   7.7801  0.0000</r>
       <r>   7.7801  0.0000</r>
       <r>   7.7801  0.0000</r>
       <r>   8.1822  0.0000</r>
       <r>  24.8883  0.0000</r>
       <r>  24.8883  0.0000</r>
       <r>  24.8883  0.0000</r>
       <r>  25.5171  0.0000</r>
      </set>
      <set comment="kpoint 453">
       <r>  -1.2715  1.0000</r>
       <r>  -1.2715  1.0000</r>
       <r>  -1.2386  1.0000</r>
       <r>  -1.2386  1.0000</r>
       <r>   0.7600  1.0000</r>
       <r>   0.7600  1.0000</r>
       <r>   0.7741  1.0000</r>
       <r>   0.7741  1.0000</r>
       <r>   0.7861  1.0000</r>
       <r>   0.7861  1.0000</r>
       <r>   0.7916  1.0000</r>
       <r>   0.7916  1.0000</r>
       <r>   2.0188  1.0000</r>
       <r>   2.0188  1.0000</r>
       <r>   2.1149  1.0000</r>
       <r>   2.1149  1.0000</r>
       <r>   2.2222  1.0000</r>
       <r>   2.2222  1.0000</r>
       <r>   2.2231  1.0000</r>
       <r>   2.2231  1.0000</r>
       <r>   2.8252  1.0000</r>
       <r>   2.8252  1.0000</r>
       <r>   3.1160  1.0000</r>
       <r>   3.1160  1.0000</r>
       <r>   7.7193  0.0000</r>
       <r>   7.7193  0.0000</r>
       <r>   7.9316  0.0000</r>
       <r>   7.9316  0.0000</r>
       <r>  25.0184  0.0000</r>
       <r>  25.0184  0.0000</r>
       <r>  25.3681  0.0000</r>
       <r>  25.3681  0.0000</r>
      </set>
      <set comment="kpoint 454">
       <r>  -1.2598  1.0000</r>
       <r>  -1.2598  1.0000</r>
       <r>  -1.2598  1.0000</r>
       <r>  -1.2598  1.0000</r>
       <r>   0.7724  1.0000</r>
       <r>   0.7724  1.0000</r>
       <r>   0.7724  1.0000</r>
       <r>   0.7724  1.0000</r>
       <r>   0.7821  1.0000</r>
       <r>   0.7821  1.0000</r>
       <r>   0.7821  1.0000</r>
       <r>   0.7821  1.0000</r>
       <r>   2.1397  1.0000</r>
       <r>   2.1397  1.0000</r>
       <r>   2.1397  1.0000</r>
       <r>   2.1397  1.0000</r>
       <r>   2.2191  1.0000</r>
       <r>   2.2191  1.0000</r>
       <r>   2.2191  1.0000</r>
       <r>   2.2191  1.0000</r>
       <r>   2.9274  1.0000</r>
       <r>   2.9274  1.0000</r>
       <r>   2.9274  1.0000</r>
       <r>   2.9274  1.0000</r>
       <r>   7.7683  0.0000</r>
       <r>   7.7683  0.0000</r>
       <r>   7.7683  0.0000</r>
       <r>   7.7683  0.0000</r>
       <r>  25.3171  0.0000</r>
       <r>  25.3171  0.0000</r>
       <r>  25.3171  0.0000</r>
       <r>  25.3171  0.0000</r>
      </set>
      <set comment="kpoint 455">
       <r>  -1.2648  1.0000</r>
       <r>  -1.2648  1.0000</r>
       <r>  -1.2648  1.0000</r>
       <r>  -1.2648  1.0000</r>
       <r>   0.7765  1.0000</r>
       <r>   0.7765  1.0000</r>
       <r>   0.7765  1.0000</r>
       <r>   0.7765  1.0000</r>
       <r>   0.7765  1.0000</r>
       <r>   0.7765  1.0000</r>
       <r>   0.7765  1.0000</r>
       <r>   0.7765  1.0000</r>
       <r>   2.2253  1.0000</r>
       <r>   2.2253  1.0000</r>
       <r>   2.2253  1.0000</r>
       <r>   2.2253  1.0000</r>
       <r>   2.2253  1.0000</r>
       <r>   2.2253  1.0000</r>
       <r>   2.2253  1.0000</r>
       <r>   2.2253  1.0000</r>
       <r>   2.8647  1.0000</r>
       <r>   2.8647  1.0000</r>
       <r>   2.8647  1.0000</r>
       <r>   2.8647  1.0000</r>
       <r>   7.7083  0.0000</r>
       <r>   7.7083  0.0000</r>
       <r>   7.7083  0.0000</r>
       <r>   7.7083  0.0000</r>
       <r>  25.4680  0.0000</r>
       <r>  25.4680  0.0000</r>
       <r>  25.4680  0.0000</r>
       <r>  25.4680  0.0000</r>
      </set>
     </set>
    </set>
   </array>
  </eigenvalues>
 </calculation>
 <structure name="finalpos" >
  <crystal>
   <varray name="basis" >
    <v>       3.60045598      0.00000000      0.00000000</v>
    <v>       0.00000000      3.60045598      0.00000000</v>
    <v>       0.00000000      0.00000000      3.60045598</v>
   </varray>
   <i name="volume">     46.67373086</i>
   <varray name="rec_basis" >
    <v>       0.27774260      0.00000000      0.00000000</v>
    <v>       0.00000000      0.27774260      0.00000000</v>
    <v>       0.00000000      0.00000000      0.27774260</v>
   </varray>
  </crystal>
  <varray name="positions" >
   <v>       0.00000000      0.00000000      0.00000000</v>
   <v>       0.50000000      0.50000000      0.00000000</v>
   <v>       0.50000000      0.00000000      0.50000000</v>
   <v>       0.00000000      0.50000000      0.50000000</v>
  </varray>
 </structure>
</modeling>
