 vasp.4.6.28 25Jul05 complex 
 executed on             LinuxIFC date 2016.09.01  15:53:53
 running on    4 nodes
 distr:  one band on    1 nodes,    4 groups


--------------------------------------------------------------------------------------------------------


 INCAR:
 POTCAR:   PAW_PBE Au 06Sep2000                   
 POTCAR:   PAW_PBE Au 06Sep2000                   
   VRHFIN =Au: s1d10                                                            
   LEXCH  = PE                                                                  
   EATOM  =   926.0567 eV,   68.0632 Ry                                         
                                                                                
   TITEL  = PAW_PBE Au 06Sep2000                                                
   LULTRA =        F    use ultrasoft PP ?                                      
   IUNSCR =        1    unscreen: 0-lin 1-nonlin 2-no                           
   RPACOR =    2.330    partial core radius                                     
   POMASS =  196.966; ZVAL   =   11.000    mass and valenz                      
   RCORE  =    2.500    outmost cutoff radius                                   
   RWIGS  =    2.840; RWIGS  =    1.503    wigner-seitz radius (au A)           
   ENMAX  =  229.948; ENMIN  =  172.461 eV                                      
   RCLOC  =    1.964    cutoff for local pot                                    
   LCOR   =        T    correct aug charges                                     
   LPAW   =        T    paw PP                                                  
   EAUG   =  356.670                                                            
   DEXC   =    -.025                                                            
   RMAX   =    3.041    core radius for proj-oper                               
   RAUG   =    1.300    factor for augmentation sphere                          
   RDEP   =    2.598    radius for radial grids                                 
   QCUT   =   -4.111; QGAM   =    8.222    optimization parameters              
                                                                                
   Description                                                                  
     l     E      TYP  RCUT    TYP  RCUT                                        
     2   .000     23  2.500                                                     
     2   .000     23  2.500                                                     
     0   .000     23  2.500                                                     
     0   .000     23  2.500                                                     
     1  -.200     23  2.500                                                     
     1   .000     23  2.500                                                     
     3   .000      7   .000                                                     
  local pseudopotential read in
  partial core-charges read in
  atomic valenz-charges read in
  non local Contribution for L=           2  read in
    real space projection operators read in
  non local Contribution for L=           2  read in
    real space projection operators read in
  non local Contribution for L=           0  read in
    real space projection operators read in
  non local Contribution for L=           0  read in
    real space projection operators read in
  non local Contribution for L=           1  read in
    real space projection operators read in
  non local Contribution for L=           1  read in
    real space projection operators read in
    PAW grid and wavefunctions read in
 
   number of l-projection  operators is LMAX  =           6
   number of lm-projection operators is LMMAX =          18
 

 ----------------------------------------------------------------------------- 
|                                                                             |
|  ADVICE TO THIS USER RUNNING 'VASP/VAMP'   (HEAR YOUR MASTER'S VOICE ...):  |
|                                                                             |
|      You have a (more or less) 'large supercell' and for larger cells       |
|      it might be more efficient to use real space projection operators      |
|      So try LREAL= Auto  in the INCAR   file.                               |
|      Mind: If you want to do an extremely accurate calculations keep the    |
|      reciprocal projection scheme          (i.e. LREAL=.FALSE.)             |
|                                                                             |
 ----------------------------------------------------------------------------- 

 PAW_PBE Au 06Sep2000                   :
 energy of atom  1       EATOM= -926.0567
 kinetic energy error for atom=    0.0708 (will be added to EATOM!!)
 
 EXHCAR: internal setup
 exchange correlation table for  LEXCH =        8
   RHO(1)=    0.500       N(1)  =     2000
   RHO(2)=  100.500       N(2)  =     4000
 
 POSCAR: No title                                
  positions in direct lattice
  No initial velocities read in
 


--------------------------------------------------------------------------------------------------------


 ion  position               nearest neighbor table
   1  0.750  0.750  0.500-   3 3.15  20 3.15  14 3.15  19 3.15   5 3.15  26 3.15   6 3.15  29 3.15
                            11 3.15  18 3.15  10 3.15   8 3.15
   2  0.750  0.750  0.000-  12 3.14  10 3.15   8 3.15  11 3.15  18 3.15  22 3.15  27 3.15  32 3.15
                             5 3.15  26 3.15   3 3.15  20 3.15
   3  0.750  0.000  0.250-  12 3.14   9 3.15   1 3.15   5 3.15  19 3.15  28 3.15  13 3.15  18 3.15
                            27 3.15   6 3.15   4 3.15   2 3.15
   4  0.750  0.250  0.500-   8 3.15  10 3.15   6 3.15  13 3.15  29 3.15  31 3.15  14 3.15  19 3.15
                            21 3.15  28 3.15   3 3.15  20 3.15
   5  0.000  0.750  0.250-  14 3.15   3 3.15   1 3.15  15 3.15  25 3.15  16 3.15  10 3.15   7 3.15
                             2 3.15  22 3.15   6 3.15  12 3.15
   6  0.000  0.000  0.500-  11 3.15  13 3.15   8 3.15   4 3.15   7 3.15  16 3.15   1 3.15  17 3.15
                             3 3.15  23 3.15  21 3.15   5 3.15
   7  0.250  0.750  0.500-  16 3.15  30 3.15   6 3.15  18 3.15  29 3.15  11 3.15  14 3.15  19 3.15
                             5 3.15  26 3.15  25 3.15  23 3.15
   8  0.750  0.000  0.750-  12 3.14   4 3.15   2 3.15  11 3.15   6 3.15  27 3.15  31 3.15  21 3.15
                            26 3.15  19 3.15   9 3.15   1 3.15
   9  0.750  0.250  0.000-  12 3.14   3 3.15  20 3.15  21 3.15  28 3.15  32 3.15  22 3.15  27 3.15
                            31 3.15  13 3.15  10 3.15   8 3.15
  10  0.750  0.500  0.250-   2 3.15   4 3.15  13 3.15  18 3.15  22 3.15  29 3.15  28 3.15   5 3.15
                            14 3.15  32 3.15   9 3.15   1 3.15
  11  0.000  0.750  0.750-   6 3.15  22 3.15   7 3.15   8 3.15   2 3.15  30 3.15  23 3.15  20 3.15
                             1 3.15  15 3.15  14 3.15  12 3.15
  12  0.998  0.000  0.000-   3 3.14   9 3.14   8 3.14   2 3.14   5 3.15  21 3.15  11 3.15  13 3.15
                            15 3.17  23 3.17  24 3.17  16 3.17
  13  0.000  0.250  0.250-   6 3.15  22 3.15  10 3.15  16 3.15   4 3.15  24 3.15   3 3.15  25 3.15
                            17 3.15   9 3.15  14 3.15  12 3.15
  14  0.000  0.500  0.500-   5 3.15  21 3.15  17 3.15  20 3.15   1 3.15  25 3.15   4 3.15   7 3.15
                            10 3.15  30 3.15  13 3.15  11 3.15
  15  0.250  0.750  0.000-  23 3.15  25 3.15   5 3.15  26 3.15  32 3.15  27 3.15  22 3.15  11 3.15
                            18 3.15  30 3.15  16 3.15  12 3.17
  16  0.250  0.000  0.250-   7 3.15  24 3.15  13 3.15  18 3.15   6 3.15  27 3.15   5 3.15  28 3.15
                            19 3.15  17 3.15  15 3.15  12 3.17
  17  0.250  0.250  0.500-  23 3.15  25 3.15  21 3.15  14 3.15  19 3.15  28 3.15   6 3.15  29 3.15
                            13 3.15  31 3.15  30 3.15  16 3.15
  18  0.500  0.750  0.250-  27 3.15  29 3.15  10 3.15  16 3.15   2 3.15   7 3.15   3 3.15  25 3.15
                             1 3.15  15 3.15  19 3.15  32 3.15
  19  0.500  0.000  0.500-  26 3.15  28 3.15  17 3.15  23 3.15   1 3.15   3 3.15   4 3.15   7 3.15
                             8 3.15  16 3.15  18 3.15  31 3.15
  20  0.750  0.500  0.750-   1 3.15   9 3.15  14 3.15  21 3.15  26 3.15  32 3.15  31 3.15  11 3.15
                            22 3.15  29 3.15   4 3.15   2 3.15
  21  0.000  0.250  0.750-  14 3.15   9 3.15  17 3.15  20 3.15  23 3.15   8 3.15  30 3.15  24 3.15
                             4 3.15  22 3.15   6 3.15  12 3.15
  22  0.000  0.500  0.000-  11 3.15  13 3.15   2 3.15  10 3.15  24 3.15  30 3.15   9 3.15  15 3.15
                            25 3.15  20 3.15  21 3.15   5 3.15
  23  0.250  0.000  0.750-  15 3.15  17 3.15  19 3.15  21 3.15  26 3.15  11 3.15  31 3.15  27 3.15
                             6 3.15  24 3.15   7 3.15  12 3.17
  24  0.250  0.250  0.000-  16 3.15  30 3.15  22 3.15  27 3.15  13 3.15  31 3.15  32 3.15  28 3.15
                            21 3.15  25 3.15  23 3.15  12 3.17
  25  0.250  0.500  0.250-  15 3.15  17 3.15   5 3.15  14 3.15  28 3.15  32 3.15  13 3.15  18 3.15
                            29 3.15  22 3.15  24 3.15   7 3.15
  26  0.500  0.750  0.750-  19 3.15  32 3.15   1 3.15  20 3.15  23 3.15  15 3.15  30 3.15   8 3.15
                             7 3.15   2 3.15  27 3.15  29 3.15
  27  0.500  0.000  0.000-  18 3.15  31 3.15  16 3.15   2 3.15  24 3.15   8 3.15   9 3.15  15 3.15
                             3 3.15  23 3.15  28 3.15  26 3.15
  28  0.500  0.250  0.250-  19 3.15  32 3.15  17 3.15   3 3.15  25 3.15   9 3.15  10 3.15  16 3.15
                             4 3.15  24 3.15  29 3.15  27 3.15
  29  0.500  0.500  0.500-  18 3.15  31 3.15  10 3.15   4 3.15  30 3.15   7 3.15  17 3.15   1 3.15
                            20 3.15  25 3.15  26 3.15  28 3.15
  30  0.250  0.500  0.750-   7 3.15  24 3.15  22 3.15  11 3.15  29 3.15  31 3.15  21 3.15  26 3.15
                            14 3.15  32 3.15  17 3.15  15 3.15
  31  0.500  0.250  0.750-  27 3.15  29 3.15  24 3.15   4 3.15   8 3.15  30 3.15  20 3.15  23 3.15
                             9 3.15  17 3.15  19 3.15  32 3.15
  32  0.500  0.500  0.000-  26 3.15  28 3.15  20 3.15  25 3.15   9 3.15  15 3.15  24 3.15   2 3.15
                            10 3.15  30 3.15  18 3.15  31 3.15
 
  LATTYP: Found a simple cubic cell.
 ALAT       =     8.9156168400
  
  Lattice vectors:
  
 A1 = (   8.9156168400,   0.0000000000,   0.0000000000)
 A2 = (   0.0000001600,   8.9156168400,   0.0000000000)
 A3 = (   0.0000001600,   0.0000001600,   8.9156168400)
 Subroutine PRICEL returns:
 Original cell was already a primitive cell.
 

Analysis of symmetry for initial positions (statically):

 Routine SETGRP: Setting up the symmetry group for a 
 simple cubic supercell.


 Subroutine GETGRP returns: Found  8 space group operations
 (whereof  8 operations were pure point group operations)
 out of a pool of 48 trial point group operations.


The static configuration has the point symmetry C_4v.

Analysis of symmetry for dynamics (positions and initial velocities):

 Subroutine DYNSYM returns: Found  8 space group operations
 (whereof  8 operations were pure point group operations)
 out of a pool of  8 trial space group operations
 (whereof  8 operations were pure point group operations)
 and found also     1 'primitive' translations


The dynamic configuration has the point symmetry C_4v.
 
 
 KPOINTS: Automatic mesh                          

Automatic generation of k-mesh.
 
 Subroutine IBZKPT returns following result:
 ===========================================
 
 Found      1 irreducible k-points:
 
 Following reciprocal coordinates:
            Coordinates               Weight
  0.250000  0.250000  0.250000      8.000000
 
 Following cartesian coordinates:
            Coordinates               Weight
  0.028041  0.028041  0.028041      8.000000
 


--------------------------------------------------------------------------------------------------------




 Dimension of arrays:
   k-Points           NKPTS =      1   number of bands    NBANDS=    212
   number of dos      NEDOS =    301   number of ions     NIONS =     32
   non local maximal  LDIM  =      6   non local SUM 2l+1 LMDIM =     18
   total plane-waves  NPLWV =  46656
   max r-space proj   IRMAX =      1   max aug-charges    IRDMAX=   4225
   dimension x,y,z NGX =    36 NGY =   36 NGZ =   36
   dimension x,y,z NGXF=    72 NGYF=   72 NGZF=   72
   support grid    NGXF=    72 NGYF=   72 NGZF=   72
   ions per type =              32
 NGX,Y,Z   is equivalent  to a cutoff of   6.71,  6.71,  6.71 a.u.
 NGXF,Y,Z  is equivalent  to a cutoff of  13.43, 13.43, 13.43 a.u.


 I would recommend the setting:
   dimension x,y,z NGX =    33 NGY =   33 NGZ =   33
 SYSTEM =  No title                                
 POSCAR =  No title                                

 Startparameter for this run:
   NWRITE =      2    write-flag & timer
   PREC   = normal    medium, high low
   ISTART =      1    job   : 0-new  1-cont  2-samecut
   ICHARG =      0    charge: 1-file 2-atom 10-const
   ISPIN  =      1    spin polarized calculation?
   LNONCOLLINEAR =      F non collinear calculations
   LSORBIT =      F    spin-orbit coupling
   INIWAV =      1    electr: 0-lowe 1-rand  2-diag
   LASPH  =      F    aspherical Exc in radial PAW
   METAGGA=      F    non-selfconsistent MetaGGA calc.

 Electronic Relaxation 1
   ENCUT  =  229.9 eV  16.90 Ry    4.11 a.u.  11.02 11.02 11.02*2*pi/ulx,y,z
   ENINI  =  229.9     initial cutoff
   ENAUG  =  356.7 eV  augmentation charge cutoff
   NELM   =     60;   NELMIN=  2; NELMDL=  0     # of ELM steps 
   EDIFF  = 0.1E-04   stopping-criterion for ELM
   LREAL  =      F    real-space projection
   LCOMPAT=      F    compatible to vasp.4.4
   LREAL_COMPAT= F    compatible to vasp.4.5.1-3
   GGA_COMPAT  = T    GGA compatible to vasp.4.4-vasp.4.6
   LMAXPAW     = -100 max onsite density
   LMAXMIX     =    2 max onsite mixed and CHGCAR
   VOSKOWN=      1    Vosko Wilk Nusair interpolation
   ROPT   =    0.00000
 Ionic relaxation
   EDIFFG = -.2E-01   stopping-criterion for IOM
   NSW    =      0    number of steps for IOM
   NBLOCK =      1;   KBLOCK =      1    inner block; outer block 
   IBRION =     -1    ionic relax: 0-MD 1-quasi-New 2-CG
   NFREE  =      0    steps in history (QN), initial steepest desc. (CG)
   ISIF   =      2    stress and relaxation
   IWAVPR =     10    prediction:  0-non 1-charg 2-wave 3-comb
   ISYM   =      2    0-nonsym 1-usesym 2-fastsym
   LCORR  =      T    Harris-Foulkes like correction to forces

   POTIM  =   0.50    time-step for ionic-motion
   TEIN   =    0.0    initial temperature
   TEBEG  =    0.0;   TEEND  =   0.0 temperature during run
   SMASS  =  -3.00    Nose mass-parameter (am)
   estimated Nose-frequenzy (Omega)   =  0.10E-29 period in steps =****** mass=  -0.182E-26a.u.
   NPACO  =    256;   APACO  = 16.0  distance and # of slots for P.C.
   PSTRESS=    0.0 pullay stress

  Mass of Ions in am
   POMASS = 196.97
  Ionic Valenz
   ZVAL   =  11.00
  Atomic Wigner-Seitz radii
   RWIGS  =   1.34
   NELECT =     352.0000    total number of electrons
   NUPDOWN=      -1.0000    fix difference up-down

 DOS related values:
   EMIN   =  10.00;   EMAX   =-10.00  energy-range for DOS
   ISMEAR =     1;   SIGMA  =   0.20  broadening in eV -4-tet -1-fermi 0-gaus

 Electronic relaxation 2 (details)
   IALGO  =     38    algorithm
   LDIAG  =      T    sub-space diagonalisation
   IMIX   =      4    mixing-type and parameters
     AMIX     =   0.40;   BMIX     =  1.00
     AMIX_MAG =   1.60;   BMIX_MAG =  1.00
     AMIN     =   0.10
     WC   =   100.;   INIMIX=   1;  MIXPRE=   1

 Intra band minimization:
   WEIMIN = 0.0000     energy-eigenvalue tresh-hold
   EBREAK =  0.12E-07  absolut break condition
   DEPER  =   0.30     relativ break condition  

   TIME   =   0.10     timestep for ELM

  volume/ion in A,a.u.               =      22.15       149.45
  Fermi-wavevector in a.u.,eV,Ry     =   1.296495 22.870038  1.680900

 Second variation
   LSECVAR=     F    do a second variation
 
 Write flags
   LWAVE  =      F    write WAVECAR
   LCHARG =      F    write CHGCAR
   LVTOT  =      F    write LOCPOT, local potential
   LELF   =      F    write electronic localiz. function (ELF)
   LORBIT =      0    0 simple, 1 ext, 2 COOP (PROOUT)


 Dipole corrections
   IDIPOL =      0    1-x, 2-y, 3-z
   LDIPOL =      F    correct potential



--------------------------------------------------------------------------------------------------------


 Static calculation
 charge density will be updated during run
 non-spin polarized calculation
 Variant of blocked Davidson
 Davidson routine will perform the subspace rotation
 performe sub-space diagonalisation
    after iterative eigenvector-optimisation
 modified Broyden-mixing scheme, WC =      100.0
 initial mixing is a Kerker type mixing with AMIX =  0.4000 and BMIX =      1.0000
 Hartree-type preconditioning will be used
 using additional bands           36
 reciprocal scheme for non local part
 use partial core corrections
 calculate Harris-corrections to forces 
   (improved forces if not selfconsistent)
 use gradient corrections 
 use of overlap-Matrix (Vanderbilt PP)
 Methfessel and Paxton  Order N= 1 SIGMA  =   0.20


--------------------------------------------------------------------------------------------------------


  energy-cutoff  :      229.95
  volume of cell :      708.69
      direct lattice vectors                 reciprocal lattice vectors
     8.915616840  0.000000000  0.000000000     0.112162738 -0.000000002 -0.000000002
     0.000000160  8.915616840  0.000000000     0.000000000  0.112162738 -0.000000002
     0.000000160  0.000000160  8.915616840     0.000000000  0.000000000  0.112162738

  length of vectors
     8.915616840  8.915616840  8.915616840     0.112162738  0.112162738  0.112162738


 
 old parameters found on file WAVECAR:
  energy-cutoff  :      229.95
  volume of cell :      708.69
      direct lattice vectors                 reciprocal lattice vectors
     8.915616840  0.000000000  0.000000000     0.112162738 -0.000000002 -0.000000002
     0.000000160  8.915616840  0.000000000     0.000000000  0.112162738 -0.000000002
     0.000000160  0.000000160  8.915616840     0.000000000  0.000000000  0.112162738

  length of vectors

 
 k-points in units of 2pi/SCALE and weight: Automatic mesh                          
   0.02804068  0.02804068  0.02804068       1.000
 
 k-points in reciprocal lattice and weights: Automatic mesh                          
   0.25000000  0.25000000  0.25000000       1.000
 
 position of ions in fractional coordinates (direct lattice) 
   0.75000000  0.75000000  0.50000000
   0.75000000  0.75000000  0.00000000
   0.75000000  0.00000000  0.25000000
   0.75000000  0.25000000  0.50000000
   0.00000000  0.75000000  0.25000000
   0.00000000  0.00000000  0.50000000
   0.25000000  0.75000000  0.50000000
   0.75000000  0.00000000  0.75000000
   0.75000000  0.25000000  0.00000000
   0.75000000  0.50000000  0.25000000
   0.00000000  0.75000000  0.75000000
   0.99775700  0.00000000  0.00000000
   0.00000000  0.25000000  0.25000000
   0.00000000  0.50000000  0.50000000
   0.25000000  0.75000000  0.00000000
   0.25000000  0.00000000  0.25000000
   0.25000000  0.25000000  0.50000000
   0.50000000  0.75000000  0.25000000
   0.50000000  0.00000000  0.50000000
   0.75000000  0.50000000  0.75000000
   0.00000000  0.25000000  0.75000000
   0.00000000  0.50000000  0.00000000
   0.25000000  0.00000000  0.75000000
   0.25000000  0.25000000  0.00000000
   0.25000000  0.50000000  0.25000000
   0.50000000  0.75000000  0.75000000
   0.50000000  0.00000000  0.00000000
   0.50000000  0.25000000  0.25000000
   0.50000000  0.50000000  0.50000000
   0.25000000  0.50000000  0.75000000
   0.50000000  0.25000000  0.75000000
   0.50000000  0.50000000  0.00000000
 
 position of ions in cartesian coordinates  (Angst):
   6.68671283  6.68671271  4.45780842
   6.68671275  6.68671263  0.00000000
   6.68671267  0.00000004  2.22890421
   6.68671275  2.22890429  4.45780842
   0.00000016  6.68671267  2.22890421
   0.00000008  0.00000008  4.45780842
   2.22890441  6.68671271  4.45780842
   6.68671275  0.00000012  6.68671263
   6.68671267  2.22890421  0.00000000
   6.68671275  4.45780846  2.22890421
   0.00000024  6.68671275  6.68671263
   8.89561911  0.00000000  0.00000000
   0.00000008  2.22890425  2.22890421
   0.00000016  4.45780850  4.45780842
   2.22890433  6.68671263  0.00000000
   2.22890425  0.00000004  2.22890421
   2.22890433  2.22890429  4.45780842
   4.45780858  6.68671267  2.22890421
   4.45780850  0.00000008  4.45780842
   6.68671283  4.45780854  6.68671263
   0.00000016  2.22890433  6.68671263
   0.00000008  4.45780842  0.00000000
   2.22890433  0.00000012  6.68671263
   2.22890425  2.22890421  0.00000000
   2.22890433  4.45780846  2.22890421
   4.45780866  6.68671275  6.68671263
   4.45780842  0.00000000  0.00000000
   4.45780850  2.22890425  2.22890421
   4.45780858  4.45780850  4.45780842
   2.22890441  4.45780854  6.68671263
   4.45780858  2.22890433  6.68671263
   4.45780850  4.45780842  0.00000000
 


--------------------------------------------------------------------------------------------------------


 k-point  1 :  0.25000.25000.2500  plane waves:   5614

 maximum and minimum number of plane-waves per node :   5614  5614

 maximum number of plane-waves:   5614
 maximal index in each direction: 
   IXMAX= 10   IYMAX= 10   IZMAX= 10
   IXMIN=-11   IYMIN=-11   IZMIN=-11

 WARNING: wrap around error must be expected set NGX to  44
 WARNING: wrap around error must be expected set NGY to  44
 WARNING: wrap around error must be expected set NGZ to  44

 parallel 3dFFT wavefunction:
    minimum data exchange during FFTs selected (reduces bandwidth)
 parallel 3dFFT charge:
    minimum data exchange during FFTs selected (reduces bandwidth)

 For storing wavefunctions   19.04 MBYTES are necessary
 For predicting wavefunctions   43.17 MBYTES are necessary
Broyden mixing: mesh for mixing (old mesh)
   NGX = 23   NGY = 23   NGZ = 23
  (NGX  = 72   NGY  = 72   NGZ  = 72)
 gives a total of  12167 points
 charge density for first step will be calculated from the start-wavefunctions


--------------------------------------------------------------------------------------------------------


 Maximum index for augmentation-charges          981 (set IRDMAX)


--------------------------------------------------------------------------------------------------------


 initial charge from wavefunction
 First call to EWALD:  gamma=   0.199
 Maximum number of real-space cells 3x 3x 3
 Maximum number of reciprocal cells 3x 3x 3

    FEWALD:  VPU time    0.00: CPU time    0.00


----------------------------------------- Iteration    1(   1)  ---------------------------------------


    POTLOK:  VPU time    0.07: CPU time    0.07
    SETDIJ:  VPU time    0.01: CPU time    0.01
    EDDAV :  VPU time    1.50: CPU time    1.53
    DOS   :  VPU time    0.00: CPU time   -0.00
    CHARGE:  VPU time    0.04: CPU time    0.04
    MIXING:  VPU time    0.00: CPU time    0.00
    ------------------------------------------
      LOOP:  VPU time    1.63: CPU time    1.67

 eigenvalue-minimisations  :   432
 total energy-change (2. order) :-0.9677369E+02  (-0.3526106E+00)
 number of electron  351.9994844 magnetization 
 augmentation part   130.6437820 magnetization 

 Broyden mixing:
  rms(total) = 0.97702E-01    rms(broyden)= 0.97502E-01
  rms(prec ) = 0.23217E+00
  weight for this iteration     100.00

 Free energy of the ion-electron system (eV)
  ---------------------------------------------------
  alpha Z        PSCENC =      2706.08790652
  Ewald energy   TEWEN  =    -28672.48839723
  -1/2 Hartree   DENC   =     -4775.01584263
  -V(xc)+E(xc)   XCENC  =       451.58299735
  PAW double counting   =     23399.38595259   -22701.04009647
  entropy T*S    EENTRO =        -0.17166635
  eigenvalues    EBANDS =      -136.66471628
  atomic energy  EATOM  =     29631.55017626
  ---------------------------------------------------
  free energy    TOTEN  =       -96.77368625 eV

  energy without entropy =      -96.60201989  energy(sigma->0) =      -96.71646413


--------------------------------------------------------------------------------------------------------




----------------------------------------- Iteration    1(   2)  ---------------------------------------


    POTLOK:  VPU time    0.06: CPU time    0.06
    SETDIJ:  VPU time    0.01: CPU time    0.01
    EDDAV :  VPU time    1.63: CPU time    1.63
    DOS   :  VPU time    0.00: CPU time   -0.00
    CHARGE:  VPU time    0.05: CPU time    0.05
    MIXING:  VPU time    0.00: CPU time    0.00
    ------------------------------------------
      LOOP:  VPU time    1.76: CPU time    1.76

 eigenvalue-minimisations  :   512
 total energy-change (2. order) : 0.7327511E-01  (-0.2564568E-01)
 number of electron  351.9994844 magnetization 
 augmentation part   130.6436964 magnetization 

 Broyden mixing:
  rms(total) = 0.45551E-01    rms(broyden)= 0.45479E-01
  rms(prec ) = 0.67582E-01
  weight for this iteration     100.00

 eigenvalues of (default mixing * dielectric matrix)
  average eigenvalue GAMMA=   1.1124
  1.1124

 Free energy of the ion-electron system (eV)
  ---------------------------------------------------
  alpha Z        PSCENC =      2706.08790652
  Ewald energy   TEWEN  =    -28672.48839723
  -1/2 Hartree   DENC   =     -4775.24548209
  -V(xc)+E(xc)   XCENC  =       451.58972721
  PAW double counting   =     23399.73062986   -22701.38279228
  entropy T*S    EENTRO =        -0.17292920
  eigenvalues    EBANDS =      -136.36925018
  atomic energy  EATOM  =     29631.55017626
  ---------------------------------------------------
  free energy    TOTEN  =       -96.70041114 eV

  energy without entropy =      -96.52748193  energy(sigma->0) =      -96.64276807


--------------------------------------------------------------------------------------------------------




----------------------------------------- Iteration    1(   3)  ---------------------------------------


    POTLOK:  VPU time    0.07: CPU time    0.07
    SETDIJ:  VPU time    0.01: CPU time    0.01
    EDDAV :  VPU time    1.51: CPU time    1.51
    DOS   :  VPU time    0.00: CPU time   -0.00
    CHARGE:  VPU time    0.04: CPU time    0.05
    MIXING:  VPU time    0.00: CPU time    0.00
    ------------------------------------------
      LOOP:  VPU time    1.65: CPU time    1.66

 eigenvalue-minimisations  :   428
 total energy-change (2. order) : 0.3555469E-02  (-0.3165749E-02)
 number of electron  351.9994845 magnetization 
 augmentation part   130.6415249 magnetization 

 Broyden mixing:
  rms(total) = 0.22706E-01    rms(broyden)= 0.22695E-01
  rms(prec ) = 0.28947E-01
  weight for this iteration     100.00

 eigenvalues of (default mixing * dielectric matrix)
  average eigenvalue GAMMA=   1.2650
  0.9058  1.6242

 Free energy of the ion-electron system (eV)
  ---------------------------------------------------
  alpha Z        PSCENC =      2706.08790652
  Ewald energy   TEWEN  =    -28672.48839723
  -1/2 Hartree   DENC   =     -4775.38051859
  -V(xc)+E(xc)   XCENC  =       451.59467733
  PAW double counting   =     23399.91452175   -22701.56081498
  entropy T*S    EENTRO =        -0.17299397
  eigenvalues    EBANDS =      -136.24141275
  atomic energy  EATOM  =     29631.55017626
  ---------------------------------------------------
  free energy    TOTEN  =       -96.69685567 eV

  energy without entropy =      -96.52386170  energy(sigma->0) =      -96.63919101


--------------------------------------------------------------------------------------------------------




----------------------------------------- Iteration    1(   4)  ---------------------------------------


    POTLOK:  VPU time    0.07: CPU time    0.07
    SETDIJ:  VPU time    0.02: CPU time    0.02
    EDDAV :  VPU time    1.60: CPU time    1.60
    DOS   :  VPU time    0.00: CPU time   -0.00
    CHARGE:  VPU time    0.04: CPU time    0.04
    MIXING:  VPU time    0.00: CPU time    0.00
    ------------------------------------------
      LOOP:  VPU time    1.73: CPU time    1.74

 eigenvalue-minimisations  :   464
 total energy-change (2. order) : 0.2608690E-04  (-0.3590716E-03)
 number of electron  351.9994845 magnetization 
 augmentation part   130.6402236 magnetization 

 Broyden mixing:
  rms(total) = 0.11310E-01    rms(broyden)= 0.11308E-01
  rms(prec ) = 0.13279E-01
  weight for this iteration     100.00

 eigenvalues of (default mixing * dielectric matrix)
  average eigenvalue GAMMA=   1.4533
  2.2267  0.9146  1.2187

 Free energy of the ion-electron system (eV)
  ---------------------------------------------------
  alpha Z        PSCENC =      2706.08790652
  Ewald energy   TEWEN  =    -28672.48839723
  -1/2 Hartree   DENC   =     -4775.42683625
  -V(xc)+E(xc)   XCENC  =       451.59632664
  PAW double counting   =     23399.89537296   -22701.54043590
  entropy T*S    EENTRO =        -0.17300528
  eigenvalues    EBANDS =      -136.19793729
  atomic energy  EATOM  =     29631.55017626
  ---------------------------------------------------
  free energy    TOTEN  =       -96.69682958 eV

  energy without entropy =      -96.52382430  energy(sigma->0) =      -96.63916115


--------------------------------------------------------------------------------------------------------




----------------------------------------- Iteration    1(   5)  ---------------------------------------


    POTLOK:  VPU time    0.07: CPU time    0.07
    SETDIJ:  VPU time    0.02: CPU time    0.02
    EDDAV :  VPU time    1.76: CPU time    1.77
    DOS   :  VPU time    0.00: CPU time   -0.00
    CHARGE:  VPU time    0.04: CPU time    0.04
    MIXING:  VPU time    0.00: CPU time    0.00
    ------------------------------------------
      LOOP:  VPU time    1.90: CPU time    1.90

 eigenvalue-minimisations  :   536
 total energy-change (2. order) :-0.1605265E-04  (-0.3821177E-04)
 number of electron  351.9994845 magnetization 
 augmentation part   130.6404067 magnetization 

 Broyden mixing:
  rms(total) = 0.34598E-02    rms(broyden)= 0.34590E-02
  rms(prec ) = 0.44696E-02
  weight for this iteration     100.00

 eigenvalues of (default mixing * dielectric matrix)
  average eigenvalue GAMMA=   1.3441
  2.4374  1.2938  0.8226  0.8226

 Free energy of the ion-electron system (eV)
  ---------------------------------------------------
  alpha Z        PSCENC =      2706.08790652
  Ewald energy   TEWEN  =    -28672.48839723
  -1/2 Hartree   DENC   =     -4775.40619052
  -V(xc)+E(xc)   XCENC  =       451.59539450
  PAW double counting   =     23399.77563901   -22701.42179918
  entropy T*S    EENTRO =        -0.17300394
  eigenvalues    EBANDS =      -136.21657105
  atomic energy  EATOM  =     29631.55017626
  ---------------------------------------------------
  free energy    TOTEN  =       -96.69684563 eV

  energy without entropy =      -96.52384170  energy(sigma->0) =      -96.63917765


--------------------------------------------------------------------------------------------------------




----------------------------------------- Iteration    1(   6)  ---------------------------------------


    POTLOK:  VPU time    0.06: CPU time    0.06
    SETDIJ:  VPU time    0.01: CPU time    0.01
    EDDAV :  VPU time    1.47: CPU time    1.47
    DOS   :  VPU time    0.00: CPU time   -0.00
    ------------------------------------------
      LOOP:  VPU time    1.54: CPU time    1.55

 eigenvalue-minimisations  :   448
 total energy-change (2. order) :-0.1013064E-05  (-0.7742717E-05)
 number of electron  351.9994845 magnetization 
 augmentation part   130.6404067 magnetization 

 Free energy of the ion-electron system (eV)
  ---------------------------------------------------
  alpha Z        PSCENC =      2706.08790652
  Ewald energy   TEWEN  =    -28672.48839723
  -1/2 Hartree   DENC   =     -4775.40381387
  -V(xc)+E(xc)   XCENC  =       451.59529195
  PAW double counting   =     23399.74648187   -22701.39292381
  entropy T*S    EENTRO =        -0.17300224
  eigenvalues    EBANDS =      -136.21856607
  atomic energy  EATOM  =     29631.55017626
  ---------------------------------------------------
  free energy    TOTEN  =       -96.69684665 eV

  energy without entropy =      -96.52384440  energy(sigma->0) =      -96.63917923


--------------------------------------------------------------------------------------------------------




 average (electrostatic) potential at core
  the test charge radii are     1.2098
  (the norm of the test charge is              1.0000)
       1 -47.6341       2 -47.6358       3 -47.6358       4 -47.6341       5 -47.6338
       6 -47.6332       7 -47.6337       8 -47.6358       9 -47.6358      10 -47.6341
      11 -47.6338      12 -47.6333      13 -47.6338      14 -47.6332      15 -47.6321
      16 -47.6321      17 -47.6337      18 -47.6338      19 -47.6332      20 -47.6341
      21 -47.6338      22 -47.6332      23 -47.6321      24 -47.6321      25 -47.6337
      26 -47.6338      27 -47.6332      28 -47.6338      29 -47.6332      30 -47.6337
      31 -47.6338      32 -47.6332
 
 
 
 E-fermi :   2.6425     XC(G=0): -11.1940     alpha+bet : -7.8361
   add alpha+bet to get absolut eigen values

 k-point   1 :       0.2500    0.2500    0.2500
  band No.  band energies     occupation 
      1      -4.1422      2.00000
      2      -3.1257      2.00000
      3      -3.1230      2.00000
      4      -3.1204      2.00000
      5      -2.5073      2.00000
      6      -2.4526      2.00000
      7      -2.4507      2.00000
      8      -2.4488      2.00000
      9      -2.1878      2.00000
     10      -2.1876      2.00000
     11      -2.1874      2.00000
     12      -2.0348      2.00000
     13      -2.0346      2.00000
     14      -2.0346      2.00000
     15      -1.9905      2.00000
     16      -1.9887      2.00000
     17      -1.9869      2.00000
     18      -1.8237      2.00000
     19      -1.8232      2.00000
     20      -1.8228      2.00000
     21      -1.7250      2.00000
     22      -1.7241      2.00000
     23      -1.7223      2.00000
     24      -1.7223      2.00000
     25      -1.7205      2.00000
     26      -1.7197      2.00000
     27      -1.6529      2.00000
     28      -1.6512      2.00000
     29      -1.6495      2.00000
     30      -1.5967      2.00000
     31      -1.5954      2.00000
     32      -1.5947      2.00000
     33      -1.5946      2.00000
     34      -1.5939      2.00000
     35      -1.5927      2.00000
     36      -1.5106      2.00000
     37      -1.5097      2.00000
     38      -1.5088      2.00000
     39      -1.2899      2.00000
     40      -1.2887      2.00000
     41      -1.2879      2.00000
     42      -1.2878      2.00000
     43      -1.2868      2.00000
     44      -1.2859      2.00000
     45      -1.0836      2.00000
     46      -1.0824      2.00000
     47      -1.0811      2.00000
     48      -1.0004      2.00000
     49      -0.9989      2.00000
     50      -0.9976      2.00000
     51      -0.9581      2.00000
     52      -0.9565      2.00000
     53      -0.9559      2.00000
     54      -0.9558      2.00000
     55      -0.9553      2.00000
     56      -0.9536      2.00000
     57      -0.8570      2.00000
     58      -0.8551      2.00000
     59      -0.8538      2.00000
     60      -0.8519      2.00000
     61      -0.8518      2.00000
     62      -0.8513      2.00000
     63      -0.8200      2.00000
     64      -0.8196      2.00000
     65      -0.8180      2.00000
     66      -0.8177      2.00000
     67      -0.8164      2.00000
     68      -0.8159      2.00000
     69      -0.7948      2.00000
     70      -0.6521      2.00000
     71      -0.6520      2.00000
     72      -0.6045      2.00000
     73      -0.6044      2.00000
     74      -0.5372      2.00000
     75      -0.5360      2.00000
     76      -0.5346      2.00000
     77      -0.5082      2.00000
     78      -0.5079      2.00000
     79      -0.5078      2.00000
     80      -0.5043      2.00000
     81      -0.5037      2.00000
     82      -0.5024      2.00000
     83      -0.5023      2.00000
     84      -0.5005      2.00000
     85      -0.5004      2.00000
     86      -0.4431      2.00000
     87      -0.4426      2.00000
     88      -0.4419      2.00000
     89      -0.4390      2.00000
     90      -0.4381      2.00000
     91      -0.4373      2.00000
     92      -0.3797      2.00000
     93      -0.3795      2.00000
     94      -0.3792      2.00000
     95      -0.3234      2.00000
     96      -0.3227      2.00000
     97      -0.3219      2.00000
     98      -0.3131      2.00000
     99      -0.3110      2.00000
    100      -0.3088      2.00000
    101      -0.0519      2.00000
    102      -0.0500      2.00000
    103      -0.0483      2.00000
    104      -0.0153      2.00000
    105      -0.0151      2.00000
    106      -0.0134      2.00000
    107      -0.0134      2.00000
    108      -0.0118      2.00000
    109      -0.0116      2.00000
    110       0.1376      2.00000
    111       0.1393      2.00000
    112       0.1411      2.00000
    113       0.1921      2.00000
    114       0.1947      2.00000
    115       0.1959      2.00000
    116       0.1969      2.00000
    117       0.1979      2.00000
    118       0.2006      2.00000
    119       0.2038      2.00000
    120       0.2044      2.00000
    121       0.2061      2.00000
    122       0.2062      2.00000
    123       0.2067      2.00000
    124       0.3283      2.00000
    125       0.3299      2.00000
    126       0.3302      2.00000
    127       0.3303      2.00000
    128       0.3309      2.00000
    129       0.3323      2.00000
    130       0.4987      2.00000
    131       0.4999      2.00000
    132       0.5011      2.00000
    133       0.5801      2.00000
    134       0.5804      2.00000
    135       0.5809      2.00000
    136       0.7110      2.00000
    137       0.7111      2.00000
    138       0.7115      2.00000
    139       0.7118      2.00000
    140       0.7142      2.00000
    141       0.7156      2.00000
    142       0.7157      2.00000
    143       0.7158      2.00000
    144       0.7163      2.00000
    145       0.7178      2.00000
    146       0.7482      2.00000
    147       0.7487      2.00000
    148       0.7490      2.00000
    149       0.7789      2.00000
    150       0.7790      2.00000
    151       0.8866      2.00000
    152       0.8867      2.00000
    153       0.8869      2.00000
    154       1.0085      2.00000
    155       1.0088      2.00000
    156       1.0089      2.00000
    157       1.0300      2.00000
    158       1.0306      2.00000
    159       1.0309      2.00000
    160       1.0310      2.00000
    161       1.0315      2.00000
    162       1.0323      2.00000
    163       1.0942      2.00000
    164       1.0952      2.00000
    165       1.0962      2.00000
    166       1.1073      2.00000
    167       1.1075      2.00000
    168       1.1075      2.00000
    169       1.2659      2.00000
    170       1.2671      2.00000
    171       1.2682      2.00000
    172       2.5530      1.67991
    173       2.5540      1.67385
    174       2.5551      1.66730
    175       2.5553      1.66634
    176       2.5564      1.65956
    177       2.5574      1.65310
    178       3.3147     -0.00002
    179       3.3157     -0.00002
    180       3.3167     -0.00002
    181       3.9571     -0.00000
    182       3.9585     -0.00000
    183       3.9600     -0.00000
    184       4.2909     -0.00000
    185       4.2914     -0.00000
    186       4.2919     -0.00000
    187       5.2265     -0.00000
    188       5.2284     -0.00000
    189       5.2291     -0.00000
    190       5.2291     -0.00000
    191       5.2297     -0.00000
    192       5.2317     -0.00000
    193       5.5871     -0.00000
    194       5.5888     -0.00000
    195       5.5905     -0.00000
    196       6.8629     -0.00000
    197       6.8646     -0.00000
    198       6.8663     -0.00000
    199       7.3626     -0.00000
    200       7.3626     -0.00000
    201       7.3646     -0.00000
    202       7.3646     -0.00000
    203       7.3666     -0.00000
    204       7.3667     -0.00000
    205       7.9194     -0.00000
    206       8.1488      0.00000
    207       8.1495      0.00000
    208       8.1502      0.00000
    209       8.7258      0.00000
    210       8.7265      0.00000
    211       8.7274      0.00000
    212       8.7285      0.00000


--------------------------------------------------------------------------------------------------------


 soft charge-density along one line, spin component           1
         0         1         2         3         4         5         6         7         8         9
 total charge-density along one line
 
 pseudopotential strength for first ion, spin component:           1
-10.714   0.000   0.000   0.000   0.000   0.027  -0.000  -0.000
  0.000 -10.714   0.000   0.000  -0.000  -0.000   0.027  -0.000
  0.000   0.000 -10.704   0.000  -0.000  -0.000  -0.000   0.026
  0.000   0.000   0.000 -10.714   0.000  -0.000  -0.000  -0.000
  0.000  -0.000  -0.000   0.000 -10.704  -0.000   0.000   0.000
  0.027  -0.000  -0.000  -0.000  -0.000   0.267   0.000   0.000
 -0.000   0.027  -0.000  -0.000   0.000   0.000   0.267   0.000
 -0.000  -0.000   0.026  -0.000   0.000   0.000   0.000   0.267
 -0.000  -0.000  -0.000   0.027  -0.000   0.000   0.000   0.000
 -0.000   0.000   0.000  -0.000   0.026   0.000  -0.000  -0.000
 -0.000  -0.000  -0.000  -0.000  -0.000  -0.000   0.000   0.000
 -0.000   0.000   0.000   0.000   0.000   0.000  -0.000  -0.000
  0.000  -0.000   0.000   0.000   0.000  -0.000   0.000  -0.000
  0.000  -0.000  -0.000   0.000   0.000  -0.000   0.000   0.000
 -0.000   0.000  -0.000  -0.000   0.000   0.000  -0.000   0.000
 -0.000   0.000  -0.000  -0.000  -0.000   0.000  -0.000   0.000
 -0.000   0.000   0.000  -0.000  -0.000   0.000  -0.000  -0.000
  0.000  -0.000   0.000   0.000  -0.000  -0.000   0.000  -0.000
 total augmentation occupancy for first ion, spin component:           1
  1.916  -0.007  -0.003  -0.007   0.000  -0.093   0.007  -0.002   0.007  -0.000   0.010  -0.001   0.000  -0.000  -0.000   0.000
 -0.007   1.916   0.002  -0.007  -0.003   0.007  -0.093   0.001   0.007  -0.001   0.010  -0.001  -0.000  -0.000   0.000   0.000
 -0.003   0.002   1.954   0.002   0.000  -0.001   0.001  -0.117   0.001  -0.000   0.000  -0.000   0.000  -0.000  -0.000   0.000
 -0.007  -0.007   0.002   1.916   0.003   0.007   0.007   0.001  -0.093   0.001   0.010  -0.001  -0.000   0.000   0.000   0.000
  0.000  -0.003   0.000   0.003   1.953  -0.000  -0.001  -0.000   0.001  -0.117  -0.000  -0.000   0.000  -0.000   0.000   0.000
 -0.093   0.007  -0.001   0.007  -0.000   0.097  -0.005   0.004  -0.005   0.000  -0.001   0.003  -0.000   0.000   0.000  -0.000
  0.007  -0.093   0.001   0.007  -0.001  -0.005   0.097  -0.002  -0.005   0.003  -0.001   0.003   0.000   0.000  -0.000  -0.000
 -0.002   0.001  -0.117   0.001  -0.000   0.004  -0.002   0.075  -0.002   0.000  -0.000  -0.000  -0.000   0.000   0.000  -0.000
  0.007   0.007   0.001  -0.093   0.001  -0.005  -0.005  -0.002   0.097  -0.003  -0.001   0.003   0.000  -0.000  -0.000  -0.000
 -0.000  -0.001  -0.000   0.001  -0.117   0.000   0.003   0.000  -0.003   0.075   0.000   0.000  -0.000   0.000   0.000  -0.000
  0.010   0.010   0.000   0.010  -0.000  -0.001  -0.001  -0.000  -0.001   0.000   0.989  -0.243   0.000  -0.000  -0.000  -0.000
 -0.001  -0.001  -0.000  -0.001  -0.000   0.003   0.003  -0.000   0.003   0.000  -0.243   0.131   0.000  -0.000  -0.000   0.000
  0.000  -0.000   0.000  -0.000   0.000  -0.000   0.000  -0.000   0.000  -0.000   0.000   0.000   0.086   0.002   0.002  -0.006
 -0.000  -0.000  -0.000   0.000  -0.000   0.000   0.000   0.000  -0.000   0.000  -0.000  -0.000   0.002   0.086   0.002  -0.000
 -0.000   0.000  -0.000   0.000   0.000   0.000  -0.000   0.000  -0.000   0.000  -0.000  -0.000   0.002   0.002   0.086  -0.000
  0.000   0.000   0.000   0.000   0.000  -0.000  -0.000  -0.000  -0.000  -0.000  -0.000   0.000  -0.006  -0.000  -0.000   0.000
  0.000  -0.000   0.000   0.000   0.000  -0.000   0.000  -0.000   0.000  -0.000   0.000   0.000  -0.000  -0.006  -0.000   0.000
 -0.000  -0.000  -0.000  -0.000   0.000   0.000   0.000  -0.000   0.000  -0.000   0.000  -0.000  -0.000  -0.000  -0.006   0.000


------------------------ aborting loop because EDIFF is reached ----------------------------------------




--------------------------------------------------------------------------------------------------------


    CHARGE:  VPU time    0.05: CPU time    0.05
    FORLOC:  VPU time    0.01: CPU time    0.01
    FORNL :  VPU time    0.90: CPU time    0.90
    STRESS:  VPU time    1.33: CPU time    1.33
    FORCOR:  VPU time    0.08: CPU time    0.08
    FORHAR:  VPU time    0.03: CPU time    0.03
    MIXING:  VPU time    0.00: CPU time    0.00


--------------------------------------------------------------------------------------------------------



  FREE ENERGIE OF THE ION-ELECTRON SYSTEM (eV)
  ---------------------------------------------------
  free  energy   TOTEN  =       -96.696847 eV

  energy  without entropy=      -96.523844  energy(sigma->0) =      -96.639179
 

  FORCE on cell =-STRESS in cart. coord.  units (eV/reduce length):
  Direction    X        Y        Z        XY       YZ       ZX
  --------------------------------------------------------------------------------------
  Alpha Z   2706.09   2706.09   2706.09
  Ewald    -9557.61  -9557.50  -9557.50     -0.00     -0.00     -0.00
  Hartree   1591.75   1591.83   1591.83     -0.00     -0.00     -0.00
  E(xc)    -1571.66  -1571.66  -1571.66     -0.00     -0.00     -0.00
  Local     2223.55   2223.35   2223.35      0.00      0.00      0.00
  n-local  -1717.96  -1717.96  -1717.96      6.91      6.91      6.91
  augment   1376.01   1376.01   1376.01     -0.00     -0.00     -0.00
  Kinetic   4877.65   4877.65   4877.65     -3.73     -3.73     -3.73
  -------------------------------------------------------------------------------------
  Total      -72.19    -72.19    -72.19     -0.00     -0.00     -0.00
  in kB     -163.20   -163.20   -163.20     -0.00     -0.00     -0.00
  external pressure =     -163.20 kB  Pullay stress =        0.00 kB


 VOLUME and BASIS-vectors are now :
 -----------------------------------------------------------------------------
  energy-cutoff  :      229.95
  volume of cell :      708.69
      direct lattice vectors                 reciprocal lattice vectors
     8.915616840  0.000000000  0.000000000     0.112162738 -0.000000002 -0.000000002
     0.000000160  8.915616840  0.000000000     0.000000000  0.112162738 -0.000000002
     0.000000160  0.000000160  8.915616840     0.000000000  0.000000000  0.112162738

  length of vectors
     8.915616840  8.915616840  8.915616840     0.112162738  0.112162738  0.112162738


 FORCES acting on ions
    electron-ion (+dipol)            ewald-force                    non-local-force                 convergence-correction
 -----------------------------------------------------------------------------------------------
   0.253E-01 0.129E+00 -.119E-07   -.236E-01 -.128E+00 0.127E-07   0.731E-03 -.149E-02 -.736E-20   -.295E-02 0.207E-02 0.598E-09
   0.816E+00 0.158E+01 -.778E-08   -.807E+00 -.156E+01 0.243E-09   -.451E-02 -.454E-03 -.534E-20   -.559E-02 -.239E-01 -.600E-09
   0.816E+00 -.263E-07 -.158E+01   -.807E+00 0.278E-07 0.156E+01   -.451E-02 0.816E-11 0.454E-03   -.559E-02 0.802E-09 0.239E-01
   0.253E-01 -.129E+00 0.683E-08   -.236E-01 0.128E+00 -.743E-08   0.731E-03 0.149E-02 -.445E-20   -.295E-02 -.207E-02 -.221E-09
   -.101E+01 -.766E-02 0.766E-02   0.101E+01 0.710E-02 -.710E-02   -.439E-02 -.278E-03 0.278E-03   0.122E-01 0.838E-03 -.838E-03
   -.523E+00 0.207E-08 0.348E-07   0.534E+00 -.141E-08 -.379E-07   -.633E-02 -.548E-19 -.666E-20   -.255E-02 0.697E-09 -.164E-08
   0.296E-01 -.129E+00 0.655E-08   -.282E-01 0.128E+00 -.714E-08   0.726E-03 0.154E-02 -.835E-20   -.264E-02 -.218E-02 -.214E-09
   0.816E+00 0.206E-07 0.158E+01   -.807E+00 -.278E-07 -.156E+01   -.451E-02 -.816E-11 -.454E-03   -.559E-02 -.103E-08 -.239E-01
   0.816E+00 -.158E+01 0.213E-08   -.807E+00 0.156E+01 -.242E-09   -.451E-02 0.454E-03 0.102E-18   -.559E-02 0.239E-01 0.374E-09
   0.253E-01 0.451E-08 -.129E+00   -.236E-01 -.513E-08 0.128E+00   0.731E-03 0.268E-10 0.149E-02   -.295E-02 -.259E-09 -.207E-02
   -.101E+01 -.766E-02 -.766E-02   0.101E+01 0.710E-02 0.710E-02   -.439E-02 -.278E-03 -.278E-03   0.122E-01 0.838E-03 0.838E-03
   -.645E+01 0.999E-07 -.157E-05   0.638E+01 -.109E-06 -.109E-06   0.666E-01 0.126E-19 -.494E-19   0.879E-03 0.240E-08 0.240E-08
   -.101E+01 0.766E-02 0.766E-02   0.101E+01 -.710E-02 -.710E-02   -.439E-02 0.278E-03 0.278E-03   0.122E-01 -.838E-03 -.838E-03
   -.216E+00 0.952E-08 0.952E-08   0.220E+00 -.101E-07 -.101E-07   0.270E-03 -.117E-19 0.303E-19   -.252E-02 -.667E-09 -.667E-09
   0.826E+00 -.156E+01 0.201E-08   -.817E+00 0.154E+01 -.219E-09   -.402E-02 0.252E-03 -.410E-19   -.638E-02 0.223E-01 0.404E-09
   0.826E+00 0.203E-07 0.156E+01   -.817E+00 -.273E-07 -.154E+01   -.402E-02 -.452E-11 -.252E-03   -.638E-02 -.936E-09 -.223E-01
   0.296E-01 0.129E+00 -.121E-07   -.282E-01 -.128E+00 0.129E-07   0.726E-03 -.154E-02 0.411E-19   -.264E-02 0.218E-02 0.537E-09
   0.563E+00 0.231E-02 -.231E-02   -.566E+00 -.213E-02 0.213E-02   0.234E-02 0.153E-04 -.153E-04   -.411E-03 -.192E-03 0.192E-03
   0.420E+00 -.193E-08 -.229E-07   -.419E+00 0.139E-08 0.240E-07   -.103E-01 0.846E-20 -.321E-19   0.139E-01 -.835E-09 0.122E-08
   0.253E-01 -.963E-08 0.129E+00   -.236E-01 0.104E-07 -.128E+00   0.731E-03 -.268E-10 -.149E-02   -.295E-02 0.635E-09 0.207E-02
   -.101E+01 0.766E-02 -.766E-02   0.101E+01 -.710E-02 0.710E-02   -.439E-02 0.278E-03 -.278E-03   0.122E-01 -.838E-03 0.838E-03
   -.523E+00 0.348E-07 0.207E-08   0.534E+00 -.379E-07 -.141E-08   -.633E-02 0.260E-19 0.152E-18   -.255E-02 -.164E-08 0.697E-09
   0.826E+00 -.260E-07 -.156E+01   -.817E+00 0.274E-07 0.154E+01   -.402E-02 0.452E-11 0.252E-03   -.638E-02 0.804E-09 0.223E-01
   0.826E+00 0.156E+01 -.767E-08   -.817E+00 -.154E+01 0.266E-09   -.402E-02 -.252E-03 0.829E-19   -.638E-02 -.223E-01 -.536E-09
   0.296E-01 -.984E-08 0.129E+00   -.282E-01 0.106E-07 -.128E+00   0.726E-03 -.276E-10 -.154E-02   -.264E-02 0.576E-09 0.218E-02
   0.563E+00 0.231E-02 0.231E-02   -.566E+00 -.213E-02 -.213E-02   0.234E-02 0.153E-04 0.153E-04   -.411E-03 -.192E-03 -.192E-03
   0.170E+01 -.441E-08 -.441E-08   -.169E+01 0.187E-08 0.187E-08   0.143E-01 0.792E-20 -.940E-20   -.334E-01 -.155E-08 -.155E-08
   0.563E+00 -.231E-02 -.231E-02   -.566E+00 0.213E-02 0.213E-02   0.234E-02 -.153E-04 -.153E-04   -.411E-03 0.192E-03 0.192E-03
   0.194E+00 -.838E-08 -.838E-08   -.206E+00 0.888E-08 0.888E-08   0.404E-02 -.154E-20 -.107E-19   0.518E-02 0.606E-09 0.606E-09
   0.296E-01 0.424E-08 -.129E+00   -.282E-01 -.485E-08 0.128E+00   0.726E-03 0.276E-10 0.154E-02   -.264E-02 -.253E-09 -.218E-02
   0.563E+00 -.231E-02 0.231E-02   -.566E+00 0.213E-02 -.213E-02   0.234E-02 -.153E-04 0.153E-04   -.411E-03 0.192E-03 -.192E-03
   0.420E+00 -.229E-07 -.193E-08   -.419E+00 0.240E-07 0.139E-08   -.103E-01 0.172E-19 0.460E-20   0.139E-01 0.122E-08 -.835E-09
 -----------------------------------------------------------------------------------------------
   0.141E-01 0.120E-10 -.167E-05   0.170E-12 0.274E-13 -.932E-13   0.156E-01 0.719E-18 0.659E-18   -.303E-01 0.490E-09 0.490E-09
 
 
 POSITION                                       TOTAL-FORCE (eV/Angst)
 -----------------------------------------------------------------------------------
      6.68671      6.68671      4.45781        -0.000504      0.001620      0.000000
      6.68671      6.68671      0.00000        -0.001881     -0.002225     -0.000000
      6.68671      0.00000      2.22890        -0.001881      0.000000      0.002225
      6.68671      2.22890      4.45781        -0.000504     -0.001620     -0.000000
      0.00000      6.68671      2.22890         0.003076     -0.000004      0.000004
      0.00000      0.00000      4.45781         0.001295     -0.000000      0.000000
      2.22890      6.68671      4.45781        -0.000523     -0.001615     -0.000000
      6.68671      0.00000      6.68671        -0.001881     -0.000000     -0.002225
      6.68671      2.22890      0.00000        -0.001881      0.002225     -0.000000
      6.68671      4.45781      2.22890        -0.000504     -0.000000     -0.001620
      0.00000      6.68671      6.68671         0.003076     -0.000004     -0.000004
      8.89562      0.00000      0.00000         0.004043     -0.000000     -0.000000
      0.00000      2.22890      2.22890         0.003076      0.000004      0.000004
      0.00000      4.45781      4.45781         0.001841      0.000000      0.000000
      2.22890      6.68671      0.00000        -0.001484      0.001636     -0.000000
      2.22890      0.00000      2.22890        -0.001484     -0.000000     -0.001636
      2.22890      2.22890      4.45781        -0.000523      0.001615     -0.000000
      4.45781      6.68671      2.22890        -0.001151      0.000007     -0.000007
      4.45781      0.00000      4.45781         0.004771      0.000000      0.000000
      6.68671      4.45781      6.68671        -0.000504      0.000000      0.001620
      0.00000      2.22890      6.68671         0.003076      0.000004     -0.000004
      0.00000      4.45781      0.00000         0.001295      0.000000      0.000000
      2.22890      0.00000      6.68671        -0.001484      0.000000      0.001636
      2.22890      2.22890      0.00000        -0.001484     -0.001636      0.000000
      2.22890      4.45781      2.22890        -0.000523      0.000000      0.001615
      4.45781      6.68671      6.68671        -0.001151      0.000007      0.000007
      4.45781      0.00000      0.00000        -0.005077      0.000000     -0.000000
      4.45781      2.22890      2.22890        -0.001151     -0.000007     -0.000007
      4.45781      4.45781      4.45781        -0.003064     -0.000000     -0.000000
      2.22890      4.45781      6.68671        -0.000523     -0.000000     -0.001615
      4.45781      2.22890      6.68671        -0.001151     -0.000007      0.000007
      4.45781      4.45781      0.00000         0.004771     -0.000000     -0.000000
 -----------------------------------------------------------------------------------
    total drift:                               -0.000624      0.000000     -0.000002


--------------------------------------------------------------------------------------------------------



 mean value of Nose-termostat <S>:     1.000 mean value of <T> :     0.000
 mean temperature <T/S>/<1/S>  :     0.000

     LOOP+:  VPU time   12.64: CPU time   12.69

 ----------------------------------------------------------------------------- 
|                                                                             |
|           W    W    AA    RRRRR   N    N  II  N    N   GGGG   !!!           |
|           W    W   A  A   R    R  NN   N  II  NN   N  G    G  !!!           |
|           W    W  A    A  R    R  N N  N  II  N N  N  G       !!!           |
|           W WW W  AAAAAA  RRRRR   N  N N  II  N  N N  G  GGG   !            |
|           WW  WW  A    A  R   R   N   NN  II  N   NN  G    G                |
|           W    W  A    A  R    R  N    N  II  N    N   GGGG   !!!           |
|                                                                             |
|      The partial DOS and the PROCAR file are not evaluated for NPAR/=1      |
|      please rerun with NPAR=1                                               |
|                                                                             |
 ----------------------------------------------------------------------------- 

  
  
 General timing and accounting informations for this job:
 ========================================================
  
                  Total CPU time used (sec):       13.250
                            User time (sec):       12.288
                          System time (sec):        0.962
                         Elapsed time (sec):       13.361
  
                   Maximum memory used (kb):       84192.
                   Average memory used (kb):           0.
  
                          Minor page faults:        16289
                          Major page faults:            0
                 Voluntary context switches:          830
