 running on    4 nodes
 distr:  one band on    1 nodes,    4 groups
 vasp.4.6.28 25Jul05 complex 
 POSCAR found :  1 types and   32 ions

 ----------------------------------------------------------------------------- 
|                                                                             |
|  ADVICE TO THIS USER RUNNING 'VASP/VAMP'   (HEAR YOUR MASTER'S VOICE ...):  |
|                                                                             |
|      You have a (more or less) 'large supercell' and for larger cells       |
|      it might be more efficient to use real space projection operators      |
|      So try LREAL= Auto  in the INCAR   file.                               |
|      Mind: If you want to do an extremely accurate calculations keep the    |
|      reciprocal projection scheme          (i.e. LREAL=.FALSE.)             |
|                                                                             |
 ----------------------------------------------------------------------------- 

 LDA part: xc-table for Pade appr. of Perdew
 POSCAR, INCAR and KPOINTS ok, starting setup
 WARNING: wrap around errors must be expected
 FFT: planning ...           4
 reading WAVECAR
 entering main loop
       N       E                     dE             d eps       ncg     rms          rms(c)
DAV:   1     0.183100252184E+04    0.18310E+04   -0.10643E+05   432   0.837E+02
DAV:   2    -0.366917526768E+00   -0.18314E+04   -0.17279E+04   444   0.310E+02
DAV:   3    -0.100894458327E+03   -0.10053E+03   -0.95518E+02   472   0.669E+01
DAV:   4    -0.102998426954E+03   -0.21040E+01   -0.20876E+01   456   0.100E+01
DAV:   5    -0.103050438774E+03   -0.52012E-01   -0.51996E-01   460   0.136E+00    0.139E+01
DAV:   6    -0.969363085985E+02    0.61141E+01   -0.19695E+01   444   0.134E+01    0.340E+00
DAV:   7    -0.967424132838E+02    0.19390E+00   -0.75869E-01   460   0.212E+00    0.179E+00
DAV:   8    -0.966967887988E+02    0.45624E-01   -0.35106E-02   452   0.541E-01    0.126E-01
DAV:   9    -0.966968656774E+02   -0.76879E-04   -0.44307E-03   444   0.192E-01    0.785E-02
DAV:  10    -0.966968775279E+02   -0.11851E-04   -0.51976E-04   444   0.591E-02    0.993E-03
DAV:  11    -0.966968834283E+02   -0.59004E-05   -0.18088E-05   292   0.115E-02
   1 F= -.96696883E+02 E0= -.96639203E+02  d E =-.966969E+02
 curvature:   0.00 expect dE= 0.000E+00 dE for cont linesearch  0.000E+00
 trial: gam= 0.00000 g(F)=  0.214E-57 g(S)=  0.000E+00 ort = 0.000E+00 (trialstep = 0.100E+01)
 search vector abs. value=  0.100E-09
 reached required accuracy - stopping structural energy minimisation
 writing wavefunctions

 ----------------------------------------------------------------------------- 
|                                                                             |
|           W    W    AA    RRRRR   N    N  II  N    N   GGGG   !!!           |
|           W    W   A  A   R    R  NN   N  II  NN   N  G    G  !!!           |
|           W    W  A    A  R    R  N N  N  II  N N  N  G       !!!           |
|           W WW W  AAAAAA  RRRRR   N  N N  II  N  N N  G  GGG   !            |
|           WW  WW  A    A  R   R   N   NN  II  N   NN  G    G                |
|           W    W  A    A  R    R  N    N  II  N    N   GGGG   !!!           |
|                                                                             |
|      The partial DOS and the PROCAR file are not evaluated for NPAR/=1      |
|      please rerun with NPAR=1                                               |
|                                                                             |
 ----------------------------------------------------------------------------- 

