       N       E                     dE             d eps       ncg     rms          rms(c)
DAV:   1    -0.883335408106E+02   -0.88334E+02   -0.34762E+00   432   0.438E+00    0.828E-01
DAV:   2    -0.882881835930E+02    0.45357E-01   -0.14070E-01   476   0.258E+00    0.404E-01
DAV:   3    -0.882863438394E+02    0.18398E-02   -0.24528E-02   448   0.576E-01    0.193E-01
DAV:   4    -0.882864514348E+02   -0.10760E-03   -0.13385E-03   456   0.126E-01    0.909E-02
DAV:   5    -0.882864904110E+02   -0.38976E-04   -0.20271E-04   456   0.905E-02    0.188E-02
DAV:   6    -0.882864904711E+02   -0.60114E-07   -0.22078E-05   248   0.345E-02
   1 F= -.88286490E+02 E0= -.88228857E+02  d E =-.172901E+00
