 running on    4 nodes
 distr:  one band on    1 nodes,    4 groups
 vasp.4.6.28 25Jul05 complex 
 POSCAR found :  1 types and    4 ions
 LDA part: xc-table for Pade appr. of Perdew
 POSCAR, INCAR and KPOINTS ok, starting setup
 WARNING: wrap around errors must be expected
 FFT: planning ...           1
 reading WAVECAR
 WARNING: random wavefunctions but no delay for mixing, default for NELMDL
 entering main loop
       N       E                     dE             d eps       ncg     rms          rms(c)
DAV:   1     0.488352785717E+03    0.48835E+03   -0.28152E+04  4712   0.219E+03
DAV:   2     0.344305021927E+01   -0.48491E+03   -0.46370E+03  4748   0.496E+02
DAV:   3    -0.120934718133E+02   -0.15537E+02   -0.15371E+02  5104   0.110E+02
DAV:   4    -0.121963142367E+02   -0.10284E+00   -0.10279E+00  5012   0.827E+00
DAV:   5    -0.121967078405E+02   -0.39360E-03   -0.39360E-03  4980   0.452E-01    0.585E+00
DAV:   6    -0.112799086478E+02    0.91680E+00   -0.30541E+00  4992   0.190E+01    0.109E+00
DAV:   7    -0.112491731245E+02    0.30736E-01   -0.61264E-02  4876   0.176E+00    0.527E-01
DAV:   8    -0.112366471410E+02    0.12526E-01   -0.52665E-03  4908   0.808E-01    0.529E-02
DAV:   9    -0.112367537431E+02   -0.10660E-03   -0.49923E-04  5424   0.212E-01    0.363E-02
DAV:  10    -0.112367055041E+02    0.48239E-04   -0.49725E-05  4848   0.675E-02    0.257E-03
DAV:  11    -0.112367049861E+02    0.51805E-06   -0.71693E-07  4968   0.521E-03    0.101E-03
DAV:  12    -0.112367043689E+02    0.61723E-06   -0.26274E-08  4208   0.126E-03    0.246E-04
DAV:  13    -0.112367041342E+02    0.23463E-06   -0.54196E-09  2556   0.617E-04    0.214E-05
DAV:  14    -0.112367041350E+02   -0.82036E-09   -0.30545E-10  2528   0.200E-04
   1 F= -.11236704E+02 E0= -.11236644E+02  d E =-.119985E-03
