   4   4   0   0
  0.1697883E+02  0.4079960E-09  0.4079960E-09  0.4079960E-09  0.5000000E-15
  1.000000000000000E-004
  CAR 
 unknown system                          
     15.76760847     -5.19276007  301      3.58047731      1.00000000
     -5.193  0.0000E+00  0.0000E+00
     -5.123  0.0000E+00  0.0000E+00
     -5.053  0.0000E+00  0.0000E+00
     -4.983  0.0000E+00  0.0000E+00
     -4.913  0.0000E+00  0.0000E+00
     -4.843  0.0000E+00  0.0000E+00
     -4.774  0.0000E+00  0.0000E+00
     -4.704  0.0000E+00  0.0000E+00
     -4.634  0.0000E+00  0.0000E+00
     -4.564  0.0000E+00  0.0000E+00
     -4.494  0.0000E+00  0.0000E+00
     -4.424  0.0000E+00  0.0000E+00
     -4.354  0.0000E+00  0.0000E+00
     -4.284  0.2667E-11  0.1864E-12
     -4.215  0.1656E-01  0.1157E-02
     -4.145  0.9931E-01  0.8096E-02
     -4.075  0.1983E+00  0.2196E-01
     -4.005  0.1320E+00  0.3122E-01
     -3.935  0.9834E-01  0.3812E-01
     -3.865  0.3945E+00  0.6576E-01
     -3.795  0.3967E+00  0.9369E-01
     -3.726  0.9645E-11  0.9375E-01
     -3.656  0.1987E+00  0.1076E+00
     -3.586  0.4969E+00  0.1424E+00
     -3.516  0.3976E+00  0.1701E+00
     -3.446  0.4455E+00  0.2013E+00
     -3.376  0.8711E-01  0.2074E+00
     -3.306  0.9615E+00  0.2745E+00
     -3.236  0.2287E+00  0.2905E+00
     -3.167  0.4071E+00  0.3190E+00
     -3.097  0.4864E+00  0.3529E+00
     -3.027  0.9877E+00  0.4220E+00
     -2.957  0.5202E+00  0.4588E+00
     -2.887  0.1424E+01  0.5590E+00
     -2.817  0.2544E+01  0.7378E+00
     -2.747  0.4672E+01  0.1065E+01
     -2.678  0.6847E+01  0.1544E+01
     -2.608  0.8636E+01  0.2148E+01
     -2.538  0.9846E+01  0.2838E+01
     -2.468  0.1175E+02  0.3662E+01
     -2.398  0.1223E+02  0.4518E+01
     -2.328  0.1743E+02  0.5743E+01
     -2.258  0.1123E+02  0.6530E+01
     -2.188  0.1309E+02  0.7447E+01
     -2.119  0.1220E+02  0.8305E+01
     -2.049  0.8282E+01  0.8884E+01
     -1.979  0.9985E+01  0.9582E+01
     -1.909  0.6765E+01  0.1005E+02
     -1.839  0.1064E+02  0.1080E+02
     -1.769  0.8743E+01  0.1141E+02
     -1.699  0.8904E+01  0.1204E+02
     -1.629  0.9316E+01  0.1269E+02
     -1.560  0.1182E+02  0.1352E+02
     -1.490  0.1241E+02  0.1439E+02
     -1.420  0.8376E+01  0.1498E+02
     -1.350  0.8727E+01  0.1559E+02
     -1.280  0.1239E+02  0.1646E+02
     -1.210  0.9910E+01  0.1716E+02
     -1.140  0.1340E+02  0.1810E+02
     -1.071  0.1896E+02  0.1942E+02
     -1.001  0.1958E+02  0.2080E+02
     -0.931  0.1023E+02  0.2152E+02
     -0.861  0.1899E+02  0.2285E+02
     -0.791  0.7754E+01  0.2339E+02
     -0.721  0.9078E+01  0.2403E+02
     -0.651  0.1239E+02  0.2490E+02
     -0.581  0.9988E+01  0.2560E+02
     -0.512  0.8312E+01  0.2618E+02
     -0.442  0.1158E+02  0.2699E+02
     -0.372  0.1462E+02  0.2802E+02
     -0.302  0.1164E+02  0.2883E+02
     -0.232  0.1278E+02  0.2973E+02
     -0.162  0.1279E+02  0.3063E+02
     -0.092  0.1250E+02  0.3150E+02
     -0.023  0.8443E+01  0.3209E+02
      0.047  0.1159E+02  0.3291E+02
      0.117  0.8262E+01  0.3349E+02
      0.187  0.1207E+02  0.3433E+02
      0.257  0.1144E+02  0.3514E+02
      0.327  0.8475E+01  0.3573E+02
      0.397  0.1316E+02  0.3666E+02
      0.467  0.1461E+02  0.3768E+02
      0.536  0.1537E+02  0.3876E+02
      0.606  0.2197E+02  0.4030E+02
      0.676  0.6447E+01  0.4075E+02
      0.746  0.7958E+01  0.4131E+02
      0.816  0.1191E+01  0.4139E+02
      0.886  0.4039E+00  0.4142E+02
      0.956  0.8179E+00  0.4148E+02
      1.025  0.1453E+01  0.4158E+02
      1.095  0.1997E+01  0.4172E+02
      1.165  0.8261E+00  0.4178E+02
      1.235  0.3975E+00  0.4181E+02
      1.305  0.1139E+01  0.4189E+02
      1.375  0.1332E+00  0.4190E+02
      1.445  0.1980E-01  0.4190E+02
      1.515  0.3427E+00  0.4192E+02
      1.584  0.1480E+01  0.4203E+02
      1.654  0.2715E+01  0.4222E+02
      1.724  0.7874E+00  0.4227E+02
      1.794  0.7723E+00  0.4233E+02
      1.864  0.7951E+00  0.4239E+02
      1.934  0.4862E-01  0.4239E+02
      2.004  0.1277E+01  0.4248E+02
      2.074  0.1550E-02  0.4248E+02
      2.143  0.3960E+00  0.4251E+02
      2.213  0.7365E+00  0.4256E+02
      2.283  0.2261E+01  0.4272E+02
      2.353  0.8705E+00  0.4278E+02
      2.423  0.1058E+01  0.4286E+02
      2.493  0.1011E+01  0.4293E+02
      2.563  0.1204E+01  0.4301E+02
      2.632  0.6028E-12  0.4301E+02
      2.702  0.1743E+01  0.4313E+02
      2.772  0.6996E+00  0.4319E+02
      2.842  0.3343E+00  0.4321E+02
      2.912  0.3782E+00  0.4323E+02
      2.982  0.1025E+00  0.4324E+02
      3.052  0.2113E+01  0.4339E+02
      3.122  0.1839E+01  0.4352E+02
      3.191  0.1770E+01  0.4364E+02
      3.261  0.4896E-01  0.4365E+02
      3.331  0.1542E+01  0.4375E+02
      3.401  0.1151E+01  0.4383E+02
      3.471  0.1234E+01  0.4392E+02
      3.541  0.3643E+00  0.4395E+02
      3.611  0.1226E+01  0.4403E+02
      3.680  0.4969E+00  0.4407E+02
      3.750  0.2112E-05  0.4407E+02
      3.820  0.5857E+00  0.4411E+02
      3.890  0.3331E+01  0.4434E+02
      3.960  0.1520E+01  0.4445E+02
      4.030  0.8618E+00  0.4451E+02
      4.100  0.3939E+00  0.4454E+02
      4.170  0.1957E+01  0.4467E+02
      4.239  0.5705E+00  0.4472E+02
      4.309  0.6320E+00  0.4476E+02
      4.379  0.8305E+00  0.4482E+02
      4.449  0.6754E+00  0.4487E+02
      4.519  0.1663E+01  0.4498E+02
      4.589  0.1305E+01  0.4507E+02
      4.659  0.2817E+00  0.4509E+02
      4.728  0.4490E+00  0.4513E+02
      4.798  0.1518E+01  0.4523E+02
      4.868  0.8106E+00  0.4529E+02
      4.938  0.1500E+01  0.4539E+02
      5.008  0.1979E+01  0.4553E+02
      5.078  0.1223E+01  0.4562E+02
      5.148  0.7646E+00  0.4567E+02
      5.218  0.2373E+00  0.4569E+02
      5.287  0.9149E+00  0.4575E+02
      5.357  0.1530E+00  0.4576E+02
      5.427  0.2601E+01  0.4594E+02
      5.497  0.7146E+00  0.4599E+02
      5.567  0.1009E+01  0.4606E+02
      5.637  0.7724E+00  0.4612E+02
      5.707  0.3874E+00  0.4615E+02
      5.776  0.1241E+01  0.4623E+02
      5.846  0.1784E+01  0.4636E+02
      5.916  0.7386E+00  0.4641E+02
      5.986  0.3030E+00  0.4643E+02
      6.056  0.1080E+01  0.4651E+02
      6.126  0.1837E+01  0.4663E+02
      6.196  0.7559E+00  0.4669E+02
      6.266  0.7951E+00  0.4674E+02
      6.335  0.0000E+00  0.4674E+02
      6.405  0.5640E+00  0.4678E+02
      6.475  0.9534E+00  0.4685E+02
      6.545  0.4276E+00  0.4688E+02
      6.615  0.1414E+01  0.4698E+02
      6.685  0.9938E+00  0.4705E+02
      6.755  0.1266E+01  0.4714E+02
      6.825  0.4721E+00  0.4717E+02
      6.894  0.6363E+00  0.4722E+02
      6.964  0.9304E+00  0.4728E+02
      7.034  0.7950E+00  0.4734E+02
      7.104  0.1635E-10  0.4734E+02
      7.174  0.3975E+00  0.4737E+02
      7.244  0.1232E+01  0.4745E+02
      7.314  0.8139E+00  0.4751E+02
      7.383  0.1969E+01  0.4765E+02
      7.453  0.9109E+00  0.4771E+02
      7.523  0.1414E+01  0.4781E+02
      7.593  0.7235E+00  0.4786E+02
      7.663  0.1524E+01  0.4797E+02
      7.733  0.1269E+01  0.4806E+02
      7.803  0.1909E+01  0.4819E+02
      7.873  0.1755E+01  0.4831E+02
      7.942  0.8273E+00  0.4837E+02
      8.012  0.1142E+01  0.4845E+02
      8.082  0.2034E+01  0.4859E+02
      8.152  0.1975E+01  0.4873E+02
      8.222  0.7266E+00  0.4878E+02
      8.292  0.8771E+00  0.4885E+02
      8.362  0.1719E+01  0.4897E+02
      8.431  0.1025E+01  0.4904E+02
      8.501  0.5631E-03  0.4904E+02
      8.571  0.1385E+01  0.4914E+02
      8.641  0.5770E+00  0.4918E+02
      8.711  0.2222E+01  0.4933E+02
      8.781  0.2093E+01  0.4948E+02
      8.851  0.7951E+00  0.4953E+02
      8.921  0.1988E+00  0.4955E+02
      8.990  0.1478E+01  0.4965E+02
      9.060  0.2210E+01  0.4981E+02
      9.130  0.6728E+00  0.4985E+02
      9.200  0.7890E+00  0.4991E+02
      9.270  0.8232E+00  0.4997E+02
      9.340  0.1144E+01  0.5005E+02
      9.410  0.9395E+00  0.5011E+02
      9.479  0.1832E+01  0.5024E+02
      9.549  0.6539E+00  0.5029E+02
      9.619  0.1709E+01  0.5041E+02
      9.689  0.7949E+00  0.5047E+02
      9.759  0.7946E+00  0.5052E+02
      9.829  0.1820E+00  0.5053E+02
      9.899  0.2172E+01  0.5069E+02
      9.969  0.4608E+00  0.5072E+02
     10.038  0.1918E+01  0.5085E+02
     10.108  0.7256E+00  0.5090E+02
     10.178  0.8653E+00  0.5096E+02
     10.248  0.8937E+00  0.5103E+02
     10.318  0.1436E+01  0.5113E+02
     10.388  0.1058E+01  0.5121E+02
     10.458  0.2754E+01  0.5140E+02
     10.528  0.1093E+01  0.5148E+02
     10.597  0.4835E+00  0.5151E+02
     10.667  0.6094E+00  0.5155E+02
     10.737  0.2098E+01  0.5170E+02
     10.807  0.2134E+01  0.5185E+02
     10.877  0.6439E+00  0.5190E+02
     10.947  0.2738E+01  0.5209E+02
     11.017  0.2489E+01  0.5226E+02
     11.086  0.2549E+01  0.5244E+02
     11.156  0.6080E+00  0.5248E+02
     11.226  0.2715E+01  0.5267E+02
     11.296  0.7818E+00  0.5273E+02
     11.366  0.4410E+00  0.5276E+02
     11.436  0.7946E+00  0.5282E+02
     11.506  0.1566E+01  0.5293E+02
     11.576  0.3255E+01  0.5315E+02
     11.645  0.1836E+01  0.5328E+02
     11.715  0.2412E+01  0.5345E+02
     11.785  0.1591E+01  0.5356E+02
     11.855  0.1592E+01  0.5367E+02
     11.925  0.1371E+01  0.5377E+02
     11.995  0.1802E+01  0.5390E+02
     12.065  0.1053E+01  0.5397E+02
     12.134  0.7234E+00  0.5402E+02
     12.204  0.1621E+01  0.5413E+02
     12.274  0.1958E+01  0.5427E+02
     12.344  0.1298E+01  0.5436E+02
     12.414  0.2063E+01  0.5450E+02
     12.484  0.1505E+01  0.5461E+02
     12.554  0.1524E+01  0.5472E+02
     12.624  0.5261E+00  0.5475E+02
     12.693  0.1726E+01  0.5487E+02
     12.763  0.9809E+00  0.5494E+02
     12.833  0.2727E+01  0.5513E+02
     12.903  0.1337E+01  0.5523E+02
     12.973  0.1213E+01  0.5531E+02
     13.043  0.8317E+00  0.5537E+02
     13.113  0.1327E+01  0.5546E+02
     13.182  0.7558E+00  0.5552E+02
     13.252  0.1285E+01  0.5561E+02
     13.322  0.1979E+00  0.5562E+02
     13.392  0.2690E+00  0.5564E+02
     13.462  0.1927E+01  0.5577E+02
     13.532  0.5628E+00  0.5581E+02
     13.602  0.4488E+00  0.5584E+02
     13.672  0.0000E+00  0.5584E+02
     13.741  0.4645E-01  0.5585E+02
     13.811  0.6161E+00  0.5589E+02
     13.881  0.2481E+00  0.5591E+02
     13.951  0.1077E+01  0.5598E+02
     14.021  0.0000E+00  0.5598E+02
     14.091  0.0000E+00  0.5598E+02
     14.161  0.4838E-06  0.5598E+02
     14.231  0.9939E-01  0.5599E+02
     14.300  0.0000E+00  0.5599E+02
     14.370  0.0000E+00  0.5599E+02
     14.440  0.4292E-02  0.5599E+02
     14.510  0.1227E-01  0.5599E+02
     14.580  0.0000E+00  0.5599E+02
     14.650  0.0000E+00  0.5599E+02
     14.720  0.0000E+00  0.5599E+02
     14.789  0.2166E-04  0.5599E+02
     14.859  0.1325E+00  0.5600E+02
     14.929  0.0000E+00  0.5600E+02
     14.999  0.0000E+00  0.5600E+02
     15.069  0.0000E+00  0.5600E+02
     15.139  0.0000E+00  0.5600E+02
     15.209  0.0000E+00  0.5600E+02
     15.279  0.0000E+00  0.5600E+02
     15.348  0.0000E+00  0.5600E+02
     15.418  0.0000E+00  0.5600E+02
     15.488  0.0000E+00  0.5600E+02
     15.558  0.0000E+00  0.5600E+02
     15.628  0.0000E+00  0.5600E+02
     15.698  0.0000E+00  0.5600E+02
     15.768  0.0000E+00  0.5600E+02
