    4    4    1    1
  0.1697883E+02  0.4079960E-09  0.4079960E-09  0.4079960E-09  0.5000000E-15
  1.000000000000000E-004
  CAR 
 unknown system                          
   44   84   28
 
  0.0000000E+00  0.0000000E+00  0.0000000E+00  0.5787037E-03
   1       -4.2400
   2       -2.9369
   3       -2.9369
   4       -2.9369
   5       -2.7975
   6       -2.7975
   7       -2.7975
   8       -1.2878
   9       -1.2878
  10       -1.2878
  11       -0.2437
  12       -0.2437
  13        0.5255
  14        0.5255
  15        0.5255
  16        0.7662
  17        0.7662
  18        0.7662
  19        0.7662
  20        0.7662
  21        0.7662
  22        5.1740
  23        5.1740
  24        5.1740
  25       10.3435
  26       10.3435
  27       10.3435
  28       14.4447
 
  0.8333333E-01  0.0000000E+00  0.0000000E+00  0.3472222E-02
   1       -4.1669
   2       -2.9065
   3       -2.8976
   4       -2.8976
   5       -2.7744
   6       -2.7623
   7       -2.7623
   8       -1.3166
   9       -1.2609
  10       -1.2609
  11       -0.2728
  12       -0.2313
  13        0.4867
  14        0.4867
  15        0.5117
  16        0.6271
  17        0.6271
  18        0.7189
  19        0.7189
  20        0.7663
  21        0.7663
  22        4.6979
  23        5.3728
  24        5.3728
  25       10.3539
  26       10.3539
  27       10.9320
  28       14.1919
 
  0.1666667E+00  0.0000000E+00  0.0000000E+00  0.3472222E-02
   1       -3.9514
   2       -2.8193
   3       -2.7848
   4       -2.7848
   5       -2.7064
   6       -2.6570
   7       -2.6570
   8       -1.4006
   9       -1.1811
  10       -1.1811
  11       -0.3542
  12       -0.1946
  13        0.2726
  14        0.2726
  15        0.3750
  16        0.3750
  17        0.4714
  18        0.5839
  19        0.5839
  20        0.7665
  21        0.7665
  22        3.6560
  23        5.9056
  24        5.9056
  25       10.3869
  26       10.3869
  27       12.3105
  28       13.5321
 
  0.2500000E+00  0.0000000E+00  0.0000000E+00  0.3472222E-02
   1       -3.6080
   2       -2.6884
   3       -2.6145
   4       -2.6145
   5       -2.5967
   6       -2.4822
   7       -2.4822
   8       -1.5320
   9       -1.0506
  10       -1.0506
  11       -0.4682
  12       -0.1864
  13       -0.1864
  14       -0.1359
  15        0.2051
  16        0.2051
  17        0.3798
  18        0.3798
  19        0.4078
  20        0.7667
  21        0.7667
  22        2.4843
  23        6.6584
  24        6.6584
  25       10.4473
  26       10.4473
  27       12.6424
  28       12.6424
 
  0.3333333E+00  0.0000000E+00  0.0000000E+00  0.3472222E-02
   1       -3.1728
   2       -2.5406
   3       -2.4511
   4       -2.4182
   5       -2.4182
   6       -2.2393
   7       -2.2393
   8       -1.6992
   9       -0.8732
  10       -0.8732
  11       -0.6706
  12       -0.6706
  13       -0.5703
  14       -0.0587
  15        0.0080
  16        0.0080
  17        0.1308
  18        0.1308
  19        0.3257
  20        0.7670
  21        0.7670
  22        1.3689
  23        7.5471
  24        7.5471
  25       10.5376
  26       10.5376
  27       11.6415
  28       11.6415
 
  0.4166667E+00  0.0000000E+00  0.0000000E+00  0.3472222E-02
   1       -2.7352
   2       -2.4296
   3       -2.2774
   4       -2.2494
   5       -2.2494
   6       -1.9308
   7       -1.9308
   8       -1.8886
   9       -1.1364
  10       -1.1364
  11       -0.6554
  12       -0.6554
  13       -0.5605
  14       -0.1620
  15       -0.1620
  16       -0.1383
  17       -0.1383
  18        0.0322
  19        0.2312
  20        0.4141
  21        0.7672
  22        0.7672
  23        8.5209
  24        8.5209
  25       10.5963
  26       10.5963
  27       10.6436
  28       10.6436
 
  0.5000000E+00  0.0000000E+00  0.0000000E+00  0.1736111E-02
   1       -2.4601
   2       -2.4601
   3       -2.1799
   4       -2.1799
   5       -2.0859
   6       -2.0859
   7       -1.5607
   8       -1.5607
   9       -1.5607
  10       -1.5607
  11       -0.4061
  12       -0.4061
  13       -0.4061
  14       -0.4061
  15       -0.2627
  16       -0.2627
  17       -0.2321
  18       -0.2321
  19        0.1311
  20        0.1311
  21        0.7673
  22        0.7673
  23        9.5464
  24        9.5464
  25        9.5464
  26        9.5464
  27       10.7004
  28       10.7004
 
  0.8333333E-01  0.8333333E-01  0.0000000E+00  0.6944444E-02
   1       -4.0948
   2       -2.8670
   3       -2.8670
   4       -2.8651
   5       -2.7397
   6       -2.7397
   7       -2.7218
   8       -1.3276
   9       -1.2512
  10       -1.2360
  11       -0.2805
  12       -0.2375
  13        0.4497
  14        0.4517
  15        0.4517
  16        0.5304
  17        0.6003
  18        0.6003
  19        0.7188
  20        0.7188
  21        0.7338
  22        4.8890
  23        4.8890
  24        5.5620
  25       10.3642
  26       10.9509
  27       10.9509
  28       13.3532
 
  0.1666667E+00  0.8333333E-01  0.0000000E+00  0.1388889E-01
   1       -3.8824
   2       -2.7790
   3       -2.7694
   4       -2.7534
   5       -2.6730
   6       -2.6358
   7       -2.6038
   8       -1.4009
   9       -1.1800
  10       -1.1626
  11       -0.3508
  12       -0.2034
  13        0.1750
  14        0.2132
  15        0.3374
  16        0.3424
  17        0.4121
  18        0.5358
  19        0.5835
  20        0.7173
  21        0.7186
  22        3.8432
  23        5.3934
  24        6.0747
  25       10.3949
  26       11.0092
  27       12.3364
  28       12.3981
 
  0.2500000E+00  0.8333333E-01  0.0000000E+00  0.1388889E-01
   1       -3.5444
   2       -2.6466
   3       -2.6166
   4       -2.5818
   5       -2.5657
   6       -2.4635
   7       -2.4186
   8       -1.5269
   9       -1.0514
  10       -1.0478
  11       -0.4529
  12       -0.2647
  13       -0.2218
  14       -0.1372
  15        0.1434
  16        0.1789
  17        0.2298
  18        0.3788
  19        0.4519
  20        0.7141
  21        0.7181
  22        2.6818
  23        6.0903
  24        6.8080
  25       10.4332
  26       11.1082
  27       11.4650
  28       12.7540
 
  0.3333333E+00  0.8333333E-01  0.0000000E+00  0.1388889E-01
   1       -3.1164
   2       -2.4964
   3       -2.4234
   4       -2.4231
   5       -2.3838
   6       -2.2242
   7       -2.1829
   8       -1.6892
   9       -0.9217
  10       -0.8748
  11       -0.7327
  12       -0.6889
  13       -0.5117
  14       -0.1108
  15       -0.0479
  16       -0.0109
  17        0.0269
  18        0.1294
  19        0.3500
  20        0.7139
  21        0.7175
  22        1.5949
  23        6.8917
  24        7.6815
  25       10.2492
  26       10.8340
  27       11.2275
  28       11.7514
 
  0.4166667E+00  0.8333333E-01  0.0000000E+00  0.1388889E-01
   1       -2.6851
   2       -2.3825
   3       -2.2533
   4       -2.2375
   5       -2.2142
   6       -1.9207
   7       -1.9058
   8       -1.8737
   9       -1.1779
  10       -1.1423
  11       -0.8371
  12       -0.6572
  13       -0.4035
  14       -0.3860
  15       -0.1728
  16       -0.1514
  17       -0.1400
  18        0.0624
  19        0.2209
  20        0.7026
  21        0.7146
  22        0.7166
  23        7.7437
  24        8.6443
  25        9.4785
  26       10.7076
  27       10.8781
  28       11.2532
 
  0.5000000E+00  0.8333333E-01  0.0000000E+00  0.6944444E-02
   1       -2.4115
   2       -2.4115
   3       -2.1500
   4       -2.1500
   5       -2.0662
   6       -2.0662
   7       -1.5736
   8       -1.5736
   9       -1.5574
  10       -1.5574
  11       -0.6828
  12       -0.6828
  13       -0.4080
  14       -0.4080
  15       -0.2327
  16       -0.2327
  17       -0.0527
  18       -0.0527
  19        0.2163
  20        0.2163
  21        0.7156
  22        0.7156
  23        8.6132
  24        8.6132
  25        9.6622
  26        9.6622
  27       11.0811
  28       11.0811
 
  0.1666667E+00  0.1666667E+00  0.0000000E+00  0.6944444E-02
   1       -3.6798
   2       -2.7068
   3       -2.6630
   4       -2.6630
   5       -2.5734
   6       -2.5734
   7       -2.4654
   8       -1.4322
   9       -1.1443
  10       -1.1091
  11       -0.3777
  12       -0.1861
  13       -0.0114
  14       -0.0114
  15        0.0052
  16        0.2476
  17        0.4225
  18        0.4225
  19        0.5821
  20        0.5821
  21        0.6379
  22        4.3226
  23        4.3226
  24        6.5429
  25       10.3935
  26       11.2906
  27       12.4061
  28       12.4061
 
  0.2500000E+00  0.1666667E+00  0.0000000E+00  0.1388889E-01
   1       -3.3586
   2       -2.5857
   3       -2.5260
   4       -2.4872
   5       -2.4730
   6       -2.4084
   7       -2.2698
   8       -1.5259
   9       -1.0383
  10       -1.0342
  11       -0.4490
  12       -0.4467
  13       -0.3410
  14       -0.2463
  15       -0.0999
  16        0.1017
  17        0.2541
  18        0.3761
  19        0.3793
  20        0.5799
  21        0.5948
  22        3.1623
  23        4.9654
  24        7.2303
  25        9.9756
  26       10.7145
  27       12.4527
  28       13.0793
 
  0.3333333E+00  0.1666667E+00  0.0000000E+00  0.1388889E-01
   1       -2.9540
   2       -2.4106
   3       -2.3685
   4       -2.3400
   5       -2.2835
   6       -2.1800
   7       -2.0456
   8       -1.6662
   9       -0.9891
  10       -0.8864
  11       -0.8715
  12       -0.7494
  13       -0.5131
  14       -0.4643
  15       -0.0685
  16        0.0408
  17        0.0519
  18        0.1257
  19        0.2839
  20        0.5773
  21        0.5780
  22        2.0923
  23        5.6929
  24        8.0659
  25        9.0485
  26       10.7915
  27       12.0711
  28       12.2074
 
  0.4166667E+00  0.1666667E+00  0.0000000E+00  0.1388889E-01
   1       -2.5434
   2       -2.2461
   3       -2.2072
   4       -2.1822
   5       -2.1110
   6       -1.8916
   7       -1.8326
   8       -1.8259
   9       -1.2841
  10       -1.1626
  11       -1.0120
  12       -0.7830
  13       -0.6585
  14       -0.3207
  15       -0.2091
  16       -0.1441
  17       -0.1381
  18        0.1345
  19        0.2478
  20        0.5727
  21        0.5745
  22        1.2109
  23        6.4688
  24        8.1390
  25        9.0001
  26       11.0063
  27       11.0311
  28       11.7419
 
  0.5000000E+00  0.1666667E+00  0.0000000E+00  0.6944444E-02
   1       -2.2729
   2       -2.2729
   3       -2.0679
   4       -2.0679
   5       -2.0091
   6       -2.0091
   7       -1.5990
   8       -1.5990
   9       -1.5492
  10       -1.5492
  11       -0.9766
  12       -0.9766
  13       -0.4114
  14       -0.4114
  15       -0.2435
  16       -0.2435
  17       -0.0791
  18       -0.0791
  19        0.5725
  20        0.5725
  21        0.5977
  22        0.5977
  23        7.2824
  24        7.2824
  25        9.9979
  26        9.9979
  27       11.3238
  28       11.3238
 
  0.2500000E+00  0.2500000E+00  0.0000000E+00  0.6944444E-02
   1       -3.0677
   2       -2.4995
   3       -2.3422
   4       -2.3422
   5       -2.3202
   6       -2.3202
   7       -2.0731
   8       -1.5621
   9       -1.0099
  10       -0.9748
  11       -0.6748
  12       -0.6748
  13       -0.5620
  14       -0.5011
  15       -0.0199
  16        0.0369
  17        0.2304
  18        0.2304
  19        0.3722
  20        0.3722
  21        0.4833
  22        3.7815
  23        3.7815
  24        7.8658
  25        8.8836
  26       10.7549
  27       13.4819
  28       13.4825
 
  0.3333333E+00  0.2500000E+00  0.0000000E+00  0.1388889E-01
   1       -2.7063
   2       -2.3563
   3       -2.2041
   4       -2.1718
   5       -2.1270
   6       -2.1100
   7       -1.8618
   8       -1.6505
   9       -1.0814
  10       -1.0202
  11       -0.9172
  12       -0.8660
  13       -0.8409
  14       -0.5244
  15       -0.1644
  16        0.0373
  17        0.1212
  18        0.1437
  19        0.2675
  20        0.3683
  21        0.4150
  22        2.6963
  23        4.4736
  24        7.8359
  25        8.6554
  26       10.9317
  27       12.5746
  28       12.7456
 
  0.4166667E+00  0.2500000E+00  0.0000000E+00  0.1388889E-01
   1       -2.3378
   2       -2.1637
   3       -2.0678
   4       -2.0361
   5       -1.9482
   6       -1.8475
   7       -1.7768
   8       -1.6891
   9       -1.4202
  10       -1.2057
  11       -1.1291
  12       -1.1171
  13       -0.6467
  14       -0.4135
  15       -0.2797
  16       -0.1578
  17       -0.1472
  18       -0.0081
  19        0.3661
  20        0.3819
  21        0.5996
  22        1.7829
  23        5.2181
  24        6.8834
  25        9.5527
  26       11.2068
  27       11.5400
  28       12.1051
 
  0.5000000E+00  0.2500000E+00  0.0000000E+00  0.6944444E-02
   1       -2.0713
   2       -2.0713
   3       -1.9651
   4       -1.9651
   5       -1.9212
   6       -1.9212
   7       -1.5960
   8       -1.5960
   9       -1.5412
  10       -1.5412
  11       -1.2050
  12       -1.2050
  13       -0.4096
  14       -0.4096
  15       -0.2857
  16       -0.2857
  17       -0.2111
  18       -0.2111
  19        0.3688
  20        0.3688
  21        1.0855
  22        1.0855
  23        6.0166
  24        6.0166
  25       10.5235
  26       10.5235
  27       11.5933
  28       11.5933
 
  0.3333333E+00  0.3333333E+00  0.0000000E+00  0.6944444E-02
   1       -2.4116
   2       -2.2540
   3       -2.0197
   4       -2.0197
   5       -1.9356
   6       -1.9356
   7       -1.6670
   8       -1.6648
   9       -1.2816
  10       -1.2816
  11       -1.0482
  12       -1.0353
  13       -0.7548
  14       -0.6077
  15       -0.2859
  16       -0.0419
  17       -0.0419
  18        0.1188
  19        0.1188
  20        0.2782
  21        0.6038
  22        3.3615
  23        3.3615
  24        6.7343
  25        9.4008
  26       11.1651
  27       13.2278
  28       13.2709
 
  0.4166667E+00  0.3333333E+00  0.0000000E+00  0.1388889E-01
   1       -2.1196
   2       -2.1008
   3       -1.9175
   4       -1.7948
   5       -1.7846
   6       -1.7422
   7       -1.7252
   8       -1.5558
   9       -1.5155
  10       -1.4200
  11       -1.2837
  12       -1.1378
  13       -0.6013
  14       -0.5628
  15       -0.3861
  16       -0.2372
  17       -0.1905
  18       -0.1427
  19        0.1235
  20        0.1897
  21        1.0492
  22        2.4081
  23        4.0832
  24        5.7504
  25       10.2607
  26       11.5015
  27       12.1997
  28       12.5469
 
  0.5000000E+00  0.3333333E+00  0.0000000E+00  0.6944444E-02
   1       -1.8989
   2       -1.8989
   3       -1.8772
   4       -1.8772
   5       -1.8144
   6       -1.8144
   7       -1.5425
   8       -1.5425
   9       -1.5040
  10       -1.5040
  11       -1.3231
  12       -1.3231
  13       -0.3905
  14       -0.3905
  15       -0.3866
  16       -0.3866
  17       -0.3775
  18       -0.3775
  19        0.1431
  20        0.1431
  21        1.6390
  22        1.6390
  23        4.8731
  24        4.8731
  25       11.2025
  26       11.2025
  27       11.9574
  28       11.9574
 
  0.4166667E+00  0.4166667E+00  0.0000000E+00  0.6944444E-02
   1       -2.0064
   2       -1.9427
   3       -1.7436
   4       -1.7436
   5       -1.6987
   6       -1.6966
   7       -1.6966
   8       -1.4936
   9       -1.4936
  10       -1.4051
  11       -1.3607
  12       -1.1346
  13       -0.6582
  14       -0.5007
  15       -0.4979
  16       -0.3825
  17       -0.3825
  18       -0.1207
  19       -0.1207
  20        0.0348
  21        1.5975
  22        3.0970
  23        3.0970
  24        4.7480
  25       11.0866
  26       11.9059
  27       12.9762
  28       12.9767
 
  0.5000000E+00  0.4166667E+00  0.0000000E+00  0.6944444E-02
   1       -1.8704
   2       -1.8704
   3       -1.8120
   4       -1.8120
   5       -1.7069
   6       -1.7069
   7       -1.5649
   8       -1.5649
   9       -1.3388
  10       -1.3388
  11       -1.2698
  12       -1.2698
  13       -0.5617
  14       -0.5617
  15       -0.5149
  16       -0.5149
  17       -0.3368
  18       -0.3368
  19       -0.0667
  20       -0.0667
  21        2.2714
  22        2.2714
  23        3.8695
  24        3.8695
  25       11.9998
  26       11.9998
  27       12.4338
  28       12.4338
 
  0.5000000E+00  0.5000000E+00  0.0000000E+00  0.1736111E-02
   1       -1.8398
   2       -1.8398
   3       -1.8398
   4       -1.8398
   5       -1.6194
   6       -1.6194
   7       -1.6194
   8       -1.6194
   9       -1.2170
  10       -1.2170
  11       -1.2170
  12       -1.2170
  13       -0.6250
  14       -0.6250
  15       -0.6250
  16       -0.6250
  17       -0.2310
  18       -0.2310
  19       -0.2310
  20       -0.2310
  21        3.0069
  22        3.0069
  23        3.0069
  24        3.0069
  25       12.8867
  26       12.8867
  27       12.8867
  28       12.8867
 
  0.8333333E-01  0.8333333E-01  0.8333333E-01  0.4629630E-02
   1       -4.0239
   2       -2.8351
   3       -2.8351
   4       -2.8351
   5       -2.6989
   6       -2.6989
   7       -2.6989
   8       -1.3349
   9       -1.2286
  10       -1.2286
  11       -0.2647
  12       -0.2647
  13        0.4163
  14        0.4163
  15        0.4163
  16        0.4787
  17        0.4787
  18        0.4787
  19        0.7098
  20        0.7098
  21        0.7098
  22        5.0690
  23        5.0690
  24        5.0690
  25       10.9686
  26       10.9686
  27       10.9686
  28       13.4706
 
  0.1666667E+00  0.8333333E-01  0.8333333E-01  0.1388889E-01
   1       -3.8154
   2       -2.7496
   3       -2.7408
   4       -2.7408
   5       -2.6306
   6       -2.5803
   7       -2.5803
   8       -1.3970
   9       -1.1659
  10       -1.1611
  11       -0.3390
  12       -0.2182
  13        0.1365
  14        0.1365
  15        0.3165
  16        0.3300
  17        0.3356
  18        0.3356
  19        0.6446
  20        0.6948
  21        0.6948
  22        4.0150
  23        5.5505
  24        5.5505
  25       11.0166
  26       11.0166
  27       12.3535
  28       12.5208
 
  0.2500000E+00  0.8333333E-01  0.8333333E-01  0.1388889E-01
   1       -3.4844
   2       -2.6235
   3       -2.5893
   4       -2.5893
   5       -2.5182
   6       -2.3958
   7       -2.3958
   8       -1.5152
   9       -1.0516
  10       -1.0503
  11       -0.4303
  12       -0.2922
  13       -0.2922
  14       -0.1440
  15        0.1006
  16        0.1562
  17        0.1816
  18        0.1816
  19        0.5516
  20        0.6837
  21        0.6837
  22        2.8538
  23        6.2251
  24        6.2251
  25       11.0107
  26       11.0107
  27       11.6800
  28       11.6800
 
  0.3333333E+00  0.8333333E-01  0.8333333E-01  0.1388889E-01
   1       -3.0669
   2       -2.4821
   3       -2.3953
   4       -2.3953
   5       -2.3681
   6       -2.1642
   7       -2.1642
   8       -1.6699
   9       -0.9444
  10       -0.8995
  11       -0.7449
  12       -0.7449
  13       -0.4485
  14       -0.1884
  15       -0.0479
  16       -0.0468
  17       -0.0050
  18       -0.0050
  19        0.4407
  20        0.6775
  21        0.6775
  22        1.7691
  23        7.0083
  24        7.0083
  25       10.4331
  26       10.4331
  27       11.5191
  28       11.5191
 
  0.4166667E+00  0.8333333E-01  0.8333333E-01  0.1388889E-01
   1       -2.6479
   2       -2.3678
   3       -2.2054
   4       -2.2054
   5       -2.1999
   6       -1.9003
   7       -1.9003
   8       -1.8452
   9       -1.1734
  10       -1.1734
  11       -0.9010
  12       -0.7137
  13       -0.5077
  14       -0.2739
  15       -0.2504
  16       -0.1713
  17       -0.1713
  18        0.0675
  19        0.3186
  20        0.6745
  21        0.6745
  22        0.8572
  23        7.8457
  24        7.8457
  25        9.5787
  26        9.5787
  27       11.7371
  28       11.7371
 
  0.5000000E+00  0.8333333E-01  0.8333333E-01  0.6944444E-02
   1       -2.3857
   2       -2.3857
   3       -2.1203
   4       -2.1203
   5       -2.0256
   6       -2.0256
   7       -1.6553
   8       -1.6553
   9       -1.4824
  10       -1.4824
  11       -0.7814
  12       -0.7814
  13       -0.5012
  14       -0.5012
  15       -0.2414
  16       -0.2414
  17        0.1821
  18        0.1821
  19        0.1918
  20        0.1918
  21        0.6736
  22        0.6736
  23        8.6500
  24        8.6500
  25        8.7675
  26        8.7675
  27       11.9100
  28       11.9100
 
  0.1666667E+00  0.1666667E+00  0.8333333E-01  0.1388889E-01
   1       -3.6192
   2       -2.6824
   3       -2.6609
   4       -2.6609
   5       -2.5092
   6       -2.5092
   7       -2.4398
   8       -1.4153
   9       -1.1365
  10       -1.1145
  11       -0.3495
  12       -0.2097
  13       -0.0459
  14       -0.0380
  15       -0.0380
  16        0.1900
  17        0.2618
  18        0.2618
  19        0.6381
  20        0.6381
  21        0.6480
  22        4.4651
  23        4.4651
  24        5.9811
  25       10.9134
  26       11.5456
  27       12.3152
  28       12.3152
 
  0.2500000E+00  0.1666667E+00  0.8333333E-01  0.2777778E-01
   1       -3.3103
   2       -2.5649
   3       -2.5465
   4       -2.5145
   5       -2.3889
   6       -2.3247
   7       -2.2445
   8       -1.4939
   9       -1.0471
  10       -1.0418
  11       -0.4629
  12       -0.4076
  13       -0.3917
  14       -0.2702
  15       -0.1197
  16        0.0562
  17        0.1042
  18        0.1470
  19        0.5577
  20        0.6050
  21        0.6061
  22        3.2923
  23        5.0815
  24        6.6012
  25       10.1100
  26       11.4131
  27       11.6577
  28       12.7955
 
  0.3333333E+00  0.1666667E+00  0.8333333E-01  0.2777778E-01
   1       -2.9262
   2       -2.4207
   3       -2.3921
   4       -2.3200
   5       -2.2275
   6       -2.1037
   7       -2.0261
   8       -1.6173
   9       -1.0000
  10       -0.9141
  11       -0.8848
  12       -0.7875
  13       -0.5397
  14       -0.3807
  15       -0.1062
  16       -0.0966
  17       -0.0168
  18        0.0203
  19        0.4499
  20        0.5765
  21        0.5799
  22        2.2030
  23        5.7888
  24        7.3326
  25        9.1473
  26       10.7503
  27       11.6206
  28       12.9764
 
  0.4166667E+00  0.1666667E+00  0.8333333E-01  0.2777778E-01
   1       -2.5477
   2       -2.3157
   3       -2.1860
   4       -2.1159
   5       -2.0543
   6       -1.8843
   7       -1.8335
   8       -1.7597
   9       -1.2483
  10       -1.1632
  11       -1.0319
  12       -0.8129
  13       -0.7494
  14       -0.3342
  15       -0.2331
  16       -0.1838
  17       -0.1657
  18        0.2210
  19        0.3080
  20        0.5624
  21        0.5648
  22        1.2808
  23        6.5489
  24        8.0117
  25        8.3583
  26        9.8625
  27       11.9612
  28       12.9147
 
  0.5000000E+00  0.1666667E+00  0.8333333E-01  0.1388889E-01
   1       -2.3193
   2       -2.3193
   3       -2.0393
   4       -2.0393
   5       -1.9019
   6       -1.9019
   7       -1.7420
   8       -1.7420
   9       -1.4063
  10       -1.4063
  11       -1.0044
  12       -1.0044
  13       -0.5538
  14       -0.5538
  15       -0.2751
  16       -0.2751
  17        0.1123
  18        0.1123
  19        0.5592
  20        0.5592
  21        0.6001
  22        0.6001
  23        7.3459
  24        7.3459
  25        9.0088
  26        9.0088
  27       12.4206
  28       12.4206
 
  0.2500000E+00  0.2500000E+00  0.8333333E-01  0.1388889E-01
   1       -3.0421
   2       -2.4850
   3       -2.4123
   4       -2.4123
   5       -2.1999
   6       -2.1999
   7       -2.0497
   8       -1.4998
   9       -1.0184
  10       -1.0034
  11       -0.6819
  12       -0.6819
  13       -0.5942
  14       -0.4407
  15       -0.0912
  16        0.0121
  17        0.0307
  18        0.0307
  19        0.5050
  20        0.5050
  21        0.5206
  22        3.8796
  23        3.8796
  24        7.1499
  25        8.9866
  26       11.5614
  27       12.1787
  28       12.1787
 
  0.3333333E+00  0.2500000E+00  0.8333333E-01  0.2777778E-01
   1       -2.7199
   2       -2.3485
   3       -2.3069
   4       -2.2265
   5       -2.0270
   6       -1.9869
   7       -1.8500
   8       -1.5522
   9       -1.0610
  10       -1.0256
  11       -0.9159
  12       -0.9086
  13       -0.8753
  14       -0.4221
  15       -0.2287
  16       -0.1564
  17       -0.0918
  18        0.2401
  19        0.3805
  20        0.4469
  21        0.4530
  22        2.7703
  23        4.5499
  24        7.6419
  25        8.1264
  26       11.2116
  27       11.8372
  28       12.8064
 
  0.4166667E+00  0.2500000E+00  0.8333333E-01  0.2777778E-01
   1       -2.4153
   2       -2.2259
   3       -2.1615
   4       -2.0054
   5       -1.8432
   6       -1.8393
   7       -1.7227
   8       -1.6262
   9       -1.3257
  10       -1.1534
  11       -1.1237
  12       -1.1232
  13       -0.7689
  14       -0.3742
  15       -0.3364
  16       -0.2479
  17       -0.2422
  18        0.2153
  19        0.4102
  20        0.4122
  21        0.5753
  22        1.8221
  23        5.2789
  24        6.9121
  25        8.6643
  26       10.3075
  27       12.2402
  28       13.4421
 
  0.5000000E+00  0.2500000E+00  0.8333333E-01  0.1388889E-01
   1       -2.2346
   2       -2.2346
   3       -1.9530
   4       -1.9530
   5       -1.7852
   6       -1.7852
   7       -1.7024
   8       -1.7024
   9       -1.3301
  10       -1.3301
  11       -1.2083
  12       -1.2083
  13       -0.5867
  14       -0.5867
  15       -0.3487
  16       -0.3487
  17       -0.0022
  18       -0.0022
  19        0.3988
  20        0.3988
  21        1.0849
  22        1.0849
  23        6.0647
  24        6.0647
  25        9.4587
  26        9.4587
  27       12.7787
  28       12.7787
 
  0.3333333E+00  0.3333333E+00  0.8333333E-01  0.1388889E-01
   1       -2.4901
   2       -2.2591
   3       -2.1492
   4       -2.1492
   5       -1.8066
   6       -1.8066
   7       -1.6794
   8       -1.5097
   9       -1.2359
  10       -1.2359
  11       -1.0258
  12       -1.0098
  13       -0.8776
  14       -0.4594
  15       -0.3655
  16       -0.2407
  17       -0.2407
  18        0.2919
  19        0.2919
  20        0.3384
  21        0.5760
  22        3.4146
  23        3.4146
  24        6.7486
  25        8.5494
  26       11.8062
  27       11.8062
  28       12.1701
 
  0.4166667E+00  0.3333333E+00  0.8333333E-01  0.2777778E-01
   1       -2.2864
   2       -2.1247
   3       -2.1133
   4       -1.9750
   5       -1.7146
   6       -1.6081
   7       -1.5894
   8       -1.5000
   9       -1.3717
  10       -1.3606
  11       -1.1391
  12       -1.1213
  13       -0.7883
  14       -0.4666
  15       -0.4334
  16       -0.3618
  17       -0.3450
  18        0.1042
  19        0.2306
  20        0.2550
  21        1.0277
  22        2.4332
  23        4.1238
  24        5.7777
  25        9.2561
  26       10.8861
  27       12.5112
  28       12.6336
 
  0.5000000E+00  0.3333333E+00  0.8333333E-01  0.1388889E-01
   1       -2.1528
   2       -2.1528
   3       -1.9655
   4       -1.9655
   5       -1.7003
   6       -1.7003
   7       -1.4886
   8       -1.4886
   9       -1.3167
  10       -1.3167
  11       -1.2419
  12       -1.2419
  13       -0.6282
  14       -0.6282
  15       -0.4672
  16       -0.4672
  17       -0.1215
  18       -0.1215
  19        0.2175
  20        0.2175
  21        1.6361
  22        1.6361
  23        4.9061
  24        4.9061
  25       10.0386
  26       10.0386
  27       13.2346
  28       13.2348
 
  0.4166667E+00  0.4166667E+00  0.8333333E-01  0.1388889E-01
   1       -2.1786
   2       -2.0688
   3       -2.0179
   4       -2.0179
   5       -1.5644
   6       -1.5634
   7       -1.5634
   8       -1.4598
   9       -1.3079
  10       -1.3079
  11       -1.1027
  12       -1.0586
  13       -0.8076
  14       -0.5867
  15       -0.5255
  16       -0.5255
  17       -0.3340
  18        0.0300
  19        0.0300
  20        0.1181
  21        1.5826
  22        3.1161
  23        3.1161
  24        4.7702
  25        9.9489
  26       11.5745
  27       11.5745
  28       13.1572
 
  0.5000000E+00  0.4166667E+00  0.8333333E-01  0.1388889E-01
   1       -2.0901
   2       -2.0901
   3       -2.0099
   4       -2.0099
   5       -1.5923
   6       -1.5923
   7       -1.4842
   8       -1.4842
   9       -1.1586
  10       -1.1586
  11       -1.1293
  12       -1.1293
  13       -0.6975
  14       -0.6975
  15       -0.6135
  16       -0.6135
  17       -0.1790
  18       -0.1790
  19        0.0341
  20        0.0341
  21        2.2705
  22        2.2705
  23        3.8881
  24        3.8881
  25       10.7224
  26       10.7224
  27       12.3574
  28       12.3574
 
  0.5000000E+00  0.5000000E+00  0.8333333E-01  0.3472222E-02
   1       -2.0479
   2       -2.0479
   3       -2.0479
   4       -2.0479
   5       -1.5275
   6       -1.5275
   7       -1.5275
   8       -1.5275
   9       -1.0435
  10       -1.0435
  11       -1.0435
  12       -1.0435
  13       -0.7313
  14       -0.7313
  15       -0.7313
  16       -0.7313
  17       -0.1179
  18       -0.1179
  19       -0.1179
  20       -0.1179
  21        3.0135
  22        3.0135
  23        3.0135
  24        3.0135
  25       11.4964
  26       11.4964
  27       11.4964
  28       11.4964
 
  0.1666667E+00  0.1666667E+00  0.1666667E+00  0.4629630E-02
   1       -3.4436
   2       -2.6155
   3       -2.6155
   4       -2.6155
   5       -2.3614
   6       -2.3614
   7       -2.3614
   8       -1.3877
   9       -1.1099
  10       -1.1099
  11       -0.2697
  12       -0.2697
  13       -0.1911
  14       -0.1911
  15       -0.1911
  16        0.0482
  17        0.0482
  18        0.0482
  19        0.6525
  20        0.6525
  21        0.6525
  22        4.8524
  23        4.8524
  24        4.8524
  25       11.4852
  26       11.4852
  27       11.4852
  28       12.7311
 
  0.2500000E+00  0.1666667E+00  0.1666667E+00  0.1388889E-01