<?xml version="1.0" encoding="ISO-8859-1"?>
<modeling>
 <generator>
  <i name="program" type="string">vasp</i>
  <i name="version" type="string">4.6.28 </i>
  <i name="subversion" type="string">25Jul05 complex  parallel</i>
  <i name="platform" type="string">LinuxIFC</i>
  <i name="date" type="string">2017 01 06</i>
  <i name="time" type="string">05:41:46</i>
 </generator>
 <incar>
  <i type="string" name="PREC">accurate</i>
  <i type="int" name="IALGO">    38</i>
  <i type="logical" name="ADDGRID"> T  </i>
  <i name="EDIFF">      0.00000001</i>
  <i type="int" name="IBRION">    -1</i>
  <i name="ENCUT">    750.00000000</i>
  <i type="logical" name="LREAL"> F  </i>
  <i type="int" name="ISMEAR">     0</i>
  <i name="SIGMA">      0.01000000</i>
  <i type="logical" name="LWAVE"> F  </i>
  <i type="logical" name="LCHARG"> F  </i>
 </incar>
 <kpoints>
  <generation param="Gamma">
   <v type="int" name="divisions">      12      12      12</v>
   <v name="usershift">      0.00000000      0.00000000      0.00000000</v>
   <v name="genvec1">      0.08333333      0.00000000      0.00000000</v>
   <v name="genvec2">      0.00000000      0.08333333      0.00000000</v>
   <v name="genvec3">      0.00000000      0.00000000      0.08333333</v>
   <v name="shift">      0.00000000      0.00000000      0.00000000</v>
  </generation>
  <varray name="kpointlist" >
   <v>       0.00000000      0.00000000      0.00000000</v>
   <v>       0.08333333      0.00000000      0.00000000</v>
   <v>       0.16666667      0.00000000      0.00000000</v>
   <v>       0.25000000      0.00000000      0.00000000</v>
   <v>       0.33333333      0.00000000      0.00000000</v>
   <v>       0.41666667      0.00000000      0.00000000</v>
   <v>       0.50000000      0.00000000      0.00000000</v>
   <v>       0.08333333      0.08333333      0.00000000</v>
   <v>       0.16666667      0.08333333      0.00000000</v>
   <v>       0.25000000      0.08333333      0.00000000</v>
   <v>       0.33333333      0.08333333      0.00000000</v>
   <v>       0.41666667      0.08333333      0.00000000</v>
   <v>       0.50000000      0.08333333      0.00000000</v>
   <v>       0.16666667      0.16666667      0.00000000</v>
   <v>       0.25000000      0.16666667      0.00000000</v>
   <v>       0.33333333      0.16666667      0.00000000</v>
   <v>       0.41666667      0.16666667      0.00000000</v>
   <v>       0.50000000      0.16666667      0.00000000</v>
   <v>       0.25000000      0.25000000      0.00000000</v>
   <v>       0.33333333      0.25000000      0.00000000</v>
   <v>       0.41666667      0.25000000      0.00000000</v>
   <v>       0.50000000      0.25000000      0.00000000</v>
   <v>       0.33333333      0.33333333      0.00000000</v>
   <v>       0.41666667      0.33333333      0.00000000</v>
   <v>       0.50000000      0.33333333      0.00000000</v>
   <v>       0.41666667      0.41666667      0.00000000</v>
   <v>       0.50000000      0.41666667      0.00000000</v>
   <v>       0.50000000      0.50000000      0.00000000</v>
   <v>       0.08333333      0.08333333      0.08333333</v>
   <v>       0.16666667      0.08333333      0.08333333</v>
   <v>       0.25000000      0.08333333      0.08333333</v>
   <v>       0.33333333      0.08333333      0.08333333</v>
   <v>       0.41666667      0.08333333      0.08333333</v>
   <v>       0.50000000      0.08333333      0.08333333</v>
   <v>       0.16666667      0.16666667      0.08333333</v>
   <v>       0.25000000      0.16666667      0.08333333</v>
   <v>       0.33333333      0.16666667      0.08333333</v>
   <v>       0.41666667      0.16666667      0.08333333</v>
   <v>       0.50000000      0.16666667      0.08333333</v>
   <v>       0.25000000      0.25000000      0.08333333</v>
   <v>       0.33333333      0.25000000      0.08333333</v>
   <v>       0.41666667      0.25000000      0.08333333</v>
   <v>       0.50000000      0.25000000      0.08333333</v>
   <v>       0.33333333      0.33333333      0.08333333</v>
   <v>       0.41666667      0.33333333      0.08333333</v>
   <v>       0.50000000      0.33333333      0.08333333</v>
   <v>       0.41666667      0.41666667      0.08333333</v>
   <v>       0.50000000      0.41666667      0.08333333</v>
   <v>       0.50000000      0.50000000      0.08333333</v>
   <v>       0.16666667      0.16666667      0.16666667</v>
   <v>       0.25000000      0.16666667      0.16666667</v>
   <v>       0.33333333      0.16666667      0.16666667</v>
   <v>       0.41666667      0.16666667      0.16666667</v>
   <v>       0.50000000      0.16666667      0.16666667</v>
   <v>       0.25000000      0.25000000      0.16666667</v>
   <v>       0.33333333      0.25000000      0.16666667</v>
   <v>       0.41666667      0.25000000      0.16666667</v>
   <v>       0.50000000      0.25000000      0.16666667</v>
   <v>       0.33333333      0.33333333      0.16666667</v>
   <v>       0.41666667      0.33333333      0.16666667</v>
   <v>       0.50000000      0.33333333      0.16666667</v>
   <v>       0.41666667      0.41666667      0.16666667</v>
   <v>       0.50000000      0.41666667      0.16666667</v>
   <v>       0.50000000      0.50000000      0.16666667</v>
   <v>       0.25000000      0.25000000      0.25000000</v>
   <v>       0.33333333      0.25000000      0.25000000</v>
   <v>       0.41666667      0.25000000      0.25000000</v>
   <v>       0.50000000      0.25000000      0.25000000</v>
   <v>       0.33333333      0.33333333      0.25000000</v>
   <v>       0.41666667      0.33333333      0.25000000</v>
   <v>       0.50000000      0.33333333      0.25000000</v>
   <v>       0.41666667      0.41666667      0.25000000</v>
   <v>       0.50000000      0.41666667      0.25000000</v>
   <v>       0.50000000      0.50000000      0.25000000</v>
   <v>       0.33333333      0.33333333      0.33333333</v>
   <v>       0.41666667      0.33333333      0.33333333</v>
   <v>       0.50000000      0.33333333      0.33333333</v>
   <v>       0.41666667      0.41666667      0.33333333</v>
   <v>       0.50000000      0.41666667      0.33333333</v>
   <v>       0.50000000      0.50000000      0.33333333</v>
   <v>       0.41666667      0.41666667      0.41666667</v>
   <v>       0.50000000      0.41666667      0.41666667</v>
   <v>       0.50000000      0.50000000      0.41666667</v>
   <v>       0.50000000      0.50000000      0.50000000</v>
  </varray>
  <varray name="weights" >
   <v>       0.00057870</v>
   <v>       0.00347222</v>
   <v>       0.00347222</v>
   <v>       0.00347222</v>
   <v>       0.00347222</v>
   <v>       0.00347222</v>
   <v>       0.00173611</v>
   <v>       0.00694444</v>
   <v>       0.01388889</v>
   <v>       0.01388889</v>
   <v>       0.01388889</v>
   <v>       0.01388889</v>
   <v>       0.00694444</v>
   <v>       0.00694444</v>
   <v>       0.01388889</v>
   <v>       0.01388889</v>
   <v>       0.01388889</v>
   <v>       0.00694444</v>
   <v>       0.00694444</v>
   <v>       0.01388889</v>
   <v>       0.01388889</v>
   <v>       0.00694444</v>
   <v>       0.00694444</v>
   <v>       0.01388889</v>
   <v>       0.00694444</v>
   <v>       0.00694444</v>
   <v>       0.00694444</v>
   <v>       0.00173611</v>
   <v>       0.00462963</v>
   <v>       0.01388889</v>
   <v>       0.01388889</v>
   <v>       0.01388889</v>
   <v>       0.01388889</v>
   <v>       0.00694444</v>
   <v>       0.01388889</v>
   <v>       0.02777778</v>
   <v>       0.02777778</v>
   <v>       0.02777778</v>
   <v>       0.01388889</v>
   <v>       0.01388889</v>
   <v>       0.02777778</v>
   <v>       0.02777778</v>
   <v>       0.01388889</v>
   <v>       0.01388889</v>
   <v>       0.02777778</v>
   <v>       0.01388889</v>
   <v>       0.01388889</v>
   <v>       0.01388889</v>
   <v>       0.00347222</v>
   <v>       0.00462963</v>
   <v>       0.01388889</v>
   <v>       0.01388889</v>
   <v>       0.01388889</v>
   <v>       0.00694444</v>
   <v>       0.01388889</v>
   <v>       0.02777778</v>
   <v>       0.02777778</v>
   <v>       0.01388889</v>
   <v>       0.01388889</v>
   <v>       0.02777778</v>
   <v>       0.01388889</v>
   <v>       0.01388889</v>
   <v>       0.01388889</v>
   <v>       0.00347222</v>
   <v>       0.00462963</v>
   <v>       0.01388889</v>
   <v>       0.01388889</v>
   <v>       0.00694444</v>
   <v>       0.01388889</v>
   <v>       0.02777778</v>
   <v>       0.01388889</v>
   <v>       0.01388889</v>
   <v>       0.01388889</v>
   <v>       0.00347222</v>
   <v>       0.00462963</v>
   <v>       0.01388889</v>
   <v>       0.00694444</v>
   <v>       0.01388889</v>
   <v>       0.01388889</v>
   <v>       0.00347222</v>
   <v>       0.00462963</v>
   <v>       0.00694444</v>
   <v>       0.00347222</v>
   <v>       0.00057870</v>
  </varray>
 </kpoints>
 <parameters>
  <separator name="general" >
   <i type="string" name="SYSTEM">unknown system</i>
   <i type="logical" name="LCOMPAT"> F  </i>
  </separator>
  <separator name="electronic" >
   <i type="string" name="PREC">accura</i>
   <i name="ENMAX">    750.00000000</i>
   <i name="ENAUG">    412.49600000</i>
   <i name="EDIFF">      0.00000001</i>
   <i type="int" name="IALGO">    38</i>
   <i type="int" name="IWAVPR">    10</i>
   <i type="int" name="NBANDS">    26</i>
   <i name="NELECT">     44.00000000</i>
   <separator name="electronic smearing" >
    <i type="int" name="ISMEAR">     0</i>
    <i name="SIGMA">      0.01000000</i>
   </separator>
   <separator name="electronic projectors" >
    <i type="logical" name="LREAL"> F  </i>
    <v name="ROPT">      0.00000000</v>
    <i type="int" name="LMAXPAW">  -100</i>
    <i type="int" name="LMAXMIX">     2</i>
   </separator>
   <separator name="electronic startup" >
    <i type="int" name="ISTART">     0</i>
    <i type="int" name="ICHARG">     2</i>
    <i type="int" name="INIWAV">     1</i>
   </separator>
   <separator name="electronic spin" >
    <i type="int" name="ISPIN">     1</i>
    <i type="logical" name="LNONCOLLINEAR"> F  </i>
    <v name="MAGMOM">      1.00000000      1.00000000      1.00000000      1.00000000</v>
    <i name="NUPDOWN">     -1.00000000</i>
    <i type="logical" name="LSORBIT"> F  </i>
    <v name="SAXIS">      0.00000000      0.00000000      1.00000000</v>
    <i type="logical" name="LSPIRAL"> F  </i>
    <v name="QSPIRAL">      0.00000000      0.00000000      0.00000000</v>
    <i type="logical" name="LZEROZ"> F  </i>
   </separator>
   <separator name="electronic exchange-correlation" >
    <i type="string" name="GGA">--</i>
    <i type="int" name="VOSKOWN">     0</i>
    <i type="logical" name="LASPH"> F  </i>
    <i type="logical" name="LMETAGGA"> F  </i>
    <i type="string" name="GGA2">--</i>
   </separator>
   <separator name="electronic convergence" >
    <i type="int" name="NELM">    60</i>
    <i type="int" name="NELMDL">     0</i>
    <i type="int" name="NELMIN">     2</i>
    <i name="ENINI">    750.00000000</i>
    <separator name="electronic convergence detail" >
     <i type="logical" name="LDIAG"> T  </i>
     <i name="WEIMIN">      0.00000000</i>
     <i name="EBREAK">      0.00000000</i>
     <i name="DEPER">      0.30000000</i>
     <i type="int" name="NRMM">     4</i>
     <i name="TIME">      0.10000000</i>
    </separator>
   </separator>
   <separator name="electronic mixer" >
    <i name="AMIX">      0.40000000</i>
    <i name="BMIX">      1.00000000</i>
    <i name="AMIN">      0.10000000</i>
    <i name="AMIX_MAG">      1.60000000</i>
    <i name="BMIX_MAG">      1.00000000</i>
    <separator name="electronic mixer details" >
     <i type="int" name="IMIX">     4</i>
     <i type="int" name="MAXMIX">   -45</i>
     <i name="WC">    100.00000000</i>
     <i type="int" name="INIMIX">     1</i>
     <i type="int" name="MIXPRE">     1</i>
     <i type="int" name="MREMOVE">     5</i>
    </separator>
   </separator>
   <separator name="electronic dipolcorrection" >
    <i type="int" name="IDIPOL">     0</i>
    <i type="logical" name="LDIPOL"> F  </i>
    <v name="DIPOL">   -100.00000000</v>
    <i name="EFIELD">      0.00000000</i>
   </separator>
  </separator>
  <separator name="grids" >
   <i type="int" name="NGX">    36</i>
   <i type="int" name="NGY">    36</i>
   <i type="int" name="NGZ">    36</i>
   <i type="int" name="NGXF">    72</i>
   <i type="int" name="NGYF">    72</i>
   <i type="int" name="NGZF">    72</i>
   <i type="logical" name="ADDGRID"> T  </i>
  </separator>
  <separator name="ionic" >
   <i type="int" name="NSW">     0</i>
   <i type="int" name="IBRION">    -1</i>
   <i type="int" name="ISIF">     2</i>
   <i name="PSTRESS">      0.00000000</i>
   <i name="EDIFFG">      0.00000010</i>
   <i type="int" name="NFREE">     0</i>
   <i name="POTIM">      0.50000000</i>
   <i name="SMASS">     -3.00000000</i>
  </separator>
  <separator name="ionic md" >
   <i name="TEBEG">      0.00010000</i>
   <i name="TEEND">      0.00010000</i>
   <i type="int" name="NBLOCK">     1</i>
   <i type="int" name="KBLOCK">     1</i>
   <i type="int" name="NPACO">   256</i>
   <i name="APACO">     16.00000000</i>
  </separator>
  <separator name="symmetry" >
   <i type="int" name="ISYM">     2</i>
   <i name="SYMPREC">      0.00001000</i>
  </separator>
  <separator name="dos" >
   <i type="logical" name="LORBIT"> F  </i>
   <v name="RWIGS">     -1.00000000</v>
   <i type="int" name="NEDOS">   301</i>
   <i name="EMIN">     10.00000000</i>
   <i name="EMAX">    -10.00000000</i>
  </separator>
  <separator name="writing" >
   <i type="int" name="NWRITE">     2</i>
   <i type="logical" name="LWAVE"> F  </i>
   <i type="logical" name="LCHARG"> F  </i>
   <i type="logical" name="LPARD"> F  </i>
   <i type="logical" name="LVTOT"> F  </i>
   <i type="logical" name="LELF"> F  </i>
   <i type="logical" name="LOPTICS"> F  </i>
   <i name="STM">      0.00000000</i>
  </separator>
  <separator name="performance" >
   <i type="int" name="NPAR">     4</i>
   <i type="int" name="NSIM">     4</i>
   <i type="int" name="NBLK">   256</i>
   <i type="logical" name="LPLANE"> T  </i>
   <i type="logical" name="LCRITICAL_MEM"> F  </i>
   <i type="logical" name="LSCALAPACK"> F  </i>
   <i type="logical" name="LSCALU"> F  </i>
   <i type="logical" name="LASYNC"> F  </i>
  </separator>
  <separator name="miscellaneous" >
   <i type="int" name="IDIOT">     3</i>
   <i type="logical" name="LMUSIC"> F  </i>
   <v name="POMASS">    107.86800000</v>
   <i type="logical" name="LCORR"> T  </i>
  </separator>
  <i type="logical" name="LREAL_COMPAT"> F  </i>
  <i type="logical" name="GGA_COMPAT"> T  </i>
  <i type="logical" name="LBERRY"> F  </i>
  <i type="int" name="ICORELEVEL">     0</i>
  <i type="logical" name="LDAU"> F  </i>
  <i type="int" name="I_CONSTRAINED_M">     0</i>
 </parameters>
 <atominfo>
  <atoms>       4</atoms>
  <types>       1</types>
  <array name="atoms" >
   <dimension dim="1">ion</dimension>
   <field type="string">element</field>
   <field type="int">atomtype</field>
   <set>
    <rc><c>Ag</c><c>   1</c></rc>
    <rc><c>Ag</c><c>   1</c></rc>
    <rc><c>Ag</c><c>   1</c></rc>
    <rc><c>Ag</c><c>   1</c></rc>
   </set>
  </array>
  <array name="atomtypes" >
   <dimension dim="1">type</dimension>
   <field type="int">atomspertype</field>
   <field type="string">element</field>
   <field>mass</field>
   <field>valence</field>
   <field type="string">pseudopotential</field>
   <set>
    <rc><c>   4</c><c>Ag</c><c>    107.86800000</c><c>     11.00000000</c><c> PAW_PBE Ag 06Sep2000                   </c></rc>
   </set>
  </array>
 </atominfo>
 <structure name="initialpos" >
  <crystal>
   <varray name="basis" >
    <v>       4.07996029      0.00000000      0.00000000</v>
    <v>       0.00000000      4.07996029      0.00000000</v>
    <v>       0.00000000      0.00000000      4.07996029</v>
   </varray>
   <i name="volume">     67.91532873</i>
   <varray name="rec_basis" >
    <v>       0.24510042      0.00000000      0.00000000</v>
    <v>       0.00000000      0.24510042      0.00000000</v>
    <v>       0.00000000      0.00000000      0.24510042</v>
   </varray>
  </crystal>
  <varray name="positions" >
   <v>       0.00000000      0.00000000      0.00000000</v>
   <v>       0.50000000      0.50000000      0.00000000</v>
   <v>       0.50000000      0.00000000      0.50000000</v>
   <v>       0.00000000      0.50000000      0.50000000</v>
  </varray>
 </structure>
 <calculation>
  <scstep>
   <time name="dav">   14.31   14.42</time>
   <time name="total">   15.72   15.84</time>
   <energy>
    <i name="alphaZ">    418.35081726</i>
    <i name="ewald">  -3915.99188701</i>
    <i name="hartreedc">   -807.53679404</i>
    <i name="XCdc">    -42.73994575</i>
    <i name="pawpsdc">   3482.67677651</i>
    <i name="pawaedc">  -3297.07979946</i>
    <i name="eentropy">     -0.00026950</i>
    <i name="bandstr">    501.02427498</i>
    <i name="atom">   4149.64961272</i>
    <i name="e_fr_energy">    488.35278572</i>
    <i name="e_wo_entrp">    488.35305522</i>
    <i name="e_0_energy">    488.35292047</i>
   </energy>
  </scstep>
  <scstep>
   <time name="dav">   10.19   10.22</time>
   <time name="total">   10.20   10.23</time>
   <energy>
    <i name="e_fr_energy">      3.44305022</i>
    <i name="e_wo_entrp">      3.44315309</i>
    <i name="e_0_energy">      3.44310165</i>
   </energy>
  </scstep>
  <scstep>
   <time name="dav">   10.73   10.76</time>
   <time name="total">   10.74   10.77</time>
   <energy>
    <i name="e_fr_energy">    -12.09347181</i>
    <i name="e_wo_entrp">    -12.09332525</i>
    <i name="e_0_energy">    -12.09339853</i>
   </energy>
  </scstep>
  <scstep>
   <time name="dav">   10.58   10.61</time>
   <time name="total">   10.59   10.62</time>
   <energy>
    <i name="e_fr_energy">    -12.19631424</i>
    <i name="e_wo_entrp">    -12.19617017</i>
    <i name="e_0_energy">    -12.19624221</i>
   </energy>
  </scstep>
  <scstep>
   <time name="dav">   10.53   10.56</time>
   <time name="total">   11.46   11.49</time>
   <energy>
    <i name="e_fr_energy">    -12.19670784</i>
    <i name="e_wo_entrp">    -12.19656378</i>
    <i name="e_0_energy">    -12.19663581</i>
   </energy>
  </scstep>
  <scstep>
   <time name="dav">   10.52   10.55</time>
   <time name="total">   12.03   12.06</time>
   <energy>
    <i name="e_fr_energy">    -11.27990865</i>
    <i name="e_wo_entrp">    -11.27971614</i>
    <i name="e_0_energy">    -11.27981239</i>
   </energy>
  </scstep>
  <scstep>
   <time name="dav">   10.41   10.44</time>
   <time name="total">   11.92   11.95</time>
   <energy>
    <i name="e_fr_energy">    -11.24917312</i>
    <i name="e_wo_entrp">    -11.24901584</i>
    <i name="e_0_energy">    -11.24909448</i>
   </energy>
  </scstep>
  <scstep>
   <time name="dav">   10.45   10.48</time>
   <time name="total">   11.96   11.99</time>
   <energy>
    <i name="e_fr_energy">    -11.23664714</i>
    <i name="e_wo_entrp">    -11.23650896</i>
    <i name="e_0_energy">    -11.23657805</i>
   </energy>
  </scstep>
  <scstep>
   <time name="dav">   11.17   11.20</time>
   <time name="total">   12.67   12.71</time>
   <energy>
    <i name="e_fr_energy">    -11.23675374</i>
    <i name="e_wo_entrp">    -11.23664616</i>
    <i name="e_0_energy">    -11.23669995</i>
   </energy>
  </scstep>
  <scstep>
   <time name="dav">   10.29   10.32</time>
   <time name="total">   11.82   11.86</time>
   <energy>
    <i name="e_fr_energy">    -11.23670550</i>
    <i name="e_wo_entrp">    -11.23658639</i>
    <i name="e_0_energy">    -11.23664595</i>
   </energy>
  </scstep>
  <scstep>
   <time name="dav">   10.45   10.48</time>
   <time name="total">   11.95   11.99</time>
   <energy>
    <i name="e_fr_energy">    -11.23670499</i>
    <i name="e_wo_entrp">    -11.23658541</i>
    <i name="e_0_energy">    -11.23664520</i>
   </energy>
  </scstep>
  <scstep>
   <time name="dav">    9.33    9.35</time>
   <time name="total">   10.81   10.87</time>
   <energy>
    <i name="e_fr_energy">    -11.23670437</i>
    <i name="e_wo_entrp">    -11.23658447</i>
    <i name="e_0_energy">    -11.23664442</i>
   </energy>
  </scstep>
  <scstep>
   <time name="dav">    6.88    6.90</time>
   <time name="total">    8.39    8.41</time>
   <energy>
    <i name="e_fr_energy">    -11.23670413</i>
    <i name="e_wo_entrp">    -11.23658414</i>
    <i name="e_0_energy">    -11.23664414</i>
   </energy>
  </scstep>
  <scstep>
   <time name="dav">    6.85    6.86</time>
   <time name="total">    7.43    7.45</time>
   <energy>
    <i name="alphaZ">    418.35081726</i>
    <i name="ewald">  -3915.99188701</i>
    <i name="hartreedc">   -758.93275624</i>
    <i name="XCdc">    -44.50945563</i>
    <i name="pawpsdc">   3485.64138531</i>
    <i name="pawaedc">  -3309.73062720</i>
    <i name="eentropy">     -0.00011999</i>
    <i name="bandstr">    -35.71367336</i>
    <i name="atom">   4149.64961272</i>
    <i name="e_fr_energy">    -11.23670414</i>
    <i name="e_wo_entrp">    -11.23658415</i>
    <i name="e_0_energy">    -11.23664414</i>
   </energy>
  </scstep>
  <structure>
   <crystal>
    <varray name="basis" >
     <v>       4.07996029      0.00000000      0.00000000</v>
     <v>       0.00000000      4.07996029      0.00000000</v>
     <v>       0.00000000      0.00000000      4.07996029</v>
    </varray>
    <i name="volume">     67.91532873</i>
    <varray name="rec_basis" >
     <v>       0.24510042      0.00000000      0.00000000</v>
     <v>       0.00000000      0.24510042      0.00000000</v>
     <v>       0.00000000      0.00000000      0.24510042</v>
    </varray>
   </crystal>
   <varray name="positions" >
    <v>       0.00000000      0.00000000      0.00000000</v>
    <v>       0.50000000      0.50000000      0.00000000</v>
    <v>       0.50000000      0.00000000      0.50000000</v>
    <v>       0.00000000      0.50000000      0.50000000</v>
   </varray>
  </structure>
  <varray name="forces" >
   <v>      -0.00000000     -0.00000000      0.00000000</v>
   <v>       0.00000000     -0.00000000      0.00000000</v>
   <v>       0.00000000      0.00000000      0.00000000</v>
   <v>       0.00000000      0.00000000      0.00000000</v>
  </varray>
  <varray name="stress" >
   <v>      64.96041485     -0.00000000      0.00000000</v>
   <v>      -0.00000000     64.96041485     -0.00000000</v>
   <v>       0.00000000      0.00000000     64.96041485</v>
  </varray>
  <energy>
   <i name="e_fr_energy">    -11.23670414</i>
   <i name="e_wo_entrp">    -11.23664414</i>
   <i name="e_0_energy">     -0.00011999</i>
  </energy>
  <eigenvalues>
   <array>
    <dimension dim="1">band</dimension>
    <dimension dim="2">kpoint</dimension>
    <dimension dim="3">spin</dimension>
    <field>eigene</field>
    <field>occ</field>
    <set>
     <set comment="spin 1">
      <set comment="kpoint 1">
       <r>  -4.2400  1.0000</r>
       <r>  -2.9369  1.0000</r>
       <r>  -2.9369  1.0000</r>
       <r>  -2.9369  1.0000</r>
       <r>  -2.7975  1.0000</r>
       <r>  -2.7975  1.0000</r>
       <r>  -2.7975  1.0000</r>
       <r>  -1.2878  1.0000</r>
       <r>  -1.2878  1.0000</r>
       <r>  -1.2878  1.0000</r>
       <r>  -0.2437  1.0000</r>
       <r>  -0.2437  1.0000</r>
       <r>   0.5255  1.0000</r>
       <r>   0.5255  1.0000</r>
       <r>   0.5255  1.0000</r>
       <r>   0.7662  1.0000</r>
       <r>   0.7662  1.0000</r>
       <r>   0.7662  1.0000</r>
       <r>   0.7662  1.0000</r>
       <r>   0.7662  1.0000</r>
       <r>   0.7662  1.0000</r>
       <r>   5.1740  0.0000</r>
       <r>   5.1740  0.0000</r>
       <r>   5.1740  0.0000</r>
       <r>  10.3435  0.0000</r>
       <r>  10.3435  0.0000</r>
       <r>  10.3435  0.0000</r>
       <r>  14.4447  0.0000</r>
      </set>
      <set comment="kpoint 2">
       <r>  -4.1669  1.0000</r>
       <r>  -2.9065  1.0000</r>
       <r>  -2.8976  1.0000</r>
       <r>  -2.8976  1.0000</r>
       <r>  -2.7744  1.0000</r>
       <r>  -2.7623  1.0000</r>
       <r>  -2.7623  1.0000</r>
       <r>  -1.3166  1.0000</r>
       <r>  -1.2609  1.0000</r>
       <r>  -1.2609  1.0000</r>
       <r>  -0.2728  1.0000</r>
       <r>  -0.2313  1.0000</r>
       <r>   0.4867  1.0000</r>
       <r>   0.4867  1.0000</r>
       <r>   0.5117  1.0000</r>
       <r>   0.6271  1.0000</r>
       <r>   0.6271  1.0000</r>
       <r>   0.7189  1.0000</r>
       <r>   0.7189  1.0000</r>
       <r>   0.7663  1.0000</r>
       <r>   0.7663  1.0000</r>
       <r>   4.6979  0.0000</r>
       <r>   5.3728  0.0000</r>
       <r>   5.3728  0.0000</r>
       <r>  10.3539  0.0000</r>
       <r>  10.3539  0.0000</r>
       <r>  10.9320  0.0000</r>
       <r>  14.1919  0.0000</r>
      </set>
      <set comment="kpoint 3">
       <r>  -3.9514  1.0000</r>
       <r>  -2.8193  1.0000</r>
       <r>  -2.7848  1.0000</r>
       <r>  -2.7848  1.0000</r>
       <r>  -2.7064  1.0000</r>
       <r>  -2.6570  1.0000</r>
       <r>  -2.6570  1.0000</r>
       <r>  -1.4006  1.0000</r>
       <r>  -1.1811  1.0000</r>
       <r>  -1.1811  1.0000</r>
       <r>  -0.3542  1.0000</r>
       <r>  -0.1946  1.0000</r>
       <r>   0.2726  1.0000</r>
       <r>   0.2726  1.0000</r>
       <r>   0.3750  1.0000</r>
       <r>   0.3750  1.0000</r>
       <r>   0.4714  1.0000</r>
       <r>   0.5839  1.0000</r>
       <r>   0.5839  1.0000</r>
       <r>   0.7665  1.0000</r>
       <r>   0.7665  1.0000</r>
       <r>   3.6560  0.0000</r>
       <r>   5.9056  0.0000</r>
       <r>   5.9056  0.0000</r>
       <r>  10.3869  0.0000</r>
       <r>  10.3869  0.0000</r>
       <r>  12.3105  0.0000</r>
       <r>  13.5321  0.0000</r>
      </set>
      <set comment="kpoint 4">
       <r>  -3.6080  1.0000</r>
       <r>  -2.6884  1.0000</r>
       <r>  -2.6145  1.0000</r>
       <r>  -2.6145  1.0000</r>
       <r>  -2.5967  1.0000</r>
       <r>  -2.4822  1.0000</r>
       <r>  -2.4822  1.0000</r>
       <r>  -1.5320  1.0000</r>
       <r>  -1.0506  1.0000</r>
       <r>  -1.0506  1.0000</r>
       <r>  -0.4682  1.0000</r>
       <r>  -0.1864  1.0000</r>
       <r>  -0.1864  1.0000</r>
       <r>  -0.1359  1.0000</r>
       <r>   0.2051  1.0000</r>
       <r>   0.2051  1.0000</r>
       <r>   0.3798  1.0000</r>
       <r>   0.3798  1.0000</r>
       <r>   0.4078  1.0000</r>
       <r>   0.7667  1.0000</r>
       <r>   0.7667  1.0000</r>
       <r>   2.4843  1.0000</r>
       <r>   6.6584  0.0000</r>
       <r>   6.6584  0.0000</r>
       <r>  10.4473  0.0000</r>
       <r>  10.4473  0.0000</r>
       <r>  12.6424  0.0000</r>
       <r>  12.6424  0.0000</r>
      </set>
      <set comment="kpoint 5">
       <r>  -3.1728  1.0000</r>
       <r>  -2.5406  1.0000</r>
       <r>  -2.4511  1.0000</r>
       <r>  -2.4182  1.0000</r>
       <r>  -2.4182  1.0000</r>
       <r>  -2.2393  1.0000</r>
       <r>  -2.2393  1.0000</r>
       <r>  -1.6992  1.0000</r>
       <r>  -0.8732  1.0000</r>
       <r>  -0.8732  1.0000</r>
       <r>  -0.6706  1.0000</r>
       <r>  -0.6706  1.0000</r>
       <r>  -0.5703  1.0000</r>
       <r>  -0.0587  1.0000</r>
       <r>   0.0080  1.0000</r>
       <r>   0.0080  1.0000</r>
       <r>   0.1308  1.0000</r>
       <r>   0.1308  1.0000</r>
       <r>   0.3257  1.0000</r>
       <r>   0.7670  1.0000</r>
       <r>   0.7670  1.0000</r>
       <r>   1.3689  1.0000</r>
       <r>   7.5471  0.0000</r>
       <r>   7.5471  0.0000</r>
       <r>  10.5376  0.0000</r>
       <r>  10.5376  0.0000</r>
       <r>  11.6415  0.0000</r>
       <r>  11.6415  0.0000</r>
      </set>
      <set comment="kpoint 6">
       <r>  -2.7352  1.0000</r>
       <r>  -2.4296  1.0000</r>
       <r>  -2.2774  1.0000</r>
       <r>  -2.2494  1.0000</r>
       <r>  -2.2494  1.0000</r>
       <r>  -1.9308  1.0000</r>
       <r>  -1.9308  1.0000</r>
       <r>  -1.8886  1.0000</r>
       <r>  -1.1364  1.0000</r>
       <r>  -1.1364  1.0000</r>
       <r>  -0.6554  1.0000</r>
       <r>  -0.6554  1.0000</r>
       <r>  -0.5605  1.0000</r>
       <r>  -0.1620  1.0000</r>
       <r>  -0.1620  1.0000</r>
       <r>  -0.1383  1.0000</r>
       <r>  -0.1383  1.0000</r>
       <r>   0.0322  1.0000</r>
       <r>   0.2312  1.0000</r>
       <r>   0.4141  1.0000</r>
       <r>   0.7672  1.0000</r>
       <r>   0.7672  1.0000</r>
       <r>   8.5209  0.0000</r>
       <r>   8.5209  0.0000</r>
       <r>  10.5963  0.0000</r>
       <r>  10.5963  0.0000</r>
       <r>  10.6436  0.0000</r>
       <r>  10.6436  0.0000</r>
      </set>
      <set comment="kpoint 7">
       <r>  -2.4601  1.0000</r>
       <r>  -2.4601  1.0000</r>
       <r>  -2.1799  1.0000</r>
       <r>  -2.1799  1.0000</r>
       <r>  -2.0859  1.0000</r>
       <r>  -2.0859  1.0000</r>
       <r>  -1.5607  1.0000</r>
       <r>  -1.5607  1.0000</r>
       <r>  -1.5607  1.0000</r>
       <r>  -1.5607  1.0000</r>
       <r>  -0.4061  1.0000</r>
       <r>  -0.4061  1.0000</r>
       <r>  -0.4061  1.0000</r>
       <r>  -0.4061  1.0000</r>
       <r>  -0.2627  1.0000</r>
       <r>  -0.2627  1.0000</r>
       <r>  -0.2321  1.0000</r>
       <r>  -0.2321  1.0000</r>
       <r>   0.1311  1.0000</r>
       <r>   0.1311  1.0000</r>
       <r>   0.7673  1.0000</r>
       <r>   0.7673  1.0000</r>
       <r>   9.5464  0.0000</r>
       <r>   9.5464  0.0000</r>
       <r>   9.5464  0.0000</r>
       <r>   9.5464  0.0000</r>
       <r>  10.7004  0.0000</r>
       <r>  10.7004  0.0000</r>
      </set>
      <set comment="kpoint 8">
       <r>  -4.0948  1.0000</r>
       <r>  -2.8670  1.0000</r>
       <r>  -2.8670  1.0000</r>
       <r>  -2.8651  1.0000</r>
       <r>  -2.7397  1.0000</r>
       <r>  -2.7397  1.0000</r>
       <r>  -2.7218  1.0000</r>
       <r>  -1.3276  1.0000</r>
       <r>  -1.2512  1.0000</r>
       <r>  -1.2360  1.0000</r>
       <r>  -0.2805  1.0000</r>
       <r>  -0.2375  1.0000</r>
       <r>   0.4497  1.0000</r>
       <r>   0.4517  1.0000</r>
       <r>   0.4517  1.0000</r>
       <r>   0.5304  1.0000</r>
       <r>   0.6003  1.0000</r>
       <r>   0.6003  1.0000</r>
       <r>   0.7188  1.0000</r>
       <r>   0.7188  1.0000</r>
       <r>   0.7338  1.0000</r>
       <r>   4.8890  0.0000</r>
       <r>   4.8890  0.0000</r>
       <r>   5.5620  0.0000</r>
       <r>  10.3642  0.0000</r>
       <r>  10.9509  0.0000</r>
       <r>  10.9509  0.0000</r>
       <r>  13.3532  0.0000</r>
      </set>
      <set comment="kpoint 9">
       <r>  -3.8824  1.0000</r>
       <r>  -2.7790  1.0000</r>
       <r>  -2.7694  1.0000</r>
       <r>  -2.7534  1.0000</r>
       <r>  -2.6730  1.0000</r>
       <r>  -2.6358  1.0000</r>
       <r>  -2.6038  1.0000</r>
       <r>  -1.4009  1.0000</r>
       <r>  -1.1800  1.0000</r>
       <r>  -1.1626  1.0000</r>
       <r>  -0.3508  1.0000</r>
       <r>  -0.2034  1.0000</r>
       <r>   0.1750  1.0000</r>
       <r>   0.2132  1.0000</r>
       <r>   0.3374  1.0000</r>
       <r>   0.3424  1.0000</r>
       <r>   0.4121  1.0000</r>
       <r>   0.5358  1.0000</r>
       <r>   0.5835  1.0000</r>
       <r>   0.7173  1.0000</r>
       <r>   0.7186  1.0000</r>
       <r>   3.8432  0.0000</r>
       <r>   5.3934  0.0000</r>
       <r>   6.0747  0.0000</r>
       <r>  10.3949  0.0000</r>
       <r>  11.0092  0.0000</r>
       <r>  12.3364  0.0000</r>
       <r>  12.3981  0.0000</r>
      </set>
      <set comment="kpoint 10">
       <r>  -3.5444  1.0000</r>
       <r>  -2.6466  1.0000</r>
       <r>  -2.6166  1.0000</r>
       <r>  -2.5818  1.0000</r>
       <r>  -2.5657  1.0000</r>
       <r>  -2.4635  1.0000</r>
       <r>  -2.4186  1.0000</r>
       <r>  -1.5269  1.0000</r>
       <r>  -1.0514  1.0000</r>
       <r>  -1.0478  1.0000</r>
       <r>  -0.4529  1.0000</r>
       <r>  -0.2647  1.0000</r>
       <r>  -0.2218  1.0000</r>
       <r>  -0.1372  1.0000</r>
       <r>   0.1434  1.0000</r>
       <r>   0.1789  1.0000</r>
       <r>   0.2298  1.0000</r>
       <r>   0.3788  1.0000</r>
       <r>   0.4519  1.0000</r>
       <r>   0.7141  1.0000</r>
       <r>   0.7181  1.0000</r>
       <r>   2.6818  1.0000</r>
       <r>   6.0903  0.0000</r>
       <r>   6.8080  0.0000</r>
       <r>  10.4332  0.0000</r>
       <r>  11.1082  0.0000</r>
       <r>  11.4650  0.0000</r>
       <r>  12.7540  0.0000</r>
      </set>
      <set comment="kpoint 11">
       <r>  -3.1164  1.0000</r>
       <r>  -2.4964  1.0000</r>
       <r>  -2.4234  1.0000</r>
       <r>  -2.4231  1.0000</r>
       <r>  -2.3838  1.0000</r>
       <r>  -2.2242  1.0000</r>
       <r>  -2.1829  1.0000</r>
       <r>  -1.6892  1.0000</r>
       <r>  -0.9217  1.0000</r>
       <r>  -0.8748  1.0000</r>
       <r>  -0.7327  1.0000</r>
       <r>  -0.6889  1.0000</r>
       <r>  -0.5117  1.0000</r>
       <r>  -0.1108  1.0000</r>
       <r>  -0.0479  1.0000</r>
       <r>  -0.0109  1.0000</r>
       <r>   0.0269  1.0000</r>
       <r>   0.1294  1.0000</r>
       <r>   0.3500  1.0000</r>
       <r>   0.7139  1.0000</r>
       <r>   0.7175  1.0000</r>
       <r>   1.5949  1.0000</r>
       <r>   6.8917  0.0000</r>
       <r>   7.6815  0.0000</r>
       <r>  10.2492  0.0000</r>
       <r>  10.8340  0.0000</r>
       <r>  11.2275  0.0000</r>
       <r>  11.7514  0.0000</r>
      </set>
      <set comment="kpoint 12">
       <r>  -2.6851  1.0000</r>
       <r>  -2.3825  1.0000</r>
       <r>  -2.2533  1.0000</r>
       <r>  -2.2375  1.0000</r>
       <r>  -2.2142  1.0000</r>
       <r>  -1.9207  1.0000</r>
       <r>  -1.9058  1.0000</r>
       <r>  -1.8737  1.0000</r>
       <r>  -1.1779  1.0000</r>
       <r>  -1.1423  1.0000</r>
       <r>  -0.8371  1.0000</r>
       <r>  -0.6572  1.0000</r>
       <r>  -0.4035  1.0000</r>
       <r>  -0.3860  1.0000</r>
       <r>  -0.1728  1.0000</r>
       <r>  -0.1514  1.0000</r>
       <r>  -0.1400  1.0000</r>
       <r>   0.0624  1.0000</r>
       <r>   0.2209  1.0000</r>
       <r>   0.7026  1.0000</r>
       <r>   0.7146  1.0000</r>
       <r>   0.7166  1.0000</r>
       <r>   7.7437  0.0000</r>
       <r>   8.6443  0.0000</r>
       <r>   9.4785  0.0000</r>
       <r>  10.7076  0.0000</r>
       <r>  10.8781  0.0000</r>
       <r>  11.2532  0.0000</r>
      </set>
      <set comment="kpoint 13">
       <r>  -2.4115  1.0000</r>
       <r>  -2.4115  1.0000</r>
       <r>  -2.1500  1.0000</r>
       <r>  -2.1500  1.0000</r>
       <r>  -2.0662  1.0000</r>
       <r>  -2.0662  1.0000</r>
       <r>  -1.5736  1.0000</r>
       <r>  -1.5736  1.0000</r>
       <r>  -1.5574  1.0000</r>
       <r>  -1.5574  1.0000</r>
       <r>  -0.6828  1.0000</r>
       <r>  -0.6828  1.0000</r>
       <r>  -0.4080  1.0000</r>
       <r>  -0.4080  1.0000</r>
       <r>  -0.2327  1.0000</r>
       <r>  -0.2327  1.0000</r>
       <r>  -0.0527  1.0000</r>
       <r>  -0.0527  1.0000</r>
       <r>   0.2163  1.0000</r>
       <r>   0.2163  1.0000</r>
       <r>   0.7156  1.0000</r>
       <r>   0.7156  1.0000</r>
       <r>   8.6132  0.0000</r>
       <r>   8.6132  0.0000</r>
       <r>   9.6622  0.0000</r>
       <r>   9.6622  0.0000</r>
       <r>  11.0811  0.0000</r>
       <r>  11.0811  0.0000</r>
      </set>
      <set comment="kpoint 14">
       <r>  -3.6798  1.0000</r>
       <r>  -2.7068  1.0000</r>
       <r>  -2.6630  1.0000</r>
       <r>  -2.6630  1.0000</r>
       <r>  -2.5734  1.0000</r>
       <r>  -2.5734  1.0000</r>
       <r>  -2.4654  1.0000</r>
       <r>  -1.4322  1.0000</r>
       <r>  -1.1443  1.0000</r>
       <r>  -1.1091  1.0000</r>
       <r>  -0.3777  1.0000</r>
       <r>  -0.1861  1.0000</r>
       <r>  -0.0114  1.0000</r>
       <r>  -0.0114  1.0000</r>
       <r>   0.0052  1.0000</r>
       <r>   0.2476  1.0000</r>
       <r>   0.4225  1.0000</r>
       <r>   0.4225  1.0000</r>
       <r>   0.5821  1.0000</r>
       <r>   0.5821  1.0000</r>
       <r>   0.6379  1.0000</r>
       <r>   4.3226  0.0000</r>
       <r>   4.3226  0.0000</r>
       <r>   6.5429  0.0000</r>
       <r>  10.3935  0.0000</r>
       <r>  11.2906  0.0000</r>
       <r>  12.4061  0.0000</r>
       <r>  12.4061  0.0000</r>
      </set>
      <set comment="kpoint 15">
       <r>  -3.3586  1.0000</r>
       <r>  -2.5857  1.0000</r>
       <r>  -2.5260  1.0000</r>
       <r>  -2.4872  1.0000</r>
       <r>  -2.4730  1.0000</r>
       <r>  -2.4084  1.0000</r>
       <r>  -2.2698  1.0000</r>
       <r>  -1.5259  1.0000</r>
       <r>  -1.0383  1.0000</r>
       <r>  -1.0342  1.0000</r>
       <r>  -0.4490  1.0000</r>
       <r>  -0.4467  1.0000</r>
       <r>  -0.3410  1.0000</r>
       <r>  -0.2463  1.0000</r>
       <r>  -0.0999  1.0000</r>
       <r>   0.1017  1.0000</r>
       <r>   0.2541  1.0000</r>
       <r>   0.3761  1.0000</r>
       <r>   0.3793  1.0000</r>
       <r>   0.5799  1.0000</r>
       <r>   0.5948  1.0000</r>
       <r>   3.1623  1.0000</r>
       <r>   4.9654  0.0000</r>
       <r>   7.2303  0.0000</r>
       <r>   9.9756  0.0000</r>
       <r>  10.7145  0.0000</r>
       <r>  12.4527  0.0000</r>
       <r>  13.0793  0.0000</r>
      </set>
      <set comment="kpoint 16">
       <r>  -2.9540  1.0000</r>
       <r>  -2.4106  1.0000</r>
       <r>  -2.3685  1.0000</r>
       <r>  -2.3400  1.0000</r>
       <r>  -2.2835  1.0000</r>
       <r>  -2.1800  1.0000</r>
       <r>  -2.0456  1.0000</r>
       <r>  -1.6662  1.0000</r>
       <r>  -0.9891  1.0000</r>
       <r>  -0.8864  1.0000</r>
       <r>  -0.8715  1.0000</r>
       <r>  -0.7494  1.0000</r>
       <r>  -0.5131  1.0000</r>
       <r>  -0.4643  1.0000</r>
       <r>  -0.0685  1.0000</r>
       <r>   0.0408  1.0000</r>
       <r>   0.0519  1.0000</r>
       <r>   0.1257  1.0000</r>
       <r>   0.2839  1.0000</r>
       <r>   0.5773  1.0000</r>
       <r>   0.5780  1.0000</r>
       <r>   2.0923  1.0000</r>
       <r>   5.6929  0.0000</r>
       <r>   8.0659  0.0000</r>
       <r>   9.0485  0.0000</r>
       <r>  10.7915  0.0000</r>
       <r>  12.0711  0.0000</r>
       <r>  12.2074  0.0000</r>
      </set>
      <set comment="kpoint 17">
       <r>  -2.5434  1.0000</r>
       <r>  -2.2461  1.0000</r>
       <r>  -2.2072  1.0000</r>
       <r>  -2.1822  1.0000</r>
       <r>  -2.1110  1.0000</r>
       <r>  -1.8916  1.0000</r>
       <r>  -1.8326  1.0000</r>
       <r>  -1.8259  1.0000</r>
       <r>  -1.2841  1.0000</r>
       <r>  -1.1626  1.0000</r>
       <r>  -1.0120  1.0000</r>
       <r>  -0.7830  1.0000</r>
       <r>  -0.6585  1.0000</r>
       <r>  -0.3207  1.0000</r>
       <r>  -0.2091  1.0000</r>
       <r>  -0.1441  1.0000</r>
       <r>  -0.1381  1.0000</r>
       <r>   0.1345  1.0000</r>
       <r>   0.2478  1.0000</r>
       <r>   0.5727  1.0000</r>
       <r>   0.5745  1.0000</r>
       <r>   1.2109  1.0000</r>
       <r>   6.4688  0.0000</r>
       <r>   8.1390  0.0000</r>
       <r>   9.0001  0.0000</r>
       <r>  11.0063  0.0000</r>
       <r>  11.0311  0.0000</r>
       <r>  11.7419  0.0000</r>
      </set>
      <set comment="kpoint 18">
       <r>  -2.2729  1.0000</r>
       <r>  -2.2729  1.0000</r>
       <r>  -2.0679  1.0000</r>
       <r>  -2.0679  1.0000</r>
       <r>  -2.0091  1.0000</r>
       <r>  -2.0091  1.0000</r>
       <r>  -1.5990  1.0000</r>
       <r>  -1.5990  1.0000</r>
       <r>  -1.5492  1.0000</r>
       <r>  -1.5492  1.0000</r>
       <r>  -0.9766  1.0000</r>
       <r>  -0.9766  1.0000</r>
       <r>  -0.4114  1.0000</r>
       <r>  -0.4114  1.0000</r>
       <r>  -0.2435  1.0000</r>
       <r>  -0.2435  1.0000</r>
       <r>  -0.0791  1.0000</r>
       <r>  -0.0791  1.0000</r>
       <r>   0.5725  1.0000</r>
       <r>   0.5725  1.0000</r>
       <r>   0.5977  1.0000</r>
       <r>   0.5977  1.0000</r>
       <r>   7.2824  0.0000</r>
       <r>   7.2824  0.0000</r>
       <r>   9.9979  0.0000</r>
       <r>   9.9979  0.0000</r>
       <r>  11.3238  0.0000</r>
       <r>  11.3238  0.0000</r>
      </set>
      <set comment="kpoint 19">
       <r>  -3.0677  1.0000</r>
       <r>  -2.4995  1.0000</r>
       <r>  -2.3422  1.0000</r>
       <r>  -2.3422  1.0000</r>
       <r>  -2.3202  1.0000</r>
       <r>  -2.3202  1.0000</r>
       <r>  -2.0731  1.0000</r>
       <r>  -1.5621  1.0000</r>
       <r>  -1.0099  1.0000</r>
       <r>  -0.9748  1.0000</r>
       <r>  -0.6748  1.0000</r>
       <r>  -0.6748  1.0000</r>
       <r>  -0.5620  1.0000</r>
       <r>  -0.5011  1.0000</r>
       <r>  -0.0199  1.0000</r>
       <r>   0.0369  1.0000</r>
       <r>   0.2304  1.0000</r>
       <r>   0.2304  1.0000</r>
       <r>   0.3722  1.0000</r>
       <r>   0.3722  1.0000</r>
       <r>   0.4833  1.0000</r>
       <r>   3.7815  0.0000</r>
       <r>   3.7815  0.0000</r>
       <r>   7.8658  0.0000</r>
       <r>   8.8836  0.0000</r>
       <r>  10.7549  0.0000</r>
       <r>  13.4819  0.0000</r>
       <r>  13.4825  0.0000</r>
      </set>
      <set comment="kpoint 20">
       <r>  -2.7063  1.0000</r>
       <r>  -2.3563  1.0000</r>
       <r>  -2.2041  1.0000</r>
       <r>  -2.1718  1.0000</r>
       <r>  -2.1270  1.0000</r>
       <r>  -2.1100  1.0000</r>
       <r>  -1.8618  1.0000</r>
       <r>  -1.6505  1.0000</r>
       <r>  -1.0814  1.0000</r>
       <r>  -1.0202  1.0000</r>
       <r>  -0.9172  1.0000</r>
       <r>  -0.8660  1.0000</r>
       <r>  -0.8409  1.0000</r>
       <r>  -0.5244  1.0000</r>
       <r>  -0.1644  1.0000</r>
       <r>   0.0373  1.0000</r>
       <r>   0.1212  1.0000</r>
       <r>   0.1437  1.0000</r>
       <r>   0.2675  1.0000</r>
       <r>   0.3683  1.0000</r>
       <r>   0.4150  1.0000</r>
       <r>   2.6963  1.0000</r>
       <r>   4.4736  0.0000</r>
       <r>   7.8359  0.0000</r>
       <r>   8.6554  0.0000</r>
       <r>  10.9317  0.0000</r>
       <r>  12.5746  0.0000</r>
       <r>  12.7456  0.0000</r>
      </set>
      <set comment="kpoint 21">
       <r>  -2.3378  1.0000</r>
       <r>  -2.1637  1.0000</r>
       <r>  -2.0678  1.0000</r>
       <r>  -2.0361  1.0000</r>
       <r>  -1.9482  1.0000</r>
       <r>  -1.8475  1.0000</r>
       <r>  -1.7768  1.0000</r>
       <r>  -1.6891  1.0000</r>
       <r>  -1.4202  1.0000</r>
       <r>  -1.2057  1.0000</r>
       <r>  -1.1291  1.0000</r>
       <r>  -1.1171  1.0000</r>
       <r>  -0.6467  1.0000</r>
       <r>  -0.4135  1.0000</r>
       <r>  -0.2797  1.0000</r>
       <r>  -0.1578  1.0000</r>
       <r>  -0.1472  1.0000</r>
       <r>  -0.0081  1.0000</r>
       <r>   0.3661  1.0000</r>
       <r>   0.3819  1.0000</r>
       <r>   0.5996  1.0000</r>
       <r>   1.7829  1.0000</r>
       <r>   5.2181  0.0000</r>
       <r>   6.8834  0.0000</r>
       <r>   9.5527  0.0000</r>
       <r>  11.2068  0.0000</r>
       <r>  11.5400  0.0000</r>
       <r>  12.1051  0.0000</r>
      </set>
      <set comment="kpoint 22">
       <r>  -2.0713  1.0000</r>
       <r>  -2.0713  1.0000</r>
       <r>  -1.9651  1.0000</r>
       <r>  -1.9651  1.0000</r>
       <r>  -1.9212  1.0000</r>
       <r>  -1.9212  1.0000</r>
       <r>  -1.5960  1.0000</r>
       <r>  -1.5960  1.0000</r>
       <r>  -1.5412  1.0000</r>
       <r>  -1.5412  1.0000</r>
       <r>  -1.2050  1.0000</r>
       <r>  -1.2050  1.0000</r>
       <r>  -0.4096  1.0000</r>
       <r>  -0.4096  1.0000</r>
       <r>  -0.2857  1.0000</r>
       <r>  -0.2857  1.0000</r>
       <r>  -0.2111  1.0000</r>
       <r>  -0.2111  1.0000</r>
       <r>   0.3688  1.0000</r>
       <r>   0.3688  1.0000</r>
       <r>   1.0855  1.0000</r>
       <r>   1.0855  1.0000</r>
       <r>   6.0166  0.0000</r>
       <r>   6.0166  0.0000</r>
       <r>  10.5235  0.0000</r>
       <r>  10.5235  0.0000</r>
       <r>  11.5933  0.0000</r>
       <r>  11.5933  0.0000</r>
      </set>
      <set comment="kpoint 23">
       <r>  -2.4116  1.0000</r>
       <r>  -2.2540  1.0000</r>
       <r>  -2.0197  1.0000</r>
       <r>  -2.0197  1.0000</r>
       <r>  -1.9356  1.0000</r>
       <r>  -1.9356  1.0000</r>
       <r>  -1.6670  1.0000</r>
       <r>  -1.6648  1.0000</r>
       <r>  -1.2816  1.0000</r>
       <r>  -1.2816  1.0000</r>
       <r>  -1.0482  1.0000</r>
       <r>  -1.0353  1.0000</r>
       <r>  -0.7548  1.0000</r>
       <r>  -0.6077  1.0000</r>
       <r>  -0.2859  1.0000</r>
       <r>  -0.0419  1.0000</r>
       <r>  -0.0419  1.0000</r>
       <r>   0.1188  1.0000</r>
       <r>   0.1188  1.0000</r>
       <r>   0.2782  1.0000</r>
       <r>   0.6038  1.0000</r>
       <r>   3.3615  1.0000</r>
       <r>   3.3615  1.0000</r>
       <r>   6.7343  0.0000</r>
       <r>   9.4008  0.0000</r>
       <r>  11.1651  0.0000</r>
       <r>  13.2278  0.0000</r>
       <r>  13.2709  0.0000</r>
      </set>
      <set comment="kpoint 24">
       <r>  -2.1196  1.0000</r>
       <r>  -2.1008  1.0000</r>
       <r>  -1.9175  1.0000</r>
       <r>  -1.7948  1.0000</r>
       <r>  -1.7846  1.0000</r>
       <r>  -1.7422  1.0000</r>
       <r>  -1.7252  1.0000</r>
       <r>  -1.5558  1.0000</r>
       <r>  -1.5155  1.0000</r>
       <r>  -1.4200  1.0000</r>
       <r>  -1.2837  1.0000</r>
       <r>  -1.1378  1.0000</r>
       <r>  -0.6013  1.0000</r>
       <r>  -0.5628  1.0000</r>
       <r>  -0.3861  1.0000</r>
       <r>  -0.2372  1.0000</r>
       <r>  -0.1905  1.0000</r>
       <r>  -0.1427  1.0000</r>
       <r>   0.1235  1.0000</r>
       <r>   0.1897  1.0000</r>
       <r>   1.0492  1.0000</r>
       <r>   2.4081  1.0000</r>
       <r>   4.0832  0.0000</r>
       <r>   5.7504  0.0000</r>
       <r>  10.2607  0.0000</r>
       <r>  11.5015  0.0000</r>
       <r>  12.1997  0.0000</r>
       <r>  12.5469  0.0000</r>
      </set>
      <set comment="kpoint 25">
       <r>  -1.8989  1.0000</r>
       <r>  -1.8989  1.0000</r>
       <r>  -1.8772  1.0000</r>
       <r>  -1.8772  1.0000</r>
       <r>  -1.8144  1.0000</r>
       <r>  -1.8144  1.0000</r>
       <r>  -1.5425  1.0000</r>
       <r>  -1.5425  1.0000</r>
       <r>  -1.5040  1.0000</r>
       <r>  -1.5040  1.0000</r>
       <r>  -1.3231  1.0000</r>
       <r>  -1.3231  1.0000</r>
       <r>  -0.3905  1.0000</r>
       <r>  -0.3905  1.0000</r>
       <r>  -0.3866  1.0000</r>
       <r>  -0.3866  1.0000</r>
       <r>  -0.3775  1.0000</r>
       <r>  -0.3775  1.0000</r>
       <r>   0.1431  1.0000</r>
       <r>   0.1431  1.0000</r>
       <r>   1.6390  1.0000</r>
       <r>   1.6390  1.0000</r>
       <r>   4.8731  0.0000</r>
       <r>   4.8731  0.0000</r>
       <r>  11.2025  0.0000</r>
       <r>  11.2025  0.0000</r>
       <r>  11.9574  0.0000</r>
       <r>  11.9574  0.0000</r>
      </set>
      <set comment="kpoint 26">
       <r>  -2.0064  1.0000</r>
       <r>  -1.9427  1.0000</r>
       <r>  -1.7436  1.0000</r>
       <r>  -1.7436  1.0000</r>
       <r>  -1.6987  1.0000</r>
       <r>  -1.6966  1.0000</r>
       <r>  -1.6966  1.0000</r>
       <r>  -1.4936  1.0000</r>
       <r>  -1.4936  1.0000</r>
       <r>  -1.4051  1.0000</r>
       <r>  -1.3607  1.0000</r>
       <r>  -1.1346  1.0000</r>
       <r>  -0.6582  1.0000</r>
       <r>  -0.5007  1.0000</r>
       <r>  -0.4979  1.0000</r>
       <r>  -0.3825  1.0000</r>
       <r>  -0.3825  1.0000</r>
       <r>  -0.1207  1.0000</r>
       <r>  -0.1207  1.0000</r>
       <r>   0.0348  1.0000</r>
       <r>   1.5975  1.0000</r>
       <r>   3.0970  1.0000</r>
       <r>   3.0970  1.0000</r>
       <r>   4.7480  0.0000</r>
       <r>  11.0866  0.0000</r>
       <r>  11.9059  0.0000</r>
       <r>  12.9762  0.0000</r>
       <r>  12.9767  0.0000</r>
      </set>
      <set comment="kpoint 27">
       <r>  -1.8704  1.0000</r>
       <r>  -1.8704  1.0000</r>
       <r>  -1.8120  1.0000</r>
       <r>  -1.8120  1.0000</r>
       <r>  -1.7069  1.0000</r>
       <r>  -1.7069  1.0000</r>
       <r>  -1.5649  1.0000</r>
       <r>  -1.5649  1.0000</r>
       <r>  -1.3388  1.0000</r>
       <r>  -1.3388  1.0000</r>
       <r>  -1.2698  1.0000</r>
       <r>  -1.2698  1.0000</r>
       <r>  -0.5617  1.0000</r>
       <r>  -0.5617  1.0000</r>
       <r>  -0.5149  1.0000</r>
       <r>  -0.5149  1.0000</r>
       <r>  -0.3368  1.0000</r>
       <r>  -0.3368  1.0000</r>
       <r>  -0.0667  1.0000</r>
       <r>  -0.0667  1.0000</r>
       <r>   2.2714  1.0000</r>
       <r>   2.2714  1.0000</r>
       <r>   3.8695  0.0000</r>
       <r>   3.8695  0.0000</r>
       <r>  11.9998  0.0000</r>
       <r>  11.9998  0.0000</r>
       <r>  12.4338  0.0000</r>
       <r>  12.4338  0.0000</r>
      </set>
      <set comment="kpoint 28">
       <r>  -1.8398  1.0000</r>
       <r>  -1.8398  1.0000</r>
       <r>  -1.8398  1.0000</r>
       <r>  -1.8398  1.0000</r>
       <r>  -1.6194  1.0000</r>
       <r>  -1.6194  1.0000</r>
       <r>  -1.6194  1.0000</r>
       <r>  -1.6194  1.0000</r>
       <r>  -1.2170  1.0000</r>
       <r>  -1.2170  1.0000</r>
       <r>  -1.2170  1.0000</r>
       <r>  -1.2170  1.0000</r>
       <r>  -0.6250  1.0000</r>
       <r>  -0.6250  1.0000</r>
       <r>  -0.6250  1.0000</r>
       <r>  -0.6250  1.0000</r>
       <r>  -0.2310  1.0000</r>
       <r>  -0.2310  1.0000</r>
       <r>  -0.2310  1.0000</r>
       <r>  -0.2310  1.0000</r>
       <r>   3.0069  1.0000</r>
       <r>   3.0069  1.0000</r>
       <r>   3.0069  1.0000</r>
       <r>   3.0069  1.0000</r>
       <r>  12.8867  0.0000</r>
       <r>  12.8867  0.0000</r>
       <r>  12.8867  0.0000</r>
       <r>  12.8867  0.0000</r>
      </set>
      <set comment="kpoint 29">
       <r>  -4.0239  1.0000</r>
       <r>  -2.8351  1.0000</r>
       <r>  -2.8351  1.0000</r>
       <r>  -2.8351  1.0000</r>
       <r>  -2.6989  1.0000</r>
       <r>  -2.6989  1.0000</r>
       <r>  -2.6989  1.0000</r>
       <r>  -1.3349  1.0000</r>
       <r>  -1.2286  1.0000</r>
       <r>  -1.2286  1.0000</r>
       <r>  -0.2647  1.0000</r>
       <r>  -0.2647  1.0000</r>
       <r>   0.4163  1.0000</r>
       <r>   0.4163  1.0000</r>
       <r>   0.4163  1.0000</r>
       <r>   0.4787  1.0000</r>
       <r>   0.4787  1.0000</r>
       <r>   0.4787  1.0000</r>
       <r>   0.7098  1.0000</r>
       <r>   0.7098  1.0000</r>
       <r>   0.7098  1.0000</r>
       <r>   5.0690  0.0000</r>
       <r>   5.0690  0.0000</r>
       <r>   5.0690  0.0000</r>
       <r>  10.9686  0.0000</r>
       <r>  10.9686  0.0000</r>
       <r>  10.9686  0.0000</r>
       <r>  13.4706  0.0000</r>
      </set>
      <set comment="kpoint 30">
       <r>  -3.8154  1.0000</r>
       <r>  -2.7496  1.0000</r>
       <r>  -2.7408  1.0000</r>
       <r>  -2.7408  1.0000</r>
       <r>  -2.6306  1.0000</r>
       <r>  -2.5803  1.0000</r>
       <r>  -2.5803  1.0000</r>
       <r>  -1.3970  1.0000</r>
       <r>  -1.1659  1.0000</r>
       <r>  -1.1611  1.0000</r>
       <r>  -0.3390  1.0000</r>
       <r>  -0.2182  1.0000</r>
       <r>   0.1365  1.0000</r>
       <r>   0.1365  1.0000</r>
       <r>   0.3165  1.0000</r>
       <r>   0.3300  1.0000</r>
       <r>   0.3356  1.0000</r>
       <r>   0.3356  1.0000</r>
       <r>   0.6446  1.0000</r>
       <r>   0.6948  1.0000</r>
       <r>   0.6948  1.0000</r>
       <r>   4.0150  0.0000</r>
       <r>   5.5505  0.0000</r>
       <r>   5.5505  0.0000</r>
       <r>  11.0166  0.0000</r>
       <r>  11.0166  0.0000</r>
       <r>  12.3535  0.0000</r>
       <r>  12.5208  0.0000</r>
      </set>
      <set comment="kpoint 31">
       <r>  -3.4844  1.0000</r>
       <r>  -2.6235  1.0000</r>
       <r>  -2.5893  1.0000</r>
       <r>  -2.5893  1.0000</r>
       <r>  -2.5182  1.0000</r>
       <r>  -2.3958  1.0000</r>
       <r>  -2.3958  1.0000</r>
       <r>  -1.5152  1.0000</r>
       <r>  -1.0516  1.0000</r>
       <r>  -1.0503  1.0000</r>
       <r>  -0.4303  1.0000</r>
       <r>  -0.2922  1.0000</r>
       <r>  -0.2922  1.0000</r>
       <r>  -0.1440  1.0000</r>
       <r>   0.1006  1.0000</r>
       <r>   0.1562  1.0000</r>
       <r>   0.1816  1.0000</r>
       <r>   0.1816  1.0000</r>
       <r>   0.5516  1.0000</r>
       <r>   0.6837  1.0000</r>
       <r>   0.6837  1.0000</r>
       <r>   2.8538  1.0000</r>
       <r>   6.2251  0.0000</r>
       <r>   6.2251  0.0000</r>
       <r>  11.0107  0.0000</r>
       <r>  11.0107  0.0000</r>
       <r>  11.6800  0.0000</r>
       <r>  11.6800  0.0000</r>
      </set>
      <set comment="kpoint 32">
       <r>  -3.0669  1.0000</r>
       <r>  -2.4821  1.0000</r>
       <r>  -2.3953  1.0000</r>
       <r>  -2.3953  1.0000</r>
       <r>  -2.3681  1.0000</r>
       <r>  -2.1642  1.0000</r>
       <r>  -2.1642  1.0000</r>
       <r>  -1.6699  1.0000</r>
       <r>  -0.9444  1.0000</r>
       <r>  -0.8995  1.0000</r>
       <r>  -0.7449  1.0000</r>
       <r>  -0.7449  1.0000</r>
       <r>  -0.4485  1.0000</r>
       <r>  -0.1884  1.0000</r>
       <r>  -0.0479  1.0000</r>
       <r>  -0.0468  1.0000</r>
       <r>  -0.0050  1.0000</r>
       <r>  -0.0050  1.0000</r>
       <r>   0.4407  1.0000</r>
       <r>   0.6775  1.0000</r>
       <r>   0.6775  1.0000</r>
       <r>   1.7691  1.0000</r>
       <r>   7.0083  0.0000</r>
       <r>   7.0083  0.0000</r>
       <r>  10.4331  0.0000</r>
       <r>  10.4331  0.0000</r>
       <r>  11.5191  0.0000</r>
       <r>  11.5191  0.0000</r>
      </set>
      <set comment="kpoint 33">
       <r>  -2.6479  1.0000</r>
       <r>  -2.3678  1.0000</r>
       <r>  -2.2054  1.0000</r>
       <r>  -2.2054  1.0000</r>
       <r>  -2.1999  1.0000</r>
       <r>  -1.9003  1.0000</r>
       <r>  -1.9003  1.0000</r>
       <r>  -1.8452  1.0000</r>
       <r>  -1.1734  1.0000</r>
       <r>  -1.1734  1.0000</r>
       <r>  -0.9010  1.0000</r>
       <r>  -0.7137  1.0000</r>
       <r>  -0.5077  1.0000</r>
       <r>  -0.2739  1.0000</r>
       <r>  -0.2504  1.0000</r>
       <r>  -0.1713  1.0000</r>
       <r>  -0.1713  1.0000</r>
       <r>   0.0675  1.0000</r>
       <r>   0.3186  1.0000</r>
       <r>   0.6745  1.0000</r>
       <r>   0.6745  1.0000</r>
       <r>   0.8572  1.0000</r>
       <r>   7.8457  0.0000</r>
       <r>   7.8457  0.0000</r>
       <r>   9.5787  0.0000</r>
       <r>   9.5787  0.0000</r>
       <r>  11.7371  0.0000</r>
       <r>  11.7371  0.0000</r>
      </set>
      <set comment="kpoint 34">
       <r>  -2.3857  1.0000</r>
       <r>  -2.3857  1.0000</r>
       <r>  -2.1203  1.0000</r>
       <r>  -2.1203  1.0000</r>
       <r>  -2.0256  1.0000</r>
       <r>  -2.0256  1.0000</r>
       <r>  -1.6553  1.0000</r>
       <r>  -1.6553  1.0000</r>
       <r>  -1.4824  1.0000</r>
       <r>  -1.4824  1.0000</r>
       <r>  -0.7814  1.0000</r>
       <r>  -0.7814  1.0000</r>
       <r>  -0.5012  1.0000</r>
       <r>  -0.5012  1.0000</r>
       <r>  -0.2414  1.0000</r>
       <r>  -0.2414  1.0000</r>
       <r>   0.1821  1.0000</r>
       <r>   0.1821  1.0000</r>
       <r>   0.1918  1.0000</r>
       <r>   0.1918  1.0000</r>
       <r>   0.6736  1.0000</r>
       <r>   0.6736  1.0000</r>
       <r>   8.6500  0.0000</r>
       <r>   8.6500  0.0000</r>
       <r>   8.7675  0.0000</r>
       <r>   8.7675  0.0000</r>
       <r>  11.9100  0.0000</r>
       <r>  11.9100  0.0000</r>
      </set>
      <set comment="kpoint 35">
       <r>  -3.6192  1.0000</r>
       <r>  -2.6824  1.0000</r>
       <r>  -2.6609  1.0000</r>
       <r>  -2.6609  1.0000</r>
       <r>  -2.5092  1.0000</r>
       <r>  -2.5092  1.0000</r>
       <r>  -2.4398  1.0000</r>
       <r>  -1.4153  1.0000</r>
       <r>  -1.1365  1.0000</r>
       <r>  -1.1145  1.0000</r>
       <r>  -0.3495  1.0000</r>
       <r>  -0.2097  1.0000</r>
       <r>  -0.0459  1.0000</r>
       <r>  -0.0380  1.0000</r>
       <r>  -0.0380  1.0000</r>
       <r>   0.1900  1.0000</r>
       <r>   0.2618  1.0000</r>
       <r>   0.2618  1.0000</r>
       <r>   0.6381  1.0000</r>
       <r>   0.6381  1.0000</r>
       <r>   0.6480  1.0000</r>
       <r>   4.4651  0.0000</r>
       <r>   4.4651  0.0000</r>
       <r>   5.9811  0.0000</r>
       <r>  10.9134  0.0000</r>
       <r>  11.5456  0.0000</r>
       <r>  12.3152  0.0000</r>
       <r>  12.3152  0.0000</r>
      </set>
      <set comment="kpoint 36">
       <r>  -3.3103  1.0000</r>
       <r>  -2.5649  1.0000</r>
       <r>  -2.5465  1.0000</r>
       <r>  -2.5145  1.0000</r>
       <r>  -2.3889  1.0000</r>
       <r>  -2.3247  1.0000</r>
       <r>  -2.2445  1.0000</r>
       <r>  -1.4939  1.0000</r>
       <r>  -1.0471  1.0000</r>
       <r>  -1.0418  1.0000</r>
       <r>  -0.4629  1.0000</r>
       <r>  -0.4076  1.0000</r>
       <r>  -0.3917  1.0000</r>
       <r>  -0.2702  1.0000</r>
       <r>  -0.1197  1.0000</r>
       <r>   0.0562  1.0000</r>
       <r>   0.1042  1.0000</r>
       <r>   0.1470  1.0000</r>
       <r>   0.5577  1.0000</r>
       <r>   0.6050  1.0000</r>
       <r>   0.6061  1.0000</r>
       <r>   3.2923  1.0000</r>
       <r>   5.0815  0.0000</r>
       <r>   6.6012  0.0000</r>
       <r>  10.1100  0.0000</r>
       <r>  11.4131  0.0000</r>
       <r>  11.6577  0.0000</r>
       <r>  12.7955  0.0000</r>
      </set>
      <set comment="kpoint 37">
       <r>  -2.9262  1.0000</r>
       <r>  -2.4207  1.0000</r>
       <r>  -2.3921  1.0000</r>
       <r>  -2.3200  1.0000</r>
       <r>  -2.2275  1.0000</r>
       <r>  -2.1037  1.0000</r>
       <r>  -2.0261  1.0000</r>
       <r>  -1.6173  1.0000</r>
       <r>  -1.0000  1.0000</r>
       <r>  -0.9141  1.0000</r>
       <r>  -0.8848  1.0000</r>
       <r>  -0.7875  1.0000</r>
       <r>  -0.5397  1.0000</r>
       <r>  -0.3807  1.0000</r>
       <r>  -0.1062  1.0000</r>
       <r>  -0.0966  1.0000</r>
       <r>  -0.0168  1.0000</r>
       <r>   0.0203  1.0000</r>
       <r>   0.4499  1.0000</r>
       <r>   0.5765  1.0000</r>
       <r>   0.5799  1.0000</r>
       <r>   2.2030  1.0000</r>
       <r>   5.7888  0.0000</r>
       <r>   7.3326  0.0000</r>
       <r>   9.1473  0.0000</r>
       <r>  10.7503  0.0000</r>
       <r>  11.6206  0.0000</r>
       <r>  12.9764  0.0000</r>
      </set>
      <set comment="kpoint 38">
       <r>  -2.5477  1.0000</r>
       <r>  -2.3157  1.0000</r>
       <r>  -2.1860  1.0000</r>
       <r>  -2.1159  1.0000</r>
       <r>  -2.0543  1.0000</r>
       <r>  -1.8843  1.0000</r>
       <r>  -1.8335  1.0000</r>
       <r>  -1.7597  1.0000</r>
       <r>  -1.2483  1.0000</r>
       <r>  -1.1632  1.0000</r>
       <r>  -1.0319  1.0000</r>
       <r>  -0.8129  1.0000</r>
       <r>  -0.7494  1.0000</r>
       <r>  -0.3342  1.0000</r>
       <r>  -0.2331  1.0000</r>
       <r>  -0.1838  1.0000</r>
       <r>  -0.1657  1.0000</r>
       <r>   0.2210  1.0000</r>
       <r>   0.3080  1.0000</r>
       <r>   0.5624  1.0000</r>
       <r>   0.5648  1.0000</r>
       <r>   1.2808  1.0000</r>
       <r>   6.5489  0.0000</r>
       <r>   8.0117  0.0000</r>
       <r>   8.3583  0.0000</r>
       <r>   9.8625  0.0000</r>
       <r>  11.9612  0.0000</r>
       <r>  12.9147  0.0000</r>
      </set>
      <set comment="kpoint 39">
       <r>  -2.3193  1.0000</r>
       <r>  -2.3193  1.0000</r>
       <r>  -2.0393  1.0000</r>
       <r>  -2.0393  1.0000</r>
       <r>  -1.9019  1.0000</r>
       <r>  -1.9019  1.0000</r>
       <r>  -1.7420  1.0000</r>
       <r>  -1.7420  1.0000</r>
       <r>  -1.4063  1.0000</r>
       <r>  -1.4063  1.0000</r>
       <r>  -1.0044  1.0000</r>
       <r>  -1.0044  1.0000</r>
       <r>  -0.5538  1.0000</r>
       <r>  -0.5538  1.0000</r>
       <r>  -0.2751  1.0000</r>
       <r>  -0.2751  1.0000</r>
       <r>   0.1123  1.0000</r>
       <r>   0.1123  1.0000</r>
       <r>   0.5592  1.0000</r>
       <r>   0.5592  1.0000</r>
       <r>   0.6001  1.0000</r>
       <r>   0.6001  1.0000</r>
       <r>   7.3459  0.0000</r>
       <r>   7.3459  0.0000</r>
       <r>   9.0088  0.0000</r>
       <r>   9.0088  0.0000</r>
       <r>  12.4206  0.0000</r>
       <r>  12.4206  0.0000</r>
      </set>
      <set comment="kpoint 40">
       <r>  -3.0421  1.0000</r>
       <r>  -2.4850  1.0000</r>
       <r>  -2.4123  1.0000</r>
       <r>  -2.4123  1.0000</r>
       <r>  -2.1999  1.0000</r>
       <r>  -2.1999  1.0000</r>
       <r>  -2.0497  1.0000</r>
       <r>  -1.4998  1.0000</r>
       <r>  -1.0184  1.0000</r>
       <r>  -1.0034  1.0000</r>
       <r>  -0.6819  1.0000</r>
       <r>  -0.6819  1.0000</r>
       <r>  -0.5942  1.0000</r>
       <r>  -0.4407  1.0000</r>
       <r>  -0.0912  1.0000</r>
       <r>   0.0121  1.0000</r>
       <r>   0.0307  1.0000</r>
       <r>   0.0307  1.0000</r>
       <r>   0.5050  1.0000</r>
       <r>   0.5050  1.0000</r>
       <r>   0.5206  1.0000</r>
       <r>   3.8796  0.0000</r>
       <r>   3.8796  0.0000</r>
       <r>   7.1499  0.0000</r>
       <r>   8.9866  0.0000</r>
       <r>  11.5614  0.0000</r>
       <r>  12.1787  0.0000</r>
       <r>  12.1787  0.0000</r>
      </set>
      <set comment="kpoint 41">
       <r>  -2.7199  1.0000</r>
       <r>  -2.3485  1.0000</r>
       <r>  -2.3069  1.0000</r>
       <r>  -2.2265  1.0000</r>
       <r>  -2.0270  1.0000</r>
       <r>  -1.9869  1.0000</r>
       <r>  -1.8500  1.0000</r>
       <r>  -1.5522  1.0000</r>
       <r>  -1.0610  1.0000</r>
       <r>  -1.0256  1.0000</r>
       <r>  -0.9159  1.0000</r>
       <r>  -0.9086  1.0000</r>
       <r>  -0.8753  1.0000</r>
       <r>  -0.4221  1.0000</r>
       <r>  -0.2287  1.0000</r>
       <r>  -0.1564  1.0000</r>
       <r>  -0.0918  1.0000</r>
       <r>   0.2401  1.0000</r>
       <r>   0.3805  1.0000</r>
       <r>   0.4469  1.0000</r>
       <r>   0.4530  1.0000</r>
       <r>   2.7703  1.0000</r>
       <r>   4.5499  0.0000</r>
       <r>   7.6419  0.0000</r>
       <r>   8.1264  0.0000</r>
       <r>  11.2116  0.0000</r>
       <r>  11.8372  0.0000</r>
       <r>  12.8064  0.0000</r>
      </set>
      <set comment="kpoint 42">
       <r>  -2.4153  1.0000</r>
       <r>  -2.2259  1.0000</r>
       <r>  -2.1615  1.0000</r>
       <r>  -2.0054  1.0000</r>
       <r>  -1.8432  1.0000</r>
       <r>  -1.8393  1.0000</r>
       <r>  -1.7227  1.0000</r>
       <r>  -1.6262  1.0000</r>
       <r>  -1.3257  1.0000</r>
       <r>  -1.1534  1.0000</r>
       <r>  -1.1237  1.0000</r>
       <r>  -1.1232  1.0000</r>
       <r>  -0.7689  1.0000</r>
       <r>  -0.3742  1.0000</r>
       <r>  -0.3364  1.0000</r>
       <r>  -0.2479  1.0000</r>
       <r>  -0.2422  1.0000</r>
       <r>   0.2153  1.0000</r>
       <r>   0.4102  1.0000</r>
       <r>   0.4122  1.0000</r>
       <r>   0.5753  1.0000</r>
       <r>   1.8221  1.0000</r>
       <r>   5.2789  0.0000</r>
       <r>   6.9121  0.0000</r>
       <r>   8.6643  0.0000</r>
       <r>  10.3075  0.0000</r>
       <r>  12.2402  0.0000</r>
       <r>  13.4421  0.0000</r>
      </set>
      <set comment="kpoint 43">
       <r>  -2.2346  1.0000</r>
       <r>  -2.2346  1.0000</r>
       <r>  -1.9530  1.0000</r>
       <r>  -1.9530  1.0000</r>
       <r>  -1.7852  1.0000</r>
       <r>  -1.7852  1.0000</r>
       <r>  -1.7024  1.0000</r>
       <r>  -1.7024  1.0000</r>
       <r>  -1.3301  1.0000</r>
       <r>  -1.3301  1.0000</r>
       <r>  -1.2083  1.0000</r>
       <r>  -1.2083  1.0000</r>
       <r>  -0.5867  1.0000</r>
       <r>  -0.5867  1.0000</r>
       <r>  -0.3487  1.0000</r>
       <r>  -0.3487  1.0000</r>
       <r>  -0.0022  1.0000</r>
       <r>  -0.0022  1.0000</r>
       <r>   0.3988  1.0000</r>
       <r>   0.3988  1.0000</r>
       <r>   1.0849  1.0000</r>
       <r>   1.0849  1.0000</r>
       <r>   6.0647  0.0000</r>
       <r>   6.0647  0.0000</r>
       <r>   9.4587  0.0000</r>
       <r>   9.4587  0.0000</r>
       <r>  12.7787  0.0000</r>
       <r>  12.7787  0.0000</r>
      </set>
      <set comment="kpoint 44">
       <r>  -2.4901  1.0000</r>
       <r>  -2.2591  1.0000</r>
       <r>  -2.1492  1.0000</r>
       <r>  -2.1492  1.0000</r>
       <r>  -1.8066  1.0000</r>
       <r>  -1.8066  1.0000</r>
       <r>  -1.6794  1.0000</r>
       <r>  -1.5097  1.0000</r>
       <r>  -1.2359  1.0000</r>
       <r>  -1.2359  1.0000</r>
       <r>  -1.0258  1.0000</r>
       <r>  -1.0098  1.0000</r>
       <r>  -0.8776  1.0000</r>
       <r>  -0.4594  1.0000</r>
       <r>  -0.3655  1.0000</r>
       <r>  -0.2407  1.0000</r>
       <r>  -0.2407  1.0000</r>
       <r>   0.2919  1.0000</r>
       <r>   0.2919  1.0000</r>
       <r>   0.3384  1.0000</r>
       <r>   0.5760  1.0000</r>
       <r>   3.4146  1.0000</r>
       <r>   3.4146  1.0000</r>
       <r>   6.7486  0.0000</r>
       <r>   8.5494  0.0000</r>
       <r>  11.8062  0.0000</r>
       <r>  11.8062  0.0000</r>
       <r>  12.1701  0.0000</r>
      </set>
      <set comment="kpoint 45">
       <r>  -2.2864  1.0000</r>
       <r>  -2.1247  1.0000</r>
       <r>  -2.1133  1.0000</r>
       <r>  -1.9750  1.0000</r>
       <r>  -1.7146  1.0000</r>
       <r>  -1.6081  1.0000</r>
       <r>  -1.5894  1.0000</r>
       <r>  -1.5000  1.0000</r>
       <r>  -1.3717  1.0000</r>
       <r>  -1.3606  1.0000</r>
       <r>  -1.1391  1.0000</r>
       <r>  -1.1213  1.0000</r>
       <r>  -0.7883  1.0000</r>
       <r>  -0.4666  1.0000</r>
       <r>  -0.4334  1.0000</r>
       <r>  -0.3618  1.0000</r>
       <r>  -0.3450  1.0000</r>
       <r>   0.1042  1.0000</r>
       <r>   0.2306  1.0000</r>
       <r>   0.2550  1.0000</r>
       <r>   1.0277  1.0000</r>
       <r>   2.4332  1.0000</r>
       <r>   4.1238  0.0000</r>
       <r>   5.7777  0.0000</r>
       <r>   9.2561  0.0000</r>
       <r>  10.8861  0.0000</r>
       <r>  12.5112  0.0000</r>
       <r>  12.6336  0.0000</r>
      </set>
      <set comment="kpoint 46">
       <r>  -2.1528  1.0000</r>
       <r>  -2.1528  1.0000</r>
       <r>  -1.9655  1.0000</r>
       <r>  -1.9655  1.0000</r>
       <r>  -1.7003  1.0000</r>
       <r>  -1.7003  1.0000</r>
       <r>  -1.4886  1.0000</r>
       <r>  -1.4886  1.0000</r>
       <r>  -1.3167  1.0000</r>
       <r>  -1.3167  1.0000</r>
       <r>  -1.2419  1.0000</r>
       <r>  -1.2419  1.0000</r>
       <r>  -0.6282  1.0000</r>
       <r>  -0.6282  1.0000</r>
       <r>  -0.4672  1.0000</r>
       <r>  -0.4672  1.0000</r>
       <r>  -0.1215  1.0000</r>
       <r>  -0.1215  1.0000</r>
       <r>   0.2175  1.0000</r>
       <r>   0.2175  1.0000</r>
       <r>   1.6361  1.0000</r>
       <r>   1.6361  1.0000</r>
       <r>   4.9061  0.0000</r>
       <r>   4.9061  0.0000</r>
       <r>  10.0386  0.0000</r>
       <r>  10.0386  0.0000</r>
       <r>  13.2346  0.0000</r>
       <r>  13.2348  0.0000</r>
      </set>
      <set comment="kpoint 47">
       <r>  -2.1786  1.0000</r>
       <r>  -2.0688  1.0000</r>
       <r>  -2.0179  1.0000</r>
       <r>  -2.0179  1.0000</r>
       <r>  -1.5644  1.0000</r>
       <r>  -1.5634  1.0000</r>
       <r>  -1.5634  1.0000</r>
       <r>  -1.4598  1.0000</r>
       <r>  -1.3079  1.0000</r>
       <r>  -1.3079  1.0000</r>
       <r>  -1.1027  1.0000</r>
       <r>  -1.0586  1.0000</r>
       <r>  -0.8076  1.0000</r>
       <r>  -0.5867  1.0000</r>
       <r>  -0.5255  1.0000</r>
       <r>  -0.5255  1.0000</r>
       <r>  -0.3340  1.0000</r>
       <r>   0.0300  1.0000</r>
       <r>   0.0300  1.0000</r>
       <r>   0.1181  1.0000</r>
       <r>   1.5826  1.0000</r>
       <r>   3.1161  1.0000</r>
       <r>   3.1161  1.0000</r>
       <r>   4.7702  0.0000</r>
       <r>   9.9489  0.0000</r>
       <r>  11.5745  0.0000</r>
       <r>  11.5745  0.0000</r>
       <r>  13.1572  0.0000</r>
      </set>
      <set comment="kpoint 48">
       <r>  -2.0901  1.0000</r>
       <r>  -2.0901  1.0000</r>
       <r>  -2.0099  1.0000</r>
       <r>  -2.0099  1.0000</r>
       <r>  -1.5923  1.0000</r>
       <r>  -1.5923  1.0000</r>
       <r>  -1.4842  1.0000</r>
       <r>  -1.4842  1.0000</r>
       <r>  -1.1586  1.0000</r>
       <r>  -1.1586  1.0000</r>
       <r>  -1.1293  1.0000</r>
       <r>  -1.1293  1.0000</r>
       <r>  -0.6975  1.0000</r>
       <r>  -0.6975  1.0000</r>
       <r>  -0.6135  1.0000</r>
       <r>  -0.6135  1.0000</r>
       <r>  -0.1790  1.0000</r>
       <r>  -0.1790  1.0000</r>
       <r>   0.0341  1.0000</r>
       <r>   0.0341  1.0000</r>
       <r>   2.2705  1.0000</r>
       <r>   2.2705  1.0000</r>
       <r>   3.8881  0.0000</r>
       <r>   3.8881  0.0000</r>
       <r>  10.7224  0.0000</r>
       <r>  10.7224  0.0000</r>
       <r>  12.3574  0.0000</r>
       <r>  12.3574  0.0000</r>
      </set>
      <set comment="kpoint 49">
       <r>  -2.0479  1.0000</r>
       <r>  -2.0479  1.0000</r>
       <r>  -2.0479  1.0000</r>
       <r>  -2.0479  1.0000</r>
       <r>  -1.5275  1.0000</r>
       <r>  -1.5275  1.0000</r>
       <r>  -1.5275  1.0000</r>
       <r>  -1.5275  1.0000</r>
       <r>  -1.0435  1.0000</r>
       <r>  -1.0435  1.0000</r>
       <r>  -1.0435  1.0000</r>
       <r>  -1.0435  1.0000</r>
       <r>  -0.7313  1.0000</r>
       <r>  -0.7313  1.0000</r>
       <r>  -0.7313  1.0000</r>
       <r>  -0.7313  1.0000</r>
       <r>  -0.1179  1.0000</r>
       <r>  -0.1179  1.0000</r>
       <r>  -0.1179  1.0000</r>
       <r>  -0.1179  1.0000</r>
       <r>   3.0135  1.0000</r>
       <r>   3.0135  1.0000</r>
       <r>   3.0135  1.0000</r>
       <r>   3.0135  1.0000</r>
       <r>  11.4964  0.0000</r>
       <r>  11.4964  0.0000</r>
       <r>  11.4964  0.0000</r>
       <r>  11.4964  0.0000</r>
      </set>
      <set comment="kpoint 50">
       <r>  -3.4436  1.0000</r>
       <r>  -2.6155  1.0000</r>
       <r>  -2.6155  1.0000</r>
       <r>  -2.6155  1.0000</r>
       <r>  -2.3614  1.0000</r>
       <r>  -2.3614  1.0000</r>
       <r>  -2.3614  1.0000</r>
       <r>  -1.3877  1.0000</r>
       <r>  -1.1099  1.0000</r>
       <r>  -1.1099  1.0000</r>
       <r>  -0.2697  1.0000</r>
       <r>  -0.2697  1.0000</r>
       <r>  -0.1911  1.0000</r>
       <r>  -0.1911  1.0000</r>
       <r>  -0.1911  1.0000</r>
       <r>   0.0482  1.0000</r>
       <r>   0.0482  1.0000</r>
       <r>   0.0482  1.0000</r>
       <r>   0.6525  1.0000</r>
       <r>   0.6525  1.0000</r>
       <r>   0.6525  1.0000</r>
       <r>   4.8524  0.0000</r>
       <r>   4.8524  0.0000</r>
       <r>   4.8524  0.0000</r>
       <r>  11.4852  0.0000</r>
       <r>  11.4852  0.0000</r>
       <r>  11.4852  0.0000</r>
       <r>  12.7311  0.0000</r>
      </set>
      <set comment="kpoint 51">
       <r>  -3.1731  1.0000</r>
       <r>  -2.5227  1.0000</r>
       <r>  -2.5099  1.0000</r>
       <r>  -2.5099  1.0000</r>
       <r>  -2.2287  1.0000</r>
       <r>  -2.1659  1.0000</r>
       <r>  -2.1659  1.0000</r>
       <r>  -1.4072  1.0000</r>
       <r>  -1.0577  1.0000</r>
       <r>  -1.0574  1.0000</r>
       <r>  -0.5272  1.0000</r>
       <r>  -0.5272  1.0000</r>
       <r>  -0.4094  1.0000</r>
       <r>  -0.3178  1.0000</r>
       <r>  -0.1501  1.0000</r>
       <r>  -0.1356  1.0000</r>
       <r>  -0.0660  1.0000</r>
       <r>  -0.0660  1.0000</r>
       <r>   0.6171  1.0000</r>
       <r>   0.6171  1.0000</r>
       <r>   0.6226  1.0000</r>
       <r>   3.6473  0.0000</r>
       <r>   5.4046  0.0000</r>
       <r>   5.4046  0.0000</r>
       <r>  10.4234  0.0000</r>
       <r>  10.4234  0.0000</r>
       <r>  12.0114  0.0000</r>
       <r>  12.8976  0.0000</r>
      </set>
      <set comment="kpoint 52">
       <r>  -2.8499  1.0000</r>
       <r>  -2.4260  1.0000</r>
       <r>  -2.3474  1.0000</r>
       <r>  -2.3474  1.0000</r>
       <r>  -2.0494  1.0000</r>
       <r>  -1.9628  1.0000</r>
       <r>  -1.9628  1.0000</r>
       <r>  -1.4764  1.0000</r>
       <r>  -1.0294  1.0000</r>
       <r>  -0.9741  1.0000</r>
       <r>  -0.8841  1.0000</r>
       <r>  -0.8841  1.0000</r>
       <r>  -0.6695  1.0000</r>
       <r>  -0.3342  1.0000</r>
       <r>  -0.2248  1.0000</r>
       <r>  -0.1838  1.0000</r>
       <r>  -0.1838  1.0000</r>
       <r>  -0.0049  1.0000</r>
       <r>   0.5510  1.0000</r>
       <r>   0.5682  1.0000</r>
       <r>   0.5682  1.0000</r>
       <r>   2.5194  1.0000</r>
       <r>   6.0537  0.0000</r>
       <r>   6.0537  0.0000</r>
       <r>   9.4336  0.0000</r>
       <r>   9.4336  0.0000</r>
       <r>  12.6531  0.0000</r>
       <r>  13.1871  0.0000</r>
      </set>
      <set comment="kpoint 53">
       <r>  -2.5499  1.0000</r>
       <r>  -2.3566  1.0000</r>
       <r>  -2.1415  1.0000</r>
       <r>  -2.1415  1.0000</r>
       <r>  -1.8485  1.0000</r>
       <r>  -1.8407  1.0000</r>
       <r>  -1.8407  1.0000</r>
       <r>  -1.5610  1.0000</r>
       <r>  -1.1565  1.0000</r>
       <r>  -1.1565  1.0000</r>
       <r>  -1.0884  1.0000</r>
       <r>  -0.9250  1.0000</r>
       <r>  -0.8564  1.0000</r>
       <r>  -0.5290  1.0000</r>
       <r>  -0.3068  1.0000</r>
       <r>  -0.3068  1.0000</r>
       <r>   0.1280  1.0000</r>
       <r>   0.1513  1.0000</r>
       <r>   0.4418  1.0000</r>
       <r>   0.5324  1.0000</r>
       <r>   0.5324  1.0000</r>
       <r>   1.5318  1.0000</r>
       <r>   6.7436  0.0000</r>
       <r>   6.7436  0.0000</r>
       <r>   8.5539  0.0000</r>
       <r>   8.5539  0.0000</r>
       <r>  13.3987  0.0000</r>
       <r>  13.5747  0.0000</r>
      </set>
      <set comment="kpoint 54">
       <r>  -2.3748  1.0000</r>
       <r>  -2.3748  1.0000</r>
       <r>  -1.9584  1.0000</r>
       <r>  -1.9584  1.0000</r>
       <r>  -1.8993  1.0000</r>
       <r>  -1.8993  1.0000</r>
       <r>  -1.6726  1.0000</r>
       <r>  -1.6726  1.0000</r>
       <r>  -1.2454  1.0000</r>
       <r>  -1.2454  1.0000</r>
       <r>  -1.0907  1.0000</r>
       <r>  -1.0907  1.0000</r>
       <r>  -0.7062  1.0000</r>
       <r>  -0.7062  1.0000</r>
       <r>  -0.3657  1.0000</r>
       <r>  -0.3657  1.0000</r>
       <r>   0.3046  1.0000</r>
       <r>   0.3046  1.0000</r>
       <r>   0.5200  1.0000</r>
       <r>   0.5200  1.0000</r>
       <r>   0.7244  1.0000</r>
       <r>   0.7244  1.0000</r>
       <r>   7.2310  0.0000</r>
       <r>   7.2310  0.0000</r>
       <r>   8.0059  0.0000</r>
       <r>   8.0059  0.0000</r>
       <r>  13.8875  0.0000</r>
       <r>  13.8875  0.0000</r>
      </set>
      <set comment="kpoint 55">
       <r>  -2.9706  1.0000</r>
       <r>  -2.4503  1.0000</r>
       <r>  -2.4398  1.0000</r>
       <r>  -2.4398  1.0000</r>
       <r>  -2.0303  1.0000</r>
       <r>  -2.0303  1.0000</r>
       <r>  -1.9766  1.0000</r>
       <r>  -1.3157  1.0000</r>
       <r>  -1.0540  1.0000</r>
       <r>  -1.0426  1.0000</r>
       <r>  -0.7130  1.0000</r>
       <r>  -0.7130  1.0000</r>
       <r>  -0.6811  1.0000</r>
       <r>  -0.2967  1.0000</r>
       <r>  -0.2525  1.0000</r>
       <r>  -0.2374  1.0000</r>
       <r>  -0.2374  1.0000</r>
       <r>  -0.0539  1.0000</r>
       <r>   0.5826  1.0000</r>
       <r>   0.6014  1.0000</r>
       <r>   0.6014  1.0000</r>
       <r>   4.1570  0.0000</r>
       <r>   4.1570  0.0000</r>
       <r>   5.8743  0.0000</r>
       <r>   9.2781  0.0000</r>
       <r>  10.8986  0.0000</r>
       <r>  10.8986  0.0000</r>
       <r>  13.1152  0.0000</r>
      </set>
      <set comment="kpoint 56">
       <r>  -2.7419  1.0000</r>
       <r>  -2.3785  1.0000</r>
       <r>  -2.3378  1.0000</r>
       <r>  -2.3047  1.0000</r>
       <r>  -1.8454  1.0000</r>
       <r>  -1.8419  1.0000</r>
       <r>  -1.8070  1.0000</r>
       <r>  -1.2917  1.0000</r>
       <r>  -1.0350  1.0000</r>
       <r>  -1.0048  1.0000</r>
       <r>  -1.0003  1.0000</r>
       <r>  -0.9133  1.0000</r>
       <r>  -0.8940  1.0000</r>
       <r>  -0.4303  1.0000</r>
       <r>  -0.3771  1.0000</r>
       <r>  -0.3238  1.0000</r>
       <r>  -0.2187  1.0000</r>
       <r>   0.1621  1.0000</r>
       <r>   0.5230  1.0000</r>
       <r>   0.5390  1.0000</r>
       <r>   0.5414  1.0000</r>
       <r>   2.9924  1.0000</r>
       <r>   4.7645  0.0000</r>
       <r>   6.4014  0.0000</r>
       <r>   8.2979  0.0000</r>
       <r>   9.8863  0.0000</r>
       <r>  11.5136  0.0000</r>
       <r>  13.4437  0.0000</r>
      </set>
      <set comment="kpoint 57">
       <r>  -2.5359  1.0000</r>
       <r>  -2.3539  1.0000</r>
       <r>  -2.1831  1.0000</r>
       <r>  -2.1366  1.0000</r>
       <r>  -1.7915  1.0000</r>
       <r>  -1.7562  1.0000</r>
       <r>  -1.6184  1.0000</r>
       <r>  -1.2996  1.0000</r>
       <r>  -1.1381  1.0000</r>
       <r>  -1.1272  1.0000</r>
       <r>  -1.0913  1.0000</r>
       <r>  -1.0353  1.0000</r>
       <r>  -0.9169  1.0000</r>
       <r>  -0.6197  1.0000</r>
       <r>  -0.4719  1.0000</r>
       <r>  -0.4258  1.0000</r>
       <r>   0.0280  1.0000</r>
       <r>   0.4308  1.0000</r>
       <r>   0.4709  1.0000</r>
       <r>   0.4792  1.0000</r>
       <r>   0.5108  1.0000</r>
       <r>   1.9642  1.0000</r>
       <r>   5.4362  0.0000</r>
       <r>   6.6583  0.0000</r>
       <r>   7.7809  0.0000</r>
       <r>   8.9837  0.0000</r>
       <r>  12.2412  0.0000</r>
       <r>  13.8927  0.0000</r>
      </set>
      <set comment="kpoint 58">
       <r>  -2.3998  1.0000</r>
       <r>  -2.3998  1.0000</r>
       <r>  -2.0442  1.0000</r>
       <r>  -2.0442  1.0000</r>
       <r>  -1.8350  1.0000</r>
       <r>  -1.8350  1.0000</r>
       <r>  -1.3949  1.0000</r>
       <r>  -1.3949  1.0000</r>
       <r>  -1.2017  1.0000</r>
       <r>  -1.2017  1.0000</r>
       <r>  -1.0891  1.0000</r>
       <r>  -1.0891  1.0000</r>
       <r>  -0.7862  1.0000</r>
       <r>  -0.7862  1.0000</r>
       <r>  -0.4990  1.0000</r>
       <r>  -0.4990  1.0000</r>
       <r>   0.2646  1.0000</r>
       <r>   0.2646  1.0000</r>
       <r>   0.4530  1.0000</r>
       <r>   0.4530  1.0000</r>
       <r>   1.1163  1.0000</r>
       <r>   1.1163  1.0000</r>
       <r>   6.1375  0.0000</r>
       <r>   6.1375  0.0000</r>
       <r>   8.2122  0.0000</r>
       <r>   8.2122  0.0000</r>
       <r>  13.0592  0.0000</r>
       <r>  13.0592  0.0000</r>
      </set>
      <set comment="kpoint 59">
       <r>  -2.6205  1.0000</r>
       <r>  -2.2919  1.0000</r>
       <r>  -2.2919  1.0000</r>
       <r>  -2.2912  1.0000</r>
       <r>  -1.6875  1.0000</r>
       <r>  -1.6755  1.0000</r>
       <r>  -1.6755  1.0000</r>
       <r>  -1.2208  1.0000</r>
       <r>  -1.0966  1.0000</r>
       <r>  -1.0966  1.0000</r>
       <r>  -1.0186  1.0000</r>
       <r>  -0.9208  1.0000</r>
       <r>  -0.9117  1.0000</r>
       <r>  -0.5353  1.0000</r>
       <r>  -0.4935  1.0000</r>
       <r>  -0.4935  1.0000</r>
       <r>  -0.2438  1.0000</r>
       <r>   0.4504  1.0000</r>
       <r>   0.4689  1.0000</r>
       <r>   0.4689  1.0000</r>
       <r>   0.4939  1.0000</r>
       <r>   3.5723  0.8764</r>
       <r>   3.5723  0.8764</r>
       <r>   6.4496  0.0000</r>
       <r>   7.7055  0.0000</r>
       <r>  10.4789  0.0000</r>
       <r>  10.4789  0.0000</r>
       <r>  13.8083  0.0000</r>
      </set>
      <set comment="kpoint 60">
       <r>  -2.5010  1.0000</r>
       <r>  -2.3232  1.0000</r>
       <r>  -2.2194  1.0000</r>
       <r>  -2.1981  1.0000</r>
       <r>  -1.6663  1.0000</r>
       <r>  -1.6640  1.0000</r>
       <r>  -1.4806  1.0000</r>
       <r>  -1.2492  1.0000</r>
       <r>  -1.1390  1.0000</r>
       <r>  -1.0676  1.0000</r>
       <r>  -1.0120  1.0000</r>
       <r>  -0.9050  1.0000</r>
       <r>  -0.8802  1.0000</r>
       <r>  -0.6642  1.0000</r>
       <r>  -0.6357  1.0000</r>
       <r>  -0.5677  1.0000</r>
       <r>  -0.0896  1.0000</r>
       <r>   0.3418  1.0000</r>
       <r>   0.3790  1.0000</r>
       <r>   0.3885  1.0000</r>
       <r>   0.9683  1.0000</r>
       <r>   2.5195  1.0000</r>
       <r>   4.2353  0.0000</r>
       <r>   5.7749  0.0000</r>
       <r>   8.0577  0.0000</r>
       <r>   9.5536  0.0000</r>
       <r>  11.1869  0.0000</r>
       <r>  12.8845  0.0000</r>
      </set>
      <set comment="kpoint 61">
       <r>  -2.3969  1.0000</r>
       <r>  -2.3969  1.0000</r>
       <r>  -2.1651  1.0000</r>
       <r>  -2.1651  1.0000</r>
       <r>  -1.6946  1.0000</r>
       <r>  -1.6946  1.0000</r>
       <r>  -1.3240  1.0000</r>
       <r>  -1.3240  1.0000</r>
       <r>  -1.0945  1.0000</r>
       <r>  -1.0945  1.0000</r>
       <r>  -0.9417  1.0000</r>
       <r>  -0.9417  1.0000</r>
       <r>  -0.8074  1.0000</r>
       <r>  -0.8074  1.0000</r>
       <r>  -0.6431  1.0000</r>
       <r>  -0.6431  1.0000</r>
       <r>   0.1488  1.0000</r>
       <r>   0.1488  1.0000</r>
       <r>   0.3509  1.0000</r>
       <r>   0.3509  1.0000</r>
       <r>   1.6411  1.0000</r>
[...]
       <r>   3.0325  1.0000</r>
       <r>   3.0325  1.0000</r>
       <r>   3.0325  1.0000</r>
       <r>  10.1621  0.0000</r>
       <r>  10.1621  0.0000</r>
       <r>  10.1621  0.0000</r>
       <r>  10.1621  0.0000</r>
      </set>
      <set comment="kpoint 65">
       <r>  -2.8664  1.0000</r>
       <r>  -2.4170  1.0000</r>
       <r>  -2.4170  1.0000</r>
       <r>  -2.4170  1.0000</r>
       <r>  -1.8492  1.0000</r>
       <r>  -1.8492  1.0000</r>
       <r>  -1.8492  1.0000</r>
       <r>  -1.0847  1.0000</r>
       <r>  -1.0847  1.0000</r>
       <r>  -1.0346  1.0000</r>
       <r>  -0.7976  1.0000</r>
       <r>  -0.7976  1.0000</r>
       <r>  -0.7976  1.0000</r>
       <r>  -0.4427  1.0000</r>
       <r>  -0.4427  1.0000</r>
       <r>  -0.4427  1.0000</r>
       <r>  -0.1164  1.0000</r>
       <r>  -0.1164  1.0000</r>
       <r>   0.6149  1.0000</r>
       <r>   0.6149  1.0000</r>
       <r>   0.6149  1.0000</r>
       <r>   4.5720  0.0000</r>
       <r>   4.5720  0.0000</r>
       <r>   4.5720  0.0000</r>
       <r>   9.7377  0.0000</r>
       <r>   9.7377  0.0000</r>
       <r>   9.7377  0.0000</r>
       <r>  14.8149  0.0000</r>
      </set>
      <set comment="kpoint 66">
       <r>  -2.7449  1.0000</r>
       <r>  -2.4082  1.0000</r>
       <r>  -2.3521  1.0000</r>
       <r>  -2.3521  1.0000</r>
       <r>  -1.7192  1.0000</r>
       <r>  -1.7192  1.0000</r>
       <r>  -1.6729  1.0000</r>
       <r>  -1.1294  1.0000</r>
       <r>  -1.0778  1.0000</r>
       <r>  -0.9088  1.0000</r>
       <r>  -0.9020  1.0000</r>
       <r>  -0.9020  1.0000</r>
       <r>  -0.8283  1.0000</r>
       <r>  -0.6306  1.0000</r>
       <r>  -0.5508  1.0000</r>
       <r>  -0.5508  1.0000</r>
       <r>   0.0047  1.0000</r>
       <r>   0.0731  1.0000</r>
       <r>   0.5704  1.0000</r>
       <r>   0.5704  1.0000</r>
       <r>   0.5977  1.0000</r>
       <r>   3.3525  1.0000</r>
       <r>   5.0721  0.0000</r>
       <r>   5.0721  0.0000</r>
       <r>   8.7257  0.0000</r>
       <r>   8.7257  0.0000</r>
       <r>  10.3388  0.0000</r>
       <r>  13.7499  0.0000</r>
      </set>
      <set comment="kpoint 67">
       <r>  -2.6218  1.0000</r>
       <r>  -2.4395  1.0000</r>
       <r>  -2.2675  1.0000</r>
       <r>  -2.2675  1.0000</r>
       <r>  -1.7092  1.0000</r>
       <r>  -1.7092  1.0000</r>
       <r>  -1.4714  1.0000</r>
       <r>  -1.1894  1.0000</r>
       <r>  -1.0272  1.0000</r>
       <r>  -0.9772  1.0000</r>
       <r>  -0.8997  1.0000</r>
       <r>  -0.8997  1.0000</r>
       <r>  -0.8659  1.0000</r>
       <r>  -0.7979  1.0000</r>
       <r>  -0.6271  1.0000</r>
       <r>  -0.6271  1.0000</r>
       <r>   0.2536  1.0000</r>
       <r>   0.5102  1.0000</r>
       <r>   0.5102  1.0000</r>
       <r>   0.5177  1.0000</r>
       <r>   0.5275  1.0000</r>
       <r>   2.2528  1.0000</r>
       <r>   5.5764  0.0000</r>
       <r>   5.5764  0.0000</r>
       <r>   7.9227  0.0000</r>
       <r>   7.9227  0.0000</r>
       <r>  11.0559  0.0000</r>
       <r>  12.7691  0.0000</r>
      </set>
      <set comment="kpoint 68">
       <r>  -2.5141  1.0000</r>
       <r>  -2.5141  1.0000</r>
       <r>  -2.2213  1.0000</r>
       <r>  -2.2213  1.0000</r>
       <r>  -1.7401  1.0000</r>
       <r>  -1.7401  1.0000</r>
       <r>  -1.2934  1.0000</r>
       <r>  -1.2934  1.0000</r>
       <r>  -0.9645  1.0000</r>
       <r>  -0.9645  1.0000</r>
       <r>  -0.9326  1.0000</r>
       <r>  -0.9326  1.0000</r>
       <r>  -0.8491  1.0000</r>
       <r>  -0.8491  1.0000</r>
       <r>  -0.6787  1.0000</r>
       <r>  -0.6787  1.0000</r>
       <r>   0.4095  1.0000</r>
       <r>   0.4095  1.0000</r>
       <r>   0.4824  1.0000</r>
       <r>   0.4824  1.0000</r>
       <r>   1.2971  1.0000</r>
       <r>   1.2971  1.0000</r>
       <r>   5.8444  0.0000</r>
       <r>   5.8444  0.0000</r>
       <r>   7.5565  0.0000</r>
       <r>   7.5565  0.0000</r>
       <r>  11.8697  0.0000</r>
       <r>  11.8697  0.0000</r>
      </set>
      <set comment="kpoint 69">
       <r>  -2.7173  1.0000</r>
       <r>  -2.4055  1.0000</r>
       <r>  -2.4055  1.0000</r>
       <r>  -2.3717  1.0000</r>
       <r>  -1.6410  1.0000</r>
       <r>  -1.5899  1.0000</r>
       <r>  -1.5899  1.0000</r>
       <r>  -1.1496  1.0000</r>
       <r>  -1.1204  1.0000</r>
       <r>  -0.8887  1.0000</r>
       <r>  -0.8887  1.0000</r>
       <r>  -0.7773  1.0000</r>
       <r>  -0.7222  1.0000</r>
       <r>  -0.7050  1.0000</r>
       <r>  -0.7050  1.0000</r>
       <r>  -0.4609  1.0000</r>
       <r>  -0.0243  1.0000</r>
       <r>   0.3621  1.0000</r>
       <r>   0.5422  1.0000</r>
       <r>   0.5685  1.0000</r>
       <r>   0.5685  1.0000</r>
       <r>   3.8253  0.0000</r>
       <r>   3.8253  0.0000</r>
       <r>   5.3648  0.0000</r>
       <r>   7.8288  0.0000</r>
       <r>   9.3003  0.0000</r>
       <r>   9.3003  0.0000</r>
       <r>  12.6718  0.0000</r>
      </set>
      <set comment="kpoint 70">
       <r>  -2.6593  1.0000</r>
       <r>  -2.4877  1.0000</r>
       <r>  -2.3876  1.0000</r>
       <r>  -2.3734  1.0000</r>
       <r>  -1.6207  1.0000</r>
       <r>  -1.5992  1.0000</r>
       <r>  -1.4462  1.0000</r>
       <r>  -1.2183  1.0000</r>
       <r>  -1.1003  1.0000</r>
       <r>  -0.9316  1.0000</r>
       <r>  -0.8668  1.0000</r>
       <r>  -0.8197  1.0000</r>
       <r>  -0.7276  1.0000</r>
       <r>  -0.6592  1.0000</r>
       <r>  -0.6567  1.0000</r>
       <r>  -0.4573  1.0000</r>
       <r>   0.1748  1.0000</r>
       <r>   0.4861  1.0000</r>
       <r>   0.5009  1.0000</r>
       <r>   0.5063  1.0000</r>
       <r>   0.9028  1.0000</r>
       <r>   2.6958  1.0000</r>
       <r>   4.3781  0.0000</r>
       <r>   5.3771  0.0000</r>
       <r>   7.4519  0.0000</r>
       <r>   8.4184  0.0000</r>
       <r>   9.9950  0.0000</r>
       <r>  11.6864  0.0000</r>
      </set>
      <set comment="kpoint 71">
       <r>  -2.5784  1.0000</r>
       <r>  -2.5784  1.0000</r>
       <r>  -2.3745  1.0000</r>
       <r>  -2.3745  1.0000</r>
       <r>  -1.6197  1.0000</r>
       <r>  -1.6197  1.0000</r>
       <r>  -1.3181  1.0000</r>
       <r>  -1.3181  1.0000</r>
       <r>  -1.0309  1.0000</r>
       <r>  -1.0309  1.0000</r>
       <r>  -0.8545  1.0000</r>
       <r>  -0.8545  1.0000</r>
       <r>  -0.6100  1.0000</r>
       <r>  -0.6100  1.0000</r>
       <r>  -0.6072  1.0000</r>
       <r>  -0.6072  1.0000</r>
       <r>   0.3779  1.0000</r>
       <r>   0.3779  1.0000</r>
       <r>   0.4602  1.0000</r>
       <r>   0.4602  1.0000</r>
       <r>   1.7076  1.0000</r>
       <r>   1.7076  1.0000</r>
       <r>   4.9543  0.0000</r>
       <r>   4.9543  0.0000</r>
       <r>   7.7434  0.0000</r>
       <r>   7.7434  0.0000</r>
       <r>  10.7932  0.0000</r>
       <r>  10.7932  0.0000</r>
      </set>
      <set comment="kpoint 72">
       <r>  -2.6489  1.0000</r>
       <r>  -2.5038  1.0000</r>
       <r>  -2.5038  1.0000</r>
       <r>  -2.4478  1.0000</r>
       <r>  -1.5478  1.0000</r>
       <r>  -1.4700  1.0000</r>
       <r>  -1.4700  1.0000</r>
       <r>  -1.2616  1.0000</r>
       <r>  -1.1292  1.0000</r>
       <r>  -0.9849  1.0000</r>
       <r>  -0.9849  1.0000</r>
       <r>  -0.9395  1.0000</r>
       <r>  -0.5004  1.0000</r>
       <r>  -0.5004  1.0000</r>
       <r>  -0.4689  1.0000</r>
       <r>  -0.2137  1.0000</r>
       <r>   0.1136  1.0000</r>
       <r>   0.4210  1.0000</r>
       <r>   0.4256  1.0000</r>
       <r>   0.4256  1.0000</r>
       <r>   1.5071  1.0000</r>
       <r>   3.2722  1.0000</r>
       <r>   3.2722  1.0000</r>
       <r>   4.7202  0.0000</r>
       <r>   7.6904  0.0000</r>
       <r>   9.0673  0.0000</r>
       <r>   9.0673  0.0000</r>
       <r>  10.7080  0.0000</r>
      </set>
      <set comment="kpoint 73">
       <r>  -2.5948  1.0000</r>
       <r>  -2.5948  1.0000</r>
       <r>  -2.4906  1.0000</r>
       <r>  -2.4906  1.0000</r>
       <r>  -1.5013  1.0000</r>
       <r>  -1.5013  1.0000</r>
       <r>  -1.3508  1.0000</r>
       <r>  -1.3508  1.0000</r>
       <r>  -1.0840  1.0000</r>
       <r>  -1.0840  1.0000</r>
       <r>  -0.9932  1.0000</r>
       <r>  -0.9932  1.0000</r>
       <r>  -0.3912  1.0000</r>
       <r>  -0.3912  1.0000</r>
       <r>  -0.3174  1.0000</r>
       <r>  -0.3174  1.0000</r>
       <r>   0.2774  1.0000</r>
       <r>   0.2774  1.0000</r>
       <r>   0.3782  1.0000</r>
       <r>   0.3782  1.0000</r>
       <r>   2.3045  1.0000</r>
       <r>   2.3045  1.0000</r>
       <r>   3.9616  0.0000</r>
       <r>   3.9616  0.0000</r>
       <r>   8.2851  0.0000</r>
       <r>   8.2851  0.0000</r>
       <r>   9.8341  0.0000</r>
       <r>   9.8341  0.0000</r>
      </set>
      <set comment="kpoint 74">
       <r>  -2.5650  1.0000</r>
       <r>  -2.5650  1.0000</r>
       <r>  -2.5650  1.0000</r>
       <r>  -2.5650  1.0000</r>
       <r>  -1.4068  1.0000</r>
       <r>  -1.4068  1.0000</r>
       <r>  -1.4068  1.0000</r>
       <r>  -1.4068  1.0000</r>
       <r>  -1.0753  1.0000</r>
       <r>  -1.0753  1.0000</r>
       <r>  -1.0753  1.0000</r>
       <r>  -1.0753  1.0000</r>
       <r>  -0.2419  1.0000</r>
       <r>  -0.2419  1.0000</r>
       <r>  -0.2419  1.0000</r>
       <r>  -0.2419  1.0000</r>
       <r>   0.2707  1.0000</r>
       <r>   0.2707  1.0000</r>
       <r>   0.2707  1.0000</r>
       <r>   0.2707  1.0000</r>
       <r>   3.0618  1.0000</r>
       <r>   3.0618  1.0000</r>
       <r>   3.0618  1.0000</r>
       <r>   3.0618  1.0000</r>
       <r>   8.9950  0.0000</r>
       <r>   8.9950  0.0000</r>
       <r>   8.9950  0.0000</r>
       <r>   8.9950  0.0000</r>
      </set>
      <set comment="kpoint 75">
       <r>  -2.7615  1.0000</r>
       <r>  -2.4857  1.0000</r>
       <r>  -2.4857  1.0000</r>
       <r>  -2.4857  1.0000</r>
       <r>  -1.5438  1.0000</r>
       <r>  -1.5438  1.0000</r>
       <r>  -1.5438  1.0000</r>
       <r>  -1.1748  1.0000</r>
       <r>  -1.1748  1.0000</r>
       <r>  -0.8938  1.0000</r>
       <r>  -0.8938  1.0000</r>
       <r>  -0.8938  1.0000</r>
       <r>  -0.6158  1.0000</r>
       <r>  -0.6158  1.0000</r>
       <r>  -0.6158  1.0000</r>
       <r>   0.1814  1.0000</r>
       <r>   0.1814  1.0000</r>
       <r>   0.2151  1.0000</r>
       <r>   0.5849  1.0000</r>
       <r>   0.5849  1.0000</r>
       <r>   0.5849  1.0000</r>
       <r>   4.1433  0.0000</r>
       <r>   4.1433  0.0000</r>
       <r>   4.1433  0.0000</r>
       <r>   8.3141  0.0000</r>
       <r>   8.3141  0.0000</r>
       <r>   8.3141  0.0000</r>
       <r>  11.5855  0.0000</r>
      </set>
      <set comment="kpoint 76">
       <r>  -2.7526  1.0000</r>
       <r>  -2.6019  1.0000</r>
       <r>  -2.5327  1.0000</r>
       <r>  -2.5327  1.0000</r>
       <r>  -1.5271  1.0000</r>
       <r>  -1.5271  1.0000</r>
       <r>  -1.4278  1.0000</r>
       <r>  -1.2333  1.0000</r>
       <r>  -1.1780  1.0000</r>
       <r>  -1.0331  1.0000</r>
       <r>  -0.9835  1.0000</r>
       <r>  -0.9835  1.0000</r>
       <r>  -0.4297  1.0000</r>
       <r>  -0.4070  1.0000</r>
       <r>  -0.4070  1.0000</r>
       <r>  -0.0125  1.0000</r>
       <r>   0.3574  1.0000</r>
       <r>   0.5442  1.0000</r>
       <r>   0.5442  1.0000</r>
       <r>   0.5677  1.0000</r>
       <r>   1.0123  1.0000</r>
       <r>   2.9900  1.0000</r>
       <r>   4.4509  0.0000</r>
       <r>   4.4509  0.0000</r>
       <r>   7.6028  0.0000</r>
       <r>   7.6028  0.0000</r>
       <r>   8.9598  0.0000</r>
       <r>  10.6037  0.0000</r>
      </set>
      <set comment="kpoint 77">
       <r>  -2.6960  1.0000</r>
       <r>  -2.6960  1.0000</r>
       <r>  -2.5481  1.0000</r>
       <r>  -2.5481  1.0000</r>
       <r>  -1.5247  1.0000</r>
       <r>  -1.5247  1.0000</r>
       <r>  -1.3195  1.0000</r>
       <r>  -1.3195  1.0000</r>
       <r>  -1.1299  1.0000</r>
       <r>  -1.1299  1.0000</r>
       <r>  -1.0122  1.0000</r>
       <r>  -1.0122  1.0000</r>
       <r>  -0.3166  1.0000</r>
       <r>  -0.3166  1.0000</r>
       <r>  -0.2243  1.0000</r>
       <r>  -0.2243  1.0000</r>
       <r>   0.4898  1.0000</r>
       <r>   0.4898  1.0000</r>
       <r>   0.5132  1.0000</r>
       <r>   0.5132  1.0000</r>
       <r>   1.9420  1.0000</r>
       <r>   1.9420  1.0000</r>
       <r>   4.5926  0.0000</r>
       <r>   4.5926  0.0000</r>
       <r>   7.3260  0.0000</r>
       <r>   7.3260  0.0000</r>
       <r>   9.7273  0.0000</r>
       <r>   9.7273  0.0000</r>
      </set>
      <set comment="kpoint 78">
       <r>  -2.7816  1.0000</r>
       <r>  -2.6638  1.0000</r>
       <r>  -2.6638  1.0000</r>
       <r>  -2.6286  1.0000</r>
       <r>  -1.4665  1.0000</r>
       <r>  -1.4215  1.0000</r>
       <r>  -1.4215  1.0000</r>
       <r>  -1.2539  1.0000</r>
       <r>  -1.2261  1.0000</r>
       <r>  -1.1122  1.0000</r>
       <r>  -1.1122  1.0000</r>
       <r>  -1.0910  1.0000</r>
       <r>  -0.1592  1.0000</r>
       <r>  -0.1592  1.0000</r>
       <r>  -0.1585  1.0000</r>
       <r>   0.2581  1.0000</r>
       <r>   0.3044  1.0000</r>
       <r>   0.5227  1.0000</r>
       <r>   0.5373  1.0000</r>
       <r>   0.5373  1.0000</r>
       <r>   1.5754  1.0000</r>
       <r>   3.4024  1.0000</r>
       <r>   3.4024  1.0000</r>
       <r>   4.2912  0.0000</r>
       <r>   7.2886  0.0000</r>
       <r>   8.1129  0.0000</r>
       <r>   8.1129  0.0000</r>
       <r>   9.6424  0.0000</r>
      </set>
      <set comment="kpoint 79">
       <r>  -2.7500  1.0000</r>
       <r>  -2.7500  1.0000</r>
       <r>  -2.6727  1.0000</r>
       <r>  -2.6727  1.0000</r>
       <r>  -1.4311  1.0000</r>
       <r>  -1.4311  1.0000</r>
       <r>  -1.3256  1.0000</r>
       <r>  -1.3256  1.0000</r>
       <r>  -1.1958  1.0000</r>
       <r>  -1.1958  1.0000</r>
       <r>  -1.1349  1.0000</r>
       <r>  -1.1349  1.0000</r>
       <r>  -0.0430  1.0000</r>
       <r>  -0.0430  1.0000</r>
       <r>   0.0763  1.0000</r>
       <r>   0.0763  1.0000</r>
       <r>   0.4563  1.0000</r>
       <r>   0.4563  1.0000</r>
       <r>   0.4952  1.0000</r>
       <r>   0.4952  1.0000</r>
       <r>   2.4177  1.0000</r>
       <r>   2.4177  1.0000</r>
       <r>   3.8816  0.0000</r>
       <r>   3.8816  0.0000</r>
       <r>   7.5131  0.0000</r>
       <r>   7.5131  0.0000</r>
       <r>   8.8077  0.0000</r>
       <r>   8.8077  0.0000</r>
      </set>
      <set comment="kpoint 80">
       <r>  -2.7414  1.0000</r>
       <r>  -2.7414  1.0000</r>
       <r>  -2.7414  1.0000</r>
       <r>  -2.7414  1.0000</r>
       <r>  -1.3575  1.0000</r>
       <r>  -1.3575  1.0000</r>
       <r>  -1.3575  1.0000</r>
       <r>  -1.3575  1.0000</r>
       <r>  -1.2028  1.0000</r>
       <r>  -1.2028  1.0000</r>
       <r>  -1.2028  1.0000</r>
       <r>  -1.2028  1.0000</r>
       <r>   0.1544  1.0000</r>
       <r>   0.1544  1.0000</r>
       <r>   0.1544  1.0000</r>
       <r>   0.1544  1.0000</r>
       <r>   0.4241  1.0000</r>
       <r>   0.4241  1.0000</r>
       <r>   0.4241  1.0000</r>
       <r>   0.4241  1.0000</r>
       <r>   3.0970  1.0000</r>
       <r>   3.0970  1.0000</r>
       <r>   3.0970  1.0000</r>
       <r>   3.0970  1.0000</r>
       <r>   8.0537  0.0000</r>
       <r>   8.0537  0.0000</r>
       <r>   8.0537  0.0000</r>
       <r>   8.0537  0.0000</r>
      </set>
      <set comment="kpoint 81">
       <r>  -2.8431  1.0000</r>
       <r>  -2.7616  1.0000</r>
       <r>  -2.7616  1.0000</r>
       <r>  -2.7616  1.0000</r>
       <r>  -1.3834  1.0000</r>
       <r>  -1.3834  1.0000</r>
       <r>  -1.3834  1.0000</r>
       <r>  -1.2715  1.0000</r>
       <r>  -1.2715  1.0000</r>
       <r>  -1.2015  1.0000</r>
       <r>  -1.2015  1.0000</r>
       <r>  -1.2015  1.0000</r>
       <r>   0.1252  1.0000</r>
       <r>   0.1252  1.0000</r>
       <r>   0.1252  1.0000</r>
       <r>   0.4508  1.0000</r>
       <r>   0.4508  1.0000</r>
       <r>   0.5645  1.0000</r>
       <r>   0.5645  1.0000</r>
       <r>   0.5645  1.0000</r>
       <r>   1.9718  1.0000</r>
       <r>   3.5310  1.0000</r>
       <r>   3.5310  1.0000</r>
       <r>   3.5310  1.0000</r>
       <r>   7.4613  0.0000</r>
       <r>   7.4613  0.0000</r>
       <r>   7.4613  0.0000</r>
       <r>   8.7273  0.0000</r>
      </set>
      <set comment="kpoint 82">
       <r>  -2.8352  1.0000</r>
       <r>  -2.8352  1.0000</r>
       <r>  -2.7944  1.0000</r>
       <r>  -2.7944  1.0000</r>
       <r>  -1.3675  1.0000</r>
       <r>  -1.3675  1.0000</r>
       <r>  -1.3154  1.0000</r>
       <r>  -1.3154  1.0000</r>
       <r>  -1.2630  1.0000</r>
       <r>  -1.2630  1.0000</r>
       <r>  -1.2344  1.0000</r>
       <r>  -1.2344  1.0000</r>
       <r>   0.2552  1.0000</r>
       <r>   0.2552  1.0000</r>
       <r>   0.3528  1.0000</r>
       <r>   0.3528  1.0000</r>
       <r>   0.5401  1.0000</r>
       <r>   0.5401  1.0000</r>
       <r>   0.5452  1.0000</r>
       <r>   0.5452  1.0000</r>
       <r>   2.6914  1.0000</r>
       <r>   2.6914  1.0000</r>
       <r>   3.5887  0.1221</r>
       <r>   3.5887  0.1221</r>
       <r>   7.2237  0.0000</r>
       <r>   7.2237  0.0000</r>
       <r>   7.9842  0.0000</r>
       <r>   7.9842  0.0000</r>
      </set>
      <set comment="kpoint 83">
       <r>  -2.8497  1.0000</r>
       <r>  -2.8497  1.0000</r>
       <r>  -2.8497  1.0000</r>
       <r>  -2.8497  1.0000</r>
       <r>  -1.3226  1.0000</r>
       <r>  -1.3226  1.0000</r>
       <r>  -1.3226  1.0000</r>
       <r>  -1.3226  1.0000</r>
       <r>  -1.2827  1.0000</r>
       <r>  -1.2827  1.0000</r>
       <r>  -1.2827  1.0000</r>
       <r>  -1.2827  1.0000</r>
       <r>   0.4472  1.0000</r>
       <r>   0.4472  1.0000</r>
       <r>   0.4472  1.0000</r>
       <r>   0.4472  1.0000</r>
       <r>   0.5230  1.0000</r>
       <r>   0.5230  1.0000</r>
       <r>   0.5230  1.0000</r>
       <r>   0.5230  1.0000</r>
       <r>   3.1291  1.0000</r>
       <r>   3.1291  1.0000</r>
       <r>   3.1291  1.0000</r>
       <r>   3.1291  1.0000</r>
       <r>   7.4219  0.0000</r>
       <r>   7.4219  0.0000</r>
       <r>   7.4219  0.0000</r>
       <r>   7.4219  0.0000</r>
      </set>
      <set comment="kpoint 84">
       <r>  -2.8861  1.0000</r>
       <r>  -2.8861  1.0000</r>
       <r>  -2.8861  1.0000</r>
       <r>  -2.8861  1.0000</r>
       <r>  -1.3099  1.0000</r>
       <r>  -1.3099  1.0000</r>
       <r>  -1.3099  1.0000</r>
       <r>  -1.3099  1.0000</r>
       <r>  -1.3099  1.0000</r>
       <r>  -1.3099  1.0000</r>
       <r>  -1.3099  1.0000</r>
       <r>  -1.3099  1.0000</r>
       <r>   0.5572  1.0000</r>
       <r>   0.5572  1.0000</r>
       <r>   0.5572  1.0000</r>
       <r>   0.5572  1.0000</r>
       <r>   0.5572  1.0000</r>
       <r>   0.5572  1.0000</r>
       <r>   0.5572  1.0000</r>
       <r>   0.5572  1.0000</r>
       <r>   3.1429  1.0000</r>
       <r>   3.1429  1.0000</r>
       <r>   3.1429  1.0000</r>
       <r>   3.1429  1.0000</r>
       <r>   7.1954  0.0000</r>
       <r>   7.1954  0.0000</r>
       <r>   7.1954  0.0000</r>
       <r>   7.1954  0.0000</r>
      </set>
     </set>
    </set>
   </array>
  </eigenvalues>
 </calculation>
 <structure name="finalpos" >
  <crystal>
   <varray name="basis" >
    <v>       4.07996029      0.00000000      0.00000000</v>
    <v>       0.00000000      4.07996029      0.00000000</v>
    <v>       0.00000000      0.00000000      4.07996029</v>
   </varray>
   <i name="volume">     67.91532873</i>
   <varray name="rec_basis" >
    <v>       0.24510042      0.00000000      0.00000000</v>
    <v>       0.00000000      0.24510042      0.00000000</v>
    <v>       0.00000000      0.00000000      0.24510042</v>
   </varray>
  </crystal>
  <varray name="positions" >
   <v>       0.00000000      0.00000000      0.00000000</v>
   <v>       0.50000000      0.50000000      0.00000000</v>
   <v>       0.50000000      0.00000000      0.50000000</v>
   <v>       0.00000000      0.50000000      0.50000000</v>
  </varray>
 </structure>
</modeling>
