   4   4   0   0
  0.1431786E+02  0.3854601E-09  0.3854601E-09  0.3854601E-09  0.5000000E-15
  1.000000000000000E-004
  CAR 
 unknown system                          
     11.73342408     -6.51035793  301      2.29165823      1.00000000
     -6.510  0.0000E+00  0.0000E+00
     -6.450  0.0000E+00  0.0000E+00
     -6.389  0.0000E+00  0.0000E+00
     -6.328  0.0000E+00  0.0000E+00
     -6.267  0.0000E+00  0.0000E+00
     -6.206  0.0000E+00  0.0000E+00
     -6.145  0.0000E+00  0.0000E+00
     -6.085  0.0000E+00  0.0000E+00
     -6.024  0.0000E+00  0.0000E+00
     -5.963  0.0000E+00  0.0000E+00
     -5.902  0.0000E+00  0.0000E+00
     -5.841  0.0000E+00  0.0000E+00
     -5.781  0.0000E+00  0.0000E+00
     -5.720  0.4214E-09  0.2563E-10
     -5.659  0.1902E-01  0.1156E-02
     -5.598  0.1034E+00  0.7444E-02
     -5.537  0.8399E-01  0.1255E-01
     -5.477  0.1573E+00  0.2212E-01
     -5.416  0.1502E+00  0.3125E-01
     -5.355  0.1142E+00  0.3819E-01
     -5.294  0.4561E+00  0.6593E-01
     -5.233  0.4171E+00  0.9134E-01
     -5.172  0.3969E-01  0.9375E-01
     -5.112  0.7841E-02  0.9423E-01
     -5.051  0.2208E+00  0.1077E+00
     -4.990  0.5707E+00  0.1424E+00
     -4.929  0.4567E+00  0.1701E+00
     -4.868  0.4513E+00  0.1976E+00
     -4.808  0.1379E+00  0.2060E+00
     -4.747  0.1589E+00  0.2156E+00
     -4.686  0.3576E+00  0.2374E+00
     -4.625  0.8737E+00  0.2905E+00
     -4.564  0.1987E-06  0.2905E+00
     -4.504  0.1142E+00  0.2975E+00
     -4.443  0.9123E+00  0.3529E+00
     -4.382  0.6613E+00  0.3932E+00
     -4.321  0.4208E+00  0.4188E+00
     -4.260  0.2240E+00  0.4324E+00
     -4.199  0.4107E+00  0.4574E+00
     -4.139  0.8634E+00  0.5099E+00
     -4.078  0.3888E+00  0.5336E+00
     -4.017  0.4477E-03  0.5336E+00
     -3.956  0.4563E+00  0.5613E+00
     -3.895  0.5709E+00  0.5961E+00
     -3.835  0.1369E+01  0.6793E+00
     -3.774  0.6049E+00  0.7162E+00
     -3.713  0.4044E-02  0.7164E+00
     -3.652  0.1320E+01  0.7967E+00
     -3.591  0.8437E+00  0.8481E+00
     -3.531  0.1195E+00  0.8553E+00
     -3.470  0.1435E+00  0.8641E+00
     -3.409  0.8809E+00  0.9176E+00
     -3.348  0.7554E+00  0.9636E+00
     -3.287  0.8950E+00  0.1018E+01
     -3.226  0.8325E+00  0.1069E+01
     -3.166  0.3578E+00  0.1090E+01
     -3.105  0.1399E+01  0.1175E+01
     -3.044  0.1023E+00  0.1182E+01
     -2.983  0.8342E+00  0.1232E+01
     -2.922  0.1336E+01  0.1314E+01
     -2.862  0.1469E+01  0.1403E+01
     -2.801  0.1431E-01  0.1404E+01
     -2.740  0.1340E+01  0.1485E+01
     -2.679  0.5417E+00  0.1518E+01
     -2.618  0.1011E+01  0.1580E+01
     -2.558  0.5097E+00  0.1611E+01
     -2.497  0.1470E+01  0.1700E+01
     -2.436  0.7686E+00  0.1747E+01
     -2.375  0.7916E+00  0.1795E+01
     -2.314  0.2465E+01  0.1945E+01
     -2.253  0.1646E+01  0.2045E+01
     -2.193  0.1370E+01  0.2128E+01
     -2.132  0.4907E+00  0.2158E+01
     -2.071  0.1776E+01  0.2266E+01
     -2.010  0.9858E+00  0.2326E+01
     -1.949  0.1946E+01  0.2445E+01
     -1.889  0.3934E+01  0.2684E+01
     -1.828  0.1721E+01  0.2789E+01
     -1.767  0.3256E+01  0.2987E+01
     -1.706  0.3815E+01  0.3219E+01
     -1.645  0.2610E+01  0.3377E+01
     -1.585  0.4210E+01  0.3633E+01
     -1.524  0.6763E+01  0.4045E+01
     -1.463  0.5280E+01  0.4366E+01
     -1.402  0.5121E+01  0.4677E+01
     -1.341  0.6774E+01  0.5089E+01
     -1.280  0.6263E+01  0.5470E+01
     -1.220  0.5965E+01  0.5833E+01
     -1.159  0.1038E+02  0.6464E+01
     -1.098  0.1098E+02  0.7132E+01
     -1.037  0.9824E+01  0.7730E+01
     -0.976  0.1305E+02  0.8523E+01
     -0.916  0.1172E+02  0.9236E+01
     -0.855  0.1112E+02  0.9912E+01
     -0.794  0.1069E+02  0.1056E+02
     -0.733  0.1134E+02  0.1125E+02
     -0.672  0.1161E+02  0.1196E+02
     -0.612  0.8372E+01  0.1247E+02
     -0.551  0.1686E+02  0.1349E+02
     -0.490  0.1296E+02  0.1428E+02
     -0.429  0.1588E+02  0.1525E+02
     -0.368  0.1647E+02  0.1625E+02
     -0.307  0.1957E+02  0.1744E+02
     -0.247  0.1923E+02  0.1861E+02
     -0.186  0.2190E+02  0.1994E+02
     -0.125  0.2191E+02  0.2127E+02
     -0.064  0.2888E+02  0.2303E+02
     -0.003  0.1803E+02  0.2413E+02
      0.057  0.1546E+02  0.2507E+02
      0.118  0.1299E+02  0.2586E+02
      0.179  0.1468E+02  0.2675E+02
      0.240  0.1557E+02  0.2770E+02
      0.301  0.2065E+02  0.2895E+02
      0.361  0.2016E+02  0.3018E+02
      0.422  0.1994E+02  0.3139E+02
      0.483  0.1866E+02  0.3253E+02
      0.544  0.1768E+02  0.3360E+02
      0.605  0.1639E+02  0.3460E+02
      0.666  0.1943E+02  0.3578E+02
      0.726  0.2211E+02  0.3712E+02
      0.787  0.2710E+02  0.3877E+02
      0.848  0.3186E+02  0.4071E+02
      0.909  0.1696E+02  0.4174E+02
      0.970  0.3651E+01  0.4196E+02
      1.030  0.1212E+01  0.4204E+02
      1.091  0.6132E+00  0.4208E+02
      1.152  0.3196E+01  0.4227E+02
      1.213  0.2499E+01  0.4242E+02
      1.274  0.1262E+01  0.4250E+02
      1.334  0.7028E+00  0.4254E+02
      1.395  0.1664E+01  0.4264E+02
      1.456  0.1899E+01  0.4276E+02
      1.517  0.1913E+01  0.4287E+02
      1.578  0.2918E+01  0.4305E+02
      1.639  0.2818E+00  0.4307E+02
      1.699  0.1524E+01  0.4316E+02
      1.760  0.1212E+01  0.4323E+02
      1.821  0.1787E-01  0.4324E+02
      1.882  0.2057E+01  0.4336E+02
      1.943  0.1888E+01  0.4348E+02
      2.003  0.2354E+01  0.4362E+02
      2.064  0.1652E+01  0.4372E+02
      2.125  0.9598E+00  0.4378E+02
      2.186  0.2315E+01  0.4392E+02
      2.247  0.3278E+00  0.4394E+02
      2.307  0.1498E+01  0.4403E+02
      2.368  0.5461E+00  0.4406E+02
      2.429  0.4881E-01  0.4407E+02
      2.490  0.1275E+01  0.4414E+02
      2.551  0.3061E+01  0.4433E+02
      2.612  0.2391E+01  0.4448E+02
      2.672  0.2179E+00  0.4449E+02
      2.733  0.1746E+01  0.4459E+02
      2.794  0.1378E+01  0.4468E+02
      2.855  0.8893E+00  0.4473E+02
      2.916  0.1183E-01  0.4473E+02
      2.976  0.1815E+01  0.4484E+02
      3.037  0.6703E+00  0.4488E+02
      3.098  0.2925E+01  0.4506E+02
      3.159  0.5938E-01  0.4507E+02
      3.220  0.4645E+00  0.4509E+02
      3.280  0.1962E+01  0.4521E+02
      3.341  0.8517E+00  0.4527E+02
      3.402  0.1519E+01  0.4536E+02
      3.463  0.1109E+01  0.4543E+02
      3.524  0.1694E+01  0.4553E+02
      3.585  0.1677E+01  0.4563E+02
      3.645  0.5041E+00  0.4566E+02
      3.706  0.9931E+00  0.4572E+02
      3.767  0.5295E+00  0.4575E+02
      3.828  0.4341E+00  0.4578E+02
      3.889  0.2721E+01  0.4595E+02
      3.949  0.7233E-01  0.4595E+02
      4.010  0.1248E+01  0.4603E+02
      4.071  0.1500E+00  0.4603E+02
      4.132  0.1339E+01  0.4612E+02
      4.193  0.2758E+01  0.4628E+02
      4.253  0.1008E+01  0.4635E+02
      4.314  0.8317E+00  0.4640E+02
      4.375  0.1686E+00  0.4641E+02
      4.436  0.2084E+01  0.4653E+02
      4.497  0.5126E+00  0.4656E+02
      4.558  0.9291E+00  0.4662E+02
      4.618  0.6449E+00  0.4666E+02
      4.679  0.2920E-02  0.4666E+02
      4.740  0.2152E+01  0.4679E+02
      4.801  0.2086E+00  0.4680E+02
      4.862  0.8486E+00  0.4686E+02
      4.922  0.8985E+00  0.4691E+02
      4.983  0.2712E-04  0.4691E+02
      5.044  0.1925E+01  0.4703E+02
      5.105  0.1193E+01  0.4710E+02
      5.166  0.5364E+00  0.4713E+02
      5.226  0.4924E+00  0.4716E+02
      5.287  0.1874E+01  0.4728E+02
      5.348  0.1080E+01  0.4734E+02
      5.409  0.1384E+01  0.4743E+02
      5.470  0.2552E+00  0.4744E+02
      5.531  0.7712E+00  0.4749E+02
      5.591  0.2315E+01  0.4763E+02
      5.652  0.1234E+01  0.4770E+02
      5.713  0.2398E+01  0.4785E+02
      5.774  0.4164E+00  0.4788E+02
      5.835  0.4542E+00  0.4790E+02
      5.895  0.9132E+00  0.4796E+02
      5.956  0.1284E+01  0.4804E+02
      6.017  0.1113E+01  0.4810E+02
      6.078  0.9919E+00  0.4816E+02
      6.139  0.1448E+01  0.4825E+02
      6.199  0.1295E+01  0.4833E+02
      6.260  0.1871E+01  0.4844E+02
      6.321  0.1361E+01  0.4853E+02
      6.382  0.9017E-02  0.4853E+02
      6.443  0.2192E+01  0.4866E+02
      6.504  0.1739E+01  0.4877E+02
      6.564  0.1643E-01  0.4877E+02
      6.625  0.9808E+00  0.4883E+02
      6.686  0.8496E+00  0.4888E+02
      6.747  0.9302E+00  0.4894E+02
      6.808  0.5167E+00  0.4897E+02
      6.868  0.6613E+00  0.4901E+02
      6.929  0.3463E+01  0.4922E+02
      6.990  0.1024E+01  0.4928E+02
      7.051  0.9390E+00  0.4934E+02
      7.112  0.1917E+00  0.4935E+02
      7.172  0.4934E+00  0.4938E+02
      7.233  0.4572E+00  0.4941E+02
      7.294  0.2081E+01  0.4953E+02
      7.355  0.3099E+00  0.4955E+02
      7.416  0.1216E+00  0.4956E+02
      7.477  0.1370E+01  0.4964E+02
      7.537  0.7455E+00  0.4969E+02
      7.598  0.1975E+01  0.4981E+02
      7.659  0.2477E+00  0.4982E+02
      7.720  0.1353E+01  0.4991E+02
      7.781  0.9061E+00  0.4996E+02
      7.841  0.9380E+00  0.5002E+02
      7.902  0.1142E+01  0.5009E+02
      7.963  0.1228E+01  0.5016E+02
      8.024  0.1423E+00  0.5017E+02
      8.085  0.1917E-03  0.5017E+02
      8.145  0.7613E+00  0.5022E+02
      8.206  0.7927E+00  0.5027E+02
      8.267  0.2899E+01  0.5044E+02
      8.328  0.4689E+00  0.5047E+02
      8.389  0.6839E+00  0.5051E+02
      8.450  0.8376E+00  0.5056E+02
      8.510  0.4617E+00  0.5059E+02
      8.571  0.2885E+00  0.5061E+02
      8.632  0.1479E+01  0.5070E+02
      8.693  0.6731E+00  0.5074E+02
      8.754  0.1271E+01  0.5082E+02
      8.814  0.9165E+00  0.5087E+02
      8.875  0.2302E+00  0.5089E+02
      8.936  0.2424E+01  0.5103E+02
      8.997  0.2010E+01  0.5116E+02
      9.058  0.9168E+00  0.5121E+02
      9.118  0.8882E+00  0.5127E+02
      9.179  0.1599E+01  0.5136E+02
      9.240  0.1371E+01  0.5145E+02
      9.301  0.1532E+01  0.5154E+02
      9.362  0.9472E+00  0.5160E+02
      9.423  0.2610E+00  0.5161E+02
      9.483  0.9734E+00  0.5167E+02
      9.544  0.1686E+00  0.5168E+02
      9.605  0.4576E+00  0.5171E+02
      9.666  0.9127E+00  0.5177E+02
      9.727  0.4995E+00  0.5180E+02
      9.787  0.1856E+00  0.5181E+02
      9.848  0.4568E+00  0.5184E+02
      9.909  0.2278E+00  0.5185E+02
      9.970  0.8879E+00  0.5190E+02
     10.031  0.7168E-01  0.5191E+02
     10.091  0.4107E+00  0.5193E+02
     10.152  0.4321E-03  0.5193E+02
     10.213  0.7606E+00  0.5198E+02
     10.274  0.0000E+00  0.5198E+02
     10.335  0.0000E+00  0.5198E+02
     10.396  0.8324E-12  0.5198E+02
     10.456  0.2192E+00  0.5199E+02
     10.517  0.9182E-02  0.5199E+02
     10.578  0.0000E+00  0.5199E+02
     10.639  0.0000E+00  0.5199E+02
     10.700  0.0000E+00  0.5199E+02
     10.760  0.0000E+00  0.5199E+02
     10.821  0.0000E+00  0.5199E+02
     10.882  0.1007E-03  0.5199E+02
     10.943  0.1141E+00  0.5200E+02
     11.004  0.0000E+00  0.5200E+02
     11.064  0.0000E+00  0.5200E+02
     11.125  0.0000E+00  0.5200E+02
     11.186  0.0000E+00  0.5200E+02
     11.247  0.0000E+00  0.5200E+02
     11.308  0.0000E+00  0.5200E+02
     11.369  0.0000E+00  0.5200E+02
     11.429  0.0000E+00  0.5200E+02
     11.490  0.0000E+00  0.5200E+02
     11.551  0.0000E+00  0.5200E+02
     11.612  0.0000E+00  0.5200E+02
     11.673  0.0000E+00  0.5200E+02
     11.733  0.0000E+00  0.5200E+02
