    4    4    1    1
  0.1431786E+02  0.3854601E-09  0.3854601E-09  0.3854601E-09  0.5000000E-15
  1.000000000000000E-004
  CAR 
 unknown system                          
   44   84   26
 
  0.0000000E+00  0.0000000E+00  0.0000000E+00  0.5787037E-03
   1       -5.6811
   2       -1.5904
   3       -1.5904
   4       -1.5904
   5       -1.2491
   6       -1.2491
   7       -1.2491
   8       -0.2215
   9       -0.2215
  10       -0.2215
  11        0.3919
  12        0.3919
  13        0.8009
  14        0.8009
  15        0.8009
  16        0.9152
  17        0.9152
  18        0.9152
  19        0.9152
  20        0.9152
  21        0.9152
  22        3.9490
  23        3.9490
  24        3.9490
  25        8.1629
  26        8.1629
 
  0.8333333E-01  0.0000000E+00  0.0000000E+00  0.3472222E-02
   1       -5.6075
   2       -1.5937
   3       -1.5592
   4       -1.5592
   5       -1.2322
   6       -1.2312
   7       -1.2312
   8       -0.2396
   9       -0.2064
  10       -0.2064
  11        0.3755
  12        0.3987
  13        0.7797
  14        0.7797
  15        0.7938
  16        0.8168
  17        0.8168
  18        0.8900
  19        0.8900
  20        0.9152
  21        0.9152
  22        3.4172
  23        4.1157
  24        4.1157
  25        8.1957
  26        8.1957
 
  0.1666667E+00  0.0000000E+00  0.0000000E+00  0.3472222E-02
   1       -5.3878
   2       -1.6185
   3       -1.4702
   4       -1.4702
   5       -1.1826
   6       -1.1769
   7       -1.1769
   8       -0.2926
   9       -0.1616
  10       -0.1616
  11        0.3281
  12        0.4188
  13        0.5728
  14        0.5728
  15        0.7181
  16        0.7181
  17        0.7730
  18        0.8177
  19        0.8177
  20        0.9153
  21        0.9153
  22        2.3669
  23        4.5641
  24        4.5641
  25        8.2967
  26        8.2967
 
  0.2500000E+00  0.0000000E+00  0.0000000E+00  0.3472222E-02
   1       -5.0262
   2       -1.7188
   3       -1.3374
   4       -1.3374
   5       -1.1032
   6       -1.0854
   7       -1.0854
   8       -0.3765
   9       -0.0882
  10       -0.0882
  11        0.2559
  12        0.2690
  13        0.2690
  14        0.4509
  15        0.6228
  16        0.6228
  17        0.7073
  18        0.7073
  19        0.7401
  20        0.9154
  21        0.9154
  22        1.3324
  23        5.2075
  24        5.2075
  25        8.4736
  26        8.4736
 
  0.3333333E+00  0.0000000E+00  0.0000000E+00  0.3472222E-02
   1       -4.5315
   2       -2.0023
   3       -1.1868
   4       -1.1868
   5       -0.9991
   6       -0.9553
   7       -0.9553
   8       -0.4852
   9       -0.0391
  10       -0.0391
  11        0.0115
  12        0.0115
  13        0.1707
  14        0.4928
  15        0.5099
  16        0.5099
  17        0.5637
  18        0.5711
  19        0.5711
  20        0.6973
  21        0.9156
  22        0.9156
  23        5.9882
  24        5.9882
  25        8.7380
  26        8.7380
 
  0.4166667E+00  0.0000000E+00  0.0000000E+00  0.3472222E-02
   1       -3.9209
   2       -2.5414
   3       -1.0598
   4       -1.0598
   5       -0.8768
   6       -0.7852
   7       -0.7852
   8       -0.6108
   9       -0.3242
  10       -0.3242
  11        0.0938
  12        0.1338
  13        0.1338
  14        0.1734
  15        0.4106
  16        0.4106
  17        0.4224
  18        0.4224
  19        0.5419
  20        0.6477
  21        0.9157
  22        0.9157
  23        6.8762
  24        6.8762
  25        8.9165
  26        8.9165
 
  0.5000000E+00  0.0000000E+00  0.0000000E+00  0.1736111E-02
   1       -3.2305
   2       -3.2305
   3       -1.0082
   4       -1.0082
   5       -0.7444
   6       -0.7444
   7       -0.5745
   8       -0.5745
   9       -0.5745
  10       -0.5745
  11        0.0664
  12        0.0664
  13        0.2733
  14        0.2733
  15        0.2733
  16        0.2733
  17        0.3691
  18        0.3691
  19        0.5947
  20        0.5947
  21        0.9157
  22        0.9157
  23        7.8557
  24        7.8557
  25        7.8557
  26        7.8557
 
  0.8333333E-01  0.8333333E-01  0.0000000E+00  0.6944444E-02
   1       -5.5341
   2       -1.5617
   3       -1.5617
   4       -1.5290
   5       -1.2146
   6       -1.2146
   7       -1.2137
   8       -0.2493
   9       -0.1994
  10       -0.1928
  11        0.3711
  12        0.3950
  13        0.7436
  14        0.7508
  15        0.7508
  16        0.7594
  17        0.8087
  18        0.8087
  19        0.8899
  20        0.8899
  21        0.8988
  22        3.5779
  23        3.5779
  24        4.2736
  25        8.2292
  26        8.8926
 
  0.1666667E+00  0.8333333E-01  0.0000000E+00  0.1388889E-01
   1       -5.3152
   2       -1.5837
   3       -1.4702
   4       -1.4425
   5       -1.1659
   6       -1.1614
   7       -1.1611
   8       -0.2969
   9       -0.1589
  10       -0.1528
  11        0.3302
  12        0.4135
  13        0.5221
  14        0.5263
  15        0.6640
  16        0.7003
  17        0.7260
  18        0.7840
  19        0.8175
  20        0.8898
  21        0.8901
  22        2.5353
  23        3.9997
  24        4.7045
  25        8.3323
  26        9.0252
 
  0.2500000E+00  0.8333333E-01  0.0000000E+00  0.1388889E-01
   1       -4.9551
   2       -1.6791
   3       -1.3332
   4       -1.3133
   5       -1.0881
   6       -1.0730
   7       -1.0716
   8       -0.3778
   9       -0.0894
  10       -0.0868
  11        0.2194
  12        0.2414
  13        0.2642
  14        0.4493
  15        0.5109
  16        0.6086
  17        0.6298
  18        0.7069
  19        0.7417
  20        0.8881
  21        0.8896
  22        1.5467
  23        4.5877
  24        5.3316
  25        8.5127
  26        9.2553
 
  0.3333333E+00  0.8333333E-01  0.0000000E+00  0.1388889E-01
   1       -4.4626
   2       -1.9555
   3       -1.1769
   4       -1.1648
   5       -0.9861
   6       -0.9507
   7       -0.9441
   8       -0.4837
   9       -0.0840
  10       -0.0532
  11       -0.0162
  12        0.0121
  13        0.1997
  14        0.2719
  15        0.4970
  16        0.5000
  17        0.5167
  18        0.5706
  19        0.6680
  20        0.8878
  21        0.8893
  22        0.9068
  23        5.2855
  24        6.0998
  25        8.7781
  26        8.8992
 
  0.4166667E+00  0.8333333E-01  0.0000000E+00  0.1388889E-01
   1       -3.8552
   2       -2.4870
   3       -1.0428
   4       -1.0359
   5       -0.8664
   6       -0.7956
   7       -0.7777
   8       -0.6063
   9       -0.3614
  10       -0.3287
  11        0.0093
  12        0.0569
  13        0.1340
  14        0.2127
  15        0.4055
  16        0.4155
  17        0.4220
  18        0.5015
  19        0.5537
  20        0.6955
  21        0.8881
  22        0.8890
  23        6.0680
  24        6.9789
  25        7.8670
  26        9.0086
 
  0.5000000E+00  0.8333333E-01  0.0000000E+00  0.6944444E-02
   1       -3.1696
   2       -3.1696
   3       -0.9850
   4       -0.9850
   5       -0.7369
   6       -0.7369
   7       -0.6007
   8       -0.6007
   9       -0.5720
  10       -0.5720
  11       -0.0070
  12       -0.0070
  13        0.2731
  14        0.2731
  15        0.3316
  16        0.3316
  17        0.3696
  18        0.3696
  19        0.6174
  20        0.6174
  21        0.8885
  22        0.8885
  23        6.9276
  24        6.9276
  25        7.9521
  26        7.9521
 
  0.1666667E+00  0.1666667E+00  0.0000000E+00  0.6944444E-02
   1       -5.0988
   2       -1.4841
   3       -1.4841
   4       -1.3638
   5       -1.1157
   6       -1.1157
   7       -1.1133
   8       -0.3248
   9       -0.1350
  10       -0.1272
  11        0.3156
  12        0.3790
  13        0.3951
  14        0.3951
  15        0.4201
  16        0.6480
  17        0.7234
  18        0.7234
  19        0.8169
  20        0.8169
  21        0.8503
  22        2.9440
  23        2.9440
  24        5.0974
  25        8.4418
  26        9.8681
 
  0.2500000E+00  0.1666667E+00  0.0000000E+00  0.1388889E-01
   1       -4.7432
   2       -1.5648
   3       -1.3339
   4       -1.2460
   5       -1.0428
   6       -1.0346
   7       -1.0311
   8       -0.3893
   9       -0.0898
  10       -0.0744
  11        0.0905
  12        0.1545
  13        0.2103
  14        0.2692
  15        0.4624
  16        0.5664
  17        0.6324
  18        0.6905
  19        0.7058
  20        0.8160
  21        0.8276
  22        1.9603
  23        3.4808
  24        5.6860
  25        8.6212
  26        8.6356
 
  0.3333333E+00  0.1666667E+00  0.0000000E+00  0.1388889E-01
   1       -4.2577
   2       -1.8206
   3       -1.1594
   4       -1.1057
   5       -0.9473
   6       -0.9330
   7       -0.9114
   8       -0.4828
   9       -0.2000
  10       -0.0977
  11       -0.0606
  12        0.0066
  13        0.0185
  14        0.2306
  15        0.4693
  16        0.5222
  17        0.5289
  18        0.5695
  19        0.6187
  20        0.8149
  21        0.8178
  22        1.2694
  23        4.1042
  24        6.4232
  25        7.4971
  26        8.9175
 
  0.4166667E+00  0.1666667E+00  0.0000000E+00  0.1388889E-01
   1       -3.6609
   2       -2.3288
   3       -1.0022
   4       -0.9693
   5       -0.8356
   6       -0.8235
   7       -0.7561
   8       -0.5946
   9       -0.4583
  10       -0.3435
  11       -0.1133
  12       -0.0770
  13        0.1368
  14        0.2593
  15        0.3873
  16        0.4191
  17        0.4214
  18        0.5006
  19        0.6137
  20        0.8139
  21        0.8141
  22        0.9018
  23        4.8074
  24        6.4908
  25        7.2789
  26        9.2933
 
  0.5000000E+00  0.1666667E+00  0.0000000E+00  0.6944444E-02
   1       -2.9906
   2       -2.9906
   3       -0.9203
   4       -0.9203
   5       -0.7152
   6       -0.7152
   7       -0.6731
   8       -0.6731
   9       -0.5657
  10       -0.5657
  11       -0.1193
  12       -0.1193
  13        0.2738
  14        0.2738
  15        0.3629
  16        0.3629
  17        0.3643
  18        0.3643
  19        0.7239
  20        0.7239
  21        0.8134
  22        0.8134
  23        5.5984
  24        5.5984
  25        8.2351
  26        8.2351
 
  0.2500000E+00  0.2500000E+00  0.0000000E+00  0.6944444E-02
   1       -4.3957
   2       -1.3913
   3       -1.3913
   4       -1.1487
   5       -0.9690
   6       -0.9668
   7       -0.9668
   8       -0.4259
   9       -0.0874
  10       -0.0797
  11       -0.0797
  12       -0.0341
  13        0.0088
  14        0.2436
  15        0.4988
  16        0.5196
  17        0.6062
  18        0.6062
  19        0.7045
  20        0.7045
  21        0.7711
  22        2.4504
  23        2.4504
  24        6.2318
  25        7.3554
  26        8.8411
 
  0.3333333E+00  0.2500000E+00  0.0000000E+00  0.1388889E-01
   1       -3.9233
   2       -1.6149
   3       -1.1862
   4       -1.0345
   5       -0.8878
   6       -0.8829
   7       -0.8600
   8       -0.4924
   9       -0.3383
  10       -0.2227
  11       -0.1759
  12       -0.0958
  13        0.0419
  14        0.2148
  15        0.4169
  16        0.5016
  17        0.5394
  18        0.5686
  19        0.6157
  20        0.7033
  21        0.7348
  22        1.6739
  23        3.0068
  24        6.2238
  25        6.9311
  26        9.1489
 
  0.4166667E+00  0.2500000E+00  0.0000000E+00  0.1388889E-01
   1       -3.3462
   2       -2.0831
   3       -0.9913
   4       -0.9047
   5       -0.8310
   6       -0.7857
   7       -0.7229
   8       -0.5813
   9       -0.5606
  10       -0.3719
  11       -0.2619
  12       -0.1416
  13        0.1490
  14        0.2361
  15        0.3495
  16        0.4000
  17        0.4225
  18        0.4345
  19        0.7035
  20        0.7154
  21        0.7428
  22        1.1903
  23        3.6423
  24        5.2330
  25        7.7563
  26        9.5701
 
  0.5000000E+00  0.2500000E+00  0.0000000E+00  0.6944444E-02
   1       -2.7055
   2       -2.7055
   3       -0.8614
   4       -0.8614
   5       -0.7467
   6       -0.7467
   7       -0.6823
   8       -0.6823
   9       -0.5583
  10       -0.5583
  11       -0.2141
  12       -0.2141
  13        0.2790
  14        0.2790
  15        0.3193
  16        0.3193
  17        0.3389
  18        0.3389
  19        0.7066
  20        0.7066
  21        0.9156
  22        0.9156
  23        4.3775
  24        4.3775
  25        8.6896
  26        8.6896
 
  0.3333333E+00  0.3333333E+00  0.0000000E+00  0.6944444E-02
   1       -3.4720
   2       -1.3708
   3       -1.3708
   4       -0.9813
   5       -0.8074
   6       -0.7939
   7       -0.7939
   8       -0.5223
   9       -0.4124
  10       -0.4124
  11       -0.2861
  12       -0.1292
  13        0.0944
  14        0.1793
  15        0.3491
  16        0.4410
  17        0.4410
  18        0.5695
  19        0.5695
  20        0.6643
  21        0.7491
  22        2.1353
  23        2.1353
  24        5.1014
  25        7.5940
  26        9.4874
 
  0.4166667E+00  0.3333333E+00  0.0000000E+00  0.1388889E-01
   1       -2.9285
   2       -1.7811
   3       -1.1399
   4       -0.9542
   5       -0.7255
   6       -0.7192
   7       -0.6826
   8       -0.5746
   9       -0.5583
  10       -0.4174
  11       -0.3768
  12       -0.1894
  13        0.1804
  14        0.1804
  15        0.2908
  16        0.3443
  17        0.3449
  18        0.4287
  19        0.5748
  20        0.6163
  21        0.9234
  22        1.5361
  23        2.6794
  24        4.1400
  25        8.3883
  26        9.9449
 
  0.5000000E+00  0.3333333E+00  0.0000000E+00  0.6944444E-02
   1       -2.3381
   2       -2.3381
   3       -0.9900
   4       -0.9900
   5       -0.6564
   6       -0.6564
   7       -0.6432
   8       -0.6432
   9       -0.5541
  10       -0.5541
  11       -0.2836
  12       -0.2836
  13        0.2438
  14        0.2438
  15        0.2841
  16        0.2841
  17        0.2950
  18        0.2950
  19        0.5886
  20        0.5886
  21        1.1635
  22        1.1635
  23        3.3381
  24        3.3381
  25        9.2969
  26        9.2969
 
  0.4166667E+00  0.4166667E+00  0.0000000E+00  0.6944444E-02
   1       -2.4389
   2       -1.4737
   3       -1.4737
   4       -1.0537
   5       -0.6410
   6       -0.6410
   7       -0.6116
   8       -0.5817
   9       -0.4810
  10       -0.4586
  11       -0.4586
  12       -0.2456
  13        0.1458
  14        0.2300
  15        0.2397
  16        0.2579
  17        0.2579
  18        0.4452
  19        0.4452
  20        0.5349
  21        1.1566
  22        1.9633
  23        1.9633
  24        3.2326
  25        9.1546
  26       10.4440
 
  0.5000000E+00  0.4166667E+00  0.0000000E+00  0.6944444E-02
   1       -1.9300
   2       -1.9300
   3       -1.2207
   4       -1.2207
   5       -0.6051
   6       -0.6051
   7       -0.5584
   8       -0.5584
   9       -0.5255
  10       -0.5255
  11       -0.3394
  12       -0.3394
  13        0.1758
  14        0.1758
  15        0.2107
  16        0.2107
  17        0.3297
  18        0.3297
  19        0.4785
  20        0.4785
  21        1.4794
  22        1.4794
  23        2.5144
  24        2.5144
  25       10.0397
  26       10.0397
 
  0.5000000E+00  0.5000000E+00  0.0000000E+00  0.1736111E-02
   1       -1.5395
   2       -1.5395
   3       -1.5395
   4       -1.5395
   5       -0.5753
   6       -0.5753
   7       -0.5753
   8       -0.5753
   9       -0.4134
  10       -0.4134
  11       -0.4134
  12       -0.4134
  13        0.1604
  14        0.1604
  15        0.1604
  16        0.1604
  17        0.3902
  18        0.3902
  19        0.3902
  20        0.3902
  21        1.9089
  22        1.9089
  23        1.9089
  24        1.9089
  25       10.9042
  26       10.9042
 
  0.8333333E-01  0.8333333E-01  0.8333333E-01  0.4629630E-02
   1       -5.4609
   2       -1.5307
   3       -1.5307
   4       -1.5307
   5       -1.1974
   6       -1.1974
   7       -1.1974
   8       -0.2583
   9       -0.1867
  10       -0.1867
  11        0.3798
  12        0.3798
  13        0.7091
  14        0.7091
  15        0.7091
  16        0.7408
  17        0.7408
  18        0.7408
  19        0.8868
  20        0.8868
  21        0.8868
  22        3.7279
  23        3.7279
  24        3.7279
  25        8.9365
  26        8.9365
 
  0.1666667E+00  0.8333333E-01  0.8333333E-01  0.1388889E-01
   1       -5.2429
   2       -1.5504
   3       -1.4422
   4       -1.4422
   5       -1.1496
   6       -1.1457
   7       -1.1457
   8       -0.3013
   9       -0.1522
  10       -0.1491
  11        0.3367
  12        0.4053
  13        0.4815
  14        0.4815
  15        0.6042
  16        0.6847
  17        0.6881
  18        0.6881
  19        0.8545
  20        0.8790
  21        0.8790
  22        2.6840
  23        4.1290
  24        4.1290
  25        9.0712
  26        9.0712
 
  0.2500000E+00  0.8333333E-01  0.8333333E-01  0.1388889E-01
   1       -4.8844
   2       -1.6414
   3       -1.3096
   4       -1.3096
   5       -1.0730
   6       -1.0591
   7       -1.0591
   8       -0.3786
   9       -0.0907
  10       -0.0871
  11        0.1953
  12        0.1953
  13        0.2762
  14        0.4219
  15        0.4457
  16        0.5943
  17        0.6041
  18        0.6041
  19        0.8084
  20        0.8725
  21        0.8725
  22        1.7022
  23        4.6985
  24        4.6985
  25        9.3029
  26        9.3029
 
  0.3333333E+00  0.8333333E-01  0.8333333E-01  0.1388889E-01
   1       -4.3943
   2       -1.9113
   3       -1.1563
   4       -1.1563
   5       -0.9727
   6       -0.9399
   7       -0.9399
   8       -0.4812
   9       -0.0940
  10       -0.0940
  11       -0.0278
  12       -0.0023
  13        0.1768
  14        0.2307
  15        0.4791
  16        0.4981
  17        0.4996
  18        0.4996
  19        0.7527
  20        0.8688
  21        0.8688
  22        1.0246
  23        5.3820
  24        5.3820
  25        8.9731
  26        8.9731
 
  0.4166667E+00  0.8333333E-01  0.8333333E-01  0.1388889E-01
   1       -3.7906
   2       -2.4348
   3       -1.0199
   4       -1.0199
   5       -0.8552
   6       -0.7936
   7       -0.7936
   8       -0.6007
   9       -0.3574
  10       -0.3574
  11       -0.0223
  12       -0.0050
  13        0.1025
  14        0.2762
  15        0.3514
  16        0.4052
  17        0.4052
  18        0.5591
  19        0.6503
  20        0.6903
  21        0.8671
  22        0.8671
  23        6.1520
  24        6.1520
  25        7.9549
  26        7.9549
 
  0.5000000E+00  0.8333333E-01  0.8333333E-01  0.6944444E-02
   1       -3.1102
   2       -3.1102
   3       -0.9614
   4       -0.9614
   5       -0.7283
   6       -0.7283
   7       -0.6594
   8       -0.6594
   9       -0.5353
  10       -0.5353
  11       -0.0480
  12       -0.0480
  13        0.2227
  14        0.2227
  15        0.3652
  16        0.3652
  17        0.4234
  18        0.4234
  19        0.6245
  20        0.6245
  21        0.8665
  22        0.8665
  23        6.9028
  24        6.9028
  25        7.1219
  26        7.1219
 
  0.1666667E+00  0.1666667E+00  0.8333333E-01  0.1388889E-01
   1       -5.0276
   2       -1.4552
   3       -1.4552
   4       -1.3628
   5       -1.1002
   6       -1.1002
   7       -1.0983
   8       -0.3271
   9       -0.1310
  10       -0.1266
  11        0.3311
  12        0.3393
  13        0.3584
  14        0.3584
  15        0.4077
  16        0.6160
  17        0.6390
  18        0.6390
  19        0.8503
  20        0.8503
  21        0.8563
  22        3.0620
  23        3.0620
  24        4.4862
  25        9.2104
  26        9.9586
 
  0.2500000E+00  0.1666667E+00  0.8333333E-01  0.2777778E-01
   1       -4.6739
   2       -1.5338
   3       -1.3124
   4       -1.2445
   5       -1.0274
   6       -1.0201
   7       -1.0177
   8       -0.3877
   9       -0.0914
  10       -0.0802
  11        0.0729
  12        0.1170
  13        0.1733
  14        0.2912
  15        0.4536
  16        0.5387
  17        0.5486
  18        0.5745
  19        0.8072
  20        0.8323
  21        0.8336
  22        2.0635
  23        3.5766
  24        5.0116
  25        8.7075
  26        9.4652
 
  0.3333333E+00  0.1666667E+00  0.8333333E-01  0.2777778E-01
   1       -4.1915
   2       -1.7847
   3       -1.1458
   4       -1.1039
   5       -0.9320
   6       -0.9212
   7       -0.9058
   8       -0.4771
   9       -0.1992
  10       -0.1265
  11       -0.0650
  12       -0.0249
  13       -0.0068
  14        0.2716
  15        0.4324
  16        0.4507
  17        0.4845
  18        0.5223
  19        0.7443
  20        0.8176
  21        0.8177
  22        1.3335
  23        4.1850
  24        5.6544
  25        7.5923
  26        9.2228
 
  0.4166667E+00  0.1666667E+00  0.8333333E-01  0.2777778E-01
   1       -3.5993
   2       -2.2837
   3       -0.9878
   4       -0.9601
   5       -0.8304
   6       -0.8212
   7       -0.7852
   8       -0.5853
   9       -0.4270
  10       -0.3504
  11       -0.1342
  12       -0.0869
  13        0.0831
  14        0.3083
  15        0.3358
  16        0.3726
  17        0.3940
  18        0.6056
  19        0.6432
  20        0.8092
  21        0.8096
  22        0.9071
  23        4.8767
  24        6.2865
  25        6.7049
  26        8.2046
 
  0.5000000E+00  0.1666667E+00  0.8333333E-01  0.1388889E-01
   1       -2.9360
   2       -2.9360
   3       -0.8958
   4       -0.8958
   5       -0.7533
   6       -0.7533
   7       -0.7028
   8       -0.7028
   9       -0.5025
  10       -0.5025
  11       -0.1334
  12       -0.1334
  13        0.1892
  14        0.1892
  15        0.3466
  16        0.3466
  17        0.4821
  18        0.4821
  19        0.7111
  20        0.7111
  21        0.8068
  22        0.8068
  23        5.6514
  24        5.6514
  25        7.2885
  26        7.2885
 
  0.2500000E+00  0.2500000E+00  0.8333333E-01  0.1388889E-01
   1       -4.3290
   2       -1.3731
   3       -1.3731
   4       -1.1527
   5       -0.9529
   6       -0.9504
   7       -0.9504
   8       -0.4198
   9       -0.0900
  10       -0.0900
  11       -0.0896
  12       -0.0512
  13       -0.0179
  14        0.2773
  15        0.4592
  16        0.5019
  17        0.5019
  18        0.5088
  19        0.7767
  20        0.7767
  21        0.7910
  22        2.5275
  23        2.5275
  24        5.4812
  25        7.4552
  26        9.7248
 
  0.3333333E+00  0.2500000E+00  0.8333333E-01  0.2777778E-01
   1       -3.8608
   2       -1.5954
   3       -1.1878
   4       -1.0490
   5       -0.8698
   6       -0.8627
   7       -0.8454
   8       -0.4808
   9       -0.3236
  10       -0.2259
  11       -0.1861
  12       -0.0980
  13        0.0016
  14        0.2706
  15        0.3802
  16        0.3947
  17        0.4327
  18        0.6044
  19        0.7013
  20        0.7462
  21        0.7552
  22        1.7193
  23        3.0697
  24        5.9469
  25        6.4717
  26        9.6269
 
  0.4166667E+00  0.2500000E+00  0.8333333E-01  0.2777778E-01
   1       -3.2906
   2       -2.0518
   3       -1.0144
   4       -0.9418
   5       -0.8112
   6       -0.7636
   7       -0.7442
   8       -0.5645
   9       -0.4921
  10       -0.3508
  11       -0.2627
  12       -0.1439
  13        0.0725
  14        0.2755
  15        0.3170
  16        0.3304
  17        0.3538
  18        0.5926
  19        0.7279
  20        0.7295
  21        0.7321
  22        1.1980
  23        3.6962
  24        5.2589
  25        6.8910
  26        8.6074
 
  0.5000000E+00  0.2500000E+00  0.8333333E-01  0.1388889E-01
   1       -2.6602
   2       -2.6602
   3       -0.9010
   4       -0.9010
   5       -0.7694
   6       -0.7694
   7       -0.6616
   8       -0.6616
   9       -0.4803
  10       -0.4803
  11       -0.2156
  12       -0.2156
  13        0.1643
  14        0.1643
  15        0.3038
  16        0.3038
  17        0.4545
  18        0.4545
  19        0.7233
  20        0.7233
  21        0.9040
  22        0.9040
  23        4.4230
  24        4.4230
  25        7.6932
  26        7.6932
 
  0.3333333E+00  0.3333333E+00  0.8333333E-01  0.1388889E-01
   1       -3.4161
   2       -1.3791
   3       -1.3791
   4       -1.0176
   5       -0.7840
   6       -0.7648
   7       -0.7648
   8       -0.5025
   9       -0.3934
  10       -0.3934
  11       -0.2704
  12       -0.1293
  13        0.0230
  14        0.2632
  15        0.3047
  16        0.3425
  17        0.3425
  18        0.6571
  19        0.6571
  20        0.6962
  21        0.7357
  22        2.1721
  23        2.1721
  24        5.1161
  25        6.7589
  26       10.1743
 
  0.4166667E+00  0.3333333E+00  0.8333333E-01  0.2777778E-01
   1       -2.8829
   2       -1.7734
   3       -1.1855
   4       -1.0136
   5       -0.7018
   6       -0.6819
   7       -0.6551
   8       -0.5461
   9       -0.5041
  10       -0.3671
  11       -0.3657
  12       -0.1875
  13        0.0624
  14        0.2341
  15        0.2458
  16        0.2787
  17        0.3102
  18        0.5441
  19        0.6304
  20        0.6512
  21        0.9087
  22        1.5435
  23        2.7125
  24        4.1699
  25        7.4382
  26        9.1515
 
  0.5000000E+00  0.3333333E+00  0.8333333E-01  0.1388889E-01
   1       -2.3088
   2       -2.3088
   3       -1.0600
   4       -1.0600
   5       -0.6446
   6       -0.6446
   7       -0.6077
   8       -0.6077
   9       -0.4689
  10       -0.4689
  11       -0.2787
  12       -0.2787
  13        0.1341
  14        0.1341
  15        0.2346
  16        0.2346
  17        0.4165
  18        0.4165
  19        0.6283
  20        0.6283
  21        1.1529
  22        1.1529
  23        3.3701
  24        3.3701
  25        8.2395
  26        8.2395
 
  0.4166667E+00  0.4166667E+00  0.8333333E-01  0.1388889E-01
   1       -2.4099
   2       -1.4991
   3       -1.4991
   4       -1.1213
   5       -0.5909
   6       -0.5809
   7       -0.5809
   8       -0.5388
   9       -0.4404
  10       -0.4404
  11       -0.4056
  12       -0.2401
  13        0.0609
  14        0.1802
  15        0.1842
  16        0.1842
  17        0.3322
  18        0.5197
  19        0.5197
  20        0.5794
  21        1.1421
  22        1.9725
  23        1.9725
  24        3.2559
  25        8.1172
  26        9.8267
 
  0.5000000E+00  0.4166667E+00  0.8333333E-01  0.1388889E-01
   1       -1.9256
   2       -1.9256
   3       -1.2771
   4       -1.2771
   5       -0.5488
   6       -0.5488
   7       -0.5123
   8       -0.5123
   9       -0.4721
  10       -0.4721
  11       -0.3306
  12       -0.3306
  13        0.1012
  14        0.1012
  15        0.1551
  16        0.1551
  17        0.4100
  18        0.4100
  19        0.5317
  20        0.5317
  21        1.4713
  22        1.4713
  23        2.5294
  24        2.5294
  25        8.9143
  26        8.9143
 
  0.5000000E+00  0.5000000E+00  0.8333333E-01  0.3472222E-02
   1       -1.5673
   2       -1.5673
   3       -1.5673
   4       -1.5673
   5       -0.5000
   6       -0.5000
   7       -0.5000
   8       -0.5000
   9       -0.4006
  10       -0.4006
  11       -0.4006
  12       -0.4006
  13        0.1006
  14        0.1006
  15        0.1006
  16        0.1006
  17        0.4515
  18        0.4515
  19        0.4515
  20        0.4515
  21        1.9089
  22        1.9089
  23        1.9089
  24        1.9089
  25        9.7106
  26        9.7106
 
  0.1666667E+00  0.1666667E+00  0.1666667E+00  0.4629630E-02
   1       -4.8156
   2       -1.3739
   3       -1.3739
   4       -1.3739
   5       -1.0532
   6       -1.0532
   7       -1.0532
   8       -0.3434
   9       -0.1171
  10       -0.1171
  11        0.2239
  12        0.2239
  13        0.2239
  14        0.3750
  15        0.3750
  16        0.5369
  17        0.5369
  18        0.5369
  19        0.8597
  20        0.8597
  21        0.8597
  22        3.3825
  23        3.3825
  24        3.3825
  25       10.1907
  26       10.1907
 
  0.2500000E+00  0.1666667E+00  0.1666667E+00  0.1388889E-01
   1       -4.4679
   2       -1.4481
   3       -1.2554
   4       -1.2554
   5       -0.9797
   6       -0.9748
   7       -0.9748
   8       -0.3883
   9       -0.0929
  10       -0.0888
  11        0.0141
  12        0.0141
  13        0.0514
  14        0.3396
  15        0.4338
  16        0.4401
  17        0.4657
  18        0.4657
  19        0.8408
  20        0.8408
  21        0.8452
  22        2.3434
  23        3.8462
  24        3.8462
  25        8.9574
  26        8.9574
 
  0.3333333E+00  0.1666667E+00  0.1666667E+00  0.1388889E-01
   1       -3.9951
   2       -1.6850
   3       -1.1192
   4       -1.1192
   5       -0.8839
   6       -0.8775
   7       -0.8775
   8       -0.4624
   9       -0.2003
  10       -0.2003
  11       -0.1162
  12       -0.0809
  13       -0.0423
  14        0.3215
  15        0.3452
  16        0.3953
  17        0.3953
  18        0.5182
  19        0.8089
  20        0.8142
  21        0.8142
  22        1.5387
  23        4.4130
  24        4.4130
  25        7.8415
  26        7.8415
 
  0.4166667E+00  0.1666667E+00  0.1666667E+00  0.1388889E-01
   1       -3.4179
   2       -2.1555
   3       -0.9815
   4       -0.9815
   5       -0.8096
   6       -0.8096
   7       -0.7756
   8       -0.5572
   9       -0.3635
  10       -0.3635
  11       -0.1919
  12       -0.1154
  13        0.0241
  14        0.2107
  15        0.3271
  16        0.3271
  17        0.4455
  18        0.6012
  19        0.7528
  20        0.7945
  21        0.7945
  22        0.9981
  23        5.0528
  24        5.0528
  25        6.8726
  26        6.8726
 
  0.5000000E+00  0.1666667E+00  0.1666667E+00  0.6944444E-02
   1       -2.7773
   2       -2.7773
   3       -0.8857
   4       -0.8857
   5       -0.8243
   6       -0.8243
   7       -0.6641
   8       -0.6641
   9       -0.4212
  10       -0.4212
  11       -0.1720
  12       -0.1720