<?xml version="1.0" encoding="ISO-8859-1"?>
<modeling>
 <generator>
  <i name="program" type="string">vasp</i>
  <i name="version" type="string">4.6.28 </i>
  <i name="subversion" type="string">25Jul05 complex  parallel</i>
  <i name="platform" type="string">LinuxIFC</i>
  <i name="date" type="string">2016 12 21</i>
  <i name="time" type="string">11:41:07</i>
 </generator>
 <incar>
  <i type="string" name="PREC">accurate</i>
  <i type="int" name="IALGO">    38</i>
  <i type="logical" name="ADDGRID"> T  </i>
  <i name="EDIFF">      0.00000001</i>
  <i type="int" name="IBRION">    -1</i>
  <i name="ENCUT">    750.00000000</i>
  <i type="logical" name="LREAL"> F  </i>
  <i type="int" name="ISMEAR">     0</i>
  <i name="SIGMA">      0.01000000</i>
  <i type="logical" name="LWAVE"> F  </i>
  <i type="logical" name="LCHARG"> F  </i>
 </incar>
 <kpoints>
  <generation param="Gamma">
   <v type="int" name="divisions">      12      12      12</v>
   <v name="usershift">      0.00000000      0.00000000      0.00000000</v>
   <v name="genvec1">      0.08333333      0.00000000      0.00000000</v>
   <v name="genvec2">      0.00000000      0.08333333      0.00000000</v>
   <v name="genvec3">      0.00000000      0.00000000      0.08333333</v>
   <v name="shift">      0.00000000      0.00000000      0.00000000</v>
  </generation>
  <varray name="kpointlist" >
   <v>       0.00000000      0.00000000      0.00000000</v>
   <v>       0.08333333      0.00000000      0.00000000</v>
   <v>       0.16666667      0.00000000      0.00000000</v>
   <v>       0.25000000      0.00000000      0.00000000</v>
   <v>       0.33333333      0.00000000      0.00000000</v>
   <v>       0.41666667      0.00000000      0.00000000</v>
   <v>       0.50000000      0.00000000      0.00000000</v>
   <v>       0.08333333      0.08333333      0.00000000</v>
   <v>       0.16666667      0.08333333      0.00000000</v>
   <v>       0.25000000      0.08333333      0.00000000</v>
   <v>       0.33333333      0.08333333      0.00000000</v>
   <v>       0.41666667      0.08333333      0.00000000</v>
   <v>       0.50000000      0.08333333      0.00000000</v>
   <v>       0.16666667      0.16666667      0.00000000</v>
   <v>       0.25000000      0.16666667      0.00000000</v>
   <v>       0.33333333      0.16666667      0.00000000</v>
   <v>       0.41666667      0.16666667      0.00000000</v>
   <v>       0.50000000      0.16666667      0.00000000</v>
   <v>       0.25000000      0.25000000      0.00000000</v>
   <v>       0.33333333      0.25000000      0.00000000</v>
   <v>       0.41666667      0.25000000      0.00000000</v>
   <v>       0.50000000      0.25000000      0.00000000</v>
   <v>       0.33333333      0.33333333      0.00000000</v>
   <v>       0.41666667      0.33333333      0.00000000</v>
   <v>       0.50000000      0.33333333      0.00000000</v>
   <v>       0.41666667      0.41666667      0.00000000</v>
   <v>       0.50000000      0.41666667      0.00000000</v>
   <v>       0.50000000      0.50000000      0.00000000</v>
   <v>       0.08333333      0.08333333      0.08333333</v>
   <v>       0.16666667      0.08333333      0.08333333</v>
   <v>       0.25000000      0.08333333      0.08333333</v>
   <v>       0.33333333      0.08333333      0.08333333</v>
   <v>       0.41666667      0.08333333      0.08333333</v>
   <v>       0.50000000      0.08333333      0.08333333</v>
   <v>       0.16666667      0.16666667      0.08333333</v>
   <v>       0.25000000      0.16666667      0.08333333</v>
   <v>       0.33333333      0.16666667      0.08333333</v>
   <v>       0.41666667      0.16666667      0.08333333</v>
   <v>       0.50000000      0.16666667      0.08333333</v>
   <v>       0.25000000      0.25000000      0.08333333</v>
   <v>       0.33333333      0.25000000      0.08333333</v>
   <v>       0.41666667      0.25000000      0.08333333</v>
   <v>       0.50000000      0.25000000      0.08333333</v>
   <v>       0.33333333      0.33333333      0.08333333</v>
   <v>       0.41666667      0.33333333      0.08333333</v>
   <v>       0.50000000      0.33333333      0.08333333</v>
   <v>       0.41666667      0.41666667      0.08333333</v>
   <v>       0.50000000      0.41666667      0.08333333</v>
   <v>       0.50000000      0.50000000      0.08333333</v>
   <v>       0.16666667      0.16666667      0.16666667</v>
   <v>       0.25000000      0.16666667      0.16666667</v>
   <v>       0.33333333      0.16666667      0.16666667</v>
   <v>       0.41666667      0.16666667      0.16666667</v>
   <v>       0.50000000      0.16666667      0.16666667</v>
   <v>       0.25000000      0.25000000      0.16666667</v>
   <v>       0.33333333      0.25000000      0.16666667</v>
   <v>       0.41666667      0.25000000      0.16666667</v>
   <v>       0.50000000      0.25000000      0.16666667</v>
   <v>       0.33333333      0.33333333      0.16666667</v>
   <v>       0.41666667      0.33333333      0.16666667</v>
   <v>       0.50000000      0.33333333      0.16666667</v>
   <v>       0.41666667      0.41666667      0.16666667</v>
   <v>       0.50000000      0.41666667      0.16666667</v>
   <v>       0.50000000      0.50000000      0.16666667</v>
   <v>       0.25000000      0.25000000      0.25000000</v>
   <v>       0.33333333      0.25000000      0.25000000</v>
   <v>       0.41666667      0.25000000      0.25000000</v>
   <v>       0.50000000      0.25000000      0.25000000</v>
   <v>       0.33333333      0.33333333      0.25000000</v>
   <v>       0.41666667      0.33333333      0.25000000</v>
   <v>       0.50000000      0.33333333      0.25000000</v>
   <v>       0.41666667      0.41666667      0.25000000</v>
   <v>       0.50000000      0.41666667      0.25000000</v>
   <v>       0.50000000      0.50000000      0.25000000</v>
   <v>       0.33333333      0.33333333      0.33333333</v>
   <v>       0.41666667      0.33333333      0.33333333</v>
   <v>       0.50000000      0.33333333      0.33333333</v>
   <v>       0.41666667      0.41666667      0.33333333</v>
   <v>       0.50000000      0.41666667      0.33333333</v>
   <v>       0.50000000      0.50000000      0.33333333</v>
   <v>       0.41666667      0.41666667      0.41666667</v>
   <v>       0.50000000      0.41666667      0.41666667</v>
   <v>       0.50000000      0.50000000      0.41666667</v>
   <v>       0.50000000      0.50000000      0.50000000</v>
  </varray>
  <varray name="weights" >
   <v>       0.00057870</v>
   <v>       0.00347222</v>
   <v>       0.00347222</v>
   <v>       0.00347222</v>
   <v>       0.00347222</v>
   <v>       0.00347222</v>
   <v>       0.00173611</v>
   <v>       0.00694444</v>
   <v>       0.01388889</v>
   <v>       0.01388889</v>
   <v>       0.01388889</v>
   <v>       0.01388889</v>
   <v>       0.00694444</v>
   <v>       0.00694444</v>
   <v>       0.01388889</v>
   <v>       0.01388889</v>
   <v>       0.01388889</v>
   <v>       0.00694444</v>
   <v>       0.00694444</v>
   <v>       0.01388889</v>
   <v>       0.01388889</v>
   <v>       0.00694444</v>
   <v>       0.00694444</v>
   <v>       0.01388889</v>
   <v>       0.00694444</v>
   <v>       0.00694444</v>
   <v>       0.00694444</v>
   <v>       0.00173611</v>
   <v>       0.00462963</v>
   <v>       0.01388889</v>
   <v>       0.01388889</v>
   <v>       0.01388889</v>
   <v>       0.01388889</v>
   <v>       0.00694444</v>
   <v>       0.01388889</v>
   <v>       0.02777778</v>
   <v>       0.02777778</v>
   <v>       0.02777778</v>
   <v>       0.01388889</v>
   <v>       0.01388889</v>
   <v>       0.02777778</v>
   <v>       0.02777778</v>
   <v>       0.01388889</v>
   <v>       0.01388889</v>
   <v>       0.02777778</v>
   <v>       0.01388889</v>
   <v>       0.01388889</v>
   <v>       0.01388889</v>
   <v>       0.00347222</v>
   <v>       0.00462963</v>
   <v>       0.01388889</v>
   <v>       0.01388889</v>
   <v>       0.01388889</v>
   <v>       0.00694444</v>
   <v>       0.01388889</v>
   <v>       0.02777778</v>
   <v>       0.02777778</v>
   <v>       0.01388889</v>
   <v>       0.01388889</v>
   <v>       0.02777778</v>
   <v>       0.01388889</v>
   <v>       0.01388889</v>
   <v>       0.01388889</v>
   <v>       0.00347222</v>
   <v>       0.00462963</v>
   <v>       0.01388889</v>
   <v>       0.01388889</v>
   <v>       0.00694444</v>
   <v>       0.01388889</v>
   <v>       0.02777778</v>
   <v>       0.01388889</v>
   <v>       0.01388889</v>
   <v>       0.01388889</v>
   <v>       0.00347222</v>
   <v>       0.00462963</v>
   <v>       0.01388889</v>
   <v>       0.00694444</v>
   <v>       0.01388889</v>
   <v>       0.01388889</v>
   <v>       0.00347222</v>
   <v>       0.00462963</v>
   <v>       0.00694444</v>
   <v>       0.00347222</v>
   <v>       0.00057870</v>
  </varray>
 </kpoints>
 <parameters>
  <separator name="general" >
   <i type="string" name="SYSTEM">unknown system</i>
   <i type="logical" name="LCOMPAT"> F  </i>
  </separator>
  <separator name="electronic" >
   <i type="string" name="PREC">accura</i>
   <i name="ENMAX">    750.00000000</i>
   <i name="ENAUG">    516.45600000</i>
   <i name="EDIFF">      0.00000001</i>
   <i type="int" name="IALGO">    38</i>
   <i type="int" name="IWAVPR">    10</i>
   <i type="int" name="NBANDS">    26</i>
   <i name="NELECT">     44.00000000</i>
   <separator name="electronic smearing" >
    <i type="int" name="ISMEAR">     0</i>
    <i name="SIGMA">      0.01000000</i>
   </separator>
   <separator name="electronic projectors" >
    <i type="logical" name="LREAL"> F  </i>
    <v name="ROPT">      0.00000000</v>
    <i type="int" name="LMAXPAW">  -100</i>
    <i type="int" name="LMAXMIX">     2</i>
   </separator>
   <separator name="electronic startup" >
    <i type="int" name="ISTART">     0</i>
    <i type="int" name="ICHARG">     2</i>
    <i type="int" name="INIWAV">     1</i>
   </separator>
   <separator name="electronic spin" >
    <i type="int" name="ISPIN">     1</i>
    <i type="logical" name="LNONCOLLINEAR"> F  </i>
    <v name="MAGMOM">      1.00000000      1.00000000      1.00000000      1.00000000</v>
    <i name="NUPDOWN">     -1.00000000</i>
    <i type="logical" name="LSORBIT"> F  </i>
    <v name="SAXIS">      0.00000000      0.00000000      1.00000000</v>
    <i type="logical" name="LSPIRAL"> F  </i>
    <v name="QSPIRAL">      0.00000000      0.00000000      0.00000000</v>
    <i type="logical" name="LZEROZ"> F  </i>
   </separator>
   <separator name="electronic exchange-correlation" >
    <i type="string" name="GGA">--</i>
    <i type="int" name="VOSKOWN">     0</i>
    <i type="logical" name="LASPH"> F  </i>
    <i type="logical" name="LMETAGGA"> F  </i>
    <i type="string" name="GGA2">--</i>
   </separator>
   <separator name="electronic convergence" >
    <i type="int" name="NELM">    60</i>
    <i type="int" name="NELMDL">    -5</i>
    <i type="int" name="NELMIN">     2</i>
    <i name="ENINI">    750.00000000</i>
    <separator name="electronic convergence detail" >
     <i type="logical" name="LDIAG"> T  </i>
     <i name="WEIMIN">      0.00000000</i>
     <i name="EBREAK">      0.00000000</i>
     <i name="DEPER">      0.30000000</i>
     <i type="int" name="NRMM">     4</i>
     <i name="TIME">      0.10000000</i>
    </separator>
   </separator>
   <separator name="electronic mixer" >
    <i name="AMIX">      0.40000000</i>
    <i name="BMIX">      1.00000000</i>
    <i name="AMIN">      0.10000000</i>
    <i name="AMIX_MAG">      1.60000000</i>
    <i name="BMIX_MAG">      1.00000000</i>
    <separator name="electronic mixer details" >
     <i type="int" name="IMIX">     4</i>
     <i type="int" name="MAXMIX">   -45</i>
     <i name="WC">    100.00000000</i>
     <i type="int" name="INIMIX">     1</i>
     <i type="int" name="MIXPRE">     1</i>
     <i type="int" name="MREMOVE">     5</i>
    </separator>
   </separator>
   <separator name="electronic dipolcorrection" >
    <i type="int" name="IDIPOL">     0</i>
    <i type="logical" name="LDIPOL"> F  </i>
    <v name="DIPOL">   -100.00000000</v>
    <i name="EFIELD">      0.00000000</i>
   </separator>
  </separator>
  <separator name="grids" >
   <i type="int" name="NGX">    36</i>
   <i type="int" name="NGY">    36</i>
   <i type="int" name="NGZ">    36</i>
   <i type="int" name="NGXF">    72</i>
   <i type="int" name="NGYF">    72</i>
   <i type="int" name="NGZF">    72</i>
   <i type="logical" name="ADDGRID"> T  </i>
  </separator>
  <separator name="ionic" >
   <i type="int" name="NSW">     0</i>
   <i type="int" name="IBRION">    -1</i>
   <i type="int" name="ISIF">     2</i>
   <i name="PSTRESS">      0.00000000</i>
   <i name="EDIFFG">      0.00000010</i>
   <i type="int" name="NFREE">     0</i>
   <i name="POTIM">      0.50000000</i>
   <i name="SMASS">     -3.00000000</i>
  </separator>
  <separator name="ionic md" >
   <i name="TEBEG">      0.00010000</i>
   <i name="TEEND">      0.00010000</i>
   <i type="int" name="NBLOCK">     1</i>
   <i type="int" name="KBLOCK">     1</i>
   <i type="int" name="NPACO">   256</i>
   <i name="APACO">     16.00000000</i>
  </separator>
  <separator name="symmetry" >
   <i type="int" name="ISYM">     2</i>
   <i name="SYMPREC">      0.00001000</i>
  </separator>
  <separator name="dos" >
   <i type="logical" name="LORBIT"> F  </i>
   <v name="RWIGS">     -1.00000000</v>
   <i type="int" name="NEDOS">   301</i>
   <i name="EMIN">     10.00000000</i>
   <i name="EMAX">    -10.00000000</i>
  </separator>
  <separator name="writing" >
   <i type="int" name="NWRITE">     2</i>
   <i type="logical" name="LWAVE"> F  </i>
   <i type="logical" name="LCHARG"> F  </i>
   <i type="logical" name="LPARD"> F  </i>
   <i type="logical" name="LVTOT"> F  </i>
   <i type="logical" name="LELF"> F  </i>
   <i type="logical" name="LOPTICS"> F  </i>
   <i name="STM">      0.00000000</i>
  </separator>
  <separator name="performance" >
   <i type="int" name="NPAR">     2</i>
   <i type="int" name="NSIM">     4</i>
   <i type="int" name="NBLK">   256</i>
   <i type="logical" name="LPLANE"> T  </i>
   <i type="logical" name="LCRITICAL_MEM"> F  </i>
   <i type="logical" name="LSCALAPACK"> F  </i>
   <i type="logical" name="LSCALU"> F  </i>
   <i type="logical" name="LASYNC"> F  </i>
  </separator>
  <separator name="miscellaneous" >
   <i type="int" name="IDIOT">     3</i>
   <i type="logical" name="LMUSIC"> F  </i>
   <v name="POMASS">     63.54600000</v>
   <i type="logical" name="LCORR"> T  </i>
  </separator>
  <i type="logical" name="LREAL_COMPAT"> F  </i>
  <i type="logical" name="GGA_COMPAT"> T  </i>
  <i type="logical" name="LBERRY"> F  </i>
  <i type="int" name="ICORELEVEL">     0</i>
  <i type="logical" name="LDAU"> F  </i>
  <i type="int" name="I_CONSTRAINED_M">     0</i>
 </parameters>
 <atominfo>
  <atoms>       4</atoms>
  <types>       1</types>
  <array name="atoms" >
   <dimension dim="1">ion</dimension>
   <field type="string">element</field>
   <field type="int">atomtype</field>
   <set>
    <rc><c>Cu</c><c>   1</c></rc>
    <rc><c>Cu</c><c>   1</c></rc>
    <rc><c>Cu</c><c>   1</c></rc>
    <rc><c>Cu</c><c>   1</c></rc>
   </set>
  </array>
  <array name="atomtypes" >
   <dimension dim="1">type</dimension>
   <field type="int">atomspertype</field>
   <field type="string">element</field>
   <field>mass</field>
   <field>valence</field>
   <field type="string">pseudopotential</field>
   <set>
    <rc><c>   4</c><c>Cu</c><c>     63.54600000</c><c>     11.00000000</c><c> PAW_PBE Cu 05Jan2001                   </c></rc>
   </set>
  </array>
 </atominfo>
 <structure name="initialpos" >
  <crystal>
   <varray name="basis" >
    <v>       3.85460076      0.00000000      0.00000000</v>
    <v>       0.00000000      3.85460076      0.00000000</v>
    <v>       0.00000000      0.00000000      3.85460076</v>
   </varray>
   <i name="volume">     57.27145389</i>
   <varray name="rec_basis" >
    <v>       0.25943024      0.00000000      0.00000000</v>
    <v>       0.00000000      0.25943024      0.00000000</v>
    <v>       0.00000000      0.00000000      0.25943024</v>
   </varray>
  </crystal>
  <varray name="positions" >
   <v>       0.00000000      0.00000000      0.00000000</v>
   <v>       0.50000000      0.50000000      0.00000000</v>
   <v>       0.50000000      0.00000000      0.50000000</v>
   <v>       0.00000000      0.50000000      0.50000000</v>
  </varray>
 </structure>
 <calculation>
  <scstep>
   <time name="dav">   26.42   89.86</time>
   <time name="total">   26.95   90.96</time>
   <energy>
    <i name="alphaZ">    356.93175380</i>
    <i name="ewald">  -4144.94064942</i>
    <i name="hartreedc">  -1454.47592013</i>
    <i name="XCdc">    173.65626163</i>
    <i name="pawpsdc">   4328.20916945</i>
    <i name="pawaedc">  -4904.30802700</i>
    <i name="eentropy">     -0.00009891</i>
    <i name="bandstr">    392.22274573</i>
    <i name="atom">   5563.91755062</i>
    <i name="e_fr_energy">    311.21278576</i>
    <i name="e_wo_entrp">    311.21288466</i>
    <i name="e_0_energy">    311.21283521</i>
   </energy>
  </scstep>
  <scstep>
   <time name="dav">   37.06  185.32</time>
   <time name="total">   37.10  185.55</time>
   <energy>
    <i name="e_fr_energy">      1.42332343</i>
    <i name="e_wo_entrp">      1.42345913</i>
    <i name="e_0_energy">      1.42339128</i>
   </energy>
  </scstep>
  <scstep>
   <time name="dav">   35.50  177.56</time>
   <time name="total">   35.52  177.64</time>
   <energy>
    <i name="e_fr_energy">    -17.20356784</i>
    <i name="e_wo_entrp">    -17.20348463</i>
    <i name="e_0_energy">    -17.20352623</i>
   </energy>
  </scstep>
  <scstep>
   <time name="dav">   36.68  183.42</time>
   <time name="total">   36.68  183.50</time>
   <energy>
    <i name="e_fr_energy">    -17.44418947</i>
    <i name="e_wo_entrp">    -17.44407622</i>
    <i name="e_0_energy">    -17.44413284</i>
   </energy>
  </scstep>
  <scstep>
   <time name="dav">   32.41  162.10</time>
   <time name="total">   33.22  166.18</time>
   <energy>
    <i name="e_fr_energy">    -17.44562508</i>
    <i name="e_wo_entrp">    -17.44551167</i>
    <i name="e_0_energy">    -17.44556838</i>
   </energy>
  </scstep>
  <scstep>
   <time name="dav">   27.81  139.11</time>
   <time name="total">   29.57  147.91</time>
   <energy>
    <i name="e_fr_energy">    -16.08999641</i>
    <i name="e_wo_entrp">    -16.08987851</i>
    <i name="e_0_energy">    -16.08993746</i>
   </energy>
  </scstep>
  <scstep>
   <time name="dav">   24.66  123.33</time>
   <time name="total">   26.05  130.31</time>
   <energy>
    <i name="e_fr_energy">    -14.37532733</i>
    <i name="e_wo_entrp">    -14.37513069</i>
    <i name="e_0_energy">    -14.37522901</i>
   </energy>
  </scstep>
  <scstep>
   <time name="dav">   30.33  151.73</time>
   <time name="total">   31.82  159.17</time>
   <energy>
    <i name="e_fr_energy">    -14.36986360</i>
    <i name="e_wo_entrp">    -14.36970879</i>
    <i name="e_0_energy">    -14.36978619</i>
   </energy>
  </scstep>
  <scstep>
   <time name="dav">   29.37  146.92</time>
   <time name="total">   31.45  157.33</time>
   <energy>
    <i name="e_fr_energy">    -14.35339764</i>
    <i name="e_wo_entrp">    -14.35328556</i>
    <i name="e_0_energy">    -14.35334160</i>
   </energy>
  </scstep>
  <scstep>
   <time name="dav">   27.85  139.31</time>
   <time name="total">   29.30  146.56</time>
   <energy>
    <i name="e_fr_energy">    -14.35326749</i>
    <i name="e_wo_entrp">    -14.35307977</i>
    <i name="e_0_energy">    -14.35317363</i>
   </energy>
  </scstep>
  <scstep>
   <time name="dav">   31.21  156.12</time>
   <time name="total">   32.69  163.50</time>
   <energy>
    <i name="e_fr_energy">    -14.35327071</i>
    <i name="e_wo_entrp">    -14.35310346</i>
    <i name="e_0_energy">    -14.35318708</i>
   </energy>
  </scstep>
  <scstep>
   <time name="dav">   28.06  137.80</time>
   <time name="total">   29.77  145.50</time>
   <energy>
    <i name="e_fr_energy">    -14.35326364</i>
    <i name="e_wo_entrp">    -14.35308765</i>
    <i name="e_0_energy">    -14.35317564</i>
   </energy>
  </scstep>
  <scstep>
   <time name="dav">   26.24  105.02</time>
   <time name="total">   27.75  111.02</time>
   <energy>
    <i name="e_fr_energy">    -14.35326514</i>
    <i name="e_wo_entrp">    -14.35309072</i>
    <i name="e_0_energy">    -14.35317793</i>
   </energy>
  </scstep>
  <scstep>
   <time name="dav">   33.20  132.88</time>
   <time name="total">   34.81  139.29</time>
   <energy>
    <i name="e_fr_energy">    -14.35326524</i>
    <i name="e_wo_entrp">    -14.35309022</i>
    <i name="e_0_energy">    -14.35317773</i>
   </energy>
  </scstep>
  <scstep>
   <time name="dav">   29.79  105.70</time>
   <time name="total">   32.78  115.21</time>
   <energy>
    <i name="e_fr_energy">    -14.35326525</i>
    <i name="e_wo_entrp">    -14.35309028</i>
    <i name="e_0_energy">    -14.35317777</i>
   </energy>
  </scstep>
  <scstep>
   <time name="dav">   67.72  203.19</time>
   <time name="total">   73.23  217.56</time>
   <energy>
    <i name="e_fr_energy">    -14.35326522</i>
    <i name="e_wo_entrp">    -14.35309024</i>
    <i name="e_0_energy">    -14.35317773</i>
   </energy>
  </scstep>
  <scstep>
   <time name="dav">   13.86   26.75</time>
   <time name="total">   14.23   27.48</time>
   <energy>
    <i name="alphaZ">    356.93175380</i>
    <i name="ewald">  -4144.94064942</i>
    <i name="hartreedc">  -1373.43438883</i>
    <i name="XCdc">    169.80807772</i>
    <i name="pawpsdc">   4303.78012692</i>
    <i name="pawaedc">  -4880.17986244</i>
    <i name="eentropy">     -0.00017497</i>
    <i name="bandstr">    -10.23569863</i>
    <i name="atom">   5563.91755062</i>
    <i name="e_fr_energy">    -14.35326522</i>
    <i name="e_wo_entrp">    -14.35309025</i>
    <i name="e_0_energy">    -14.35317773</i>
   </energy>
  </scstep>
  <structure>
   <crystal>
    <varray name="basis" >
     <v>       3.85460076      0.00000000      0.00000000</v>
     <v>       0.00000000      3.85460076      0.00000000</v>
     <v>       0.00000000      0.00000000      3.85460076</v>
    </varray>
    <i name="volume">     57.27145389</i>
    <varray name="rec_basis" >
     <v>       0.25943024      0.00000000      0.00000000</v>
     <v>       0.00000000      0.25943024      0.00000000</v>
     <v>       0.00000000      0.00000000      0.25943024</v>
    </varray>
   </crystal>
   <varray name="positions" >
    <v>       0.00000000      0.00000000      0.00000000</v>
    <v>       0.50000000      0.50000000      0.00000000</v>
    <v>       0.50000000      0.00000000      0.50000000</v>
    <v>       0.00000000      0.50000000      0.50000000</v>
   </varray>
  </structure>
  <varray name="forces" >
   <v>       0.00000000      0.00000000      0.00000000</v>
   <v>       0.00000000      0.00000000      0.00000000</v>
   <v>       0.00000000     -0.00000000      0.00000000</v>
   <v>       0.00000000      0.00000000      0.00000000</v>
  </varray>
  <varray name="stress" >
   <v>    -153.57321675      0.00000000     -0.00000000</v>
   <v>      -0.00000000   -153.57321675      0.00000000</v>
   <v>      -0.00000000     -0.00000000   -153.57321675</v>
  </varray>
  <energy>
   <i name="e_fr_energy">    -14.35326522</i>
   <i name="e_wo_entrp">    -14.35317773</i>
   <i name="e_0_energy">     -0.00017497</i>
  </energy>
  <eigenvalues>
   <array>
    <dimension dim="1">band</dimension>
    <dimension dim="2">kpoint</dimension>
    <dimension dim="3">spin</dimension>
    <field>eigene</field>
    <field>occ</field>
    <set>
     <set comment="spin 1">
      <set comment="kpoint 1">
       <r>  -5.6811  1.0000</r>
       <r>  -1.5904  1.0000</r>
       <r>  -1.5904  1.0000</r>
       <r>  -1.5904  1.0000</r>
       <r>  -1.2491  1.0000</r>
       <r>  -1.2491  1.0000</r>
       <r>  -1.2491  1.0000</r>
       <r>  -0.2215  1.0000</r>
       <r>  -0.2215  1.0000</r>
       <r>  -0.2215  1.0000</r>
       <r>   0.3919  1.0000</r>
       <r>   0.3919  1.0000</r>
       <r>   0.8009  1.0000</r>
       <r>   0.8009  1.0000</r>
       <r>   0.8009  1.0000</r>
       <r>   0.9152  1.0000</r>
       <r>   0.9152  1.0000</r>
       <r>   0.9152  1.0000</r>
       <r>   0.9152  1.0000</r>
       <r>   0.9152  1.0000</r>
       <r>   0.9152  1.0000</r>
       <r>   3.9490  0.0000</r>
       <r>   3.9490  0.0000</r>
       <r>   3.9490  0.0000</r>
       <r>   8.1629  0.0000</r>
       <r>   8.1629  0.0000</r>
      </set>
      <set comment="kpoint 2">
       <r>  -5.6075  1.0000</r>
       <r>  -1.5937  1.0000</r>
       <r>  -1.5592  1.0000</r>
       <r>  -1.5592  1.0000</r>
       <r>  -1.2322  1.0000</r>
       <r>  -1.2312  1.0000</r>
       <r>  -1.2312  1.0000</r>
       <r>  -0.2396  1.0000</r>
       <r>  -0.2064  1.0000</r>
       <r>  -0.2064  1.0000</r>
       <r>   0.3755  1.0000</r>
       <r>   0.3987  1.0000</r>
       <r>   0.7797  1.0000</r>
       <r>   0.7797  1.0000</r>
       <r>   0.7938  1.0000</r>
       <r>   0.8168  1.0000</r>
       <r>   0.8168  1.0000</r>
       <r>   0.8900  1.0000</r>
       <r>   0.8900  1.0000</r>
       <r>   0.9152  1.0000</r>
       <r>   0.9152  1.0000</r>
       <r>   3.4172  0.0000</r>
       <r>   4.1157  0.0000</r>
       <r>   4.1157  0.0000</r>
       <r>   8.1957  0.0000</r>
       <r>   8.1957  0.0000</r>
      </set>
      <set comment="kpoint 3">
       <r>  -5.3878  1.0000</r>
       <r>  -1.6185  1.0000</r>
       <r>  -1.4702  1.0000</r>
       <r>  -1.4702  1.0000</r>
       <r>  -1.1826  1.0000</r>
       <r>  -1.1769  1.0000</r>
       <r>  -1.1769  1.0000</r>
       <r>  -0.2926  1.0000</r>
       <r>  -0.1616  1.0000</r>
       <r>  -0.1616  1.0000</r>
       <r>   0.3281  1.0000</r>
       <r>   0.4188  1.0000</r>
       <r>   0.5728  1.0000</r>
       <r>   0.5728  1.0000</r>
       <r>   0.7181  1.0000</r>
       <r>   0.7181  1.0000</r>
       <r>   0.7730  1.0000</r>
       <r>   0.8177  1.0000</r>
       <r>   0.8177  1.0000</r>
       <r>   0.9153  1.0000</r>
       <r>   0.9153  1.0000</r>
       <r>   2.3669  0.0000</r>
       <r>   4.5641  0.0000</r>
       <r>   4.5641  0.0000</r>
       <r>   8.2967  0.0000</r>
       <r>   8.2967  0.0000</r>
      </set>
      <set comment="kpoint 4">
       <r>  -5.0262  1.0000</r>
       <r>  -1.7188  1.0000</r>
       <r>  -1.3374  1.0000</r>
       <r>  -1.3374  1.0000</r>
       <r>  -1.1032  1.0000</r>
       <r>  -1.0854  1.0000</r>
       <r>  -1.0854  1.0000</r>
       <r>  -0.3765  1.0000</r>
       <r>  -0.0882  1.0000</r>
       <r>  -0.0882  1.0000</r>
       <r>   0.2559  1.0000</r>
       <r>   0.2690  1.0000</r>
       <r>   0.2690  1.0000</r>
       <r>   0.4509  1.0000</r>
       <r>   0.6228  1.0000</r>
       <r>   0.6228  1.0000</r>
       <r>   0.7073  1.0000</r>
       <r>   0.7073  1.0000</r>
       <r>   0.7401  1.0000</r>
       <r>   0.9154  1.0000</r>
       <r>   0.9154  1.0000</r>
       <r>   1.3324  1.0000</r>
       <r>   5.2075  0.0000</r>
       <r>   5.2075  0.0000</r>
       <r>   8.4736  0.0000</r>
       <r>   8.4736  0.0000</r>
      </set>
      <set comment="kpoint 5">
       <r>  -4.5315  1.0000</r>
       <r>  -2.0023  1.0000</r>
       <r>  -1.1868  1.0000</r>
       <r>  -1.1868  1.0000</r>
       <r>  -0.9991  1.0000</r>
       <r>  -0.9553  1.0000</r>
       <r>  -0.9553  1.0000</r>
       <r>  -0.4852  1.0000</r>
       <r>  -0.0391  1.0000</r>
       <r>  -0.0391  1.0000</r>
       <r>   0.0115  1.0000</r>
       <r>   0.0115  1.0000</r>
       <r>   0.1707  1.0000</r>
       <r>   0.4928  1.0000</r>
       <r>   0.5099  1.0000</r>
       <r>   0.5099  1.0000</r>
       <r>   0.5637  1.0000</r>
       <r>   0.5711  1.0000</r>
       <r>   0.5711  1.0000</r>
       <r>   0.6973  1.0000</r>
       <r>   0.9156  1.0000</r>
       <r>   0.9156  1.0000</r>
       <r>   5.9882  0.0000</r>
       <r>   5.9882  0.0000</r>
       <r>   8.7380  0.0000</r>
       <r>   8.7380  0.0000</r>
      </set>
      <set comment="kpoint 6">
       <r>  -3.9209  1.0000</r>
       <r>  -2.5414  1.0000</r>
       <r>  -1.0598  1.0000</r>
       <r>  -1.0598  1.0000</r>
       <r>  -0.8768  1.0000</r>
       <r>  -0.7852  1.0000</r>
       <r>  -0.7852  1.0000</r>
       <r>  -0.6108  1.0000</r>
       <r>  -0.3242  1.0000</r>
       <r>  -0.3242  1.0000</r>
       <r>   0.0938  1.0000</r>
       <r>   0.1338  1.0000</r>
       <r>   0.1338  1.0000</r>
       <r>   0.1734  1.0000</r>
       <r>   0.4106  1.0000</r>
       <r>   0.4106  1.0000</r>
       <r>   0.4224  1.0000</r>
       <r>   0.4224  1.0000</r>
       <r>   0.5419  1.0000</r>
       <r>   0.6477  1.0000</r>
       <r>   0.9157  1.0000</r>
       <r>   0.9157  1.0000</r>
       <r>   6.8762  0.0000</r>
       <r>   6.8762  0.0000</r>
       <r>   8.9165  0.0000</r>
       <r>   8.9165  0.0000</r>
      </set>
      <set comment="kpoint 7">
       <r>  -3.2305  1.0000</r>
       <r>  -3.2305  1.0000</r>
       <r>  -1.0082  1.0000</r>
       <r>  -1.0082  1.0000</r>
       <r>  -0.7444  1.0000</r>
       <r>  -0.7444  1.0000</r>
       <r>  -0.5745  1.0000</r>
       <r>  -0.5745  1.0000</r>
       <r>  -0.5745  1.0000</r>
       <r>  -0.5745  1.0000</r>
       <r>   0.0664  1.0000</r>
       <r>   0.0664  1.0000</r>
       <r>   0.2733  1.0000</r>
       <r>   0.2733  1.0000</r>
       <r>   0.2733  1.0000</r>
       <r>   0.2733  1.0000</r>
       <r>   0.3691  1.0000</r>
       <r>   0.3691  1.0000</r>
       <r>   0.5947  1.0000</r>
       <r>   0.5947  1.0000</r>
       <r>   0.9157  1.0000</r>
       <r>   0.9157  1.0000</r>
       <r>   7.8557  0.0000</r>
       <r>   7.8557  0.0000</r>
       <r>   7.8557  0.0000</r>
       <r>   7.8557  0.0000</r>
      </set>
      <set comment="kpoint 8">
       <r>  -5.5341  1.0000</r>
       <r>  -1.5617  1.0000</r>
       <r>  -1.5617  1.0000</r>
       <r>  -1.5290  1.0000</r>
       <r>  -1.2146  1.0000</r>
       <r>  -1.2146  1.0000</r>
       <r>  -1.2137  1.0000</r>
       <r>  -0.2493  1.0000</r>
       <r>  -0.1994  1.0000</r>
       <r>  -0.1928  1.0000</r>
       <r>   0.3711  1.0000</r>
       <r>   0.3950  1.0000</r>
       <r>   0.7436  1.0000</r>
       <r>   0.7508  1.0000</r>
       <r>   0.7508  1.0000</r>
       <r>   0.7594  1.0000</r>
       <r>   0.8087  1.0000</r>
       <r>   0.8087  1.0000</r>
       <r>   0.8899  1.0000</r>
       <r>   0.8899  1.0000</r>
       <r>   0.8988  1.0000</r>
       <r>   3.5779  0.0000</r>
       <r>   3.5779  0.0000</r>
       <r>   4.2736  0.0000</r>
       <r>   8.2292  0.0000</r>
       <r>   8.8926  0.0000</r>
      </set>
      <set comment="kpoint 9">
       <r>  -5.3152  1.0000</r>
       <r>  -1.5837  1.0000</r>
       <r>  -1.4702  1.0000</r>
       <r>  -1.4425  1.0000</r>
       <r>  -1.1659  1.0000</r>
       <r>  -1.1614  1.0000</r>
       <r>  -1.1611  1.0000</r>
       <r>  -0.2969  1.0000</r>
       <r>  -0.1589  1.0000</r>
       <r>  -0.1528  1.0000</r>
       <r>   0.3302  1.0000</r>
       <r>   0.4135  1.0000</r>
       <r>   0.5221  1.0000</r>
       <r>   0.5263  1.0000</r>
       <r>   0.6640  1.0000</r>
       <r>   0.7003  1.0000</r>
       <r>   0.7260  1.0000</r>
       <r>   0.7840  1.0000</r>
       <r>   0.8175  1.0000</r>
       <r>   0.8898  1.0000</r>
       <r>   0.8901  1.0000</r>
       <r>   2.5353  0.0000</r>
       <r>   3.9997  0.0000</r>
       <r>   4.7045  0.0000</r>
       <r>   8.3323  0.0000</r>
       <r>   9.0252  0.0000</r>
      </set>
      <set comment="kpoint 10">
       <r>  -4.9551  1.0000</r>
       <r>  -1.6791  1.0000</r>
       <r>  -1.3332  1.0000</r>
       <r>  -1.3133  1.0000</r>
       <r>  -1.0881  1.0000</r>
       <r>  -1.0730  1.0000</r>
       <r>  -1.0716  1.0000</r>
       <r>  -0.3778  1.0000</r>
       <r>  -0.0894  1.0000</r>
       <r>  -0.0868  1.0000</r>
       <r>   0.2194  1.0000</r>
       <r>   0.2414  1.0000</r>
       <r>   0.2642  1.0000</r>
       <r>   0.4493  1.0000</r>
       <r>   0.5109  1.0000</r>
       <r>   0.6086  1.0000</r>
       <r>   0.6298  1.0000</r>
       <r>   0.7069  1.0000</r>
       <r>   0.7417  1.0000</r>
       <r>   0.8881  1.0000</r>
       <r>   0.8896  1.0000</r>
       <r>   1.5467  1.0000</r>
       <r>   4.5877  0.0000</r>
       <r>   5.3316  0.0000</r>
       <r>   8.5127  0.0000</r>
       <r>   9.2553  0.0000</r>
      </set>
      <set comment="kpoint 11">
       <r>  -4.4626  1.0000</r>
       <r>  -1.9555  1.0000</r>
       <r>  -1.1769  1.0000</r>
       <r>  -1.1648  1.0000</r>
       <r>  -0.9861  1.0000</r>
       <r>  -0.9507  1.0000</r>
       <r>  -0.9441  1.0000</r>
       <r>  -0.4837  1.0000</r>
       <r>  -0.0840  1.0000</r>
       <r>  -0.0532  1.0000</r>
       <r>  -0.0162  1.0000</r>
       <r>   0.0121  1.0000</r>
       <r>   0.1997  1.0000</r>
       <r>   0.2719  1.0000</r>
       <r>   0.4970  1.0000</r>
       <r>   0.5000  1.0000</r>
       <r>   0.5167  1.0000</r>
       <r>   0.5706  1.0000</r>
       <r>   0.6680  1.0000</r>
       <r>   0.8878  1.0000</r>
       <r>   0.8893  1.0000</r>
       <r>   0.9068  1.0000</r>
       <r>   5.2855  0.0000</r>
       <r>   6.0998  0.0000</r>
       <r>   8.7781  0.0000</r>
       <r>   8.8992  0.0000</r>
      </set>
      <set comment="kpoint 12">
       <r>  -3.8552  1.0000</r>
       <r>  -2.4870  1.0000</r>
       <r>  -1.0428  1.0000</r>
       <r>  -1.0359  1.0000</r>
       <r>  -0.8664  1.0000</r>
       <r>  -0.7956  1.0000</r>
       <r>  -0.7777  1.0000</r>
       <r>  -0.6063  1.0000</r>
       <r>  -0.3614  1.0000</r>
       <r>  -0.3287  1.0000</r>
       <r>   0.0093  1.0000</r>
       <r>   0.0569  1.0000</r>
       <r>   0.1340  1.0000</r>
       <r>   0.2127  1.0000</r>
       <r>   0.4055  1.0000</r>
       <r>   0.4155  1.0000</r>
       <r>   0.4220  1.0000</r>
       <r>   0.5015  1.0000</r>
       <r>   0.5537  1.0000</r>
       <r>   0.6955  1.0000</r>
       <r>   0.8881  1.0000</r>
       <r>   0.8890  1.0000</r>
       <r>   6.0680  0.0000</r>
       <r>   6.9789  0.0000</r>
       <r>   7.8670  0.0000</r>
       <r>   9.0086  0.0000</r>
      </set>
      <set comment="kpoint 13">
       <r>  -3.1696  1.0000</r>
       <r>  -3.1696  1.0000</r>
       <r>  -0.9850  1.0000</r>
       <r>  -0.9850  1.0000</r>
       <r>  -0.7369  1.0000</r>
       <r>  -0.7369  1.0000</r>
       <r>  -0.6007  1.0000</r>
       <r>  -0.6007  1.0000</r>
       <r>  -0.5720  1.0000</r>
       <r>  -0.5720  1.0000</r>
       <r>  -0.0070  1.0000</r>
       <r>  -0.0070  1.0000</r>
       <r>   0.2731  1.0000</r>
       <r>   0.2731  1.0000</r>
       <r>   0.3316  1.0000</r>
       <r>   0.3316  1.0000</r>
       <r>   0.3696  1.0000</r>
       <r>   0.3696  1.0000</r>
       <r>   0.6174  1.0000</r>
       <r>   0.6174  1.0000</r>
       <r>   0.8885  1.0000</r>
       <r>   0.8885  1.0000</r>
       <r>   6.9276  0.0000</r>
       <r>   6.9276  0.0000</r>
       <r>   7.9521  0.0000</r>
       <r>   7.9521  0.0000</r>
      </set>
      <set comment="kpoint 14">
       <r>  -5.0988  1.0000</r>
       <r>  -1.4841  1.0000</r>
       <r>  -1.4841  1.0000</r>
       <r>  -1.3638  1.0000</r>
       <r>  -1.1157  1.0000</r>
       <r>  -1.1157  1.0000</r>
       <r>  -1.1133  1.0000</r>
       <r>  -0.3248  1.0000</r>
       <r>  -0.1350  1.0000</r>
       <r>  -0.1272  1.0000</r>
       <r>   0.3156  1.0000</r>
       <r>   0.3790  1.0000</r>
       <r>   0.3951  1.0000</r>
       <r>   0.3951  1.0000</r>
       <r>   0.4201  1.0000</r>
       <r>   0.6480  1.0000</r>
       <r>   0.7234  1.0000</r>
       <r>   0.7234  1.0000</r>
       <r>   0.8169  1.0000</r>
       <r>   0.8169  1.0000</r>
       <r>   0.8503  1.0000</r>
       <r>   2.9440  0.0000</r>
       <r>   2.9440  0.0000</r>
       <r>   5.0974  0.0000</r>
       <r>   8.4418  0.0000</r>
       <r>   9.8681  0.0000</r>
      </set>
      <set comment="kpoint 15">
       <r>  -4.7432  1.0000</r>
       <r>  -1.5648  1.0000</r>
       <r>  -1.3339  1.0000</r>
       <r>  -1.2460  1.0000</r>
       <r>  -1.0428  1.0000</r>
       <r>  -1.0346  1.0000</r>
       <r>  -1.0311  1.0000</r>
       <r>  -0.3893  1.0000</r>
       <r>  -0.0898  1.0000</r>
       <r>  -0.0744  1.0000</r>
       <r>   0.0905  1.0000</r>
       <r>   0.1545  1.0000</r>
       <r>   0.2103  1.0000</r>
       <r>   0.2692  1.0000</r>
       <r>   0.4624  1.0000</r>
       <r>   0.5664  1.0000</r>
       <r>   0.6324  1.0000</r>
       <r>   0.6905  1.0000</r>
       <r>   0.7058  1.0000</r>
       <r>   0.8160  1.0000</r>
       <r>   0.8276  1.0000</r>
       <r>   1.9603  1.0000</r>
       <r>   3.4808  0.0000</r>
       <r>   5.6860  0.0000</r>
       <r>   8.6212  0.0000</r>
       <r>   8.6356  0.0000</r>
      </set>
      <set comment="kpoint 16">
       <r>  -4.2577  1.0000</r>
       <r>  -1.8206  1.0000</r>
       <r>  -1.1594  1.0000</r>
       <r>  -1.1057  1.0000</r>
       <r>  -0.9473  1.0000</r>
       <r>  -0.9330  1.0000</r>
       <r>  -0.9114  1.0000</r>
       <r>  -0.4828  1.0000</r>
       <r>  -0.2000  1.0000</r>
       <r>  -0.0977  1.0000</r>
       <r>  -0.0606  1.0000</r>
       <r>   0.0066  1.0000</r>
       <r>   0.0185  1.0000</r>
       <r>   0.2306  1.0000</r>
       <r>   0.4693  1.0000</r>
       <r>   0.5222  1.0000</r>
       <r>   0.5289  1.0000</r>
       <r>   0.5695  1.0000</r>
       <r>   0.6187  1.0000</r>
       <r>   0.8149  1.0000</r>
       <r>   0.8178  1.0000</r>
       <r>   1.2694  1.0000</r>
       <r>   4.1042  0.0000</r>
       <r>   6.4232  0.0000</r>
       <r>   7.4971  0.0000</r>
       <r>   8.9175  0.0000</r>
      </set>
      <set comment="kpoint 17">
       <r>  -3.6609  1.0000</r>
       <r>  -2.3288  1.0000</r>
       <r>  -1.0022  1.0000</r>
       <r>  -0.9693  1.0000</r>
       <r>  -0.8356  1.0000</r>
       <r>  -0.8235  1.0000</r>
       <r>  -0.7561  1.0000</r>
       <r>  -0.5946  1.0000</r>
       <r>  -0.4583  1.0000</r>
       <r>  -0.3435  1.0000</r>
       <r>  -0.1133  1.0000</r>
       <r>  -0.0770  1.0000</r>
       <r>   0.1368  1.0000</r>
       <r>   0.2593  1.0000</r>
       <r>   0.3873  1.0000</r>
       <r>   0.4191  1.0000</r>
       <r>   0.4214  1.0000</r>
       <r>   0.5006  1.0000</r>
       <r>   0.6137  1.0000</r>
       <r>   0.8139  1.0000</r>
       <r>   0.8141  1.0000</r>
       <r>   0.9018  1.0000</r>
       <r>   4.8074  0.0000</r>
       <r>   6.4908  0.0000</r>
       <r>   7.2789  0.0000</r>
       <r>   9.2933  0.0000</r>
      </set>
      <set comment="kpoint 18">
       <r>  -2.9906  1.0000</r>
       <r>  -2.9906  1.0000</r>
       <r>  -0.9203  1.0000</r>
       <r>  -0.9203  1.0000</r>
       <r>  -0.7152  1.0000</r>
       <r>  -0.7152  1.0000</r>
       <r>  -0.6731  1.0000</r>
       <r>  -0.6731  1.0000</r>
       <r>  -0.5657  1.0000</r>
       <r>  -0.5657  1.0000</r>
       <r>  -0.1193  1.0000</r>
       <r>  -0.1193  1.0000</r>
       <r>   0.2738  1.0000</r>
       <r>   0.2738  1.0000</r>
       <r>   0.3629  1.0000</r>
       <r>   0.3629  1.0000</r>
       <r>   0.3643  1.0000</r>
       <r>   0.3643  1.0000</r>
       <r>   0.7239  1.0000</r>
       <r>   0.7239  1.0000</r>
       <r>   0.8134  1.0000</r>
       <r>   0.8134  1.0000</r>
       <r>   5.5984  0.0000</r>
       <r>   5.5984  0.0000</r>
       <r>   8.2351  0.0000</r>
       <r>   8.2351  0.0000</r>
      </set>
      <set comment="kpoint 19">
       <r>  -4.3957  1.0000</r>
       <r>  -1.3913  1.0000</r>
       <r>  -1.3913  1.0000</r>
       <r>  -1.1487  1.0000</r>
       <r>  -0.9690  1.0000</r>
       <r>  -0.9668  1.0000</r>
       <r>  -0.9668  1.0000</r>
       <r>  -0.4259  1.0000</r>
       <r>  -0.0874  1.0000</r>
       <r>  -0.0797  1.0000</r>
       <r>  -0.0797  1.0000</r>
       <r>  -0.0341  1.0000</r>
       <r>   0.0088  1.0000</r>
       <r>   0.2436  1.0000</r>
       <r>   0.4988  1.0000</r>
       <r>   0.5196  1.0000</r>
       <r>   0.6062  1.0000</r>
       <r>   0.6062  1.0000</r>
       <r>   0.7045  1.0000</r>
       <r>   0.7045  1.0000</r>
       <r>   0.7711  1.0000</r>
       <r>   2.4504  0.0000</r>
       <r>   2.4504  0.0000</r>
       <r>   6.2318  0.0000</r>
       <r>   7.3554  0.0000</r>
       <r>   8.8411  0.0000</r>
      </set>
      <set comment="kpoint 20">
       <r>  -3.9233  1.0000</r>
       <r>  -1.6149  1.0000</r>
       <r>  -1.1862  1.0000</r>
       <r>  -1.0345  1.0000</r>
       <r>  -0.8878  1.0000</r>
       <r>  -0.8829  1.0000</r>
       <r>  -0.8600  1.0000</r>
       <r>  -0.4924  1.0000</r>
       <r>  -0.3383  1.0000</r>
       <r>  -0.2227  1.0000</r>
       <r>  -0.1759  1.0000</r>
       <r>  -0.0958  1.0000</r>
       <r>   0.0419  1.0000</r>
       <r>   0.2148  1.0000</r>
       <r>   0.4169  1.0000</r>
       <r>   0.5016  1.0000</r>
       <r>   0.5394  1.0000</r>
       <r>   0.5686  1.0000</r>
       <r>   0.6157  1.0000</r>
       <r>   0.7033  1.0000</r>
       <r>   0.7348  1.0000</r>
       <r>   1.6739  1.0000</r>
       <r>   3.0068  0.0000</r>
       <r>   6.2238  0.0000</r>
       <r>   6.9311  0.0000</r>
       <r>   9.1489  0.0000</r>
      </set>
      <set comment="kpoint 21">
       <r>  -3.3462  1.0000</r>
       <r>  -2.0831  1.0000</r>
       <r>  -0.9913  1.0000</r>
       <r>  -0.9047  1.0000</r>
       <r>  -0.8310  1.0000</r>
       <r>  -0.7857  1.0000</r>
       <r>  -0.7229  1.0000</r>
       <r>  -0.5813  1.0000</r>
       <r>  -0.5606  1.0000</r>
       <r>  -0.3719  1.0000</r>
       <r>  -0.2619  1.0000</r>
       <r>  -0.1416  1.0000</r>
       <r>   0.1490  1.0000</r>
       <r>   0.2361  1.0000</r>
       <r>   0.3495  1.0000</r>
       <r>   0.4000  1.0000</r>
       <r>   0.4225  1.0000</r>
       <r>   0.4345  1.0000</r>
       <r>   0.7035  1.0000</r>
       <r>   0.7154  1.0000</r>
       <r>   0.7428  1.0000</r>
       <r>   1.1903  1.0000</r>
       <r>   3.6423  0.0000</r>
       <r>   5.2330  0.0000</r>
       <r>   7.7563  0.0000</r>
       <r>   9.5701  0.0000</r>
      </set>
      <set comment="kpoint 22">
       <r>  -2.7055  1.0000</r>
       <r>  -2.7055  1.0000</r>
       <r>  -0.8614  1.0000</r>
       <r>  -0.8614  1.0000</r>
       <r>  -0.7467  1.0000</r>
       <r>  -0.7467  1.0000</r>
       <r>  -0.6823  1.0000</r>
       <r>  -0.6823  1.0000</r>
       <r>  -0.5583  1.0000</r>
       <r>  -0.5583  1.0000</r>
       <r>  -0.2141  1.0000</r>
       <r>  -0.2141  1.0000</r>
       <r>   0.2790  1.0000</r>
       <r>   0.2790  1.0000</r>
       <r>   0.3193  1.0000</r>
       <r>   0.3193  1.0000</r>
       <r>   0.3389  1.0000</r>
       <r>   0.3389  1.0000</r>
       <r>   0.7066  1.0000</r>
       <r>   0.7066  1.0000</r>
       <r>   0.9156  1.0000</r>
       <r>   0.9156  1.0000</r>
       <r>   4.3775  0.0000</r>
       <r>   4.3775  0.0000</r>
       <r>   8.6896  0.0000</r>
       <r>   8.6896  0.0000</r>
      </set>
      <set comment="kpoint 23">
       <r>  -3.4720  1.0000</r>
       <r>  -1.3708  1.0000</r>
       <r>  -1.3708  1.0000</r>
       <r>  -0.9813  1.0000</r>
       <r>  -0.8074  1.0000</r>
       <r>  -0.7939  1.0000</r>
       <r>  -0.7939  1.0000</r>
       <r>  -0.5223  1.0000</r>
       <r>  -0.4124  1.0000</r>
       <r>  -0.4124  1.0000</r>
       <r>  -0.2861  1.0000</r>
       <r>  -0.1292  1.0000</r>
       <r>   0.0944  1.0000</r>
       <r>   0.1793  1.0000</r>
       <r>   0.3491  1.0000</r>
       <r>   0.4410  1.0000</r>
       <r>   0.4410  1.0000</r>
       <r>   0.5695  1.0000</r>
       <r>   0.5695  1.0000</r>
       <r>   0.6643  1.0000</r>
       <r>   0.7491  1.0000</r>
       <r>   2.1353  1.0000</r>
       <r>   2.1353  1.0000</r>
       <r>   5.1014  0.0000</r>
       <r>   7.5940  0.0000</r>
       <r>   9.4874  0.0000</r>
      </set>
      <set comment="kpoint 24">
       <r>  -2.9285  1.0000</r>
       <r>  -1.7811  1.0000</r>
       <r>  -1.1399  1.0000</r>
       <r>  -0.9542  1.0000</r>
       <r>  -0.7255  1.0000</r>
       <r>  -0.7192  1.0000</r>
       <r>  -0.6826  1.0000</r>
       <r>  -0.5746  1.0000</r>
       <r>  -0.5583  1.0000</r>
       <r>  -0.4174  1.0000</r>
       <r>  -0.3768  1.0000</r>
       <r>  -0.1894  1.0000</r>
       <r>   0.1804  1.0000</r>
       <r>   0.1804  1.0000</r>
       <r>   0.2908  1.0000</r>
       <r>   0.3443  1.0000</r>
       <r>   0.3449  1.0000</r>
       <r>   0.4287  1.0000</r>
       <r>   0.5748  1.0000</r>
       <r>   0.6163  1.0000</r>
       <r>   0.9234  1.0000</r>
       <r>   1.5361  1.0000</r>
       <r>   2.6794  0.0000</r>
       <r>   4.1400  0.0000</r>
       <r>   8.3883  0.0000</r>
       <r>   9.9449  0.0000</r>
      </set>
      <set comment="kpoint 25">
       <r>  -2.3381  1.0000</r>
       <r>  -2.3381  1.0000</r>
       <r>  -0.9900  1.0000</r>
       <r>  -0.9900  1.0000</r>
       <r>  -0.6564  1.0000</r>
       <r>  -0.6564  1.0000</r>
       <r>  -0.6432  1.0000</r>
       <r>  -0.6432  1.0000</r>
       <r>  -0.5541  1.0000</r>
       <r>  -0.5541  1.0000</r>
       <r>  -0.2836  1.0000</r>
       <r>  -0.2836  1.0000</r>
       <r>   0.2438  1.0000</r>
       <r>   0.2438  1.0000</r>
       <r>   0.2841  1.0000</r>
       <r>   0.2841  1.0000</r>
       <r>   0.2950  1.0000</r>
       <r>   0.2950  1.0000</r>
       <r>   0.5886  1.0000</r>
       <r>   0.5886  1.0000</r>
       <r>   1.1635  1.0000</r>
       <r>   1.1635  1.0000</r>
       <r>   3.3381  0.0000</r>
       <r>   3.3381  0.0000</r>
       <r>   9.2969  0.0000</r>
       <r>   9.2969  0.0000</r>
      </set>
      <set comment="kpoint 26">
       <r>  -2.4389  1.0000</r>
       <r>  -1.4737  1.0000</r>
       <r>  -1.4737  1.0000</r>
       <r>  -1.0537  1.0000</r>
       <r>  -0.6410  1.0000</r>
       <r>  -0.6410  1.0000</r>
       <r>  -0.6116  1.0000</r>
       <r>  -0.5817  1.0000</r>
       <r>  -0.4810  1.0000</r>
       <r>  -0.4586  1.0000</r>
       <r>  -0.4586  1.0000</r>
       <r>  -0.2456  1.0000</r>
       <r>   0.1458  1.0000</r>
       <r>   0.2300  1.0000</r>
       <r>   0.2397  1.0000</r>
       <r>   0.2579  1.0000</r>
       <r>   0.2579  1.0000</r>
       <r>   0.4452  1.0000</r>
       <r>   0.4452  1.0000</r>
       <r>   0.5349  1.0000</r>
       <r>   1.1566  1.0000</r>
       <r>   1.9633  1.0000</r>
       <r>   1.9633  1.0000</r>
       <r>   3.2326  0.0000</r>
       <r>   9.1546  0.0000</r>
       <r>  10.4440  0.0000</r>
      </set>
      <set comment="kpoint 27">
       <r>  -1.9300  1.0000</r>
       <r>  -1.9300  1.0000</r>
       <r>  -1.2207  1.0000</r>
       <r>  -1.2207  1.0000</r>
       <r>  -0.6051  1.0000</r>
       <r>  -0.6051  1.0000</r>
       <r>  -0.5584  1.0000</r>
       <r>  -0.5584  1.0000</r>
       <r>  -0.5255  1.0000</r>
       <r>  -0.5255  1.0000</r>
       <r>  -0.3394  1.0000</r>
       <r>  -0.3394  1.0000</r>
       <r>   0.1758  1.0000</r>
       <r>   0.1758  1.0000</r>
       <r>   0.2107  1.0000</r>
       <r>   0.2107  1.0000</r>
       <r>   0.3297  1.0000</r>
       <r>   0.3297  1.0000</r>
       <r>   0.4785  1.0000</r>
       <r>   0.4785  1.0000</r>
       <r>   1.4794  1.0000</r>
       <r>   1.4794  1.0000</r>
       <r>   2.5144  0.0000</r>
       <r>   2.5144  0.0000</r>
       <r>  10.0397  0.0000</r>
       <r>  10.0397  0.0000</r>
      </set>
      <set comment="kpoint 28">
       <r>  -1.5395  1.0000</r>
       <r>  -1.5395  1.0000</r>
       <r>  -1.5395  1.0000</r>
       <r>  -1.5395  1.0000</r>
       <r>  -0.5753  1.0000</r>
       <r>  -0.5753  1.0000</r>
       <r>  -0.5753  1.0000</r>
       <r>  -0.5753  1.0000</r>
       <r>  -0.4134  1.0000</r>
       <r>  -0.4134  1.0000</r>
       <r>  -0.4134  1.0000</r>
       <r>  -0.4134  1.0000</r>
       <r>   0.1604  1.0000</r>
       <r>   0.1604  1.0000</r>
       <r>   0.1604  1.0000</r>
       <r>   0.1604  1.0000</r>
       <r>   0.3902  1.0000</r>
       <r>   0.3902  1.0000</r>
       <r>   0.3902  1.0000</r>
       <r>   0.3902  1.0000</r>
       <r>   1.9089  1.0000</r>
       <r>   1.9089  1.0000</r>
       <r>   1.9089  1.0000</r>
       <r>   1.9089  1.0000</r>
       <r>  10.9042  0.0000</r>
       <r>  10.9042  0.0000</r>
      </set>
      <set comment="kpoint 29">
       <r>  -5.4609  1.0000</r>
       <r>  -1.5307  1.0000</r>
       <r>  -1.5307  1.0000</r>
       <r>  -1.5307  1.0000</r>
       <r>  -1.1974  1.0000</r>
       <r>  -1.1974  1.0000</r>
       <r>  -1.1974  1.0000</r>
       <r>  -0.2583  1.0000</r>
       <r>  -0.1867  1.0000</r>
       <r>  -0.1867  1.0000</r>
       <r>   0.3798  1.0000</r>
       <r>   0.3798  1.0000</r>
       <r>   0.7091  1.0000</r>
       <r>   0.7091  1.0000</r>
       <r>   0.7091  1.0000</r>
       <r>   0.7408  1.0000</r>
       <r>   0.7408  1.0000</r>
       <r>   0.7408  1.0000</r>
       <r>   0.8868  1.0000</r>
       <r>   0.8868  1.0000</r>
       <r>   0.8868  1.0000</r>
       <r>   3.7279  0.0000</r>
       <r>   3.7279  0.0000</r>
       <r>   3.7279  0.0000</r>
       <r>   8.9365  0.0000</r>
       <r>   8.9365  0.0000</r>
      </set>
      <set comment="kpoint 30">
       <r>  -5.2429  1.0000</r>
       <r>  -1.5504  1.0000</r>
       <r>  -1.4422  1.0000</r>
       <r>  -1.4422  1.0000</r>
       <r>  -1.1496  1.0000</r>
       <r>  -1.1457  1.0000</r>
       <r>  -1.1457  1.0000</r>
       <r>  -0.3013  1.0000</r>
       <r>  -0.1522  1.0000</r>
       <r>  -0.1491  1.0000</r>
       <r>   0.3367  1.0000</r>
       <r>   0.4053  1.0000</r>
       <r>   0.4815  1.0000</r>
       <r>   0.4815  1.0000</r>
       <r>   0.6042  1.0000</r>
       <r>   0.6847  1.0000</r>
       <r>   0.6881  1.0000</r>
       <r>   0.6881  1.0000</r>
       <r>   0.8545  1.0000</r>
       <r>   0.8790  1.0000</r>
       <r>   0.8790  1.0000</r>
       <r>   2.6840  0.0000</r>
       <r>   4.1290  0.0000</r>
       <r>   4.1290  0.0000</r>
       <r>   9.0712  0.0000</r>
       <r>   9.0712  0.0000</r>
      </set>
      <set comment="kpoint 31">
       <r>  -4.8844  1.0000</r>
       <r>  -1.6414  1.0000</r>
       <r>  -1.3096  1.0000</r>
       <r>  -1.3096  1.0000</r>
       <r>  -1.0730  1.0000</r>
       <r>  -1.0591  1.0000</r>
       <r>  -1.0591  1.0000</r>
       <r>  -0.3786  1.0000</r>
       <r>  -0.0907  1.0000</r>
       <r>  -0.0871  1.0000</r>
       <r>   0.1953  1.0000</r>
       <r>   0.1953  1.0000</r>
       <r>   0.2762  1.0000</r>
       <r>   0.4219  1.0000</r>
       <r>   0.4457  1.0000</r>
       <r>   0.5943  1.0000</r>
       <r>   0.6041  1.0000</r>
       <r>   0.6041  1.0000</r>
       <r>   0.8084  1.0000</r>
       <r>   0.8725  1.0000</r>
       <r>   0.8725  1.0000</r>
       <r>   1.7022  1.0000</r>
       <r>   4.6985  0.0000</r>
       <r>   4.6985  0.0000</r>
       <r>   9.3029  0.0000</r>
       <r>   9.3029  0.0000</r>
      </set>
      <set comment="kpoint 32">
       <r>  -4.3943  1.0000</r>
       <r>  -1.9113  1.0000</r>
       <r>  -1.1563  1.0000</r>
       <r>  -1.1563  1.0000</r>
       <r>  -0.9727  1.0000</r>
       <r>  -0.9399  1.0000</r>
       <r>  -0.9399  1.0000</r>
       <r>  -0.4812  1.0000</r>
       <r>  -0.0940  1.0000</r>
       <r>  -0.0940  1.0000</r>
       <r>  -0.0278  1.0000</r>
       <r>  -0.0023  1.0000</r>
       <r>   0.1768  1.0000</r>
       <r>   0.2307  1.0000</r>
       <r>   0.4791  1.0000</r>
       <r>   0.4981  1.0000</r>
       <r>   0.4996  1.0000</r>
       <r>   0.4996  1.0000</r>
       <r>   0.7527  1.0000</r>
       <r>   0.8688  1.0000</r>
       <r>   0.8688  1.0000</r>
       <r>   1.0246  1.0000</r>
       <r>   5.3820  0.0000</r>
       <r>   5.3820  0.0000</r>
       <r>   8.9731  0.0000</r>
       <r>   8.9731  0.0000</r>
      </set>
      <set comment="kpoint 33">
       <r>  -3.7906  1.0000</r>
       <r>  -2.4348  1.0000</r>
       <r>  -1.0199  1.0000</r>
       <r>  -1.0199  1.0000</r>
       <r>  -0.8552  1.0000</r>
       <r>  -0.7936  1.0000</r>
       <r>  -0.7936  1.0000</r>
       <r>  -0.6007  1.0000</r>
       <r>  -0.3574  1.0000</r>
       <r>  -0.3574  1.0000</r>
       <r>  -0.0223  1.0000</r>
       <r>  -0.0050  1.0000</r>
       <r>   0.1025  1.0000</r>
       <r>   0.2762  1.0000</r>
       <r>   0.3514  1.0000</r>
       <r>   0.4052  1.0000</r>
       <r>   0.4052  1.0000</r>
       <r>   0.5591  1.0000</r>
       <r>   0.6503  1.0000</r>
       <r>   0.6903  1.0000</r>
       <r>   0.8671  1.0000</r>
       <r>   0.8671  1.0000</r>
       <r>   6.1520  0.0000</r>
       <r>   6.1520  0.0000</r>
       <r>   7.9549  0.0000</r>
       <r>   7.9549  0.0000</r>
      </set>
      <set comment="kpoint 34">
       <r>  -3.1102  1.0000</r>
       <r>  -3.1102  1.0000</r>
       <r>  -0.9614  1.0000</r>
       <r>  -0.9614  1.0000</r>
       <r>  -0.7283  1.0000</r>
       <r>  -0.7283  1.0000</r>
       <r>  -0.6594  1.0000</r>
       <r>  -0.6594  1.0000</r>
       <r>  -0.5353  1.0000</r>
       <r>  -0.5353  1.0000</r>
       <r>  -0.0480  1.0000</r>
       <r>  -0.0480  1.0000</r>
       <r>   0.2227  1.0000</r>
       <r>   0.2227  1.0000</r>
       <r>   0.3652  1.0000</r>
       <r>   0.3652  1.0000</r>
       <r>   0.4234  1.0000</r>
       <r>   0.4234  1.0000</r>
       <r>   0.6245  1.0000</r>
       <r>   0.6245  1.0000</r>
       <r>   0.8665  1.0000</r>
       <r>   0.8665  1.0000</r>
       <r>   6.9028  0.0000</r>
       <r>   6.9028  0.0000</r>
       <r>   7.1219  0.0000</r>
       <r>   7.1219  0.0000</r>
      </set>
      <set comment="kpoint 35">
       <r>  -5.0276  1.0000</r>
       <r>  -1.4552  1.0000</r>
       <r>  -1.4552  1.0000</r>
       <r>  -1.3628  1.0000</r>
       <r>  -1.1002  1.0000</r>
       <r>  -1.1002  1.0000</r>
       <r>  -1.0983  1.0000</r>
       <r>  -0.3271  1.0000</r>
       <r>  -0.1310  1.0000</r>
       <r>  -0.1266  1.0000</r>
       <r>   0.3311  1.0000</r>
       <r>   0.3393  1.0000</r>
       <r>   0.3584  1.0000</r>
       <r>   0.3584  1.0000</r>
       <r>   0.4077  1.0000</r>
       <r>   0.6160  1.0000</r>
       <r>   0.6390  1.0000</r>
       <r>   0.6390  1.0000</r>
       <r>   0.8503  1.0000</r>
       <r>   0.8503  1.0000</r>
       <r>   0.8563  1.0000</r>
       <r>   3.0620  0.0000</r>
       <r>   3.0620  0.0000</r>
       <r>   4.4862  0.0000</r>
       <r>   9.2104  0.0000</r>
       <r>   9.9586  0.0000</r>
      </set>
      <set comment="kpoint 36">
       <r>  -4.6739  1.0000</r>
       <r>  -1.5338  1.0000</r>
       <r>  -1.3124  1.0000</r>
       <r>  -1.2445  1.0000</r>
       <r>  -1.0274  1.0000</r>
       <r>  -1.0201  1.0000</r>
       <r>  -1.0177  1.0000</r>
       <r>  -0.3877  1.0000</r>
       <r>  -0.0914  1.0000</r>
       <r>  -0.0802  1.0000</r>
       <r>   0.0729  1.0000</r>
       <r>   0.1170  1.0000</r>
       <r>   0.1733  1.0000</r>
       <r>   0.2912  1.0000</r>
       <r>   0.4536  1.0000</r>
       <r>   0.5387  1.0000</r>
       <r>   0.5486  1.0000</r>
       <r>   0.5745  1.0000</r>
       <r>   0.8072  1.0000</r>
       <r>   0.8323  1.0000</r>
       <r>   0.8336  1.0000</r>
       <r>   2.0635  1.0000</r>
       <r>   3.5766  0.0000</r>
       <r>   5.0116  0.0000</r>
       <r>   8.7075  0.0000</r>
       <r>   9.4652  0.0000</r>
      </set>
      <set comment="kpoint 37">
       <r>  -4.1915  1.0000</r>
       <r>  -1.7847  1.0000</r>
       <r>  -1.1458  1.0000</r>
       <r>  -1.1039  1.0000</r>
       <r>  -0.9320  1.0000</r>
       <r>  -0.9212  1.0000</r>
       <r>  -0.9058  1.0000</r>
       <r>  -0.4771  1.0000</r>
       <r>  -0.1992  1.0000</r>
       <r>  -0.1265  1.0000</r>
       <r>  -0.0650  1.0000</r>
       <r>  -0.0249  1.0000</r>
       <r>  -0.0068  1.0000</r>
       <r>   0.2716  1.0000</r>
       <r>   0.4324  1.0000</r>
       <r>   0.4507  1.0000</r>
       <r>   0.4845  1.0000</r>
       <r>   0.5223  1.0000</r>
       <r>   0.7443  1.0000</r>
       <r>   0.8176  1.0000</r>
       <r>   0.8177  1.0000</r>
       <r>   1.3335  1.0000</r>
       <r>   4.1850  0.0000</r>
       <r>   5.6544  0.0000</r>
       <r>   7.5923  0.0000</r>
       <r>   9.2228  0.0000</r>
      </set>
      <set comment="kpoint 38">
       <r>  -3.5993  1.0000</r>
       <r>  -2.2837  1.0000</r>
       <r>  -0.9878  1.0000</r>
       <r>  -0.9601  1.0000</r>
       <r>  -0.8304  1.0000</r>
       <r>  -0.8212  1.0000</r>
       <r>  -0.7852  1.0000</r>
       <r>  -0.5853  1.0000</r>
       <r>  -0.4270  1.0000</r>
       <r>  -0.3504  1.0000</r>
       <r>  -0.1342  1.0000</r>
       <r>  -0.0869  1.0000</r>
       <r>   0.0831  1.0000</r>
       <r>   0.3083  1.0000</r>
       <r>   0.3358  1.0000</r>
       <r>   0.3726  1.0000</r>
       <r>   0.3940  1.0000</r>
       <r>   0.6056  1.0000</r>
       <r>   0.6432  1.0000</r>
       <r>   0.8092  1.0000</r>
       <r>   0.8096  1.0000</r>
       <r>   0.9071  1.0000</r>
       <r>   4.8767  0.0000</r>
       <r>   6.2865  0.0000</r>
       <r>   6.7049  0.0000</r>
       <r>   8.2046  0.0000</r>
      </set>
      <set comment="kpoint 39">
       <r>  -2.9360  1.0000</r>
       <r>  -2.9360  1.0000</r>
       <r>  -0.8958  1.0000</r>
       <r>  -0.8958  1.0000</r>
       <r>  -0.7533  1.0000</r>
       <r>  -0.7533  1.0000</r>
       <r>  -0.7028  1.0000</r>
       <r>  -0.7028  1.0000</r>
       <r>  -0.5025  1.0000</r>
       <r>  -0.5025  1.0000</r>
       <r>  -0.1334  1.0000</r>
       <r>  -0.1334  1.0000</r>
       <r>   0.1892  1.0000</r>
       <r>   0.1892  1.0000</r>
       <r>   0.3466  1.0000</r>
       <r>   0.3466  1.0000</r>
       <r>   0.4821  1.0000</r>
       <r>   0.4821  1.0000</r>
       <r>   0.7111  1.0000</r>
       <r>   0.7111  1.0000</r>
       <r>   0.8068  1.0000</r>
       <r>   0.8068  1.0000</r>
       <r>   5.6514  0.0000</r>
       <r>   5.6514  0.0000</r>
       <r>   7.2885  0.0000</r>
       <r>   7.2885  0.0000</r>
      </set>
      <set comment="kpoint 40">
       <r>  -4.3290  1.0000</r>
       <r>  -1.3731  1.0000</r>
       <r>  -1.3731  1.0000</r>
       <r>  -1.1527  1.0000</r>
       <r>  -0.9529  1.0000</r>
       <r>  -0.9504  1.0000</r>
       <r>  -0.9504  1.0000</r>
       <r>  -0.4198  1.0000</r>
       <r>  -0.0900  1.0000</r>
       <r>  -0.0900  1.0000</r>
       <r>  -0.0896  1.0000</r>
       <r>  -0.0512  1.0000</r>
       <r>  -0.0179  1.0000</r>
       <r>   0.2773  1.0000</r>
       <r>   0.4592  1.0000</r>
       <r>   0.5019  1.0000</r>
       <r>   0.5019  1.0000</r>
       <r>   0.5088  1.0000</r>
       <r>   0.7767  1.0000</r>
       <r>   0.7767  1.0000</r>
       <r>   0.7910  1.0000</r>
       <r>   2.5275  0.0000</r>
       <r>   2.5275  0.0000</r>
       <r>   5.4812  0.0000</r>
       <r>   7.4552  0.0000</r>
       <r>   9.7248  0.0000</r>
      </set>
      <set comment="kpoint 41">
       <r>  -3.8608  1.0000</r>
       <r>  -1.5954  1.0000</r>
       <r>  -1.1878  1.0000</r>
       <r>  -1.0490  1.0000</r>
       <r>  -0.8698  1.0000</r>
       <r>  -0.8627  1.0000</r>
       <r>  -0.8454  1.0000</r>
       <r>  -0.4808  1.0000</r>
       <r>  -0.3236  1.0000</r>
       <r>  -0.2259  1.0000</r>
       <r>  -0.1861  1.0000</r>
       <r>  -0.0980  1.0000</r>
       <r>   0.0016  1.0000</r>
       <r>   0.2706  1.0000</r>
       <r>   0.3802  1.0000</r>
       <r>   0.3947  1.0000</r>
       <r>   0.4327  1.0000</r>
       <r>   0.6044  1.0000</r>
       <r>   0.7013  1.0000</r>
       <r>   0.7462  1.0000</r>
       <r>   0.7552  1.0000</r>
       <r>   1.7193  1.0000</r>
       <r>   3.0697  0.0000</r>
       <r>   5.9469  0.0000</r>
       <r>   6.4717  0.0000</r>
       <r>   9.6269  0.0000</r>
      </set>
      <set comment="kpoint 42">
       <r>  -3.2906  1.0000</r>
       <r>  -2.0518  1.0000</r>
       <r>  -1.0144  1.0000</r>
       <r>  -0.9418  1.0000</r>
       <r>  -0.8112  1.0000</r>
       <r>  -0.7636  1.0000</r>
       <r>  -0.7442  1.0000</r>
       <r>  -0.5645  1.0000</r>
       <r>  -0.4921  1.0000</r>
       <r>  -0.3508  1.0000</r>
       <r>  -0.2627  1.0000</r>
       <r>  -0.1439  1.0000</r>
       <r>   0.0725  1.0000</r>
       <r>   0.2755  1.0000</r>
       <r>   0.3170  1.0000</r>
       <r>   0.3304  1.0000</r>
       <r>   0.3538  1.0000</r>
       <r>   0.5926  1.0000</r>
       <r>   0.7279  1.0000</r>
       <r>   0.7295  1.0000</r>
       <r>   0.7321  1.0000</r>
       <r>   1.1980  1.0000</r>
       <r>   3.6962  0.0000</r>
       <r>   5.2589  0.0000</r>
       <r>   6.8910  0.0000</r>
       <r>   8.6074  0.0000</r>
      </set>
      <set comment="kpoint 43">
       <r>  -2.6602  1.0000</r>
       <r>  -2.6602  1.0000</r>
       <r>  -0.9010  1.0000</r>
       <r>  -0.9010  1.0000</r>
       <r>  -0.7694  1.0000</r>
       <r>  -0.7694  1.0000</r>
       <r>  -0.6616  1.0000</r>
       <r>  -0.6616  1.0000</r>
       <r>  -0.4803  1.0000</r>
       <r>  -0.4803  1.0000</r>
       <r>  -0.2156  1.0000</r>
       <r>  -0.2156  1.0000</r>
       <r>   0.1643  1.0000</r>
       <r>   0.1643  1.0000</r>
       <r>   0.3038  1.0000</r>
       <r>   0.3038  1.0000</r>
       <r>   0.4545  1.0000</r>
       <r>   0.4545  1.0000</r>
       <r>   0.7233  1.0000</r>
       <r>   0.7233  1.0000</r>
       <r>   0.9040  1.0000</r>
       <r>   0.9040  1.0000</r>
       <r>   4.4230  0.0000</r>
       <r>   4.4230  0.0000</r>
       <r>   7.6932  0.0000</r>
       <r>   7.6932  0.0000</r>
      </set>
      <set comment="kpoint 44">
       <r>  -3.4161  1.0000</r>
       <r>  -1.3791  1.0000</r>
       <r>  -1.3791  1.0000</r>
       <r>  -1.0176  1.0000</r>
       <r>  -0.7840  1.0000</r>
       <r>  -0.7648  1.0000</r>
       <r>  -0.7648  1.0000</r>
       <r>  -0.5025  1.0000</r>
       <r>  -0.3934  1.0000</r>
       <r>  -0.3934  1.0000</r>
       <r>  -0.2704  1.0000</r>
       <r>  -0.1293  1.0000</r>
       <r>   0.0230  1.0000</r>
       <r>   0.2632  1.0000</r>
       <r>   0.3047  1.0000</r>
       <r>   0.3425  1.0000</r>
       <r>   0.3425  1.0000</r>
       <r>   0.6571  1.0000</r>
       <r>   0.6571  1.0000</r>
       <r>   0.6962  1.0000</r>
       <r>   0.7357  1.0000</r>
       <r>   2.1721  1.0000</r>
       <r>   2.1721  1.0000</r>
       <r>   5.1161  0.0000</r>
       <r>   6.7589  0.0000</r>
       <r>  10.1743  0.0000</r>
      </set>
      <set comment="kpoint 45">
       <r>  -2.8829  1.0000</r>
       <r>  -1.7734  1.0000</r>
       <r>  -1.1855  1.0000</r>
       <r>  -1.0136  1.0000</r>
       <r>  -0.7018  1.0000</r>
       <r>  -0.6819  1.0000</r>
       <r>  -0.6551  1.0000</r>
       <r>  -0.5461  1.0000</r>
       <r>  -0.5041  1.0000</r>
       <r>  -0.3671  1.0000</r>
       <r>  -0.3657  1.0000</r>
       <r>  -0.1875  1.0000</r>
       <r>   0.0624  1.0000</r>
       <r>   0.2341  1.0000</r>
       <r>   0.2458  1.0000</r>
       <r>   0.2787  1.0000</r>
       <r>   0.3102  1.0000</r>
       <r>   0.5441  1.0000</r>
       <r>   0.6304  1.0000</r>
       <r>   0.6512  1.0000</r>
       <r>   0.9087  1.0000</r>
       <r>   1.5435  1.0000</r>
       <r>   2.7125  0.0000</r>
       <r>   4.1699  0.0000</r>
       <r>   7.4382  0.0000</r>
       <r>   9.1515  0.0000</r>
      </set>
      <set comment="kpoint 46">
       <r>  -2.3088  1.0000</r>
       <r>  -2.3088  1.0000</r>
       <r>  -1.0600  1.0000</r>
       <r>  -1.0600  1.0000</r>
       <r>  -0.6446  1.0000</r>
       <r>  -0.6446  1.0000</r>
       <r>  -0.6077  1.0000</r>
       <r>  -0.6077  1.0000</r>
       <r>  -0.4689  1.0000</r>
       <r>  -0.4689  1.0000</r>
       <r>  -0.2787  1.0000</r>
       <r>  -0.2787  1.0000</r>
       <r>   0.1341  1.0000</r>
       <r>   0.1341  1.0000</r>
       <r>   0.2346  1.0000</r>
       <r>   0.2346  1.0000</r>
       <r>   0.4165  1.0000</r>
       <r>   0.4165  1.0000</r>
       <r>   0.6283  1.0000</r>
       <r>   0.6283  1.0000</r>
       <r>   1.1529  1.0000</r>
       <r>   1.1529  1.0000</r>
       <r>   3.3701  0.0000</r>
       <r>   3.3701  0.0000</r>
       <r>   8.2395  0.0000</r>
       <r>   8.2395  0.0000</r>
      </set>
      <set comment="kpoint 47">
       <r>  -2.4099  1.0000</r>
       <r>  -1.4991  1.0000</r>
       <r>  -1.4991  1.0000</r>
       <r>  -1.1213  1.0000</r>
       <r>  -0.5909  1.0000</r>
       <r>  -0.5809  1.0000</r>
       <r>  -0.5809  1.0000</r>
       <r>  -0.5388  1.0000</r>
       <r>  -0.4404  1.0000</r>
       <r>  -0.4404  1.0000</r>
       <r>  -0.4056  1.0000</r>
       <r>  -0.2401  1.0000</r>
       <r>   0.0609  1.0000</r>
       <r>   0.1802  1.0000</r>
       <r>   0.1842  1.0000</r>
       <r>   0.1842  1.0000</r>
       <r>   0.3322  1.0000</r>
       <r>   0.5197  1.0000</r>
       <r>   0.5197  1.0000</r>
       <r>   0.5794  1.0000</r>
       <r>   1.1421  1.0000</r>
       <r>   1.9725  1.0000</r>
       <r>   1.9725  1.0000</r>
       <r>   3.2559  0.0000</r>
       <r>   8.1172  0.0000</r>
       <r>   9.8267  0.0000</r>
      </set>
      <set comment="kpoint 48">
       <r>  -1.9256  1.0000</r>
       <r>  -1.9256  1.0000</r>
       <r>  -1.2771  1.0000</r>
       <r>  -1.2771  1.0000</r>
       <r>  -0.5488  1.0000</r>
       <r>  -0.5488  1.0000</r>
       <r>  -0.5123  1.0000</r>
       <r>  -0.5123  1.0000</r>
       <r>  -0.4721  1.0000</r>
       <r>  -0.4721  1.0000</r>
       <r>  -0.3306  1.0000</r>
       <r>  -0.3306  1.0000</r>
       <r>   0.1012  1.0000</r>
       <r>   0.1012  1.0000</r>
       <r>   0.1551  1.0000</r>
       <r>   0.1551  1.0000</r>
       <r>   0.4100  1.0000</r>
       <r>   0.4100  1.0000</r>
       <r>   0.5317  1.0000</r>
       <r>   0.5317  1.0000</r>
       <r>   1.4713  1.0000</r>
       <r>   1.4713  1.0000</r>
       <r>   2.5294  0.0000</r>
       <r>   2.5294  0.0000</r>
       <r>   8.9143  0.0000</r>
       <r>   8.9143  0.0000</r>
      </set>
      <set comment="kpoint 49">
       <r>  -1.5673  1.0000</r>
       <r>  -1.5673  1.0000</r>
       <r>  -1.5673  1.0000</r>
       <r>  -1.5673  1.0000</r>
       <r>  -0.5000  1.0000</r>
       <r>  -0.5000  1.0000</r>
       <r>  -0.5000  1.0000</r>
       <r>  -0.5000  1.0000</r>
       <r>  -0.4006  1.0000</r>
       <r>  -0.4006  1.0000</r>
       <r>  -0.4006  1.0000</r>
       <r>  -0.4006  1.0000</r>
       <r>   0.1006  1.0000</r>
       <r>   0.1006  1.0000</r>
       <r>   0.1006  1.0000</r>
       <r>   0.1006  1.0000</r>
       <r>   0.4515  1.0000</r>
       <r>   0.4515  1.0000</r>
       <r>   0.4515  1.0000</r>
       <r>   0.4515  1.0000</r>
       <r>   1.9089  1.0000</r>
       <r>   1.9089  1.0000</r>
       <r>   1.9089  1.0000</r>
       <r>   1.9089  1.0000</r>
       <r>   9.7106  0.0000</r>
       <r>   9.7106  0.0000</r>
      </set>
      <set comment="kpoint 50">
       <r>  -4.8156  1.0000</r>
       <r>  -1.3739  1.0000</r>
       <r>  -1.3739  1.0000</r>
       <r>  -1.3739  1.0000</r>
       <r>  -1.0532  1.0000</r>
       <r>  -1.0532  1.0000</r>
       <r>  -1.0532  1.0000</r>
       <r>  -0.3434  1.0000</r>
       <r>  -0.1171  1.0000</r>
       <r>  -0.1171  1.0000</r>
       <r>   0.2239  1.0000</r>
       <r>   0.2239  1.0000</r>
       <r>   0.2239  1.0000</r>
       <r>   0.3750  1.0000</r>
       <r>   0.3750  1.0000</r>
       <r>   0.5369  1.0000</r>
       <r>   0.5369  1.0000</r>
       <r>   0.5369  1.0000</r>
       <r>   0.8597  1.0000</r>
       <r>   0.8597  1.0000</r>
       <r>   0.8597  1.0000</r>
       <r>   3.3825  0.0000</r>
       <r>   3.3825  0.0000</r>
       <r>   3.3825  0.0000</r>
       <r>  10.1907  0.0000</r>
       <r>  10.1907  0.0000</r>
      </set>
      <set comment="kpoint 51">
       <r>  -4.4679  1.0000</r>
       <r>  -1.4481  1.0000</r>
       <r>  -1.2554  1.0000</r>
       <r>  -1.2554  1.0000</r>
       <r>  -0.9797  1.0000</r>
       <r>  -0.9748  1.0000</r>
       <r>  -0.9748  1.0000</r>
       <r>  -0.3883  1.0000</r>
       <r>  -0.0929  1.0000</r>
       <r>  -0.0888  1.0000</r>
       <r>   0.0141  1.0000</r>
       <r>   0.0141  1.0000</r>
       <r>   0.0514  1.0000</r>
       <r>   0.3396  1.0000</r>
       <r>   0.4338  1.0000</r>
       <r>   0.4401  1.0000</r>
       <r>   0.4657  1.0000</r>
       <r>   0.4657  1.0000</r>
       <r>   0.8408  1.0000</r>
       <r>   0.8408  1.0000</r>
       <r>   0.8452  1.0000</r>
       <r>   2.3434  0.0000</r>
       <r>   3.8462  0.0000</r>
       <r>   3.8462  0.0000</r>
       <r>   8.9574  0.0000</r>
       <r>   8.9574  0.0000</r>
      </set>
      <set comment="kpoint 52">
       <r>  -3.9951  1.0000</r>
       <r>  -1.6850  1.0000</r>
       <r>  -1.1192  1.0000</r>
       <r>  -1.1192  1.0000</r>
       <r>  -0.8839  1.0000</r>
       <r>  -0.8775  1.0000</r>
       <r>  -0.8775  1.0000</r>
       <r>  -0.4624  1.0000</r>
       <r>  -0.2003  1.0000</r>
       <r>  -0.2003  1.0000</r>
       <r>  -0.1162  1.0000</r>
       <r>  -0.0809  1.0000</r>
       <r>  -0.0423  1.0000</r>
       <r>   0.3215  1.0000</r>
       <r>   0.3452  1.0000</r>
       <r>   0.3953  1.0000</r>
       <r>   0.3953  1.0000</r>
       <r>   0.5182  1.0000</r>
       <r>   0.8089  1.0000</r>
       <r>   0.8142  1.0000</r>
       <r>   0.8142  1.0000</r>
       <r>   1.5387  1.0000</r>
       <r>   4.4130  0.0000</r>
       <r>   4.4130  0.0000</r>
       <r>   7.8415  0.0000</r>
       <r>   7.8415  0.0000</r>
      </set>
      <set comment="kpoint 53">
       <r>  -3.4179  1.0000</r>
       <r>  -2.1555  1.0000</r>
       <r>  -0.9815  1.0000</r>
       <r>  -0.9815  1.0000</r>
       <r>  -0.8096  1.0000</r>
       <r>  -0.8096  1.0000</r>
       <r>  -0.7756  1.0000</r>
       <r>  -0.5572  1.0000</r>
       <r>  -0.3635  1.0000</r>
       <r>  -0.3635  1.0000</r>
       <r>  -0.1919  1.0000</r>
       <r>  -0.1154  1.0000</r>
       <r>   0.0241  1.0000</r>
       <r>   0.2107  1.0000</r>
       <r>   0.3271  1.0000</r>
       <r>   0.3271  1.0000</r>
       <r>   0.4455  1.0000</r>
       <r>   0.6012  1.0000</r>
       <r>   0.7528  1.0000</r>
       <r>   0.7945  1.0000</r>
       <r>   0.7945  1.0000</r>
       <r>   0.9981  1.0000</r>
       <r>   5.0528  0.0000</r>
       <r>   5.0528  0.0000</r>
       <r>   6.8726  0.0000</r>
       <r>   6.8726  0.0000</r>
      </set>
      <set comment="kpoint 54">
       <r>  -2.7773  1.0000</r>
       <r>  -2.7773  1.0000</r>
       <r>  -0.8857  1.0000</r>
       <r>  -0.8857  1.0000</r>
       <r>  -0.8243  1.0000</r>
       <r>  -0.8243  1.0000</r>
       <r>  -0.6641  1.0000</r>
       <r>  -0.6641  1.0000</r>
       <r>  -0.4212  1.0000</r>
       <r>  -0.4212  1.0000</r>
       <r>  -0.1720  1.0000</r>
       <r>  -0.1720  1.0000</r>
       <r>   0.1096  1.0000</r>
       <r>   0.1096  1.0000</r>
       <r>   0.2959  1.0000</r>
       <r>   0.2959  1.0000</r>
       <r>   0.6559  1.0000</r>
       <r>   0.6559  1.0000</r>
       <r>   0.6816  1.0000</r>
       <r>   0.6816  1.0000</r>
       <r>   0.7875  1.0000</r>
       <r>   0.7875  1.0000</r>
       <r>   5.5407  0.0000</r>
       <r>   5.5407  0.0000</r>
       <r>   6.2749  0.0000</r>
       <r>   6.2749  0.0000</r>
      </set>
      <set comment="kpoint 55">
       <r>  -4.1313  1.0000</r>
       <r>  -1.3279  1.0000</r>
       <r>  -1.3279  1.0000</r>
       <r>  -1.1815  1.0000</r>
       <r>  -0.8997  1.0000</r>
       <r>  -0.8980  1.0000</r>
       <r>  -0.8980  1.0000</r>
       <r>  -0.4044  1.0000</r>
       <r>  -0.1238  1.0000</r>
       <r>  -0.1238  1.0000</r>
       <r>  -0.0949  1.0000</r>
       <r>  -0.0897  1.0000</r>
       <r>  -0.0820  1.0000</r>
       <r>   0.3570  1.0000</r>
       <r>   0.3659  1.0000</r>
       <r>   0.3659  1.0000</r>
       <r>   0.3688  1.0000</r>
       <r>   0.4813  1.0000</r>
       <r>   0.8239  1.0000</r>
       <r>   0.8326  1.0000</r>
       <r>   0.8326  1.0000</r>
       <r>   2.7487  0.0000</r>
       <r>   2.7487  0.0000</r>
       <r>   4.2502  0.0000</r>
       <r>   7.7072  0.0000</r>
       <r>   9.3630  0.0000</r>
      </set>
      <set comment="kpoint 56">
       <r>  -3.6768  1.0000</r>
       <r>  -1.5461  1.0000</r>
       <r>  -1.2012  1.0000</r>
       <r>  -1.1082  1.0000</r>
       <r>  -0.8084  1.0000</r>
       <r>  -0.7987  1.0000</r>
       <r>  -0.7935  1.0000</r>
       <r>  -0.4459  1.0000</r>
       <r>  -0.2852  1.0000</r>
       <r>  -0.2364  1.0000</r>
       <r>  -0.2104  1.0000</r>
       <r>  -0.1053  1.0000</r>
       <r>  -0.0584  1.0000</r>
       <r>   0.2558  1.0000</r>
       <r>   0.2944  1.0000</r>
       <r>   0.3092  1.0000</r>
       <r>   0.3755  1.0000</r>
       <r>   0.5751  1.0000</r>
       <r>   0.7925  1.0000</r>
       <r>   0.7984  1.0000</r>
       <r>   0.7993  1.0000</r>
       <r>   1.8645  1.0000</r>
       <r>   3.2509  0.0000</r>
       <r>   4.7324  0.0000</r>
       <r>   6.6354  0.0000</r>
       <r>   8.2403  0.0000</r>
      </set>
      <set comment="kpoint 57">
       <r>  -3.1283  1.0000</r>
       <r>  -1.9669  1.0000</r>
       <r>  -1.0938  1.0000</r>
       <r>  -1.0490  1.0000</r>
       <r>  -0.7432  1.0000</r>
       <r>  -0.7184  1.0000</r>
       <r>  -0.6932  1.0000</r>
       <r>  -0.5115  1.0000</r>
       <r>  -0.3703  1.0000</r>
       <r>  -0.3015  1.0000</r>
       <r>  -0.2659  1.0000</r>
       <r>  -0.1518  1.0000</r>
       <r>  -0.0124  1.0000</r>
       <r>   0.1498  1.0000</r>
       <r>   0.2384  1.0000</r>
       <r>   0.2531  1.0000</r>
       <r>   0.4688  1.0000</r>
       <r>   0.6923  1.0000</r>
       <r>   0.7335  1.0000</r>
       <r>   0.7642  1.0000</r>
       <r>   0.7668  1.0000</r>
       <r>   1.2435  1.0000</r>
       <r>   3.8424  0.0000</r>
       <r>   5.0206  0.0000</r>
       <r>   6.0090  0.0000</r>
       <r>   7.2551  0.0000</r>
      </set>
      <set comment="kpoint 58">
       <r>  -2.5312  1.0000</r>
       <r>  -2.5312  1.0000</r>
       <r>  -1.0350  1.0000</r>
       <r>  -1.0350  1.0000</r>
       <r>  -0.7175  1.0000</r>
       <r>  -0.7175  1.0000</r>
       <r>  -0.5953  1.0000</r>
       <r>  -0.5953  1.0000</r>
       <r>  -0.3540  1.0000</r>
       <r>  -0.3540  1.0000</r>
       <r>  -0.2212  1.0000</r>
       <r>  -0.2212  1.0000</r>
       <r>   0.0581  1.0000</r>
       <r>   0.0581  1.0000</r>
       <r>   0.2202  1.0000</r>
       <r>   0.2202  1.0000</r>
       <r>   0.6189  1.0000</r>
       <r>   0.6189  1.0000</r>
       <r>   0.7537  1.0000</r>
       <r>   0.7537  1.0000</r>
       <r>   0.8746  1.0000</r>
       <r>   0.8746  1.0000</r>
       <r>   4.5076  0.0000</r>
       <r>   4.5076  0.0000</r>
       <r>   6.4332  0.0000</r>
       <r>   6.4332  0.0000</r>
      </set>
      <set comment="kpoint 59">
       <r>  -3.2527  1.0000</r>
       <r>  -1.4034  1.0000</r>
       <r>  -1.4034  1.0000</r>
       <r>  -1.1202  1.0000</r>
       <r>  -0.7146  1.0000</r>
       <r>  -0.6822  1.0000</r>
       <r>  -0.6822  1.0000</r>
       <r>  -0.4395  1.0000</r>
       <r>  -0.3382  1.0000</r>
       <r>  -0.3382  1.0000</r>
       <r>  -0.2304  1.0000</r>
       <r>  -0.1310  1.0000</r>
       <r>  -0.0604  1.0000</r>
       <r>   0.2071  1.0000</r>
       <r>   0.2071  1.0000</r>
       <r>   0.2088  1.0000</r>
       <r>   0.3835  1.0000</r>
       <r>   0.6977  1.0000</r>
       <r>   0.7553  1.0000</r>
       <r>   0.7577  1.0000</r>
       <r>   0.7577  1.0000</r>
       <r>   2.2857  0.8010</r>
       <r>   2.2857  0.8010</r>
       <r>   4.8360  0.0000</r>
       <r>   5.9202  0.0000</r>
       <r>   8.7801  0.0000</r>
      </set>
      <set comment="kpoint 60">
       <r>  -2.7530  1.0000</r>
       <r>  -1.7551  1.0000</r>
       <r>  -1.2858  1.0000</r>
       <r>  -1.1506  1.0000</r>
       <r>  -0.6351  1.0000</r>
       <r>  -0.5898  1.0000</r>
       <r>  -0.5723  1.0000</r>
       <r>  -0.4539  1.0000</r>
       <r>  -0.3666  1.0000</r>
       <r>  -0.3313  1.0000</r>
       <r>  -0.2556  1.0000</r>
       <r>  -0.1839  1.0000</r>
       <r>  -0.0368  1.0000</r>
       <r>   0.1061  1.0000</r>
       <r>   0.1501  1.0000</r>
       <r>   0.1620  1.0000</r>
       <r>   0.4448  1.0000</r>
       <r>   0.6803  1.0000</r>
       <r>   0.7166  1.0000</r>
       <r>   0.7173  1.0000</r>
       <r>   0.8653  1.0000</r>
       <r>   1.5741  1.0000</r>
       <r>   2.8076  0.0000</r>
       <r>   4.1949  0.0000</r>
       <r>   6.2275  0.0000</r>
       <r>   7.7811  0.0000</r>
      </set>
      <set comment="kpoint 61">
       <r>  -2.2291  1.0000</r>
       <r>  -2.2291  1.0000</r>
       <r>  -1.2029  1.0000</r>
       <r>  -1.2029  1.0000</r>
       <r>  -0.5895  1.0000</r>
       <r>  -0.5895  1.0000</r>
       <r>  -0.4949  1.0000</r>
       <r>  -0.4949  1.0000</r>
       <r>  -0.3041  1.0000</r>
       <r>  -0.3041  1.0000</r>
       <r>  -0.2661  1.0000</r>
       <r>  -0.2661  1.0000</r>
       <r>   0.0209  1.0000</r>
       <r>   0.0209  1.0000</r>
       <r>   0.1335  1.0000</r>
       <r>   0.1335  1.0000</r>
       <r>   0.5635  1.0000</r>
       <r>   0.5635  1.0000</r>
       <r>   0.7003  1.0000</r>
       <r>   0.7003  1.0000</r>
       <r>   1.1238  1.0000</r>
       <r>   1.1238  1.0000</r>
       <r>   3.4468  0.0000</r>
       <r>   3.4468  0.0000</r>
       <r>   6.9217  0.0000</r>
       <r>   6.9217  0.0000</r>
      </set>
      <set comment="kpoint 62">
       <r>  -2.3306  1.0000</r>
       <r>  -1.5590  1.0000</r>
       <r>  -1.5590  1.0000</r>
       <r>  -1.2652  1.0000</r>
       <r>  -0.5335  1.0000</r>
       <r>  -0.4523  1.0000</r>
       <r>  -0.4523  1.0000</r>
       <r>  -0.4011  1.0000</r>
       <r>  -0.3570  1.0000</r>
       <r>  -0.3570  1.0000</r>
       <r>  -0.2381  1.0000</r>
       <r>  -0.2259  1.0000</r>
       <r>  -0.0434  1.0000</r>
       <r>   0.0695  1.0000</r>
       <r>   0.0695  1.0000</r>
       <r>   0.0807  1.0000</r>
       <r>   0.4583  1.0000</r>
       <r>   0.6356  1.0000</r>
       <r>   0.6356  1.0000</r>
       <r>   0.6631  1.0000</r>
       <r>   1.0981  1.0000</r>
       <r>   2.0020  1.0000</r>
       <r>   2.0020  1.0000</r>
       <r>   3.3040  0.0000</r>
       <r>   6.8142  0.0000</r>
       <r>   8.4393  0.0000</r>
      </set>
      <set comment="kpoint 63">
       <r>  -1.9152  1.0000</r>
       <r>  -1.9152  1.0000</r>
       <r>  -1.3973  1.0000</r>
       <r>  -1.3973  1.0000</r>
       <r>  -0.4638  1.0000</r>
       <r>  -0.4638  1.0000</r>
       <r>  -0.3780  1.0000</r>
       <r>  -0.3780  1.0000</r>
       <r>  -0.3075  1.0000</r>
       <r>  -0.3075  1.0000</r>
       <r>  -0.2771  1.0000</r>
       <r>  -0.2771  1.0000</r>
       <r>  -0.0063  1.0000</r>
       <r>  -0.0063  1.0000</r>
       <r>   0.0518  1.0000</r>
       <r>   0.0518  1.0000</r>
       <r>   0.5342  1.0000</r>
       <r>   0.5342  1.0000</r>
       <r>   0.6278  1.0000</r>
       <r>   0.6278  1.0000</r>
       <r>   1.4473  1.0000</r>
       <r>   1.4473  1.0000</r>
       <r>   2.5683  0.0000</r>
       <r>   2.5683  0.0000</r>
       <r>   7.5589  0.0000</r>
       <r>   7.5589  0.0000</r>
      </set>
      <set comment="kpoint 64">
       <r>  -1.6322  1.0000</r>
       <r>  -1.6322  1.0000</r>
       <r>  -1.6322  1.0000</r>
       <r>  -1.6322  1.0000</r>
       <r>  -0.3668  1.0000</r>
       <r>  -0.3668  1.0000</r>
       <r>  -0.3668  1.0000</r>
       <r>  -0.3668  1.0000</r>
       <r>  -0.2929  1.0000</r>
       <r>  -0.2929  1.0000</r>
       <r>  -0.2929  1.0000</r>
       <r>  -0.2929  1.0000</r>
       <r>  -0.0027  1.0000</r>
       <r>  -0.0027  1.0000</r>
       <r>  -0.0027  1.0000</r>
       <r>  -0.0027  1.0000</r>
       <r>   0.5589  1.0000</r>
       <r>   0.5589  1.0000</r>
       <r>   0.5589  1.0000</r>
       <r>   0.5589  1.0000</r>
       <r>   1.9077  1.0000</r>
       <r>   1.9077  1.0000</r>
       <r>   1.9077  1.0000</r>
       <r>   1.9077  1.0000</r>
       <r>   8.3276  0.0000</r>
       <r>   8.3276  0.0000</r>
      </set>
      <set comment="kpoint 65">
       <r>  -3.8103  1.0000</r>
       <r>  -1.2760  1.0000</r>
       <r>  -1.2760  1.0000</r>
       <r>  -1.2760  1.0000</r>
       <r>  -0.8083  1.0000</r>
       <r>  -0.8083  1.0000</r>
       <r>  -0.8083  1.0000</r>
       <r>  -0.3895  1.0000</r>
       <r>  -0.1807  1.0000</r>
       <r>  -0.1807  1.0000</r>
       <r>  -0.1807  1.0000</r>
       <r>  -0.1019  1.0000</r>
       <r>  -0.1019  1.0000</r>
       <r>   0.2612  1.0000</r>
       <r>   0.2612  1.0000</r>
       <r>   0.2612  1.0000</r>
       <r>   0.4556  1.0000</r>
       <r>   0.4556  1.0000</r>
       <r>   0.8412  1.0000</r>
       <r>   0.8412  1.0000</r>
       <r>   0.8412  1.0000</r>
       <r>   3.0901  0.0000</r>
       <r>   3.0901  0.0000</r>
       <r>   3.0901  0.0000</r>
       <r>   8.1075  0.0000</r>
       <r>   8.1075  0.0000</r>
      </set>
      <set comment="kpoint 66">
       <r>  -3.3818  1.0000</r>
       <r>  -1.4884  1.0000</r>
       <r>  -1.2328  1.0000</r>
       <r>  -1.2328  1.0000</r>
       <r>  -0.7046  1.0000</r>
       <r>  -0.7046  1.0000</r>
       <r>  -0.6911  1.0000</r>
       <r>  -0.3899  1.0000</r>
       <r>  -0.2512  1.0000</r>
       <r>  -0.2341  1.0000</r>
       <r>  -0.2341  1.0000</r>
       <r>  -0.1195  1.0000</r>
       <r>  -0.1001  1.0000</r>
       <r>   0.1540  1.0000</r>
       <r>   0.1915  1.0000</r>
       <r>   0.1915  1.0000</r>
       <r>   0.4749  1.0000</r>
       <r>   0.5579  1.0000</r>
       <r>   0.8174  1.0000</r>
       <r>   0.8174  1.0000</r>
       <r>   0.8327  1.0000</r>
       <r>   2.1193  1.0000</r>
       <r>   3.5247  0.0000</r>
       <r>   3.5247  0.0000</r>
       <r>   7.0126  0.0000</r>
       <r>   7.0126  0.0000</r>
      </set>
      <set comment="kpoint 67">
       <r>  -2.8748  1.0000</r>
       <r>  -1.8524  1.0000</r>
       <r>  -1.2043  1.0000</r>
       <r>  -1.2043  1.0000</r>
       <r>  -0.6366  1.0000</r>
       <r>  -0.6366  1.0000</r>
       <r>  -0.5704  1.0000</r>
       <r>  -0.4161  1.0000</r>
       <r>  -0.2695  1.0000</r>
       <r>  -0.2433  1.0000</r>
       <r>  -0.2433  1.0000</r>
       <r>  -0.1665  1.0000</r>
       <r>  -0.0726  1.0000</r>
       <r>   0.0581  1.0000</r>
       <r>   0.1425  1.0000</r>
       <r>   0.1425  1.0000</r>
       <r>   0.6036  1.0000</r>
       <r>   0.6538  1.0000</r>
       <r>   0.7854  1.0000</r>
       <r>   0.7854  1.0000</r>
       <r>   0.7967  1.0000</r>
       <r>   1.3866  1.0000</r>
       <r>   4.0023  0.0000</r>
       <r>   4.0023  0.0000</r>
       <r>   6.1336  0.0000</r>
       <r>   6.1336  0.0000</r>
      </set>
      <set comment="kpoint 68">
       <r>  -2.3400  1.0000</r>
       <r>  -2.3400  1.0000</r>
       <r>  -1.1940  1.0000</r>
       <r>  -1.1940  1.0000</r>
       <r>  -0.6196  1.0000</r>
       <r>  -0.6196  1.0000</r>
       <r>  -0.4742  1.0000</r>
       <r>  -0.4742  1.0000</r>
       <r>  -0.2317  1.0000</r>
       <r>  -0.2317  1.0000</r>
       <r>  -0.2302  1.0000</r>
       <r>  -0.2302  1.0000</r>
       <r>  -0.0190  1.0000</r>
       <r>  -0.0190  1.0000</r>
       <r>   0.1204  1.0000</r>
       <r>   0.1204  1.0000</r>
       <r>   0.7355  1.0000</r>
       <r>   0.7355  1.0000</r>
       <r>   0.7708  1.0000</r>
       <r>   0.7708  1.0000</r>
       <r>   0.8934  1.0000</r>
       <r>   0.8934  1.0000</r>
       <r>   4.2863  0.0000</r>
       <r>   4.2863  0.0000</r>
       <r>   5.7145  0.0000</r>
       <r>   5.7145  0.0000</r>
      </set>
      <set comment="kpoint 69">
       <r>  -2.9969  1.0000</r>
       <r>  -1.4380  1.0000</r>
       <r>  -1.4380  1.0000</r>
       <r>  -1.2748  1.0000</r>
       <r>  -0.6077  1.0000</r>
       <r>  -0.5720  1.0000</r>
       <r>  -0.5720  1.0000</r>
       <r>  -0.3249  1.0000</r>
       <r>  -0.2466  1.0000</r>
       <r>  -0.2466  1.0000</r>
       <r>  -0.1776  1.0000</r>
       <r>  -0.1381  1.0000</r>
       <r>  -0.1220  1.0000</r>
       <r>   0.0895  1.0000</r>
       <r>   0.0895  1.0000</r>
       <r>   0.1019  1.0000</r>
       <r>   0.5038  1.0000</r>
       <r>   0.6457  1.0000</r>
       <r>   0.8035  1.0000</r>
       <r>   0.8157  1.0000</r>
       <r>   0.8157  1.0000</r>
       <r>   2.4810  0.0000</r>
       <r>   2.4810  0.0000</r>
       <r>   3.8186  0.0000</r>
       <r>   6.0343  0.0000</r>
       <r>   7.5350  0.0000</r>
      </set>
      <set comment="kpoint 70">
       <r>  -2.5585  1.0000</r>
       <r>  -1.7347  1.0000</r>
       <r>  -1.3964  1.0000</r>
       <r>  -1.3179  1.0000</r>
       <r>  -0.5380  1.0000</r>
       <r>  -0.5085  1.0000</r>
       <r>  -0.4297  1.0000</r>
       <r>  -0.2804  1.0000</r>
       <r>  -0.2470  1.0000</r>
       <r>  -0.1859  1.0000</r>
       <r>  -0.1840  1.0000</r>
       <r>  -0.1251  1.0000</r>
       <r>  -0.1113  1.0000</r>
       <r>   0.0002  1.0000</r>
       <r>   0.0458  1.0000</r>
       <r>   0.0490  1.0000</r>
       <r>   0.5788  1.0000</r>
       <r>   0.7741  1.0000</r>
       <r>   0.7794  1.0000</r>
       <r>   0.7799  1.0000</r>
       <r>   0.7965  1.0000</r>
       <r>   1.6566  1.0000</r>
       <r>   2.9432  0.0000</r>
       <r>   3.8767  0.0000</r>
       <r>   5.5744  0.0000</r>
       <r>   6.5925  0.0000</r>
      </set>
      <set comment="kpoint 71">
       <r>  -2.1192  1.0000</r>
       <r>  -2.1192  1.0000</r>
       <r>  -1.3580  1.0000</r>
       <r>  -1.3580  1.0000</r>
       <r>  -0.5059  1.0000</r>
       <r>  -0.5059  1.0000</r>
       <r>  -0.3069  1.0000</r>
       <r>  -0.3069  1.0000</r>
       <r>  -0.2377  1.0000</r>
       <r>  -0.2377  1.0000</r>
       <r>  -0.1182  1.0000</r>
       <r>  -0.1182  1.0000</r>
       <r>  -0.0686  1.0000</r>
       <r>  -0.0686  1.0000</r>
       <r>   0.0269  1.0000</r>
       <r>   0.0269  1.0000</r>
       <r>   0.7007  1.0000</r>
       <r>   0.7007  1.0000</r>
       <r>   0.7596  1.0000</r>
       <r>   0.7596  1.0000</r>
       <r>   1.0927  1.0000</r>
       <r>   1.0927  1.0000</r>
       <r>   3.4720  0.0000</r>
       <r>   3.4720  0.0000</r>
       <r>   5.8722  0.0000</r>
       <r>   5.8722  0.0000</r>
      </set>
      <set comment="kpoint 72">
       <r>  -2.2204  1.0000</r>
       <r>  -1.6268  1.0000</r>
       <r>  -1.6268  1.0000</r>
       <r>  -1.4252  1.0000</r>
       <r>  -0.4536  1.0000</r>
       <r>  -0.3814  1.0000</r>
       <r>  -0.3814  1.0000</r>
       <r>  -0.2177  1.0000</r>
       <r>  -0.1378  1.0000</r>
       <r>  -0.1374  1.0000</r>
       <r>  -0.1374  1.0000</r>
       <r>  -0.1285  1.0000</r>
       <r>  -0.0360  1.0000</r>
       <r>  -0.0269  1.0000</r>
       <r>  -0.0269  1.0000</r>
       <r>  -0.0224  1.0000</r>
       <r>   0.5774  1.0000</r>
       <r>   0.7355  1.0000</r>
       <r>   0.7355  1.0000</r>
       <r>   0.7403  1.0000</r>
       <r>   1.0228  1.0000</r>
       <r>   2.0569  1.0000</r>
       <r>   2.0569  1.0000</r>
       <r>   3.2742  0.0000</r>
       <r>   5.7917  0.0000</r>
       <r>   7.2118  0.0000</r>
      </set>
      <set comment="kpoint 73">
       <r>  -1.9019  1.0000</r>
       <r>  -1.9019  1.0000</r>
       <r>  -1.5263  1.0000</r>
       <r>  -1.5263  1.0000</r>
       <r>  -0.4003  1.0000</r>
       <r>  -0.4003  1.0000</r>
       <r>  -0.2793  1.0000</r>
       <r>  -0.2793  1.0000</r>
       <r>  -0.1219  1.0000</r>
       <r>  -0.1219  1.0000</r>
       <r>  -0.0714  1.0000</r>
       <r>  -0.0714  1.0000</r>
       <r>  -0.0615  1.0000</r>
       <r>  -0.0615  1.0000</r>
       <r>  -0.0138  1.0000</r>
       <r>  -0.0138  1.0000</r>
       <r>   0.6527  1.0000</r>
       <r>   0.6527  1.0000</r>
       <r>   0.7160  1.0000</r>
       <r>   0.7160  1.0000</r>
       <r>   1.4114  1.0000</r>
       <r>   1.4114  1.0000</r>
       <r>   2.6037  0.0000</r>
       <r>   2.6037  0.0000</r>
       <r>   6.3984  0.0000</r>
       <r>   6.3984  0.0000</r>
      </set>
      <set comment="kpoint 74">
       <r>  -1.7047  1.0000</r>
       <r>  -1.7047  1.0000</r>
       <r>  -1.7047  1.0000</r>
       <r>  -1.7047  1.0000</r>
       <r>  -0.3221  1.0000</r>
       <r>  -0.3221  1.0000</r>
       <r>  -0.3221  1.0000</r>
       <r>  -0.3221  1.0000</r>
       <r>  -0.0993  1.0000</r>
       <r>  -0.0993  1.0000</r>
       <r>  -0.0993  1.0000</r>
       <r>  -0.0993  1.0000</r>
       <r>   0.0084  1.0000</r>
       <r>   0.0084  1.0000</r>
       <r>   0.0084  1.0000</r>
       <r>   0.0084  1.0000</r>
       <r>   0.6610  1.0000</r>
       <r>   0.6610  1.0000</r>
       <r>   0.6610  1.0000</r>
       <r>   0.6610  1.0000</r>
       <r>   1.9014  1.0000</r>
       <r>   1.9014  1.0000</r>
       <r>   1.9014  1.0000</r>
       <r>   1.9014  1.0000</r>
       <r>   7.1081  0.0000</r>
       <r>   7.1081  0.0000</r>
      </set>
      <set comment="kpoint 75">
       <r>  -2.6762  1.0000</r>
       <r>  -1.4725  1.0000</r>
       <r>  -1.4725  1.0000</r>
       <r>  -1.4725  1.0000</r>
       <r>  -0.4802  1.0000</r>
       <r>  -0.4802  1.0000</r>
       <r>  -0.4802  1.0000</r>
       <r>  -0.1598  1.0000</r>
       <r>  -0.1560  1.0000</r>
       <r>  -0.1560  1.0000</r>
       <r>  -0.1179  1.0000</r>
       <r>  -0.1179  1.0000</r>
       <r>  -0.1179  1.0000</r>
       <r>   0.0030  1.0000</r>
       <r>   0.0030  1.0000</r>
       <r>   0.0030  1.0000</r>
       <r>   0.6145  1.0000</r>
       <r>   0.6145  1.0000</r>
       <r>   0.8259  1.0000</r>
       <r>   0.8259  1.0000</r>
       <r>   0.8259  1.0000</r>
       <r>   2.7503  0.0000</r>
       <r>   2.7503  0.0000</r>
       <r>   2.7503  0.0000</r>
       <r>   6.4834  0.0000</r>
       <r>   6.4834  0.0000</r>
      </set>
      <set comment="kpoint 76">
       <r>  -2.3303  1.0000</r>
       <r>  -1.7131  1.0000</r>
       <r>  -1.4973  1.0000</r>
       <r>  -1.4973  1.0000</r>
       <r>  -0.4302  1.0000</r>
       <r>  -0.4302  1.0000</r>
       <r>  -0.3552  1.0000</r>
       <r>  -0.1923  1.0000</r>
       <r>  -0.1600  1.0000</r>
       <r>  -0.0776  1.0000</r>
       <r>  -0.0532  1.0000</r>
       <r>  -0.0519  1.0000</r>
       <r>  -0.0519  1.0000</r>
       <r>  -0.0134  1.0000</r>
       <r>   0.0161  1.0000</r>
       <r>   0.0161  1.0000</r>
       <r>   0.7077  1.0000</r>
       <r>   0.7226  1.0000</r>
       <r>   0.8043  1.0000</r>
       <r>   0.8043  1.0000</r>
       <r>   0.8172  1.0000</r>
       <r>   1.8353  1.0000</r>
       <r>   3.0424  0.0000</r>
       <r>   3.0424  0.0000</r>
       <r>   5.7060  0.0000</r>
       <r>   5.7060  0.0000</r>
      </set>
      <set comment="kpoint 77">
       <r>  -2.0006  1.0000</r>
       <r>  -2.0006  1.0000</r>
       <r>  -1.5062  1.0000</r>
       <r>  -1.5062  1.0000</r>
       <r>  -0.4155  1.0000</r>
       <r>  -0.4155  1.0000</r>
       <r>  -0.2563  1.0000</r>
       <r>  -0.2563  1.0000</r>
       <r>  -0.1333  1.0000</r>
       <r>  -0.1333  1.0000</r>
       <r>  -0.0673  1.0000</r>
       <r>  -0.0673  1.0000</r>
       <r>   0.0031  1.0000</r>
       <r>   0.0031  1.0000</r>
       <r>   0.0729  1.0000</r>
       <r>   0.0729  1.0000</r>
       <r>   0.7769  1.0000</r>
       <r>   0.7769  1.0000</r>
       <r>   0.7883  1.0000</r>
       <r>   0.7883  1.0000</r>
       <r>   1.1363  1.0000</r>
       <r>   1.1363  1.0000</r>
       <r>   3.1922  0.0000</r>
       <r>   3.1922  0.0000</r>
       <r>   5.3912  0.0000</r>
       <r>   5.3912  0.0000</r>
      </set>
      <set comment="kpoint 78">
       <r>  -2.0993  1.0000</r>
       <r>  -1.6847  1.0000</r>
       <r>  -1.6847  1.0000</r>
       <r>  -1.5800  1.0000</r>
       <r>  -0.3696  1.0000</r>
       <r>  -0.3318  1.0000</r>
       <r>  -0.3318  1.0000</r>
       <r>  -0.2071  1.0000</r>
       <r>  -0.1871  1.0000</r>
       <r>  -0.1241  1.0000</r>
       <r>  -0.1241  1.0000</r>
       <r>  -0.1109  1.0000</r>
       <r>   0.1541  1.0000</r>
       <r>   0.1541  1.0000</r>
       <r>   0.1789  1.0000</r>
       <r>   0.2565  1.0000</r>
       <r>   0.6793  1.0000</r>
       <r>   0.7936  1.0000</r>
       <r>   0.7993  1.0000</r>
       <r>   0.7993  1.0000</r>
       <r>   0.9141  1.0000</r>
       <r>   2.1422  1.0000</r>
       <r>   2.1422  1.0000</r>
       <r>   2.9294  0.0000</r>
       <r>   5.3344  0.0000</r>
       <r>   6.2008  0.0000</r>
      </set>
      <set comment="kpoint 79">
       <r>  -1.8835  1.0000</r>
       <r>  -1.8835  1.0000</r>
       <r>  -1.6419  1.0000</r>
       <r>  -1.6419  1.0000</r>
       <r>  -0.3361  1.0000</r>
       <r>  -0.3361  1.0000</r>
       <r>  -0.2559  1.0000</r>
       <r>  -0.2559  1.0000</r>
       <r>  -0.1714  1.0000</r>
       <r>  -0.1714  1.0000</r>
       <r>  -0.1368  1.0000</r>
       <r>  -0.1368  1.0000</r>
       <r>   0.2481  1.0000</r>
       <r>   0.2481  1.0000</r>
       <r>   0.2728  1.0000</r>
       <r>   0.2728  1.0000</r>
       <r>   0.7512  1.0000</r>
       <r>   0.7512  1.0000</r>
       <r>   0.7786  1.0000</r>
       <r>   0.7786  1.0000</r>
       <r>   1.3872  1.0000</r>
       <r>   1.3872  1.0000</r>
       <r>   2.5555  0.0000</r>
       <r>   2.5555  0.0000</r>
       <r>   5.5639  0.0000</r>
       <r>   5.5639  0.0000</r>
      </set>
      <set comment="kpoint 80">
       <r>  -1.7661  1.0000</r>
       <r>  -1.7661  1.0000</r>
       <r>  -1.7661  1.0000</r>
       <r>  -1.7661  1.0000</r>
       <r>  -0.2797  1.0000</r>
       <r>  -0.2797  1.0000</r>
       <r>  -0.2797  1.0000</r>
       <r>  -0.2797  1.0000</r>
       <r>  -0.1749  1.0000</r>
       <r>  -0.1749  1.0000</r>
       <r>  -0.1749  1.0000</r>
       <r>  -0.1749  1.0000</r>
       <r>   0.3578  1.0000</r>
       <r>   0.3578  1.0000</r>
       <r>   0.3578  1.0000</r>
       <r>   0.3578  1.0000</r>
       <r>   0.7421  1.0000</r>
       <r>   0.7421  1.0000</r>
       <r>   0.7421  1.0000</r>
       <r>   0.7421  1.0000</r>
       <r>   1.8838  1.0000</r>
       <r>   1.8838  1.0000</r>
       <r>   1.8838  1.0000</r>
       <r>   1.8838  1.0000</r>
       <r>   6.1132  0.0000</r>
       <r>   6.1132  0.0000</r>
      </set>
      <set comment="kpoint 81">
       <r>  -1.9774  1.0000</r>
       <r>  -1.7228  1.0000</r>
       <r>  -1.7228  1.0000</r>
       <r>  -1.7228  1.0000</r>
       <r>  -0.2969  1.0000</r>
       <r>  -0.2969  1.0000</r>
       <r>  -0.2969  1.0000</r>
       <r>  -0.2153  1.0000</r>
       <r>  -0.2153  1.0000</r>
       <r>  -0.1756  1.0000</r>
       <r>  -0.1756  1.0000</r>
       <r>  -0.1756  1.0000</r>
       <r>   0.3931  1.0000</r>
       <r>   0.3931  1.0000</r>
       <r>   0.3931  1.0000</r>
       <r>   0.7564  1.0000</r>
       <r>   0.7564  1.0000</r>
       <r>   0.8154  1.0000</r>
       <r>   0.8154  1.0000</r>
       <r>   0.8154  1.0000</r>
       <r>   0.8178  1.0000</r>
       <r>   2.2436  1.0000</r>
       <r>   2.2436  1.0000</r>
       <r>   2.2436  1.0000</r>
       <r>   5.4943  0.0000</r>
       <r>   5.4943  0.0000</r>
      </set>
      <set comment="kpoint 82">
       <r>  -1.8538  1.0000</r>
       <r>  -1.8538  1.0000</r>
       <r>  -1.7360  1.0000</r>
       <r>  -1.7360  1.0000</r>
       <r>  -0.2833  1.0000</r>
       <r>  -0.2833  1.0000</r>
       <r>  -0.2446  1.0000</r>
       <r>  -0.2446  1.0000</r>
       <r>  -0.2113  1.0000</r>
       <r>  -0.2113  1.0000</r>
       <r>  -0.1949  1.0000</r>
       <r>  -0.1949  1.0000</r>
       <r>   0.4995  1.0000</r>
       <r>   0.4995  1.0000</r>
       <r>   0.5934  1.0000</r>
       <r>   0.5934  1.0000</r>
       <r>   0.8029  1.0000</r>
       <r>   0.8029  1.0000</r>
       <r>   0.8054  1.0000</r>
       <r>   0.8054  1.0000</r>
       <r>   1.4852  1.0000</r>
       <r>   1.4852  1.0000</r>
       <r>   2.2959  0.2731</r>
       <r>   2.2959  0.2731</r>
       <r>   5.2298  0.0000</r>
       <r>   5.2298  0.0000</r>
      </set>
      <set comment="kpoint 83">
       <r>  -1.8062  1.0000</r>
       <r>  -1.8062  1.0000</r>
       <r>  -1.8062  1.0000</r>
       <r>  -1.8062  1.0000</r>
       <r>  -0.2497  1.0000</r>
       <r>  -0.2497  1.0000</r>
       <r>  -0.2497  1.0000</r>
       <r>  -0.2497  1.0000</r>
       <r>  -0.2227  1.0000</r>
       <r>  -0.2227  1.0000</r>
       <r>  -0.2227  1.0000</r>
       <r>  -0.2227  1.0000</r>
       <r>   0.6732  1.0000</r>
       <r>   0.6732  1.0000</r>
       <r>   0.6732  1.0000</r>
       <r>   0.6732  1.0000</r>
       <r>   0.7939  1.0000</r>
       <r>   0.7939  1.0000</r>
       <r>   0.7939  1.0000</r>
       <r>   0.7939  1.0000</r>
       <r>   1.8517  1.0000</r>
       <r>   1.8517  1.0000</r>
       <r>   1.8517  1.0000</r>
       <r>   1.8517  1.0000</r>
       <r>   5.4310  0.0000</r>
       <r>   5.4310  0.0000</r>
      </set>
      <set comment="kpoint 84">
       <r>  -1.8200  1.0000</r>
       <r>  -1.8200  1.0000</r>
       <r>  -1.8200  1.0000</r>
       <r>  -1.8200  1.0000</r>
       <r>  -0.2390  1.0000</r>
       <r>  -0.2390  1.0000</r>
       <r>  -0.2390  1.0000</r>
       <r>  -0.2390  1.0000</r>
       <r>  -0.2390  1.0000</r>
       <r>  -0.2390  1.0000</r>
       <r>  -0.2390  1.0000</r>
       <r>  -0.2390  1.0000</r>
       <r>   0.8117  1.0000</r>
       <r>   0.8117  1.0000</r>
       <r>   0.8117  1.0000</r>
       <r>   0.8117  1.0000</r>
       <r>   0.8117  1.0000</r>
       <r>   0.8117  1.0000</r>
       <r>   0.8117  1.0000</r>
       <r>   0.8117  1.0000</r>
       <r>   1.8298  1.0000</r>
       <r>   1.8298  1.0000</r>
       <r>   1.8298  1.0000</r>
       <r>   1.8298  1.0000</r>
       <r>   5.1813  0.0000</r>
       <r>   5.1813  0.0000</r>
      </set>
     </set>
    </set>
   </array>
  </eigenvalues>
 </calculation>
 <structure name="finalpos" >
  <crystal>
   <varray name="basis" >
    <v>       3.85460076      0.00000000      0.00000000</v>
    <v>       0.00000000      3.85460076      0.00000000</v>
    <v>       0.00000000      0.00000000      3.85460076</v>
   </varray>
   <i name="volume">     57.27145389</i>
   <varray name="rec_basis" >
    <v>       0.25943024      0.00000000      0.00000000</v>
    <v>       0.00000000      0.25943024      0.00000000</v>
    <v>       0.00000000      0.00000000      0.25943024</v>
   </varray>
  </crystal>
  <varray name="positions" >
   <v>       0.00000000      0.00000000      0.00000000</v>
   <v>       0.50000000      0.50000000      0.00000000</v>
   <v>       0.50000000      0.00000000      0.50000000</v>
   <v>       0.00000000      0.50000000      0.50000000</v>
  </varray>
 </structure>
</modeling>
