   4   4   0   0
  0.1551371E+02  0.3959058E-09  0.3959058E-09  0.3959058E-09  0.5000000E-15
  1.000000000000000E-004
  CAR 
 unknown system                          
     21.74775320     -4.08316395  301      8.67320403      1.00000000
     -4.083  0.0000E+00  0.0000E+00
     -3.997  0.0000E+00  0.0000E+00
     -3.911  0.0000E+00  0.0000E+00
     -3.825  0.0000E+00  0.0000E+00
     -3.739  0.0000E+00  0.0000E+00
     -3.653  0.0000E+00  0.0000E+00
     -3.567  0.0000E+00  0.0000E+00
     -3.480  0.0000E+00  0.0000E+00
     -3.394  0.0000E+00  0.0000E+00
     -3.308  0.0000E+00  0.0000E+00
     -3.222  0.0000E+00  0.0000E+00
     -3.136  0.0000E+00  0.0000E+00
     -3.050  0.0000E+00  0.0000E+00
     -2.964  0.2321E-17  0.1999E-18
     -2.878  0.1817E-01  0.1565E-02
     -2.792  0.1023E+00  0.1129E-01
     -2.706  0.1774E+00  0.2671E-01
     -2.619  0.2039E+00  0.4456E-01
     -2.533  0.2459E+00  0.6644E-01
     -2.447  0.2605E+00  0.9023E-01
     -2.361  0.3196E+00  0.1182E+00
     -2.275  0.2981E+00  0.1459E+00
     -2.189  0.3311E+00  0.1758E+00
     -2.103  0.3855E+00  0.2110E+00
     -2.017  0.3723E+00  0.2441E+00
     -1.931  0.4196E+00  0.2824E+00
     -1.844  0.3935E+00  0.3179E+00
     -1.758  0.4273E+00  0.3583E+00
     -1.672  0.4581E+00  0.3990E+00
     -1.586  0.4514E+00  0.4434E+00
     -1.500  0.4522E+00  0.4847E+00
     -1.414  0.4868E+00  0.5333E+00
     -1.328  0.4734E+00  0.5781E+00
     -1.242  0.5240E+00  0.6287E+00
     -1.156  0.4863E+00  0.6751E+00
     -1.070  0.5424E+00  0.7282E+00
     -0.983  0.5503E+00  0.7792E+00
     -0.897  0.5701E+00  0.8347E+00
     -0.811  0.5368E+00  0.8843E+00
     -0.725  0.6135E+00  0.9452E+00
     -0.639  0.6038E+00  0.1000E+01
     -0.553  0.5643E+00  0.1060E+01
     -0.467  0.5576E+00  0.1113E+01
     -0.381  0.6770E+00  0.1179E+01
     -0.295  0.6082E+00  0.1236E+01
     -0.209  0.7193E+00  0.1305E+01
     -0.122  0.6001E+00  0.1362E+01
     -0.036  0.6875E+00  0.1428E+01
      0.050  0.7534E+00  0.1496E+01
      0.136  0.6582E+00  0.1559E+01
      0.222  0.7962E+00  0.1628E+01
      0.308  0.7192E+00  0.1695E+01
      0.394  0.8056E+00  0.1767E+01
      0.480  0.7752E+00  0.1840E+01
      0.566  0.6768E+00  0.1902E+01
      0.653  0.8993E+00  0.1984E+01
      0.739  0.8005E+00  0.2054E+01
      0.825  0.7947E+00  0.2125E+01
      0.911  0.9149E+00  0.2205E+01
      0.997  0.7554E+00  0.2273E+01
      1.083  0.9182E+00  0.2357E+01
      1.169  0.7923E+00  0.2434E+01
      1.255  0.7077E+00  0.2507E+01
      1.341  0.8660E+00  0.2592E+01
      1.427  0.8850E+00  0.2675E+01
      1.514  0.8094E+00  0.2753E+01
      1.600  0.9412E+00  0.2841E+01
      1.686  0.7728E+00  0.2919E+01
      1.772  0.9326E+00  0.3007E+01
      1.858  0.9505E+00  0.3096E+01
      1.944  0.8036E+00  0.3175E+01
      2.030  0.9962E+00  0.3265E+01
      2.116  0.9514E+00  0.3352E+01
      2.202  0.1015E+01  0.3442E+01
      2.288  0.8785E+00  0.3522E+01
      2.375  0.1060E+01  0.3619E+01
      2.461  0.9074E+00  0.3707E+01
      2.547  0.9656E+00  0.3797E+01
      2.633  0.1023E+01  0.3894E+01
      2.719  0.9549E+00  0.3984E+01
      2.805  0.9741E+00  0.4078E+01
      2.891  0.1098E+01  0.4179E+01
      2.977  0.1095E+01  0.4276E+01
      3.063  0.8999E+00  0.4359E+01
      3.149  0.1211E+01  0.4468E+01
      3.236  0.9685E+00  0.4557E+01
      3.322  0.1197E+01  0.4665E+01
      3.408  0.1027E+01  0.4759E+01
      3.494  0.1103E+01  0.4864E+01
      3.580  0.1054E+01  0.4967E+01
      3.666  0.1032E+01  0.5067E+01
      3.752  0.1199E+01  0.5177E+01
      3.838  0.1138E+01  0.5285E+01
      3.924  0.1118E+01  0.5390E+01
      4.011  0.1058E+01  0.5495E+01
      4.097  0.1270E+01  0.5610E+01
      4.183  0.9998E+00  0.5706E+01
      4.269  0.9817E+00  0.5802E+01
      4.355  0.1267E+01  0.5917E+01
      4.441  0.1084E+01  0.6019E+01
      4.527  0.1267E+01  0.6133E+01
      4.613  0.1167E+01  0.6238E+01
      4.699  0.1268E+01  0.6354E+01
      4.785  0.1146E+01  0.6460E+01
      4.872  0.1256E+01  0.6576E+01
      4.958  0.1194E+01  0.6689E+01
      5.044  0.1172E+01  0.6798E+01
      5.130  0.1285E+01  0.6922E+01
      5.216  0.1136E+01  0.7028E+01
      5.302  0.1440E+01  0.7160E+01
      5.388  0.1301E+01  0.7283E+01
      5.474  0.1237E+01  0.7402E+01
      5.560  0.1298E+01  0.7525E+01
      5.646  0.1334E+01  0.7651E+01
      5.733  0.1480E+01  0.7787E+01
      5.819  0.1232E+01  0.7903E+01
      5.905  0.1370E+01  0.8032E+01
      5.991  0.1445E+01  0.8163E+01
      6.077  0.1230E+01  0.8279E+01
      6.163  0.1287E+01  0.8401E+01
      6.249  0.1408E+01  0.8529E+01
      6.335  0.1326E+01  0.8656E+01
      6.421  0.1055E+01  0.8757E+01
      6.508  0.1473E+01  0.8897E+01
      6.594  0.1164E+01  0.9004E+01
      6.680  0.1219E+01  0.9118E+01
      6.766  0.1205E+01  0.9233E+01
      6.852  0.1373E+01  0.9358E+01
      6.938  0.1134E+01  0.9462E+01
      7.024  0.1242E+01  0.9579E+01
      7.110  0.1320E+01  0.9700E+01
      7.196  0.1213E+01  0.9813E+01
      7.282  0.1437E+01  0.9943E+01
      7.369  0.1293E+01  0.1007E+02
      7.455  0.1324E+01  0.1019E+02
      7.541  0.1323E+01  0.1032E+02
      7.627  0.1386E+01  0.1045E+02
      7.713  0.1458E+01  0.1059E+02
      7.799  0.1484E+01  0.1073E+02
      7.885  0.1462E+01  0.1087E+02
      7.971  0.1281E+01  0.1098E+02
      8.057  0.1412E+01  0.1112E+02
      8.143  0.1335E+01  0.1124E+02
      8.230  0.1100E+01  0.1136E+02
      8.316  0.1382E+01  0.1148E+02
      8.402  0.1269E+01  0.1160E+02
      8.488  0.1274E+01  0.1172E+02
      8.574  0.1370E+01  0.1185E+02
      8.660  0.1341E+01  0.1198E+02
      8.746  0.1498E+01  0.1212E+02
      8.832  0.1443E+01  0.1226E+02
      8.918  0.1444E+01  0.1239E+02
      9.005  0.1464E+01  0.1253E+02
      9.091  0.1571E+01  0.1268E+02
      9.177  0.1500E+01  0.1282E+02
      9.263  0.1537E+01  0.1295E+02
      9.349  0.1502E+01  0.1310E+02
      9.435  0.1557E+01  0.1325E+02
      9.521  0.1455E+01  0.1338E+02
      9.607  0.1196E+01  0.1350E+02
      9.693  0.1755E+01  0.1366E+02
      9.779  0.1497E+01  0.1380E+02
      9.866  0.1460E+01  0.1394E+02
      9.952  0.1468E+01  0.1407E+02
     10.038  0.1439E+01  0.1422E+02
     10.124  0.1444E+01  0.1435E+02
     10.210  0.1469E+01  0.1448E+02
     10.296  0.1507E+01  0.1462E+02
     10.382  0.1572E+01  0.1476E+02
     10.468  0.1902E+01  0.1494E+02
     10.554  0.1493E+01  0.1507E+02
     10.640  0.1497E+01  0.1521E+02
     10.727  0.1225E+01  0.1532E+02
     10.813  0.1772E+01  0.1549E+02
     10.899  0.1782E+01  0.1565E+02
     10.985  0.1687E+01  0.1581E+02
     11.071  0.1432E+01  0.1594E+02
     11.157  0.1379E+01  0.1607E+02
     11.243  0.1654E+01  0.1623E+02
     11.329  0.1743E+01  0.1639E+02
     11.415  0.1610E+01  0.1655E+02
     11.501  0.1590E+01  0.1669E+02
     11.588  0.1650E+01  0.1685E+02
     11.674  0.1555E+01  0.1699E+02
     11.760  0.1620E+01  0.1714E+02
     11.846  0.1654E+01  0.1729E+02
     11.932  0.1670E+01  0.1745E+02
     12.018  0.1855E+01  0.1762E+02
     12.104  0.1693E+01  0.1778E+02
     12.190  0.1462E+01  0.1792E+02
     12.276  0.1565E+01  0.1807E+02
     12.363  0.1883E+01  0.1824E+02
     12.449  0.1657E+01  0.1840E+02
     12.535  0.1671E+01  0.1855E+02
     12.621  0.1721E+01  0.1872E+02
     12.707  0.1740E+01  0.1888E+02
     12.793  0.1773E+01  0.1905E+02
     12.879  0.1733E+01  0.1921E+02
     12.965  0.1674E+01  0.1937E+02
     13.051  0.1634E+01  0.1952E+02
     13.137  0.1838E+01  0.1970E+02
     13.224  0.1673E+01  0.1985E+02
     13.310  0.1729E+01  0.2001E+02
     13.396  0.2070E+01  0.2020E+02
     13.482  0.1767E+01  0.2037E+02
     13.568  0.1924E+01  0.2054E+02
     13.654  0.1644E+01  0.2070E+02
     13.740  0.1844E+01  0.2087E+02
     13.826  0.1778E+01  0.2103E+02
     13.912  0.1976E+01  0.2122E+02
     13.998  0.1767E+01  0.2139E+02
     14.085  0.1933E+01  0.2157E+02
     14.171  0.1865E+01  0.2174E+02
     14.257  0.2040E+01  0.2193E+02
     14.343  0.1695E+01  0.2209E+02
     14.429  0.2036E+01  0.2228E+02
     14.515  0.2116E+01  0.2247E+02
     14.601  0.2018E+01  0.2267E+02
     14.687  0.2152E+01  0.2288E+02
     14.773  0.1830E+01  0.2305E+02
     14.860  0.2368E+01  0.2327E+02
     14.946  0.1868E+01  0.2345E+02
     15.032  0.2076E+01  0.2364E+02
     15.118  0.2015E+01  0.2382E+02
     15.204  0.2118E+01  0.2401E+02
     15.290  0.2051E+01  0.2421E+02
     15.376  0.1942E+01  0.2440E+02
     15.462  0.1990E+01  0.2459E+02
     15.548  0.1630E+01  0.2474E+02
     15.634  0.2093E+01  0.2494E+02
     15.721  0.1965E+01  0.2513E+02
     15.807  0.2037E+01  0.2531E+02
     15.893  0.1829E+01  0.2548E+02
     15.979  0.2028E+01  0.2567E+02
     16.065  0.1858E+01  0.2584E+02
     16.151  0.1697E+01  0.2601E+02
     16.237  0.2029E+01  0.2620E+02
     16.323  0.1841E+01  0.2637E+02
     16.409  0.2085E+01  0.2657E+02
     16.495  0.1880E+01  0.2675E+02
     16.582  0.1645E+01  0.2690E+02
     16.668  0.1874E+01  0.2708E+02
     16.754  0.1996E+01  0.2727E+02
     16.840  0.1805E+01  0.2744E+02
     16.926  0.1933E+01  0.2761E+02
     17.012  0.1857E+01  0.2779E+02
     17.098  0.1684E+01  0.2795E+02
     17.184  0.1960E+01  0.2813E+02
     17.270  0.1879E+01  0.2831E+02
     17.356  0.1469E+01  0.2845E+02
     17.443  0.2074E+01  0.2865E+02
     17.529  0.1774E+01  0.2882E+02
     17.615  0.1748E+01  0.2898E+02
     17.701  0.1601E+01  0.2913E+02
     17.787  0.1844E+01  0.2930E+02
     17.873  0.1834E+01  0.2947E+02
     17.959  0.1591E+01  0.2962E+02
     18.045  0.1752E+01  0.2978E+02
     18.131  0.1518E+01  0.2993E+02
     18.218  0.1389E+01  0.3006E+02
     18.304  0.1614E+01  0.3021E+02
     18.390  0.1337E+01  0.3034E+02
     18.476  0.1456E+01  0.3048E+02
     18.562  0.1267E+01  0.3060E+02
     18.648  0.1259E+01  0.3072E+02
     18.734  0.1139E+01  0.3082E+02
     18.820  0.1234E+01  0.3094E+02
     18.906  0.1043E+01  0.3103E+02
     18.992  0.9311E+00  0.3112E+02
     19.079  0.9668E+00  0.3121E+02
     19.165  0.9456E+00  0.3130E+02
     19.251  0.8470E+00  0.3138E+02
     19.337  0.9206E+00  0.3147E+02
     19.423  0.8633E+00  0.3154E+02
     19.509  0.6897E+00  0.3161E+02
     19.595  0.7095E+00  0.3167E+02
     19.681  0.7481E+00  0.3174E+02
     19.767  0.5970E+00  0.3180E+02
     19.853  0.4202E+00  0.3184E+02
     19.940  0.4777E+00  0.3188E+02
     20.026  0.3708E+00  0.3192E+02
     20.112  0.2785E+00  0.3194E+02
     20.198  0.1784E+00  0.3196E+02
     20.284  0.1426E+00  0.3197E+02
     20.370  0.1220E+00  0.3198E+02
     20.456  0.1184E+00  0.3200E+02
     20.542  0.3585E-01  0.3200E+02
     20.628  0.1195E-01  0.3200E+02
     20.715  0.0000E+00  0.3200E+02
     20.801  0.0000E+00  0.3200E+02
     20.887  0.0000E+00  0.3200E+02
     20.973  0.0000E+00  0.3200E+02
     21.059  0.0000E+00  0.3200E+02
     21.145  0.0000E+00  0.3200E+02
     21.231  0.0000E+00  0.3200E+02
     21.317  0.0000E+00  0.3200E+02
     21.403  0.0000E+00  0.3200E+02
     21.489  0.0000E+00  0.3200E+02
     21.576  0.0000E+00  0.3200E+02
     21.662  0.0000E+00  0.3200E+02
     21.748  0.0000E+00  0.3200E+02
