    4    4    1    1
  0.1551371E+02  0.3959058E-09  0.3959058E-09  0.3959058E-09  0.5000000E-15
  1.000000000000000E-004
  CAR 
 unknown system                          
   12 1330   16
 
  0.0000000E+00  0.0000000E+00  0.0000000E+00  0.2143347E-04
   1       -2.9090
   2        5.5854
   3        5.5854
   4        5.5854
   5        7.0399
   6        7.0399
   7        7.0399
   8       13.9296
   9       13.9296
  10       13.9296
  11       14.5498
  12       14.5498
  13       14.5498
  14       14.5498
  15       14.5498
  16       14.5498
 
  0.2777778E-01  0.0000000E+00  0.0000000E+00  0.1286008E-03
   1       -2.9018
   2        5.4377
   3        5.5920
   4        5.5920
   5        7.0468
   6        7.0468
   7        7.2001
   8       13.6725
   9       13.6725
  10       13.9368
  11       14.4957
  12       14.4957
  13       14.5559
  14       14.5559
  15       14.8204
  16       14.8204
 
  0.5555556E-01  0.0000000E+00  0.0000000E+00  0.1286008E-03
   1       -2.8799
   2        5.1051
   3        5.6119
   4        5.6119
   5        7.0675
   6        7.0675
   7        7.5700
   8       13.2523
   9       13.2523
  10       13.9584
  11       14.3437
  12       14.3437
  13       14.5742
  14       14.5742
  15       15.2811
  16       15.2811
 
  0.8333333E-01  0.0000000E+00  0.0000000E+00  0.1286008E-03
   1       -2.8435
   2        4.7086
   3        5.6449
   4        5.6449
   5        7.1020
   6        7.1020
   7        8.0287
   8       12.8188
   9       12.8188
  10       13.9944
  11       14.1171
  12       14.1171
  13       14.6046
  14       14.6046
  15       15.7819
  16       15.7819
 
  0.1111111E+00  0.0000000E+00  0.0000000E+00  0.1286008E-03
   1       -2.7925
   2        4.2942
   3        5.6913
   4        5.6913
   5        7.1501
   6        7.1501
   7        8.5303
   8       12.3913
   9       12.3913
  10       13.8406
  11       13.8406
  12       14.0447
  13       14.6473
  14       14.6473
  15       16.3038
  16       16.3038
 
  0.1388889E+00  0.0000000E+00  0.0000000E+00  0.1286008E-03
   1       -2.7270
   2        3.8781
   3        5.7508
   4        5.7508
   5        7.2117
   6        7.2117
   7        9.0583
   8       11.9742
   9       11.9742
  10       13.5336
  11       13.5336
  12       14.1095
  13       14.7022
  14       14.7022
  15       16.8422
  16       16.8422
 
  0.1666667E+00  0.0000000E+00  0.0000000E+00  0.1286008E-03
   1       -2.6470
   2        3.4672
   3        5.8236
   4        5.8236
   5        7.2867
   6        7.2867
   7        9.6060
   8       11.5690
   9       11.5690
  10       13.2099
  11       13.2099
  12       14.1885
  13       14.7693
  14       14.7693
  15       17.3955
  16       17.3955
 
  0.1944444E+00  0.0000000E+00  0.0000000E+00  0.1286008E-03
   1       -2.5525
   2        3.0647
   3        5.9097
   4        5.9097
   5        7.3748
   6        7.3748
   7       10.1702
   8       11.1764
   9       11.1764
  10       12.8786
  11       12.8786
  12       14.2819
  13       14.8486
  14       14.8486
  15       17.9628
  16       17.9628
 
  0.2222222E+00  0.0000000E+00  0.0000000E+00  0.1286008E-03
   1       -2.4435
   2        2.6723
   3        6.0090
   4        6.0090
   5        7.4756
   6        7.4756
   7       10.7491
   8       10.7968
   9       10.7968
  10       12.5461
  11       12.5461
  12       14.3897
  13       14.9401
  14       14.9401
  15       18.5438
  16       18.5439
 
  0.2500000E+00  0.0000000E+00  0.0000000E+00  0.1286008E-03
   1       -2.3201
   2        2.2911
   3        6.1216
   4        6.1216
   5        7.5886
   6        7.5886
   7       10.4304
   8       10.4304
   9       11.3415
  10       12.2169
  11       12.2169
  12       14.5117
  13       15.0439
  14       15.0439
  15       18.8738
  16       18.9898
 
  0.2777778E+00  0.0000000E+00  0.0000000E+00  0.1286008E-03
   1       -2.1824
   2        1.9217
   3        6.2475
   4        6.2475
   5        7.7132
   6        7.7132
   7       10.0773
   8       10.0773
   9       11.8944
  10       11.8944
  11       11.9468
  12       14.6480
  13       15.1599
  14       15.1599
  15       18.6648
  16       18.6660
 
  0.3055556E+00  0.0000000E+00  0.0000000E+00  0.1286008E-03
   1       -2.0303
   2        1.5646
   3        6.3867
   4        6.3867
   5        7.8484
   6        7.8484
   7        9.7375
   8        9.7375
   9       11.5816
  10       11.5816
  11       12.5644
  12       14.7984
  13       15.2881
  14       15.2881
  15       18.3446
  16       18.3577
 
  0.3333333E+00  0.0000000E+00  0.0000000E+00  0.1286008E-03
   1       -1.8639
   2        1.2202
   3        6.5391
   4        6.5391
   5        7.9927
   6        7.9927
   7        9.4110
   8        9.4110
   9       11.2814
  10       11.2814
  11       13.1939
  12       14.9631
  13       15.4285
  14       15.4285
  15       18.0063
  16       18.0615
 
  0.3611111E+00  0.0000000E+00  0.0000000E+00  0.1286008E-03
   1       -1.6833
   2        0.8887
   3        6.7049
   4        6.7049
   5        8.1437
   6        8.1437
   7        9.0980
   8        9.0980
   9       10.9971
  10       10.9971
  11       13.8350
  12       15.1419
  13       15.5812
  14       15.5812
  15       17.6812
  16       17.7765
 
  0.3888889E+00  0.0000000E+00  0.0000000E+00  0.1286008E-03
   1       -1.4886
   2        0.5702
   3        6.8841
   4        6.8841
   5        8.2976
   6        8.2976
   7        8.7984
   8        8.7984
   9       10.7335
  10       10.7335
  11       14.4873
  12       15.3347
  13       15.7461
  14       15.7461
  15       17.3687
  16       17.5031
 
  0.4166667E+00  0.0000000E+00  0.0000000E+00  0.1286008E-03
   1       -1.2797
   2        0.2651
   3        7.0765
   4        7.0765
   5        8.4474
   6        8.4474
   7        8.5122
   8        8.5122
   9       10.4977
  10       10.4977
  11       15.1505
  12       15.5415
  13       15.9232
  14       15.9232
  15       17.0684
  16       17.2413
 
  0.4444444E+00  0.0000000E+00  0.0000000E+00  0.1286008E-03
   1       -1.0568
   2       -0.0266
   3        7.2824
   4        7.2824
   5        8.2394
   6        8.2394
   7        8.5813
   8        8.5813
   9       10.3022
  10       10.3022
  11       15.7621
  12       15.8242
  13       16.1126
  14       16.1126
  15       16.7807
  16       16.9915
 
  0.4722222E+00  0.0000000E+00  0.0000000E+00  0.1286008E-03
   1       -0.8200
   2       -0.3048
   3        7.5016
   4        7.5016
   5        7.9801
   6        7.9801
   7        8.6793
   8        8.6793
   9       10.1672
  10       10.1672
  11       15.9965
  12       16.3141
  13       16.3141
  14       16.5060
  15       16.5080
  16       16.7536
 
  0.5000000E+00  0.0000000E+00  0.0000000E+00  0.6430041E-04
   1       -0.5692
   2       -0.5692
   3        7.7341
   4        7.7341
   5        7.7341
   6        7.7341
   7        8.7163
   8        8.7163
   9       10.1178
  10       10.1178
  11       16.2446
  12       16.2446
  13       16.5278
  14       16.5278
  15       16.5278
  16       16.5278
 
  0.2777778E-01  0.2777778E-01  0.0000000E+00  0.2572016E-03
   1       -2.8945
   2        5.4443
   3        5.4443
   4        5.5986
   5        7.0537
   6        7.2069
   7        7.2069
   8       13.4737
   9       13.6795
  10       13.6795
  11       14.5018
  12       14.5018
  13       14.5621
  14       14.8267
  15       14.8267
  16       14.9111
 
  0.5555556E-01  0.2777778E-01  0.0000000E+00  0.5144033E-03
   1       -2.8726
   2        5.1118
   3        5.4643
   4        5.6185
   5        7.0744
   6        7.2275
   7        7.5768
   8       13.0931
   9       13.2591
  10       13.7003
  11       14.3499
  12       14.4649
  13       14.5202
  14       14.8457
  15       15.2742
  16       15.2876
 
  0.8333333E-01  0.2777778E-01  0.0000000E+00  0.5144033E-03
   1       -2.8362
   2        4.7154
   3        5.4977
   4        5.6515
   5        7.1088
   6        7.2616
   7        8.0354
   8       12.6780
   9       12.8256
  10       13.7350
  11       14.1234
  12       14.2470
  13       14.5509
  14       14.8775
  15       15.7441
  16       15.7885
 
  0.1111111E+00  0.2777778E-01  0.0000000E+00  0.5144033E-03
   1       -2.7852
   2        4.3010
   3        5.5443
   4        5.6979
   5        7.1569
   6        7.3094
   7        8.5369
   8       12.2605
   9       12.3981
  10       13.7836
  11       13.8471
  12       13.9714
  13       14.5937
  14       14.9219
  15       16.2514
  16       16.3104
 
  0.1388889E+00  0.2777778E-01  0.0000000E+00  0.5144033E-03
   1       -2.7197
   2        3.8850
   3        5.6043
   4        5.7574
   5        7.2184
   6        7.3706
   7        9.0648
   8       11.8495
   9       11.9809
  10       13.5402
  11       13.6635
  12       13.8460
  13       14.6489
  14       14.9791
  15       16.7812
  16       16.8487
 
  0.1666667E+00  0.2777778E-01  0.0000000E+00  0.5144033E-03
   1       -2.6397
   2        3.4741
   3        5.6775
   4        5.8302
   5        7.2932
   6        7.4450
   7        9.6124
   8       11.4485
   9       11.5757
  10       13.2166
  11       13.3385
  12       13.9222
  13       14.7163
  14       15.0491
  15       17.3287
  16       17.4020
 
  0.1944444E+00  0.2777778E-01  0.0000000E+00  0.5144033E-03
   1       -2.5452
   2        3.0717
   3        5.7641
   4        5.9163
   5        7.3811
   6        7.5324
   7       10.1764
   8       11.0590
   9       11.1831
  10       12.8855
  11       13.0059
  12       14.0123
  13       14.7960
  14       15.1317
  15       17.8918
  16       17.9694
 
  0.2222222E+00  0.2777778E-01  0.0000000E+00  0.5144033E-03
   1       -2.4363
   2        2.6793
   3        5.8640
   4        6.0156
   5        7.4815
   6        7.6325
   7       10.6819
   8       10.7551
   9       10.8035
  10       12.5532
  11       12.6723
  12       14.1160
  13       14.8880
  14       15.2272
  15       18.4694
  16       18.5504
 
  0.2500000E+00  0.2777778E-01  0.0000000E+00  0.5144033E-03
   1       -2.3129
   2        2.2981
   3        5.9772
   4        6.1282
   5        7.5941
   6        7.7447
   7       10.3177
   8       10.4371
   9       11.3473
  10       12.2243
  11       12.3420
  12       14.2334
  13       14.9923
  14       15.3356
  15       18.5522
  16       18.9351
 
  0.2777778E+00  0.2777778E-01  0.0000000E+00  0.5144033E-03
   1       -2.1751
   2        1.9287
   3        6.1037
   4        6.2541
   5        7.7178
   6        7.8684
   7        9.9670
   8       10.0840
   9       11.9022
  10       11.9523
  11       12.0183
  12       14.3645
  13       15.1089
  14       15.4567
  15       18.2136
  16       18.6125
 
  0.3055556E+00  0.2777778E-01  0.0000000E+00  0.5144033E-03
   1       -2.0231
   2        1.5717
   3        6.2434
   4        6.3933
   5        7.8514
   6        8.0025
   7        9.6305
   8        9.7441
   9       11.5900
  10       11.7042
  11       12.5695
  12       14.5090
  13       15.2380
  14       15.5908
  15       17.8846
  16       18.3056
 
  0.3333333E+00  0.2777778E-01  0.0000000E+00  0.5144033E-03
   1       -1.8567
   2        1.2273
   3        6.3964
   4        6.5458
   5        7.9923
   6        8.1456
   7        9.3095
   8        9.4177
   9       11.2906
  10       11.4022
  11       13.1984
  12       14.6671
  13       15.3794
  14       15.7378
  15       17.5659
  16       18.0093
 
  0.3611111E+00  0.2777778E-01  0.0000000E+00  0.5144033E-03
   1       -1.6761
   2        0.8958
   3        6.5625
   4        6.7116
   5        8.1350
   6        8.2949
   7        9.0075
   8        9.1047
   9       11.0076
  10       11.1153
  11       13.8385
  12       14.8385
  13       15.5335
  14       15.8978
  15       17.2580
  16       17.7241
 
  0.3888889E+00  0.2777778E-01  0.0000000E+00  0.5144033E-03
   1       -1.4814
   2        0.5773
   3        6.7418
   4        6.8907
   5        8.2601
   6        8.4463
   7        8.7409
   8        8.8051
   9       10.7463
  10       10.8476
  11       14.4890
  12       15.0232
  13       15.7007
  14       16.0708
  15       16.9612
  16       17.4502
 
  0.4166667E+00  0.2777778E-01  0.0000000E+00  0.5144033E-03
   1       -1.2725
   2        0.2722
   3        6.9341
   4        7.0832
   5        8.2633
   6        8.5189
   7        8.5922
   8        8.6078
   9       10.5146
  10       10.6054
  11       15.1478
  12       15.2211
  13       15.8826
  14       16.2567
  15       16.6760
  16       17.1877
 
  0.4444444E+00  0.2777778E-01  0.0000000E+00  0.5144033E-03
   1       -1.0496
   2       -0.0195
   3        7.1392
   4        7.2890
   5        8.0660
   6        8.2461
   7        8.6768
   8        8.7190
   9       10.3269
  10       10.3993
  11       15.4320
  12       15.8018
  13       16.0922
  14       16.4026
  15       16.4558
  16       16.9366
 
  0.4722222E+00  0.2777778E-01  0.0000000E+00  0.5144033E-03
   1       -0.8128
   2       -0.2976
   3        7.3568
   4        7.5082
   5        7.8251
   6        7.9867
   7        8.7728
   8        8.8047
   9       10.2058
  10       10.2479
  11       15.6558
  12       16.1412
  13       16.2347
  14       16.5452
  15       16.6679
  16       16.6967
 
  0.5000000E+00  0.2777778E-01  0.0000000E+00  0.2572016E-03
   1       -0.5621
   2       -0.5621
   3        7.5862
   4        7.5862
   5        7.7408
   6        7.7408
   7        8.8244
   8        8.8244
   9       10.1769
  10       10.1769
  11       15.8922
  12       15.8922
  13       16.4664
  14       16.4664
  15       16.8930
  16       16.8930
 
  0.5555556E-01  0.5555556E-01  0.0000000E+00  0.2572016E-03
   1       -2.8508
   2        5.1320
   3        5.1320
   4        5.6383
   5        7.0950
   6        7.5971
   7        7.5971
   8       12.7534
   9       13.2795
  10       13.2795
  11       14.3685
  12       14.3685
  13       14.5990
  14       15.3070
  15       15.3070
  16       15.3575
 
  0.8333333E-01  0.5555556E-01  0.0000000E+00  0.5144033E-03
   1       -2.8143
   2        4.7358
   3        5.1657
   4        5.6714
   5        7.1293
   6        7.6308
   7        8.0554
   8       12.3613
   9       12.8459
  10       13.3136
  11       14.1424
  12       14.3996
  13       14.5036
  14       15.3393
  15       15.6727
  16       15.8080
 
  0.1111111E+00  0.5555556E-01  0.0000000E+00  0.5144033E-03
   1       -2.7634
   2        4.3215
   3        5.2128
   4        5.7177
   5        7.1771
   6        7.6779
   7        8.5566
   8       11.9577
   9       12.4183
  10       13.3613
  11       13.8664
  12       14.2651
  13       14.4430
  14       15.3846
  15       16.1202
  16       16.3300
 
  0.1388889E+00  0.5555556E-01  0.0000000E+00  0.5144033E-03
   1       -2.6979
   2        3.9057
   3        5.2734
   4        5.7773
   5        7.2384
   6        7.7383
   7        9.0842
   8       11.5558
   9       12.0011
  10       13.4226
  11       13.5600
  12       13.9694
  13       14.4989
  14       15.4429
  15       16.6212
  16       16.8684
 
  0.1666667E+00  0.5555556E-01  0.0000000E+00  0.5144033E-03
   1       -2.6179
   2        3.4949
   3        5.3474
   4        5.8501
   5        7.3127
   6        7.8117
   7        9.6315
   8       11.1612
   9       11.5958
  10       13.2368
  11       13.4975
  12       13.6487
  13       14.5672
  14       15.5141
  15       17.1518
  16       17.4216
 
  0.1944444E+00  0.5555556E-01  0.0000000E+00  0.5144033E-03
   1       -2.5234
   2        3.0925
   3        5.4349
   4        5.9362
   5        7.3999
   6        7.8979
   7       10.1951
   8       10.7766
   9       11.2032
  10       12.9063
  11       13.3174
  12       13.5860
  13       14.6480
  14       15.5983
  15       17.7034
  16       17.9890
 
  0.2222222E+00  0.5555556E-01  0.0000000E+00  0.5144033E-03
   1       -2.4145
   2        2.7002
   3        5.5357
   4        6.0355
   5        7.4993
   6        7.9965
   7       10.4039
   8       10.7732
   9       10.8236
  10       12.5747
  11       12.9837
  12       13.6880
  13       14.7413
  14       15.6955
  15       18.2726
  16       18.4572
 
  0.2500000E+00  0.5555556E-01  0.0000000E+00  0.5144033E-03
   1       -2.2911
   2        2.3191
   3        5.6499
   4        6.1481
   5        7.6101
   6        8.1070
   7       10.0442
   8       10.4572
   9       11.3647
  10       12.2466
  11       12.6528
  12       13.8035
  13       14.8471
  14       15.8057
  15       18.1051
  16       18.7834
 
  0.2777778E+00  0.5555556E-01  0.0000000E+00  0.5144033E-03
   1       -2.1534
   2        1.9498
   3        5.7774
   4        6.2740
   5        7.7307
   6        8.2286
   7        9.6991
   8       10.1040
   9       11.9257
  10       11.9688
  11       12.3280
  12       13.9324
  13       14.9656
  14       15.9289
  15       17.7630
  16       18.4655
 
  0.3055556E+00  0.5555556E-01  0.0000000E+00  0.5144033E-03
   1       -2.0014
   2        1.5928
   3        5.9181
   4        6.4132
   5        7.8585
   6        8.3600
   7        9.3712
   8        9.7642
   9       11.6152
  10       12.0121
  11       12.5846
  12       14.0748
  13       15.0970
  14       16.0651
  15       17.4317
  16       18.1590
 
  0.3333333E+00  0.5555556E-01  0.0000000E+00  0.5144033E-03
   1       -1.8350
   2        1.2484
   3        6.0721
   4        6.5657
   5        7.9864
   6        8.4994
   7        9.0665
   8        9.4377
   9       11.3185
  10       11.7073
  11       13.2115
  12       14.2305
  13       15.2415
  14       16.2144
  15       17.1115
  16       17.8627
 
  0.3611111E+00  0.5555556E-01  0.0000000E+00  0.5144033E-03
   1       -1.6545
   2        0.9170
   3        6.2392
   4        6.7315
   5        8.0939
   6        8.6436
   7        8.8046
   8        9.1247
   9       11.0400
  10       11.4161
  11       13.8482
  12       14.3996
  13       15.4002
  14       16.3766
  15       16.8028
  16       17.5768
 
  0.3888889E+00  0.5555556E-01  0.0000000E+00  0.5144033E-03
   1       -1.4597
   2        0.5986
   3        6.4193
   4        6.9106
   5        8.1112
   6        8.6529
   7        8.7866
   8        8.8251
   9       10.7863
  10       11.1415
  11       14.4920
  12       14.5818
  13       15.5751
  14       16.5060
  15       16.5518
  16       17.3017
 
  0.4166667E+00  0.5555556E-01  0.0000000E+00  0.5144033E-03
   1       -1.2509
   2        0.2935
   3        6.6121
   4        7.1031
   5        7.9656
   6        8.5389
   7        8.6804
   8        8.9178
   9       10.5688
  10       10.8879
  11       14.7773
  12       15.1335
  13       15.7755
  14       16.2213
  15       16.7400
  16       17.0374
 
  0.4444444E+00  0.5555556E-01  0.0000000E+00  0.5144033E-03
   1       -1.0281
   2        0.0019
   3        6.8175
   4        7.3089
   5        7.7402
   6        8.2661
   7        8.7970
   8        9.0179
   9       10.4075
  10       10.6625
  11       14.9858
  12       15.7124
  13       15.9489
  14       16.0614
  15       16.7837
  16       16.9412
 
  0.4722222E+00  0.5555556E-01  0.0000000E+00  0.5144033E-03
   1       -0.7913
   2       -0.2762
   3        7.0347
   4        7.5000
   5        7.5281
   6        8.0067
   7        8.9249
   8        9.0594
   9       10.3309
  10       10.4785
  11       15.2074
  12       15.6891
  13       16.0579
  14       16.5396
  15       16.6030
  16       17.1552
 
  0.5000000E+00  0.5555556E-01  0.0000000E+00  0.2572016E-03
   1       -0.5406
   2       -0.5406
   3        7.2630
   4        7.2630
   5        7.7607
   6        7.7607
   7        9.0237
   8        9.0237
   9       10.3585
  10       10.3585
  11       15.4418
  12       15.4418
  13       16.3022
  14       16.3022
  15       17.2676
  16       17.2676
 
  0.8333333E-01  0.8333333E-01  0.0000000E+00  0.2572016E-03
   1       -2.7779
   2        4.7697
   3        4.7697
   4        5.7045
   5        7.1633
   6        8.0887
   7        8.0887
   8       11.9839
   9       12.8797
  10       12.8797
  11       14.1740
  12       14.1740
  13       14.6606
  14       15.7103
  15       15.8406
  16       15.8406
 
  0.1111111E+00  0.8333333E-01  0.0000000E+00  0.5144033E-03
   1       -2.7270
   2        4.3557
   3        4.8173
   4        5.7508
   5        7.2108
   6        8.1352
   7        8.5894
   8       11.5894
   9       12.4520
  10       12.9271
  11       13.8986
  12       14.2182
  13       14.5749
  14       15.8862
  15       15.9862
  16       16.3627
 
  0.1388889E+00  0.8333333E-01  0.0000000E+00  0.5144033E-03
   1       -2.6615
   2        3.9401
   3        4.8784
   4        5.8104
   5        7.2714
   6        8.1947
   7        9.1165
   8       11.1939
   9       12.0347
  10       12.9880
  11       13.5929
  12       14.2751
  13       14.3358
  14       15.9449
  15       16.4163
  16       16.9011
 
  0.1666667E+00  0.8333333E-01  0.0000000E+00  0.5144033E-03
   1       -2.5816
   2        3.5294
   3        4.9530
   4        5.8832
   5        7.3450
   6        8.2670
   7        9.6632
   8       10.8041
   9       11.6294
  10       13.0623
  11       13.2706
  12       14.0372
  13       14.3447
  14       16.0166
  15       16.9137
  16       17.4544
 
  0.1944444E+00  0.8333333E-01  0.0000000E+00  0.5144033E-03
   1       -2.4871
   2        3.1272
   3        5.0411
   4        5.9693
   5        7.4308
   6        8.3518
   7       10.2260
   8       10.4237
   9       11.2367
  10       12.9410
  11       13.1502
  12       13.7159
  13       14.4270
  14       16.1013
  15       17.4467
  16       18.0217
 
  0.2222222E+00  0.8333333E-01  0.0000000E+00  0.5144033E-03
   1       -2.3782
   2        2.7350
   3        5.1428
   4        6.0686
   5        7.5281
   6        8.4487
   7       10.0551
   8       10.8032
   9       10.8571
  10       12.6106
  11       13.2515
  12       13.3872
  13       14.5223
  14       16.1991
  15       18.0037
  16       18.0237
 
  0.2500000E+00  0.8333333E-01  0.0000000E+00  0.5144033E-03
   1       -2.2549
   2        2.3540
   3        5.2578
   4        6.1812
   5        7.6353
   6        8.5570
   7        9.7009
   8       10.4906
   9       11.3934
  10       12.2841
  11       13.0586
  12       13.3663
  13       14.6305
  14       16.3099
  15       17.6683
  16       18.5639
 
  0.2777778E+00  0.8333333E-01  0.0000000E+00  0.5144033E-03
   1       -2.1172
   2        1.9849
   3        5.3863
   4        6.3071
   5        7.7492
   6        8.6756
   7        9.3642
   8       10.1374
   9       11.9655
  10       11.9957
  11       12.7348
  12       13.4944
  13       14.7519
  14       16.4338
  15       17.3237
  16       18.2469
 
  0.3055556E+00  0.8333333E-01  0.0000000E+00  0.5144033E-03
   1       -1.9652
   2        1.6280
   3        5.5281
   4        6.4463
   5        7.8627
   6        8.8029
   7        9.0525
   8        9.7976
   9       11.6583
  10       12.4187
  11       12.6089
  12       13.6360
  13       14.8872
  14       16.5706
  15       16.9904
  16       17.9408
 
  0.3333333E+00  0.8333333E-01  0.0000000E+00  0.5144033E-03
   1       -1.7989
   2        1.2837
   3        5.6832
   4        6.5988
   5        7.9551
   6        8.7859
   7        8.9362
   8        9.4711
   9       11.3668
  10       12.1127
  11       13.2316
  12       13.7909
  13       15.0372
  14       16.6688
  15       16.7205
  16       17.6442
 
  0.3611111E+00  0.8333333E-01  0.0000000E+00  0.5144033E-03
   1       -1.6184
   2        0.9524
   3        5.8514
   4        6.7647
   5        7.9673
   6        8.6229
   7        9.0704
   8        9.1580
   9       11.0971
  10       11.8188
  11       13.8608
  12       13.9591
  13       15.2047
  14       16.3592
  15       16.8834
  16       17.3575
 
  0.3888889E+00  0.8333333E-01  0.0000000E+00  0.5144033E-03
   1       -1.4237
   2        0.6341
   3        6.0326
   4        6.9438
   5        7.8347
   6        8.6266
   7        8.8584
   8        9.1963
   9       10.8594
  10       11.5393
  11       14.1406
  12       14.4884
  13       15.3973
  14       16.0618
  15       17.0592
  16       17.0810
 
  0.4166667E+00  0.8333333E-01  0.0000000E+00  0.5144033E-03
   1       -1.2149
   2        0.3291
   3        6.2266
   4        7.1363
   5        7.6133
   6        8.5722
   7        8.7389
   8        9.2961
   9       10.6722
  10       11.2770
  11       14.3352
  12       15.0828
  13       15.6464
  14       15.7769
  15       16.8147
  16       17.2479
 
  0.4444444E+00  0.8333333E-01  0.0000000E+00  0.5144033E-03
   1       -0.9922
   2        0.0375
   3        6.4332
   4        7.3422
   5        7.3679
   6        8.2994
   7        8.8909
   8        9.3415
   9       10.5645
  10       11.0366
  11       14.5431
  12       15.5045
  13       15.5347
  14       16.0607
  15       16.5584
  16       17.4494
 
  0.4722222E+00  0.8333333E-01  0.0000000E+00  0.5144033E-03
   1       -0.7554
   2       -0.2405
   3        6.6518
   4        7.1215
   5        7.5614
   6        8.0400
   7        9.0521
   8        9.3073
   9       10.5622
  10       10.8258
  11       14.7640
  12       15.2448
  13       15.8241
  14       16.3109
  15       16.6598
  16       17.6636
 
  0.5000000E+00  0.8333333E-01  0.0000000E+00  0.2572016E-03
   1       -0.5048
   2       -0.5048
   3        6.8817
   4        6.8817
   5        7.7940
   6        7.7940
   7        9.2004
   8        9.2004
   9       10.6592
  10       10.6592
  11       14.9979
  12       14.9979
  13       16.0693
  14       16.0693
  15       17.3251
  16       17.3251
 
  0.1111111E+00  0.1111111E+00  0.0000000E+00  0.2572016E-03
   1       -2.6761
   2        4.4036
   3        4.4036
   4        5.7971
   5        7.2576
   6        8.6352
   7        8.6352
   8       11.2010
   9       12.4992
  10       12.4992
  11       13.9438
  12       13.9438
  13       14.7469
  14       15.9901
  15       16.4084
  16       16.4084
 
  0.1388889E+00  0.1111111E+00  0.0000000E+00  0.5144033E-03
   1       -2.6106
   2        3.9882
   3        4.4651
   4        5.8567
   5        7.3174
   6        8.6938
   7        9.1615
   8       10.8097
   9       12.0817
  10       12.5598
  11       13.6391
  12       14.0019
  13       14.6733
  14       16.2440
  15       16.4672
  16       16.9469
 
  0.1666667E+00  0.1111111E+00  0.0000000E+00  0.5144033E-03
   1       -2.5307
   2        3.5778
   3        4.5402
   4        5.9296
   5        7.3895
   6        8.7649
   7        9.7073
   8       10.4236
   9       11.6764
  10       12.6339
  11       13.3180
  12       14.0730
  13       14.4414
  14       16.5391
  15       16.6666
  16       17.5002
 
  0.1944444E+00  0.1111111E+00  0.0000000E+00  0.5144033E-03
   1       -2.4363
   2        3.1758
   3        4.6290
   4        6.0156
   5        7.4730
   6        8.8481
   7       10.0471
   8       10.2689
   9       11.2837
  10       12.7214
  11       12.9899
  12       14.1480
  13       14.1573
  14       16.6241
  15       17.1655
  16       17.9694
 
  0.2222222E+00  0.1111111E+00  0.0000000E+00  0.5144033E-03
   1       -2.3274
   2        2.7838
   3        4.7313
   4        6.1150
   5        7.5664
   6        8.9428
   7        9.6836
   8       10.8446
   9       10.9040
  10       12.6613
  11       12.8224
  12       13.8326
  13       14.2550
  14       16.7221
  15       17.6005
  16       17.7041
 
  0.2500000E+00  0.1111111E+00  0.0000000E+00  0.5144033E-03
   1       -2.2041
   2        2.4030
   3        4.8471
   4        6.2276
   5        7.6665
   6        9.0482
   7        9.3373
   8       10.5375
   9       11.4327
  10       12.3373
  11       12.9368
  12       13.5111
  13       14.3663
  14       16.8331
  15       17.2426
  16       18.2737
 
  0.2777778E+00  0.1111111E+00  0.0000000E+00  0.5144033E-03
   1       -2.0665
   2        2.0340
   3        4.9764
   4        6.3535
   5        7.7658
   6        9.0163
   7        9.1626
   8       10.1842
   9       12.0223
  10       12.0320
  11       13.0646
  12       13.1912
  13       14.4920
  14       16.8960
  15       16.9572
  16       17.9804
 
  0.3055556E+00  0.1111111E+00  0.0000000E+00  0.5144033E-03
   1       -1.9146
   2        1.6772
   3        5.1191
   4        6.4928
   5        7.8439
   6        8.7409
   7        9.2836
   8        9.8443
   9       11.7207
  10       12.6406
  11       12.8771
  12       13.2057
  13       14.6332
  14       16.5612
  15       17.0942
  16       17.6745
 
  0.3333333E+00  0.1111111E+00  0.0000000E+00  0.5144033E-03
   1       -1.7483
   2        1.3331
   3        5.2752
   4        6.6453
   5        7.8467
   6        8.5654
   7        9.4068
   8        9.5178
   9       11.4385
  10       12.5717
  11       13.2553
  12       13.3602
  13       14.7925
  14       16.2385
  15       17.2443
  16       17.3775
 
  0.3611111E+00  0.1111111E+00  0.0000000E+00  0.5144033E-03
   1       -1.5679
   2        1.0019
   3        5.4444
   4        6.8111
   5        7.7138
   6        8.5497
   7        9.2047
   8        9.5234
   9       11.1854
  10       12.2770
  11       13.5280
  12       13.8687
  13       14.9773
  14       15.9280
  15       17.0899
  16       17.4072
 
  0.3888889E+00  0.1111111E+00  0.0000000E+00  0.5144033E-03
   1       -1.3733
   2        0.6837
   3        5.6268
   4        6.9903
   5        7.4890
   6        8.6491
   7        8.9051
   8        9.6169
   9       10.9791
  10       11.9950
  11       13.7091
  12       14.4577
  13       15.2099
  14       15.6300
  15       16.8121
  16       17.5830
 
  0.4166667E+00  0.1111111E+00  0.0000000E+00  0.5144033E-03
   1       -1.1646