   4   4   0   0
  0.1859362E+02  0.4205407E-09  0.4205407E-09  0.4205407E-09  0.5000000E-15
  1.000000000000000E-004
  CAR 
 unknown system                          
     19.82965451     -5.52354814  301      2.81077775      1.00000000
     -5.524  0.0000E+00  0.0000E+00
     -5.439  0.0000E+00  0.0000E+00
     -5.355  0.0000E+00  0.0000E+00
     -5.270  0.0000E+00  0.0000E+00
     -5.186  0.0000E+00  0.0000E+00
     -5.101  0.0000E+00  0.0000E+00
     -5.016  0.0000E+00  0.0000E+00
     -4.932  0.0000E+00  0.0000E+00
     -4.847  0.0000E+00  0.0000E+00
     -4.763  0.0000E+00  0.0000E+00
     -4.678  0.0000E+00  0.0000E+00
     -4.594  0.0000E+00  0.0000E+00
     -4.509  0.0000E+00  0.0000E+00
     -4.425  0.7180E-17  0.6068E-18
     -4.340  0.1688E-01  0.1427E-02
     -4.256  0.1081E+00  0.1074E-01
     -4.171  0.1671E+00  0.2503E-01
     -4.087  0.1897E+00  0.4261E-01
     -4.002  0.2277E+00  0.6307E-01
     -3.918  0.2756E+00  0.8812E-01
     -3.833  0.3010E+00  0.1156E+00
     -3.749  0.3107E+00  0.1455E+00
     -3.664  0.3712E+00  0.1788E+00
     -3.580  0.4168E+00  0.2162E+00
     -3.495  0.4531E+00  0.2558E+00
     -3.411  0.5261E+00  0.3035E+00
     -3.326  0.5701E+00  0.3538E+00
     -3.242  0.5439E+00  0.4068E+00
     -3.157  0.7577E+00  0.4733E+00
     -3.073  0.2123E+01  0.6543E+00
     -2.988  0.5284E+01  0.1121E+01
     -2.904  0.8285E+01  0.1855E+01
     -2.819  0.9627E+01  0.2726E+01
     -2.735  0.1223E+02  0.3820E+01
     -2.650  0.1640E+02  0.5284E+01
     -2.566  0.1503E+02  0.6658E+01
     -2.481  0.1272E+02  0.7817E+01
     -2.397  0.1121E+02  0.8846E+01
     -2.312  0.9815E+01  0.9732E+01
     -2.228  0.8248E+01  0.1049E+02
     -2.143  0.1052E+02  0.1141E+02
     -2.059  0.1107E+02  0.1241E+02
     -1.974  0.1229E+02  0.1352E+02
     -1.890  0.1113E+02  0.1453E+02
     -1.805  0.1137E+02  0.1556E+02
     -1.721  0.1123E+02  0.1657E+02
     -1.636  0.1369E+02  0.1780E+02
     -1.552  0.1744E+02  0.1937E+02
     -1.467  0.2089E+02  0.2126E+02
     -1.383  0.1416E+02  0.2255E+02
     -1.298  0.1096E+02  0.2356E+02
     -1.214  0.1094E+02  0.2454E+02
     -1.129  0.1133E+02  0.2559E+02
     -1.044  0.1214E+02  0.2668E+02
     -0.960  0.1384E+02  0.2793E+02
     -0.875  0.1344E+02  0.2915E+02
     -0.791  0.1525E+02  0.3051E+02
     -0.706  0.1242E+02  0.3164E+02
     -0.622  0.1163E+02  0.3269E+02
     -0.537  0.1113E+02  0.3371E+02
     -0.453  0.1140E+02  0.3474E+02
     -0.368  0.1205E+02  0.3583E+02
     -0.284  0.1411E+02  0.3709E+02
     -0.199  0.2070E+02  0.3894E+02
     -0.115  0.1553E+02  0.4037E+02
     -0.030  0.7810E+01  0.4111E+02
      0.054  0.2184E+01  0.4135E+02
      0.139  0.7099E+00  0.4141E+02
      0.223  0.9535E+00  0.4149E+02
      0.308  0.8838E+00  0.4157E+02
      0.392  0.7247E+00  0.4164E+02
      0.477  0.9794E+00  0.4172E+02
      0.561  0.7773E+00  0.4180E+02
      0.646  0.8258E+00  0.4187E+02
      0.730  0.8485E+00  0.4195E+02
      0.815  0.6924E+00  0.4201E+02
      0.899  0.1125E+01  0.4211E+02
      0.984  0.6910E+00  0.4217E+02
      1.068  0.9282E+00  0.4226E+02
      1.153  0.8442E+00  0.4233E+02
      1.237  0.6693E+00  0.4239E+02
      1.322  0.1073E+01  0.4249E+02
      1.406  0.7029E+00  0.4256E+02
      1.491  0.9657E+00  0.4264E+02
      1.575  0.9685E+00  0.4273E+02
      1.660  0.7679E+00  0.4280E+02
      1.744  0.9970E+00  0.4289E+02
      1.829  0.9323E+00  0.4297E+02
      1.913  0.7737E+00  0.4304E+02
      1.998  0.1030E+01  0.4314E+02
      2.082  0.9212E+00  0.4322E+02
      2.167  0.8987E+00  0.4330E+02
      2.251  0.1017E+01  0.4339E+02
      2.336  0.9878E+00  0.4348E+02
      2.420  0.8361E+00  0.4356E+02
      2.505  0.1125E+01  0.4366E+02
      2.589  0.9328E+00  0.4375E+02
      2.674  0.1026E+01  0.4384E+02
      2.758  0.1147E+01  0.4394E+02
      2.843  0.1093E+01  0.4403E+02
      2.928  0.1070E+01  0.4413E+02
      3.012  0.1040E+01  0.4423E+02
      3.097  0.9569E+00  0.4432E+02
      3.181  0.1109E+01  0.4442E+02
      3.266  0.9971E+00  0.4451E+02
      3.350  0.1042E+01  0.4460E+02
      3.435  0.1180E+01  0.4471E+02
      3.519  0.9712E+00  0.4479E+02
      3.604  0.1034E+01  0.4488E+02
      3.688  0.1113E+01  0.4498E+02
      3.773  0.1047E+01  0.4508E+02
      3.857  0.8905E+00  0.4516E+02
      3.942  0.1100E+01  0.4526E+02
      4.026  0.1087E+01  0.4536E+02
      4.111  0.8596E+00  0.4544E+02
      4.195  0.9774E+00  0.4553E+02
      4.280  0.1115E+01  0.4563E+02
      4.364  0.9753E+00  0.4572E+02
      4.449  0.9000E+00  0.4580E+02
      4.533  0.1101E+01  0.4590E+02
      4.618  0.1116E+01  0.4600E+02
      4.702  0.9848E+00  0.4609E+02
      4.787  0.8635E+00  0.4617E+02
      4.871  0.1106E+01  0.4627E+02
      4.956  0.9043E+00  0.4635E+02
      5.040  0.8634E+00  0.4643E+02
      5.125  0.9811E+00  0.4652E+02
      5.209  0.9253E+00  0.4661E+02
      5.294  0.7782E+00  0.4668E+02
      5.378  0.7615E+00  0.4675E+02
      5.463  0.9616E+00  0.4683E+02
      5.547  0.8197E+00  0.4690E+02
      5.632  0.8150E+00  0.4698E+02
      5.716  0.5537E+00  0.4703E+02
      5.801  0.9009E+00  0.4712E+02
      5.885  0.6746E+00  0.4718E+02
      5.970  0.7924E+00  0.4725E+02
      6.054  0.1083E+01  0.4735E+02
      6.139  0.1175E+01  0.4746E+02
      6.223  0.1375E+01  0.4758E+02
      6.308  0.1302E+01  0.4770E+02
      6.392  0.1321E+01  0.4782E+02
      6.477  0.1363E+01  0.4794E+02
      6.561  0.1391E+01  0.4807E+02
      6.646  0.1158E+01  0.4817E+02
      6.730  0.1239E+01  0.4829E+02
      6.815  0.1263E+01  0.4841E+02
      6.900  0.1199E+01  0.4852E+02
      6.984  0.1310E+01  0.4864E+02
      7.069  0.1215E+01  0.4875E+02
      7.153  0.1148E+01  0.4886E+02
      7.238  0.1324E+01  0.4897E+02
      7.322  0.1123E+01  0.4907E+02
      7.407  0.1178E+01  0.4918E+02
      7.491  0.1159E+01  0.4929E+02
      7.576  0.1129E+01  0.4939E+02
      7.660  0.1173E+01  0.4949E+02
      7.745  0.1029E+01  0.4959E+02
      7.829  0.1182E+01  0.4969E+02
      7.914  0.1224E+01  0.4980E+02
      7.998  0.9648E+00  0.4989E+02
      8.083  0.1147E+01  0.5000E+02
      8.167  0.1065E+01  0.5010E+02
      8.252  0.1082E+01  0.5020E+02
      8.336  0.9122E+00  0.5028E+02
      8.421  0.1225E+01  0.5039E+02
      8.505  0.1056E+01  0.5048E+02
      8.590  0.1058E+01  0.5058E+02
      8.674  0.1121E+01  0.5067E+02
      8.759  0.1074E+01  0.5077E+02
      8.843  0.1114E+01  0.5087E+02
      8.928  0.1133E+01  0.5097E+02
      9.012  0.1775E+01  0.5113E+02
      9.097  0.1800E+01  0.5129E+02
      9.181  0.1097E+01  0.5139E+02
      9.266  0.1606E+01  0.5153E+02
      9.350  0.1199E+01  0.5165E+02
      9.435  0.1290E+01  0.5176E+02
      9.519  0.1566E+01  0.5190E+02
      9.604  0.1857E+01  0.5207E+02
      9.688  0.1647E+01  0.5223E+02
      9.773  0.1443E+01  0.5236E+02
      9.857  0.1658E+01  0.5250E+02
      9.942  0.1725E+01  0.5265E+02
     10.026  0.1842E+01  0.5281E+02
     10.111  0.1572E+01  0.5295E+02
     10.195  0.1621E+01  0.5310E+02
     10.280  0.1581E+01  0.5324E+02
     10.364  0.1374E+01  0.5337E+02
     10.449  0.1818E+01  0.5353E+02
     10.533  0.1590E+01  0.5368E+02
     10.618  0.1695E+01  0.5383E+02
     10.703  0.1330E+01  0.5396E+02
     10.787  0.1475E+01  0.5409E+02
     10.872  0.1654E+01  0.5424E+02
     10.956  0.1978E+01  0.5442E+02
     11.041  0.1771E+01  0.5458E+02
     11.125  0.1536E+01  0.5472E+02
     11.210  0.1487E+01  0.5485E+02
     11.294  0.1729E+01  0.5500E+02
     11.379  0.1767E+01  0.5516E+02
     11.463  0.2147E+01  0.5535E+02
     11.548  0.1545E+01  0.5549E+02
     11.632  0.1647E+01  0.5564E+02
     11.717  0.1631E+01  0.5579E+02
     11.801  0.1647E+01  0.5594E+02
     11.886  0.1880E+01  0.5610E+02
     11.970  0.1850E+01  0.5627E+02
     12.055  0.1924E+01  0.5645E+02
     12.139  0.1782E+01  0.5661E+02
     12.224  0.1544E+01  0.5675E+02
     12.308  0.1694E+01  0.5690E+02
     12.393  0.1974E+01  0.5708E+02
     12.477  0.2004E+01  0.5726E+02
     12.562  0.1908E+01  0.5744E+02
     12.646  0.1606E+01  0.5759E+02
     12.731  0.2066E+01  0.5777E+02
     12.815  0.1637E+01  0.5792E+02
     12.900  0.2240E+01  0.5811E+02
     12.984  0.1933E+01  0.5829E+02
     13.069  0.2044E+01  0.5848E+02
     13.153  0.2167E+01  0.5867E+02
     13.238  0.2010E+01  0.5885E+02
     13.322  0.1745E+01  0.5901E+02
     13.407  0.2385E+01  0.5923E+02
     13.491  0.2058E+01  0.5941E+02
     13.576  0.1912E+01  0.5958E+02
     13.660  0.1926E+01  0.5975E+02
     13.745  0.2000E+01  0.5993E+02
     13.829  0.1730E+01  0.6009E+02
     13.914  0.1939E+01  0.6027E+02
     13.998  0.1743E+01  0.6043E+02
     14.083  0.1851E+01  0.6059E+02
     14.167  0.1795E+01  0.6075E+02
     14.252  0.1661E+01  0.6090E+02
     14.336  0.1889E+01  0.6107E+02
     14.421  0.1547E+01  0.6121E+02
     14.505  0.1748E+01  0.6137E+02
     14.590  0.1714E+01  0.6152E+02
     14.675  0.1430E+01  0.6165E+02
     14.759  0.1337E+01  0.6178E+02
     14.844  0.1412E+01  0.6190E+02
     14.928  0.1320E+01  0.6202E+02
     15.013  0.1125E+01  0.6213E+02
     15.097  0.1011E+01  0.6222E+02
     15.182  0.1163E+01  0.6233E+02
     15.266  0.9884E+00  0.6242E+02
     15.351  0.9224E+00  0.6250E+02
     15.435  0.9271E+00  0.6258E+02
     15.520  0.9366E+00  0.6266E+02
     15.604  0.8132E+00  0.6274E+02
     15.689  0.7668E+00  0.6281E+02
     15.773  0.6525E+00  0.6287E+02
     15.858  0.6753E+00  0.6294E+02
     15.942  0.7594E+00  0.6300E+02
     16.027  0.5783E+00  0.6306E+02
     16.111  0.6164E+00  0.6311E+02
     16.196  0.7889E+00  0.6318E+02
     16.280  0.4435E+00  0.6322E+02
     16.365  0.5282E+00  0.6327E+02
     16.449  0.4519E+00  0.6331E+02
     16.534  0.5485E+00  0.6336E+02
     16.618  0.4451E+00  0.6340E+02
     16.703  0.4592E+00  0.6344E+02
     16.787  0.2543E+00  0.6347E+02
     16.872  0.4899E+00  0.6351E+02
     16.956  0.3281E+00  0.6354E+02
     17.041  0.3717E+00  0.6357E+02
     17.125  0.3880E+00  0.6361E+02
     17.210  0.3591E+00  0.6364E+02
     17.294  0.2582E+00  0.6366E+02
     17.379  0.3834E+00  0.6370E+02
     17.463  0.1921E+00  0.6372E+02
     17.548  0.3727E+00  0.6375E+02
     17.632  0.1622E+00  0.6376E+02
     17.717  0.3513E+00  0.6380E+02
     17.801  0.2444E+00  0.6382E+02
     17.886  0.1966E+00  0.6384E+02
     17.970  0.2675E+00  0.6386E+02
     18.055  0.2615E+00  0.6388E+02
     18.139  0.1595E+00  0.6390E+02
     18.224  0.2711E+00  0.6392E+02
     18.308  0.2671E+00  0.6395E+02
     18.393  0.3314E+00  0.6398E+02
     18.477  0.1572E+00  0.6399E+02
     18.562  0.4851E-01  0.6400E+02
     18.647  0.2744E-01  0.6400E+02
     18.731  0.4058E-02  0.6400E+02
     18.816  0.0000E+00  0.6400E+02
     18.900  0.0000E+00  0.6400E+02
     18.985  0.0000E+00  0.6400E+02
     19.069  0.0000E+00  0.6400E+02
     19.154  0.0000E+00  0.6400E+02
     19.238  0.0000E+00  0.6400E+02
     19.323  0.0000E+00  0.6400E+02
     19.407  0.0000E+00  0.6400E+02
     19.492  0.0000E+00  0.6400E+02
     19.576  0.0000E+00  0.6400E+02
     19.661  0.0000E+00  0.6400E+02
     19.745  0.0000E+00  0.6400E+02
     19.830  0.0000E+00  0.6400E+02
