    4    4    1    1
  0.1859362E+02  0.4205407E-09  0.4205407E-09  0.4205407E-09  0.5000000E-15
  1.000000000000000E-004
  CAR 
 unknown system                          
   44 1330   32
 
  0.0000000E+00  0.0000000E+00  0.0000000E+00  0.2143347E-04
   1       -4.3711
   2       -3.1507
   3       -3.1507
   4       -3.1507
   5       -3.0426
   6       -3.0426
   7       -3.0426
   8       -1.7549
   9       -1.7549
  10       -1.7549
  11       -0.8678
  12       -0.8678
  13       -0.2131
  14       -0.2131
  15       -0.2131
  16       -0.0072
  17       -0.0072
  18       -0.0072
  19       -0.0072
  20       -0.0072
  21       -0.0072
  22        4.4762
  23        4.4762
  24        4.4762
  25        8.8873
  26        8.8873
  27        8.8873
  28       13.1621
  29       13.1621
  30       13.1621
  31       13.1621
  32       13.1621
 
  0.2777778E-01  0.0000000E+00  0.0000000E+00  0.1286008E-03
   1       -4.3636
   2       -3.1477
   3       -3.1469
   4       -3.1469
   5       -3.0404
   6       -3.0392
   7       -3.0392
   8       -1.7577
   9       -1.7524
  10       -1.7524
  11       -0.8706
  12       -0.8667
  13       -0.2167
  14       -0.2167
  15       -0.2144
  16       -0.0200
  17       -0.0200
  18       -0.0116
  19       -0.0116
  20       -0.0072
  21       -0.0072
  22        4.4160
  23        4.4955
  24        4.4955
  25        8.8887
  26        8.8887
  27        8.9598
  28       13.1321
  29       13.1321
  30       13.1322
  31       13.1322
  32       13.1750
 
  0.5555556E-01  0.0000000E+00  0.0000000E+00  0.1286008E-03
   1       -4.3409
   2       -3.1389
   3       -3.1354
   4       -3.1354
   5       -3.0337
   6       -3.0290
   7       -3.0290
   8       -1.7658
   9       -1.7447
  10       -1.7447
  11       -0.8787
  12       -0.8631
  13       -0.2275
  14       -0.2275
  15       -0.2183
  16       -0.0577
  17       -0.0577
  18       -0.0249
  19       -0.0249
  20       -0.0071
  21       -0.0071
  22        4.2462
  23        4.5525
  24        4.5525
  25        8.8929
  26        8.8929
  27        9.1664
  28       13.0443
  29       13.0443
  30       13.0453
  31       13.0453
  32       13.2138
 
  0.8333333E-01  0.0000000E+00  0.0000000E+00  0.1286008E-03
   1       -4.3032
   2       -3.1243
   3       -3.1165
   4       -3.1164
   5       -3.0227
   6       -3.0121
   7       -3.0121
   8       -1.7793
   9       -1.7318
  10       -1.7318
  11       -0.8921
  12       -0.8572
  13       -0.2453
  14       -0.2453
  15       -0.2248
  16       -0.1184
  17       -0.1184
  18       -0.0467
  19       -0.0467
  20       -0.0071
  21       -0.0071
  22        3.9921
  23        4.6452
  24        4.6452
  25        8.9000
  26        8.9000
  27        9.4818
  28       12.9041
  29       12.9041
  30       12.9101
  31       12.9101
  32       13.2780
 
  0.1111111E+00  0.0000000E+00  0.0000000E+00  0.1286008E-03
   1       -4.2507
   2       -3.1042
   3       -3.0903
   4       -3.0903
   5       -3.0073
   6       -2.9884
   7       -2.9884
   8       -1.7979
   9       -1.7139
  10       -1.7139
  11       -0.9103
  12       -0.8489
  13       -0.2699
  14       -0.2699
  15       -0.2338
  16       -0.1992
  17       -0.1992
  18       -0.0768
  19       -0.0768
  20       -0.0071
  21       -0.0071
  22        3.6810
  23        4.7709
  24        4.7709
  25        8.9101
  26        8.9101
  27        9.8787
  28       12.7189
  29       12.7189
  30       12.7377
  31       12.7377
  32       13.3674
 
  0.1388889E+00  0.0000000E+00  0.0000000E+00  0.1286008E-03
   1       -4.1838
   2       -3.0788
   3       -3.0573
   4       -3.0573
   5       -2.9877
   6       -2.9579
   7       -2.9579
   8       -1.8215
   9       -1.6910
  10       -1.6910
  11       -0.9331
  12       -0.8385
  13       -0.3010
  14       -0.3010
  15       -0.2969
  16       -0.2969
  17       -0.2452
  18       -0.1146
  19       -0.1146
  20       -0.0070
  21       -0.0070
  22        3.3346
  23        4.9261
  24        4.9261
  25        8.9233
  26        8.9233
  27       10.3355
  28       12.4967
  29       12.4967
  30       12.5395
  31       12.5395
  32       13.4813
 
  0.1666667E+00  0.0000000E+00  0.0000000E+00  0.1286008E-03
   1       -4.1028
   2       -3.0485
   3       -3.0180
   4       -3.0180
   5       -2.9639
   6       -2.9207
   7       -2.9207
   8       -1.8499
   9       -1.6631
  10       -1.6631
  11       -0.9597
  12       -0.8258
  13       -0.4080
  14       -0.4080
  15       -0.3382
  16       -0.3382
  17       -0.2589
  18       -0.1597
  19       -0.1597
  20       -0.0070
  21       -0.0070
  22        2.9685
  23        5.1073
  24        5.1073
  25        8.9397
  26        8.9397
  27       10.8366
  28       12.2451
  29       12.2451
  30       12.3258
  31       12.3258
  32       13.6191
 
  0.1944444E+00  0.0000000E+00  0.0000000E+00  0.1286008E-03
   1       -4.0084
   2       -3.0139
   3       -2.9731
   4       -2.9731
   5       -2.9362
   6       -2.8768
   7       -2.8768
   8       -1.8828
   9       -1.6303
  10       -1.6303
  11       -0.9894
  12       -0.8110
  13       -0.5293
  14       -0.5293
  15       -0.3809
  16       -0.3809
  17       -0.2749
  18       -0.2113
  19       -0.2113
  20       -0.0069
  21       -0.0069
  22        2.5933
  23        5.3112
  24        5.3112
  25        8.9595
  26        8.9595
  27       11.3713
  28       11.9706
  29       11.9706
  30       12.1049
  31       12.1049
  32       13.7800
 
  0.2222222E+00  0.0000000E+00  0.0000000E+00  0.1286008E-03
   1       -3.9014
   2       -2.9756
   3       -2.9233
   4       -2.9233
   5       -2.9046
   6       -2.8262
   7       -2.8262
   8       -1.9198
   9       -1.5928
  10       -1.5928
  11       -1.0212
  12       -0.7943
  13       -0.6580
  14       -0.6580
  15       -0.4284
  16       -0.4284
  17       -0.2929
  18       -0.2687
  19       -0.2687
  20       -0.0068
  21       -0.0068
  22        2.2163
  23        5.5349
  24        5.5349
  25        8.9827
  26        8.9827
  27       11.6785
  28       11.6785
  29       11.8834
  30       11.8834
  31       11.9322
  32       13.9630
 
  0.2500000E+00  0.0000000E+00  0.0000000E+00  0.1286008E-03
   1       -3.7829
   2       -2.9343
   3       -2.8697
   4       -2.8697
   5       -2.8693
   6       -2.7690
   7       -2.7690
   8       -1.9607
   9       -1.5507
  10       -1.5507
  11       -1.0535
  12       -0.7916
  13       -0.7916
  14       -0.7756
  15       -0.4797
  16       -0.4797
  17       -0.3313
  18       -0.3313
  19       -0.3128
  20       -0.0067
  21       -0.0067
  22        1.8429
  23        5.7757
  24        5.7757
  25        9.0094
  26        9.0094
  27       11.3731
  28       11.3731
  29       11.6666
  30       11.6666
  31       12.5142
  32       14.1672
 
  0.2777778E+00  0.0000000E+00  0.0000000E+00  0.1286008E-03
   1       -3.6545
   2       -2.8912
   3       -2.8307
   4       -2.8134
   5       -2.8134
   6       -2.7052
   7       -2.7052
   8       -2.0049
   9       -1.5041
  10       -1.5041
  11       -1.0847
  12       -0.9282
  13       -0.9282
  14       -0.7552
  15       -0.5338
  16       -0.5338
  17       -0.3981
  18       -0.3981
  19       -0.3345
  20       -0.0067
  21       -0.0067
  22        1.4770
  23        6.0314
  24        6.0314
  25        9.0395
  26        9.0395
  27       11.0578
  28       11.0578
  29       11.4587
  30       11.4587
  31       13.1132
  32       14.3915
 
  0.3055556E+00  0.0000000E+00  0.0000000E+00  0.1286008E-03
   1       -3.5182
   2       -2.8473
   3       -2.7888
   4       -2.7559
   5       -2.7559
   6       -2.6349
   7       -2.6349
   8       -2.0522
   9       -1.4533
  10       -1.4533
  11       -1.1122
  12       -1.0659
  13       -1.0659
  14       -0.7332
  15       -0.5893
  16       -0.5893
  17       -0.4684
  18       -0.4684
  19       -0.3578
  20       -0.0066
  21       -0.0066
  22        1.1218
  23        6.3000
  24        6.3000
  25        9.0727
  26        9.0727
  27       10.7355
  28       10.7355
  29       11.2630
  30       11.2630
  31       13.7257
  32       14.6349
 
  0.3333333E+00  0.0000000E+00  0.0000000E+00  0.1286008E-03
   1       -3.3771
   2       -2.8043
   3       -2.7440
   4       -2.6989
   5       -2.6989
   6       -2.5581
   7       -2.5581
   8       -2.1021
   9       -1.3983
  10       -1.3983
  11       -1.2033
  12       -1.2033
  13       -1.1328
  14       -0.7097
  15       -0.6444
  16       -0.6444
  17       -0.5415
  18       -0.5415
  19       -0.3825
  20       -0.0065
  21       -0.0065
  22        0.7802
  23        6.5799
  24        6.5799
  25        9.1086
  26        9.1086
  27       10.4083
  28       10.4083
  29       11.0825
  30       11.0825
  31       14.3485
  32       14.8963
 
  0.3611111E+00  0.0000000E+00  0.0000000E+00  0.1286008E-03
   1       -3.2350
   2       -2.7642
   3       -2.6966
   4       -2.6444
   5       -2.6444
   6       -2.4751
   7       -2.4751
   8       -2.1542
   9       -1.3395
  10       -1.3395
  11       -1.3393
  12       -1.3393
  13       -1.1422
  14       -0.6974
  15       -0.6974
  16       -0.6849
  17       -0.6166
  18       -0.6166
  19       -0.4084
  20       -0.0065
  21       -0.0065
  22        0.4550
  23        6.8697
  24        6.8697
  25        9.1460
  26        9.1460
  27       10.0780
  28       10.0780
  29       10.9200
  30       10.9200
  31       14.9781
  32       15.1746
 
  0.3888889E+00  0.0000000E+00  0.0000000E+00  0.1286008E-03
   1       -3.0975
   2       -2.7295
   3       -2.6468
   4       -2.5947
   5       -2.5947
   6       -2.3858
   7       -2.3858
   8       -2.2079
   9       -1.4729
  10       -1.4729
  11       -1.2771
  12       -1.2771
  13       -1.1345
  14       -0.7458
  15       -0.7458
  16       -0.6930
  17       -0.6930
  18       -0.6589
  19       -0.4352
  20       -0.0064
  21       -0.0064
  22        0.1495
  23        7.1681
  24        7.1681
  25        9.1834
  26        9.1834
  27        9.7462
  28        9.7462
  29       10.7787
  30       10.7787
  31       15.4685
  32       15.4686
 
  0.4166667E+00  0.0000000E+00  0.0000000E+00  0.1286008E-03
   1       -2.9711
   2       -2.7037
   3       -2.5950
   4       -2.5523
   5       -2.5523
   6       -2.2904
   7       -2.2904
   8       -2.2629
   9       -1.6034
  10       -1.6034
  11       -1.2114
  12       -1.2114
  13       -1.1028
  14       -0.7872
  15       -0.7872
  16       -0.7699
  17       -0.7699
  18       -0.6321
  19       -0.4628
  20       -0.1328
  21       -0.0064
  22       -0.0064
  23        7.4741
  24        7.4741
  25        9.2182
  26        9.2182
  27        9.4141
  28        9.4141
  29       10.6620
  30       10.6620
  31       15.7770
  32       15.7770
 
  0.4444444E+00  0.0000000E+00  0.0000000E+00  0.1286008E-03
   1       -2.8631
   2       -2.6908
   3       -2.5415
   4       -2.5196
   5       -2.5196
   6       -2.3188
   7       -2.1892
   8       -2.1892
   9       -1.7300
  10       -1.7300
  11       -1.1428
  12       -1.1428
  13       -1.0394
  14       -0.8469
  15       -0.8469
  16       -0.8191
  17       -0.8191
  18       -0.6045
  19       -0.4909
  20       -0.3875
  21       -0.0064
  22       -0.0064
  23        7.7865
  24        7.7865
  25        9.0829
  26        9.0829
  27        9.2474
  28        9.2474
  29       10.5738
  30       10.5738
  31       16.0989
  32       16.0989
 
  0.4722222E+00  0.0000000E+00  0.0000000E+00  0.1286008E-03
   1       -2.7799
   2       -2.6960
   3       -2.4990
   4       -2.4990
   5       -2.4867
   6       -2.3750
   7       -2.0822
   8       -2.0822
   9       -1.8523
  10       -1.8523
  11       -1.0715
  12       -1.0715
  13       -0.9377
  14       -0.9231
  15       -0.9231
  16       -0.8393
  17       -0.8393
  18       -0.6097
  19       -0.5764
  20       -0.5194
  21       -0.0063
  22       -0.0063
  23        8.1045
  24        8.1045
  25        8.7536
  26        8.7536
  27        9.2670
  28        9.2670
  29       10.5186
  30       10.5186
  31       16.4328
  32       16.4328
 
  0.5000000E+00  0.0000000E+00  0.0000000E+00  0.6430041E-04
   1       -2.7244
   2       -2.7244
   3       -2.4919
   4       -2.4919
   5       -2.4311
   6       -2.4311
   7       -1.9699
   8       -1.9699
   9       -1.9699
  10       -1.9699
  11       -0.9982
  12       -0.9982
  13       -0.9982
  14       -0.9982
  15       -0.8463
  16       -0.8463
  17       -0.7943
  18       -0.7943
  19       -0.5479
  20       -0.5479
  21       -0.0063
  22       -0.0063
  23        8.4272
  24        8.4272
  25        8.4272
  26        8.4272
  27        9.2740
  28        9.2740
  29       10.4997
  30       10.4997
  31       16.7776
  32       16.7776
 
  0.2777778E-01  0.2777778E-01  0.0000000E+00  0.2572016E-03
   1       -4.3560
   2       -3.1439
   3       -3.1439
   4       -3.1431
   5       -3.0370
   6       -3.0370
   7       -3.0357
   8       -1.7587
   9       -1.7514
  10       -1.7498
  11       -0.8713
  12       -0.8674
  13       -0.2203
  14       -0.2182
  15       -0.2182
  16       -0.0296
  17       -0.0243
  18       -0.0243
  19       -0.0116
  20       -0.0116
  21       -0.0102
  22        4.4351
  23        4.4351
  24        4.5146
  25        8.8901
  26        8.9613
  27        8.9613
  28       13.0203
  29       13.1449
  30       13.1449
  31       13.1450
  32       13.1450
 
  0.5555556E-01  0.2777778E-01  0.0000000E+00  0.5144033E-03
   1       -4.3334
   2       -3.1351
   3       -3.1324
   4       -3.1319
   5       -3.0304
   6       -3.0268
   7       -3.0254
   8       -1.7660
   9       -1.7445
  10       -1.7422
  11       -0.8787
  12       -0.8645
  13       -0.2310
  14       -0.2294
  15       -0.2225
  16       -0.0655
  17       -0.0616
  18       -0.0372
  19       -0.0249
  20       -0.0118
  21       -0.0116
  22        4.2649
  23        4.4916
  24        4.5713
  25        8.8943
  26        8.9660
  27        9.1683
  28       12.8592
  29       13.0571
  30       13.0579
  31       13.1829
  32       13.1835
 
  0.8333333E-01  0.2777778E-01  0.0000000E+00  0.5144033E-03
   1       -4.2957
   2       -3.1204
   3       -3.1135
   4       -3.1134
   5       -3.0193
   6       -3.0099
   7       -3.0081
   8       -1.7793
   9       -1.7319
  10       -1.7294
  11       -0.8918
  12       -0.8587
  13       -0.2487
  14       -0.2483
  15       -0.2297
  16       -0.1254
  17       -0.1212
  18       -0.0583
  19       -0.0467
  20       -0.0122
  21       -0.0116
  22        4.0104
  23        4.5836
  24        4.6637
  25        8.9014
  26        8.9739
  27        9.4841
  28       12.6586
  29       12.9166
  30       12.9223
  31       13.1181
  32       13.2472
 
  0.1111111E+00  0.2777778E-01  0.0000000E+00  0.5144033E-03
   1       -4.2433
   2       -3.1003
   3       -3.0878
   4       -3.0873
   5       -3.0040
   6       -2.9862
   7       -2.9838
   8       -1.7978
   9       -1.7140
  10       -1.7117
  11       -0.9100
  12       -0.8504
  13       -0.2764
  14       -0.2732
  15       -0.2399
  16       -0.2055
  17       -0.1986
  18       -0.0872
  19       -0.0768
  20       -0.0123
  21       -0.0115
  22        3.6990
  23        4.7081
  24        4.7888
  25        8.9115
  26        8.9851
  27        9.8814
  28       12.4281
  29       12.7311
  30       12.7495
  31       13.0023
  32       13.3359
 
  0.1388889E+00  0.2777778E-01  0.0000000E+00  0.5144033E-03
   1       -4.1765
   2       -3.0749
   3       -3.0556
   4       -3.0543
   5       -2.9844
   6       -2.9558
   7       -2.9528
   8       -1.8213
   9       -1.6911
  10       -1.6889
  11       -0.9326
  12       -0.8398
  13       -0.3255
  14       -0.3042
  15       -0.3025
  16       -0.2781
  17       -0.2534
  18       -0.1231
  19       -0.1147
  20       -0.0123
  21       -0.0115
  22        3.3525
  23        4.8618
  24        4.9434
  25        8.9246
  26        8.9997
  27       10.3384
  28       12.1762
  29       12.5087
  30       12.5509
  31       12.8439
  32       13.4496
 
  0.1666667E+00  0.2777778E-01  0.0000000E+00  0.5144033E-03
   1       -4.0957
   2       -3.0446
   3       -3.0172
   4       -3.0150
   5       -2.9607
   6       -2.9186
   7       -2.9148
   8       -1.8496
   9       -1.6633
  10       -1.6613
  11       -0.9591
  12       -0.8269
  13       -0.4217
  14       -0.4129
  15       -0.3413
  16       -0.3301
  17       -0.2708
  18       -0.1647
  19       -0.1597
  20       -0.0122
  21       -0.0115
  22        2.9864
  23        5.0409
  24        5.1240
  25        8.9409
  26        9.0179
  27       10.8395
  28       11.9096
  29       12.2568
  30       12.3369
  31       12.6533
  32       13.5856
 
  0.1944444E+00  0.2777778E-01  0.0000000E+00  0.5144033E-03
   1       -4.0014
   2       -3.0099
   3       -2.9732
   4       -2.9700
   5       -2.9330
   6       -2.8748
   7       -2.8702
   8       -1.8824
   9       -1.6305
  10       -1.6289
  11       -0.9886
  12       -0.8119
  13       -0.5398
  14       -0.5336
  15       -0.3838
  16       -0.3759
  17       -0.2938
  18       -0.2114
  19       -0.2095
  20       -0.0121
  21       -0.0114
  22        2.6113
  23        5.2423
  24        5.3273
  25        8.9604
  26        9.0397
  27       11.3741
  28       11.6334
  29       11.9821
  30       12.1157
  31       12.4406
  32       13.7454
 
  0.2222222E+00  0.2777778E-01  0.0000000E+00  0.5144033E-03
   1       -3.8946
   2       -2.9716
   3       -2.9243
   4       -2.9202
   5       -2.9015
   6       -2.8243
   7       -2.8190
   8       -1.9193
   9       -1.5930
  10       -1.5918
  11       -1.0200
  12       -0.7949
  13       -0.6671
  14       -0.6617
  15       -0.4310
  16       -0.4245
  17       -0.3265
  18       -0.2688
  19       -0.2525
  20       -0.0120
  21       -0.0114
  22        2.2347
  23        5.4629
  24        5.5504
  25        8.9832
  26        9.0655
  27       11.3507
  28       11.6898
  29       11.8943
  30       11.9349
  31       12.2147
  32       13.9265
 
  0.2500000E+00  0.2777778E-01  0.0000000E+00  0.5144033E-03
   1       -3.7763
   2       -2.9302
   3       -2.8713
   4       -2.8665
   5       -2.8664
   6       -2.7671
   7       -2.7613
   8       -1.9600
   9       -1.5509
  10       -1.5504
  11       -1.0517
  12       -0.7999
  13       -0.7948
  14       -0.7760
  15       -0.4822
  16       -0.4765
  17       -0.3734
  18       -0.3314
  19       -0.2886
  20       -0.0120
  21       -0.0113
  22        1.8619
  23        5.7000
  24        5.7906
  25        9.0090
  26        9.0951
  27       11.0638
  28       11.3843
  29       11.6777
  30       11.9836
  31       12.5166
  32       14.1309
 
  0.2777778E+00  0.2777778E-01  0.0000000E+00  0.5144033E-03
   1       -3.6481
   2       -2.8870
   3       -2.8278
   4       -2.8154
   5       -2.8102
   6       -2.7035
   7       -2.6975
   8       -2.0042
   9       -1.5049
  10       -1.5043
  11       -1.0820
  12       -0.9357
  13       -0.9308
  14       -0.7553
  15       -0.5360
  16       -0.5310
  17       -0.4325
  18       -0.3982
  19       -0.3186
  20       -0.0119
  21       -0.0113
  22        1.4966
  23        5.9512
  24        6.0458
  25        9.0377
  26        9.1285
  27       10.7740
  28       11.0690
  29       11.4704
  30       11.7541
  31       13.1152
  32       14.3509
 
  0.3055556E+00  0.2777778E-01  0.0000000E+00  0.5144033E-03
   1       -3.5121
   2       -2.8431
   3       -2.7860
   4       -2.7579
   5       -2.7527
   6       -2.6333
   7       -2.6275
   8       -2.0513
   9       -1.4559
  10       -1.4535
  11       -1.1079
  12       -1.0728
  13       -1.0680
  14       -0.7329
  15       -0.5913
  16       -0.5868
  17       -0.4994
  18       -0.4686
  19       -0.3463
  20       -0.0118
  21       -0.0112
  22        1.1424
  23        6.2145
  24        6.3139
  25        9.0680
  26        9.1653
  27       10.4824
  28       10.7466
  29       11.2757
  30       11.5321
  31       13.7272
  32       14.5919
 
  0.3333333E+00  0.2777778E-01  0.0000000E+00  0.5144033E-03
   1       -3.3712
   2       -2.8000
   3       -2.7413
   4       -2.7005
   5       -2.6956
   6       -2.5567
   7       -2.5516
   8       -2.1011
   9       -1.4041
  10       -1.3985
  11       -1.2096
  12       -1.2049
  13       -1.1255
  14       -0.7090
  15       -0.6462
  16       -0.6422
  17       -0.5710
  18       -0.5417
  19       -0.3736
  20       -0.0117
  21       -0.0112
  22        0.8020
  23        6.4881
  24        6.5934
  25        9.0980
  26        9.2051
  27       10.1910
  28       10.4193
  29       11.0971
  30       11.3229
  31       14.3492
  32       14.8528
 
  0.3611111E+00  0.2777778E-01  0.0000000E+00  0.5144033E-03
   1       -3.2295
   2       -2.7597
   3       -2.6940
   4       -2.6453
   5       -2.6411
   6       -2.4738
   7       -2.4697
   8       -2.1530
   9       -1.3509
  10       -1.3449
  11       -1.3405
  12       -1.3397
  13       -1.1294
  14       -0.6989
  15       -0.6955
  16       -0.6838
  17       -0.6459
  18       -0.6168
  19       -0.4012
  20       -0.0116
  21       -0.0112
  22        0.4787
  23        6.7704
  24        6.8828
  25        9.1220
  26        9.2465
  27        9.9046
  28       10.0891
  29       10.9376
  30       11.1309
  31       14.9753
  32       15.1309
 
  0.3888889E+00  0.2777778E-01  0.0000000E+00  0.5144033E-03
   1       -3.0921
   2       -2.7250
   3       -2.6443
   4       -2.5947
   5       -2.5913
   6       -2.3846
   7       -2.3817
   8       -2.2066
   9       -1.4778
  10       -1.4738
  11       -1.2981
  12       -1.2773
  13       -1.1126
  14       -0.7470
  15       -0.7442
  16       -0.7231
  17       -0.6931
  18       -0.6575
  19       -0.4295
  20       -0.0115
  21       -0.0112
  22        0.1755
  23        7.0599
  24        7.1809
  25        9.1225
  26        9.2876
  27        9.6398
  28        9.7573
  29       10.8009
  30       10.9602
  31       15.4101
  32       15.4228
 
  0.4166667E+00  0.2777778E-01  0.0000000E+00  0.5144033E-03
   1       -2.9659
   2       -2.6990
   3       -2.5926
   4       -2.5513
   5       -2.5489
   6       -2.2895
   7       -2.2878
   8       -2.2615
   9       -1.6075
  10       -1.6039
  11       -1.2449
  12       -1.2116
  13       -1.0689
  14       -0.8019
  15       -0.7882
  16       -0.7860
  17       -0.7701
  18       -0.6301
  19       -0.4584
  20       -0.1035
  21       -0.0114
  22       -0.0112
  23        7.3551
  24        7.4865
  25        9.0421
  26        9.3255
  27        9.4253
  28        9.4523
  29       10.6913
  30       10.8147
  31       15.7157
  32       15.7277
 
  0.4444444E+00  0.2777778E-01  0.0000000E+00  0.5144033E-03
   1       -2.8581
   2       -2.6861
   3       -2.5393
   4       -2.5179
   5       -2.5163
   6       -2.3171
   7       -2.1884
   8       -2.1879
   9       -1.7332
  10       -1.7302
  11       -1.1865
  12       -1.1430
  13       -0.9958
  14       -0.8820
  15       -0.8470
  16       -0.8198
  17       -0.8183
  18       -0.6020
  19       -0.4885
  20       -0.3529
  21       -0.0113
  22       -0.0112
  23        7.6545
  24        7.7987
  25        8.8301
  26        9.0942
  27        9.3565
  28        9.3906
  29       10.6139
  30       10.6988
  31       16.0322
  32       16.0451
 
  0.4722222E+00  0.2777778E-01  0.0000000E+00  0.5144033E-03
   1       -2.7749
   2       -2.6912
   3       -2.4966
   4       -2.4958
   5       -2.4847
   6       -2.3732
   7       -2.0823
   8       -2.0817
   9       -1.8546
  10       -1.8523
  11       -1.1186
  12       -1.0717
  13       -0.9626
  14       -0.9233
  15       -0.8916
  16       -0.8397
  17       -0.8389
  18       -0.5761
  19       -0.5732
  20       -0.5114
  21       -0.0113
  22       -0.0112
  23        7.9560
  24        8.1164
  25        8.5531
  26        8.7651
  27        9.3770
  28        9.3846
  29       10.5739
  30       10.6174
  31       16.3593
  32       16.3736
 
  0.5000000E+00  0.2777778E-01  0.0000000E+00  0.2572016E-03
   1       -2.7195
   2       -2.7195
   3       -2.4890
   4       -2.4890
   5       -2.4292
   6       -2.4292
   7       -1.9711
   8       -1.9711
   9       -1.9695
  10       -1.9695
  11       -1.0425
  12       -1.0425
  13       -0.9984
  14       -0.9984
  15       -0.8463
  16       -0.8463
  17       -0.7521
  18       -0.7521
  19       -0.5437
  20       -0.5437
  21       -0.0112
  22       -0.0112
  23        8.2573
  24        8.2573
  25        8.4389
  26        8.4389
  27        9.3851
  28        9.3851
  29       10.5748
  30       10.5748
  31       16.6959
  32       16.6979
 
  0.5555556E-01  0.5555556E-01  0.0000000E+00  0.2572016E-03
   1       -4.3108
   2       -3.1235
   3       -3.1235
   4       -3.1214
   5       -3.0202
   6       -3.0202
   7       -3.0143
   8       -1.7699
   9       -1.7409
  10       -1.7347
  11       -0.8817
  12       -0.8658
  13       -0.2416
  14       -0.2352
  15       -0.2352
  16       -0.0945
  17       -0.0731
  18       -0.0731
  19       -0.0249
  20       -0.0249
  21       -0.0194
  22        4.3204
  23        4.3204
  24        4.6273
  25        8.8985
  26        9.1741
  27        9.1741
  28       12.6352
  29       13.0951
  30       13.0951
  31       13.0955
  32       13.0955
 
  0.8333333E-01  0.5555556E-01  0.0000000E+00  0.5144033E-03
   1       -4.2733
   2       -3.1089
   3       -3.1045
   4       -3.1042
   5       -3.0093
   6       -3.0034
   7       -2.9960
   8       -1.7810
   9       -1.7304
  10       -1.7222
  11       -0.8926
  12       -0.8618
  13       -0.2591
  14       -0.2576
  15       -0.2450
  16       -0.1492
  17       -0.1292
  18       -0.0916
  19       -0.0467
  20       -0.0249
  21       -0.0236
  22        4.0647
  23        4.4105
  24        4.7184
  25        8.9056
  26        9.1838
  27        9.4911
  28       12.3829
  29       12.9540
  30       12.9588
  31       13.1579
  32       13.1583
 
  0.1111111E+00  0.5555556E-01  0.0000000E+00  0.5144033E-03
   1       -4.2212
   2       -3.0887
   3       -3.0803
   4       -3.0783
   5       -2.9941
   6       -2.9798
   7       -2.9704
   8       -1.7984
   9       -1.7134
  10       -1.7049
  11       -0.9098
  12       -0.8538
  13       -0.2943
  14       -0.2832
  15       -0.2596
  16       -0.2260
  17       -0.1979
  18       -0.1164
  19       -0.0769
  20       -0.0256
  21       -0.0249
  22        3.7523
  23        4.5322
  24        4.8420
  25        8.9155
  26        9.1976
  27        9.8894
  28       12.1109
  29       12.7677
  30       12.7847
  31       13.2392
  32       13.2448
 
  0.1388889E+00  0.5555556E-01  0.0000000E+00  0.5144033E-03
   1       -4.1547
   2       -3.0632
   3       -3.0502
   4       -3.0453
   5       -2.9746
   6       -2.9495
   7       -2.9377
   8       -1.8213
   9       -1.6910
  10       -1.6827
  11       -0.9318
  12       -0.8430
  13       -0.3577
  14       -0.3203
  15       -0.3138
  16       -0.2797
  17       -0.2631
  18       -0.1460
  19       -0.1148
  20       -0.0265
  21       -0.0249
  22        3.4053
  23        4.6821
  24        4.9949
  25        8.9284
  26        9.2155
  27       10.3469
  28       11.8263
  29       12.5445
  30       12.5850
  31       13.1434
  32       13.3553
 
  0.1666667E+00  0.5555556E-01  0.0000000E+00  0.5144033E-03
   1       -4.0742
   2       -3.0328
   3       -3.0140
   4       -3.0059
   5       -2.9511
   6       -2.9125
   7       -2.8981
   8       -1.8491
   9       -1.6634
  10       -1.6558
  11       -0.9577
  12       -0.8298
  13       -0.4530
  14       -0.4284
  15       -0.3504
  16       -0.3156
  17       -0.3067
  18       -0.1783
  19       -0.1599
  20       -0.0269
  21       -0.0249
  22        3.0391
  23        4.8564
  24        5.1736
  25        8.9442
  26        9.2377
  27       10.8482
  28       11.5347
  29       12.2919
  30       12.3701
  31       13.0028
  32       13.4889
 
  0.1944444E+00  0.5555556E-01  0.0000000E+00  0.5144033E-03
   1       -3.9804
   2       -2.9980
   3       -2.9723
   4       -2.9608
   5       -2.9236
   6       -2.8689
   7       -2.8517
   8       -1.8814
   9       -1.6308
  10       -1.6245
  11       -0.9864
  12       -0.8142
  13       -0.5676
  14       -0.5469
  15       -0.3923
  16       -0.3644
  17       -0.3423
  18       -0.2115
  19       -0.2111
  20       -0.0271
  21       -0.0249
  22        2.6645
  23        5.0518
  24        5.3752
  25        8.9629
  26        9.2643
  27       11.2402
  28       11.3826
  29       12.0166
  30       12.1484
  31       12.8281
  32       13.6448
 
  0.2222222E+00  0.5555556E-01  0.0000000E+00  0.5144033E-03
   1       -3.8742
   2       -2.9595
   3       -2.9256
   4       -2.9109
   5       -2.8923
   6       -2.8186
   7       -2.7991
   8       -1.9179
   9       -1.5934
  10       -1.5889
  11       -1.0167
  12       -0.7965
  13       -0.6925
  14       -0.6731
  15       -0.4390
  16       -0.4149
  17       -0.3872
  18       -0.2690
  19       -0.2428
  20       -0.0272
  21       -0.0249
  22        2.2887
  23        5.2651
  24        5.5965
  25        8.9840
  26        9.2955
  27       10.9461
  28       11.7238
  29       11.9270
  30       11.9428
  31       12.6293
  32       13.8234
 
  0.2500000E+00  0.5555556E-01  0.0000000E+00  0.5144033E-03
   1       -3.7566
   2       -2.9180
   3       -2.8743
   4       -2.8574
   5       -2.8570
   6       -2.7618
   7       -2.7405
   8       -1.9582
   9       -1.5513
  10       -1.5495
  11       -1.0468