<?xml version="1.0" encoding="ISO-8859-1"?>
<modeling>
 <generator>
  <i name="program" type="string">vasp</i>
  <i name="version" type="string">4.6.28 </i>
  <i name="subversion" type="string">25Jul05 complex  parallel</i>
  <i name="platform" type="string">LinuxIFC</i>
  <i name="date" type="string">2017 01 14</i>
  <i name="time" type="string">07:23:54</i>
 </generator>
 <incar>
  <i type="string" name="PREC">accurate</i>
  <i type="int" name="IALGO">    38</i>
  <i type="logical" name="ADDGRID"> T  </i>
  <i name="EDIFF">      0.00000001</i>
  <i type="int" name="IBRION">    -1</i>
  <i name="ENCUT">   1000.00000000</i>
  <i type="logical" name="LREAL"> F  </i>
  <i type="int" name="ISMEAR">     0</i>
  <i name="SIGMA">      0.01000000</i>
  <i type="logical" name="LWAVE"> F  </i>
  <i type="logical" name="LCHARG"> F  </i>
 </incar>
 <kpoints>
  <generation param="Gamma">
   <v type="int" name="divisions">      36      36      36</v>
   <v name="usershift">      0.00000000      0.00000000      0.00000000</v>
   <v name="genvec1">      0.02777778      0.00000000      0.00000000</v>
   <v name="genvec2">      0.00000000      0.02777778      0.00000000</v>
   <v name="genvec3">      0.00000000      0.00000000      0.02777778</v>
   <v name="shift">      0.00000000      0.00000000      0.00000000</v>
  </generation>
  <varray name="kpointlist" >
   <v>       0.00000000      0.00000000      0.00000000</v>
   <v>       0.02777778      0.00000000      0.00000000</v>
   <v>       0.05555556      0.00000000      0.00000000</v>
   <v>       0.08333333      0.00000000      0.00000000</v>
   <v>       0.11111111      0.00000000      0.00000000</v>
   <v>       0.13888889      0.00000000      0.00000000</v>
   <v>       0.16666667      0.00000000      0.00000000</v>
   <v>       0.19444444      0.00000000      0.00000000</v>
   <v>       0.22222222      0.00000000      0.00000000</v>
   <v>       0.25000000      0.00000000      0.00000000</v>
   <v>       0.27777778      0.00000000      0.00000000</v>
   <v>       0.30555556      0.00000000      0.00000000</v>
   <v>       0.33333333      0.00000000      0.00000000</v>
   <v>       0.36111111      0.00000000      0.00000000</v>
   <v>       0.38888889      0.00000000      0.00000000</v>
   <v>       0.41666667      0.00000000      0.00000000</v>
   <v>       0.44444444      0.00000000      0.00000000</v>
   <v>       0.47222222      0.00000000      0.00000000</v>
   <v>       0.50000000      0.00000000      0.00000000</v>
   <v>       0.02777778      0.02777778      0.00000000</v>
   <v>       0.05555556      0.02777778      0.00000000</v>
   <v>       0.08333333      0.02777778      0.00000000</v>
   <v>       0.11111111      0.02777778      0.00000000</v>
   <v>       0.13888889      0.02777778      0.00000000</v>
   <v>       0.16666667      0.02777778      0.00000000</v>
   <v>       0.19444444      0.02777778      0.00000000</v>
   <v>       0.22222222      0.02777778      0.00000000</v>
   <v>       0.25000000      0.02777778      0.00000000</v>
   <v>       0.27777778      0.02777778      0.00000000</v>
   <v>       0.30555556      0.02777778      0.00000000</v>
   <v>       0.33333333      0.02777778      0.00000000</v>
   <v>       0.36111111      0.02777778      0.00000000</v>
   <v>       0.38888889      0.02777778      0.00000000</v>
   <v>       0.41666667      0.02777778      0.00000000</v>
   <v>       0.44444444      0.02777778      0.00000000</v>
   <v>       0.47222222      0.02777778      0.00000000</v>
   <v>       0.50000000      0.02777778      0.00000000</v>
   <v>       0.05555556      0.05555556      0.00000000</v>
   <v>       0.08333333      0.05555556      0.00000000</v>
   <v>       0.11111111      0.05555556      0.00000000</v>
   <v>       0.13888889      0.05555556      0.00000000</v>
   <v>       0.16666667      0.05555556      0.00000000</v>
   <v>       0.19444444      0.05555556      0.00000000</v>
   <v>       0.22222222      0.05555556      0.00000000</v>
   <v>       0.25000000      0.05555556      0.00000000</v>
   <v>       0.27777778      0.05555556      0.00000000</v>
   <v>       0.30555556      0.05555556      0.00000000</v>
   <v>       0.33333333      0.05555556      0.00000000</v>
   <v>       0.36111111      0.05555556      0.00000000</v>
   <v>       0.38888889      0.05555556      0.00000000</v>
   <v>       0.41666667      0.05555556      0.00000000</v>
   <v>       0.44444444      0.05555556      0.00000000</v>
   <v>       0.47222222      0.05555556      0.00000000</v>
   <v>       0.50000000      0.05555556      0.00000000</v>
   <v>       0.08333333      0.08333333      0.00000000</v>
   <v>       0.11111111      0.08333333      0.00000000</v>
   <v>       0.13888889      0.08333333      0.00000000</v>
   <v>       0.16666667      0.08333333      0.00000000</v>
   <v>       0.19444444      0.08333333      0.00000000</v>
   <v>       0.22222222      0.08333333      0.00000000</v>
   <v>       0.25000000      0.08333333      0.00000000</v>
   <v>       0.27777778      0.08333333      0.00000000</v>
   <v>       0.30555556      0.08333333      0.00000000</v>
   <v>       0.33333333      0.08333333      0.00000000</v>
   <v>       0.36111111      0.08333333      0.00000000</v>
   <v>       0.38888889      0.08333333      0.00000000</v>
   <v>       0.41666667      0.08333333      0.00000000</v>
   <v>       0.44444444      0.08333333      0.00000000</v>
   <v>       0.47222222      0.08333333      0.00000000</v>
   <v>       0.50000000      0.08333333      0.00000000</v>
   <v>       0.11111111      0.11111111      0.00000000</v>
   <v>       0.13888889      0.11111111      0.00000000</v>
   <v>       0.16666667      0.11111111      0.00000000</v>
   <v>       0.19444444      0.11111111      0.00000000</v>
   <v>       0.22222222      0.11111111      0.00000000</v>
   <v>       0.25000000      0.11111111      0.00000000</v>
   <v>       0.27777778      0.11111111      0.00000000</v>
   <v>       0.30555556      0.11111111      0.00000000</v>
   <v>       0.33333333      0.11111111      0.00000000</v>
   <v>       0.36111111      0.11111111      0.00000000</v>
   <v>       0.38888889      0.11111111      0.00000000</v>
   <v>       0.41666667      0.11111111      0.00000000</v>
   <v>       0.44444444      0.11111111      0.00000000</v>
   <v>       0.47222222      0.11111111      0.00000000</v>
   <v>       0.50000000      0.11111111      0.00000000</v>
   <v>       0.13888889      0.13888889      0.00000000</v>
   <v>       0.16666667      0.13888889      0.00000000</v>
   <v>       0.19444444      0.13888889      0.00000000</v>
   <v>       0.22222222      0.13888889      0.00000000</v>
   <v>       0.25000000      0.13888889      0.00000000</v>
   <v>       0.27777778      0.13888889      0.00000000</v>
   <v>       0.30555556      0.13888889      0.00000000</v>
   <v>       0.33333333      0.13888889      0.00000000</v>
   <v>       0.36111111      0.13888889      0.00000000</v>
   <v>       0.38888889      0.13888889      0.00000000</v>
   <v>       0.41666667      0.13888889      0.00000000</v>
   <v>       0.44444444      0.13888889      0.00000000</v>
   <v>       0.47222222      0.13888889      0.00000000</v>
   <v>       0.50000000      0.13888889      0.00000000</v>
   <v>       0.16666667      0.16666667      0.00000000</v>
   <v>       0.19444444      0.16666667      0.00000000</v>
   <v>       0.22222222      0.16666667      0.00000000</v>
   <v>       0.25000000      0.16666667      0.00000000</v>
   <v>       0.27777778      0.16666667      0.00000000</v>
   <v>       0.30555556      0.16666667      0.00000000</v>
   <v>       0.33333333      0.16666667      0.00000000</v>
   <v>       0.36111111      0.16666667      0.00000000</v>
   <v>       0.38888889      0.16666667      0.00000000</v>
   <v>       0.41666667      0.16666667      0.00000000</v>
   <v>       0.44444444      0.16666667      0.00000000</v>
   <v>       0.47222222      0.16666667      0.00000000</v>
   <v>       0.50000000      0.16666667      0.00000000</v>
   <v>       0.19444444      0.19444444      0.00000000</v>
   <v>       0.22222222      0.19444444      0.00000000</v>
   <v>       0.25000000      0.19444444      0.00000000</v>
   <v>       0.27777778      0.19444444      0.00000000</v>
   <v>       0.30555556      0.19444444      0.00000000</v>
   <v>       0.33333333      0.19444444      0.00000000</v>
   <v>       0.36111111      0.19444444      0.00000000</v>
   <v>       0.38888889      0.19444444      0.00000000</v>
   <v>       0.41666667      0.19444444      0.00000000</v>
   <v>       0.44444444      0.19444444      0.00000000</v>
   <v>       0.47222222      0.19444444      0.00000000</v>
   <v>       0.50000000      0.19444444      0.00000000</v>
   <v>       0.22222222      0.22222222      0.00000000</v>
   <v>       0.25000000      0.22222222      0.00000000</v>
   <v>       0.27777778      0.22222222      0.00000000</v>
   <v>       0.30555556      0.22222222      0.00000000</v>
   <v>       0.33333333      0.22222222      0.00000000</v>
   <v>       0.36111111      0.22222222      0.00000000</v>
   <v>       0.38888889      0.22222222      0.00000000</v>
   <v>       0.41666667      0.22222222      0.00000000</v>
   <v>       0.44444444      0.22222222      0.00000000</v>
   <v>       0.47222222      0.22222222      0.00000000</v>
   <v>       0.50000000      0.22222222      0.00000000</v>
   <v>       0.25000000      0.25000000      0.00000000</v>
   <v>       0.27777778      0.25000000      0.00000000</v>
   <v>       0.30555556      0.25000000      0.00000000</v>
   <v>       0.33333333      0.25000000      0.00000000</v>
   <v>       0.36111111      0.25000000      0.00000000</v>
   <v>       0.38888889      0.25000000      0.00000000</v>
   <v>       0.41666667      0.25000000      0.00000000</v>
   <v>       0.44444444      0.25000000      0.00000000</v>
   <v>       0.47222222      0.25000000      0.00000000</v>
   <v>       0.50000000      0.25000000      0.00000000</v>
   <v>       0.27777778      0.27777778      0.00000000</v>
   <v>       0.30555556      0.27777778      0.00000000</v>
   <v>       0.33333333      0.27777778      0.00000000</v>
   <v>       0.36111111      0.27777778      0.00000000</v>
   <v>       0.38888889      0.27777778      0.00000000</v>
   <v>       0.41666667      0.27777778      0.00000000</v>
   <v>       0.44444444      0.27777778      0.00000000</v>
   <v>       0.47222222      0.27777778      0.00000000</v>
   <v>       0.50000000      0.27777778      0.00000000</v>
   <v>       0.30555556      0.30555556      0.00000000</v>
   <v>       0.33333333      0.30555556      0.00000000</v>
   <v>       0.36111111      0.30555556      0.00000000</v>
   <v>       0.38888889      0.30555556      0.00000000</v>
   <v>       0.41666667      0.30555556      0.00000000</v>
   <v>       0.44444444      0.30555556      0.00000000</v>
   <v>       0.47222222      0.30555556      0.00000000</v>
   <v>       0.50000000      0.30555556      0.00000000</v>
   <v>       0.33333333      0.33333333      0.00000000</v>
   <v>       0.36111111      0.33333333      0.00000000</v>
   <v>       0.38888889      0.33333333      0.00000000</v>
   <v>       0.41666667      0.33333333      0.00000000</v>
   <v>       0.44444444      0.33333333      0.00000000</v>
   <v>       0.47222222      0.33333333      0.00000000</v>
   <v>       0.50000000      0.33333333      0.00000000</v>
   <v>       0.36111111      0.36111111      0.00000000</v>
   <v>       0.38888889      0.36111111      0.00000000</v>
   <v>       0.41666667      0.36111111      0.00000000</v>
   <v>       0.44444444      0.36111111      0.00000000</v>
   <v>       0.47222222      0.36111111      0.00000000</v>
   <v>       0.50000000      0.36111111      0.00000000</v>
   <v>       0.38888889      0.38888889      0.00000000</v>
   <v>       0.41666667      0.38888889      0.00000000</v>
   <v>       0.44444444      0.38888889      0.00000000</v>
   <v>       0.47222222      0.38888889      0.00000000</v>
   <v>       0.50000000      0.38888889      0.00000000</v>
   <v>       0.41666667      0.41666667      0.00000000</v>
   <v>       0.44444444      0.41666667      0.00000000</v>
   <v>       0.47222222      0.41666667      0.00000000</v>
   <v>       0.50000000      0.41666667      0.00000000</v>
   <v>       0.44444444      0.44444444      0.00000000</v>
   <v>       0.47222222      0.44444444      0.00000000</v>
   <v>       0.50000000      0.44444444      0.00000000</v>
   <v>       0.47222222      0.47222222      0.00000000</v>
   <v>       0.50000000      0.47222222      0.00000000</v>
   <v>       0.50000000      0.50000000      0.00000000</v>
   <v>       0.02777778      0.02777778      0.02777778</v>
   <v>       0.05555556      0.02777778      0.02777778</v>
   <v>       0.08333333      0.02777778      0.02777778</v>
   <v>       0.11111111      0.02777778      0.02777778</v>
   <v>       0.13888889      0.02777778      0.02777778</v>
   <v>       0.16666667      0.02777778      0.02777778</v>
   <v>       0.19444444      0.02777778      0.02777778</v>
   <v>       0.22222222      0.02777778      0.02777778</v>
   <v>       0.25000000      0.02777778      0.02777778</v>
   <v>       0.27777778      0.02777778      0.02777778</v>
   <v>       0.30555556      0.02777778      0.02777778</v>
   <v>       0.33333333      0.02777778      0.02777778</v>
   <v>       0.36111111      0.02777778      0.02777778</v>
   <v>       0.38888889      0.02777778      0.02777778</v>
   <v>       0.41666667      0.02777778      0.02777778</v>
   <v>       0.44444444      0.02777778      0.02777778</v>
   <v>       0.47222222      0.02777778      0.02777778</v>
   <v>       0.50000000      0.02777778      0.02777778</v>
   <v>       0.05555556      0.05555556      0.02777778</v>
   <v>       0.08333333      0.05555556      0.02777778</v>
   <v>       0.11111111      0.05555556      0.02777778</v>
   <v>       0.13888889      0.05555556      0.02777778</v>
   <v>       0.16666667      0.05555556      0.02777778</v>
   <v>       0.19444444      0.05555556      0.02777778</v>
   <v>       0.22222222      0.05555556      0.02777778</v>
   <v>       0.25000000      0.05555556      0.02777778</v>
   <v>       0.27777778      0.05555556      0.02777778</v>
   <v>       0.30555556      0.05555556      0.02777778</v>
   <v>       0.33333333      0.05555556      0.02777778</v>
   <v>       0.36111111      0.05555556      0.02777778</v>
   <v>       0.38888889      0.05555556      0.02777778</v>
   <v>       0.41666667      0.05555556      0.02777778</v>
   <v>       0.44444444      0.05555556      0.02777778</v>
   <v>       0.47222222      0.05555556      0.02777778</v>
   <v>       0.50000000      0.05555556      0.02777778</v>
   <v>       0.08333333      0.08333333      0.02777778</v>
   <v>       0.11111111      0.08333333      0.02777778</v>
   <v>       0.13888889      0.08333333      0.02777778</v>
   <v>       0.16666667      0.08333333      0.02777778</v>
   <v>       0.19444444      0.08333333      0.02777778</v>
   <v>       0.22222222      0.08333333      0.02777778</v>
   <v>       0.25000000      0.08333333      0.02777778</v>
   <v>       0.27777778      0.08333333      0.02777778</v>
   <v>       0.30555556      0.08333333      0.02777778</v>
   <v>       0.33333333      0.08333333      0.02777778</v>
   <v>       0.36111111      0.08333333      0.02777778</v>
   <v>       0.38888889      0.08333333      0.02777778</v>
   <v>       0.41666667      0.08333333      0.02777778</v>
   <v>       0.44444444      0.08333333      0.02777778</v>
   <v>       0.47222222      0.08333333      0.02777778</v>
   <v>       0.50000000      0.08333333      0.02777778</v>
   <v>       0.11111111      0.11111111      0.02777778</v>
   <v>       0.13888889      0.11111111      0.02777778</v>
   <v>       0.16666667      0.11111111      0.02777778</v>
   <v>       0.19444444      0.11111111      0.02777778</v>
   <v>       0.22222222      0.11111111      0.02777778</v>
   <v>       0.25000000      0.11111111      0.02777778</v>
   <v>       0.27777778      0.11111111      0.02777778</v>
   <v>       0.30555556      0.11111111      0.02777778</v>
   <v>       0.33333333      0.11111111      0.02777778</v>
   <v>       0.36111111      0.11111111      0.02777778</v>
   <v>       0.38888889      0.11111111      0.02777778</v>
   <v>       0.41666667      0.11111111      0.02777778</v>
   <v>       0.44444444      0.11111111      0.02777778</v>
   <v>       0.47222222      0.11111111      0.02777778</v>
   <v>       0.50000000      0.11111111      0.02777778</v>
   <v>       0.13888889      0.13888889      0.02777778</v>
   <v>       0.16666667      0.13888889      0.02777778</v>
   <v>       0.19444444      0.13888889      0.02777778</v>
   <v>       0.22222222      0.13888889      0.02777778</v>
   <v>       0.25000000      0.13888889      0.02777778</v>
   <v>       0.27777778      0.13888889      0.02777778</v>
   <v>       0.30555556      0.13888889      0.02777778</v>
   <v>       0.33333333      0.13888889      0.02777778</v>
   <v>       0.36111111      0.13888889      0.02777778</v>
   <v>       0.38888889      0.13888889      0.02777778</v>
   <v>       0.41666667      0.13888889      0.02777778</v>
   <v>       0.44444444      0.13888889      0.02777778</v>
   <v>       0.47222222      0.13888889      0.02777778</v>
   <v>       0.50000000      0.13888889      0.02777778</v>
   <v>       0.16666667      0.16666667      0.02777778</v>
   <v>       0.19444444      0.16666667      0.02777778</v>
   <v>       0.22222222      0.16666667      0.02777778</v>
   <v>       0.25000000      0.16666667      0.02777778</v>
   <v>       0.27777778      0.16666667      0.02777778</v>
   <v>       0.30555556      0.16666667      0.02777778</v>
   <v>       0.33333333      0.16666667      0.02777778</v>
   <v>       0.36111111      0.16666667      0.02777778</v>
   <v>       0.38888889      0.16666667      0.02777778</v>
   <v>       0.41666667      0.16666667      0.02777778</v>
   <v>       0.44444444      0.16666667      0.02777778</v>
   <v>       0.47222222      0.16666667      0.02777778</v>
   <v>       0.50000000      0.16666667      0.02777778</v>
   <v>       0.19444444      0.19444444      0.02777778</v>
   <v>       0.22222222      0.19444444      0.02777778</v>
   <v>       0.25000000      0.19444444      0.02777778</v>
   <v>       0.27777778      0.19444444      0.02777778</v>
   <v>       0.30555556      0.19444444      0.02777778</v>
   <v>       0.33333333      0.19444444      0.02777778</v>
   <v>       0.36111111      0.19444444      0.02777778</v>
   <v>       0.38888889      0.19444444      0.02777778</v>
   <v>       0.41666667      0.19444444      0.02777778</v>
   <v>       0.44444444      0.19444444      0.02777778</v>
   <v>       0.47222222      0.19444444      0.02777778</v>
   <v>       0.50000000      0.19444444      0.02777778</v>
   <v>       0.22222222      0.22222222      0.02777778</v>
   <v>       0.25000000      0.22222222      0.02777778</v>
   <v>       0.27777778      0.22222222      0.02777778</v>
   <v>       0.30555556      0.22222222      0.02777778</v>
   <v>       0.33333333      0.22222222      0.02777778</v>
   <v>       0.36111111      0.22222222      0.02777778</v>
   <v>       0.38888889      0.22222222      0.02777778</v>
   <v>       0.41666667      0.22222222      0.02777778</v>
   <v>       0.44444444      0.22222222      0.02777778</v>
   <v>       0.47222222      0.22222222      0.02777778</v>
   <v>       0.50000000      0.22222222      0.02777778</v>
   <v>       0.25000000      0.25000000      0.02777778</v>
   <v>       0.27777778      0.25000000      0.02777778</v>
   <v>       0.30555556      0.25000000      0.02777778</v>
   <v>       0.33333333      0.25000000      0.02777778</v>
   <v>       0.36111111      0.25000000      0.02777778</v>
   <v>       0.38888889      0.25000000      0.02777778</v>
   <v>       0.41666667      0.25000000      0.02777778</v>
   <v>       0.44444444      0.25000000      0.02777778</v>
   <v>       0.47222222      0.25000000      0.02777778</v>
   <v>       0.50000000      0.25000000      0.02777778</v>
   <v>       0.27777778      0.27777778      0.02777778</v>
   <v>       0.30555556      0.27777778      0.02777778</v>
   <v>       0.33333333      0.27777778      0.02777778</v>
   <v>       0.36111111      0.27777778      0.02777778</v>
   <v>       0.38888889      0.27777778      0.02777778</v>
   <v>       0.41666667      0.27777778      0.02777778</v>
   <v>       0.44444444      0.27777778      0.02777778</v>
   <v>       0.47222222      0.27777778      0.02777778</v>
   <v>       0.50000000      0.27777778      0.02777778</v>
   <v>       0.30555556      0.30555556      0.02777778</v>
   <v>       0.33333333      0.30555556      0.02777778</v>
   <v>       0.36111111      0.30555556      0.02777778</v>
   <v>       0.38888889      0.30555556      0.02777778</v>
   <v>       0.41666667      0.30555556      0.02777778</v>
   <v>       0.44444444      0.30555556      0.02777778</v>
   <v>       0.47222222      0.30555556      0.02777778</v>
   <v>       0.50000000      0.30555556      0.02777778</v>
   <v>       0.33333333      0.33333333      0.02777778</v>
   <v>       0.36111111      0.33333333      0.02777778</v>
   <v>       0.38888889      0.33333333      0.02777778</v>
   <v>       0.41666667      0.33333333      0.02777778</v>
   <v>       0.44444444      0.33333333      0.02777778</v>
   <v>       0.47222222      0.33333333      0.02777778</v>
   <v>       0.50000000      0.33333333      0.02777778</v>
   <v>       0.36111111      0.36111111      0.02777778</v>
   <v>       0.38888889      0.36111111      0.02777778</v>
   <v>       0.41666667      0.36111111      0.02777778</v>
   <v>       0.44444444      0.36111111      0.02777778</v>
   <v>       0.47222222      0.36111111      0.02777778</v>
   <v>       0.50000000      0.36111111      0.02777778</v>
   <v>       0.38888889      0.38888889      0.02777778</v>
   <v>       0.41666667      0.38888889      0.02777778</v>
   <v>       0.44444444      0.38888889      0.02777778</v>
   <v>       0.47222222      0.38888889      0.02777778</v>
   <v>       0.50000000      0.38888889      0.02777778</v>
   <v>       0.41666667      0.41666667      0.02777778</v>
   <v>       0.44444444      0.41666667      0.02777778</v>
   <v>       0.47222222      0.41666667      0.02777778</v>
   <v>       0.50000000      0.41666667      0.02777778</v>
   <v>       0.44444444      0.44444444      0.02777778</v>
   <v>       0.47222222      0.44444444      0.02777778</v>
   <v>       0.50000000      0.44444444      0.02777778</v>
   <v>       0.47222222      0.47222222      0.02777778</v>
   <v>       0.50000000      0.47222222      0.02777778</v>
   <v>       0.50000000      0.50000000      0.02777778</v>
   <v>       0.05555556      0.05555556      0.05555556</v>
   <v>       0.08333333      0.05555556      0.05555556</v>
   <v>       0.11111111      0.05555556      0.05555556</v>
   <v>       0.13888889      0.05555556      0.05555556</v>
   <v>       0.16666667      0.05555556      0.05555556</v>
   <v>       0.19444444      0.05555556      0.05555556</v>
   <v>       0.22222222      0.05555556      0.05555556</v>
   <v>       0.25000000      0.05555556      0.05555556</v>
   <v>       0.27777778      0.05555556      0.05555556</v>
   <v>       0.30555556      0.05555556      0.05555556</v>
   <v>       0.33333333      0.05555556      0.05555556</v>
   <v>       0.36111111      0.05555556      0.05555556</v>
   <v>       0.38888889      0.05555556      0.05555556</v>
   <v>       0.41666667      0.05555556      0.05555556</v>
   <v>       0.44444444      0.05555556      0.05555556</v>
   <v>       0.47222222      0.05555556      0.05555556</v>
   <v>       0.50000000      0.05555556      0.05555556</v>
   <v>       0.08333333      0.08333333      0.05555556</v>
   <v>       0.11111111      0.08333333      0.05555556</v>
   <v>       0.13888889      0.08333333      0.05555556</v>
   <v>       0.16666667      0.08333333      0.05555556</v>
   <v>       0.19444444      0.08333333      0.05555556</v>
   <v>       0.22222222      0.08333333      0.05555556</v>
   <v>       0.25000000      0.08333333      0.05555556</v>
   <v>       0.27777778      0.08333333      0.05555556</v>
   <v>       0.30555556      0.08333333      0.05555556</v>
   <v>       0.33333333      0.08333333      0.05555556</v>
   <v>       0.36111111      0.08333333      0.05555556</v>
   <v>       0.38888889      0.08333333      0.05555556</v>
   <v>       0.41666667      0.08333333      0.05555556</v>
   <v>       0.44444444      0.08333333      0.05555556</v>
   <v>       0.47222222      0.08333333      0.05555556</v>
   <v>       0.50000000      0.08333333      0.05555556</v>
   <v>       0.11111111      0.11111111      0.05555556</v>
   <v>       0.13888889      0.11111111      0.05555556</v>
   <v>       0.16666667      0.11111111      0.05555556</v>
   <v>       0.19444444      0.11111111      0.05555556</v>
   <v>       0.22222222      0.11111111      0.05555556</v>
   <v>       0.25000000      0.11111111      0.05555556</v>
   <v>       0.27777778      0.11111111      0.05555556</v>
   <v>       0.30555556      0.11111111      0.05555556</v>
   <v>       0.33333333      0.11111111      0.05555556</v>
   <v>       0.36111111      0.11111111      0.05555556</v>
   <v>       0.38888889      0.11111111      0.05555556</v>
   <v>       0.41666667      0.11111111      0.05555556</v>
   <v>       0.44444444      0.11111111      0.05555556</v>
   <v>       0.47222222      0.11111111      0.05555556</v>
   <v>       0.50000000      0.11111111      0.05555556</v>
   <v>       0.13888889      0.13888889      0.05555556</v>
   <v>       0.16666667      0.13888889      0.05555556</v>
   <v>       0.19444444      0.13888889      0.05555556</v>
   <v>       0.22222222      0.13888889      0.05555556</v>
   <v>       0.25000000      0.13888889      0.05555556</v>
   <v>       0.27777778      0.13888889      0.05555556</v>
   <v>       0.30555556      0.13888889      0.05555556</v>
   <v>       0.33333333      0.13888889      0.05555556</v>
   <v>       0.36111111      0.13888889      0.05555556</v>
   <v>       0.38888889      0.13888889      0.05555556</v>
   <v>       0.41666667      0.13888889      0.05555556</v>
   <v>       0.44444444      0.13888889      0.05555556</v>
   <v>       0.47222222      0.13888889      0.05555556</v>
   <v>       0.50000000      0.13888889      0.05555556</v>
   <v>       0.16666667      0.16666667      0.05555556</v>
   <v>       0.19444444      0.16666667      0.05555556</v>
   <v>       0.22222222      0.16666667      0.05555556</v>
   <v>       0.25000000      0.16666667      0.05555556</v>
   <v>       0.27777778      0.16666667      0.05555556</v>
   <v>       0.30555556      0.16666667      0.05555556</v>
   <v>       0.33333333      0.16666667      0.05555556</v>
   <v>       0.36111111      0.16666667      0.05555556</v>
   <v>       0.38888889      0.16666667      0.05555556</v>
   <v>       0.41666667      0.16666667      0.05555556</v>
   <v>       0.44444444      0.16666667      0.05555556</v>
   <v>       0.47222222      0.16666667      0.05555556</v>
   <v>       0.50000000      0.16666667      0.05555556</v>
   <v>       0.19444444      0.19444444      0.05555556</v>
   <v>       0.22222222      0.19444444      0.05555556</v>
   <v>       0.25000000      0.19444444      0.05555556</v>
   <v>       0.27777778      0.19444444      0.05555556</v>
   <v>       0.30555556      0.19444444      0.05555556</v>
   <v>       0.33333333      0.19444444      0.05555556</v>
   <v>       0.36111111      0.19444444      0.05555556</v>
   <v>       0.38888889      0.19444444      0.05555556</v>
   <v>       0.41666667      0.19444444      0.05555556</v>
   <v>       0.44444444      0.19444444      0.05555556</v>
   <v>       0.47222222      0.19444444      0.05555556</v>
   <v>       0.50000000      0.19444444      0.05555556</v>
   <v>       0.22222222      0.22222222      0.05555556</v>
   <v>       0.25000000      0.22222222      0.05555556</v>
   <v>       0.27777778      0.22222222      0.05555556</v>
   <v>       0.30555556      0.22222222      0.05555556</v>
   <v>       0.33333333      0.22222222      0.05555556</v>
   <v>       0.36111111      0.22222222      0.05555556</v>
   <v>       0.38888889      0.22222222      0.05555556</v>
   <v>       0.41666667      0.22222222      0.05555556</v>
   <v>       0.44444444      0.22222222      0.05555556</v>
   <v>       0.47222222      0.22222222      0.05555556</v>
   <v>       0.50000000      0.22222222      0.05555556</v>
   <v>       0.25000000      0.25000000      0.05555556</v>
   <v>       0.27777778      0.25000000      0.05555556</v>
   <v>       0.30555556      0.25000000      0.05555556</v>
   <v>       0.33333333      0.25000000      0.05555556</v>
   <v>       0.36111111      0.25000000      0.05555556</v>
   <v>       0.38888889      0.25000000      0.05555556</v>
   <v>       0.41666667      0.25000000      0.05555556</v>
   <v>       0.44444444      0.25000000      0.05555556</v>
   <v>       0.47222222      0.25000000      0.05555556</v>
   <v>       0.50000000      0.25000000      0.05555556</v>
   <v>       0.27777778      0.27777778      0.05555556</v>
   <v>       0.30555556      0.27777778      0.05555556</v>
   <v>       0.33333333      0.27777778      0.05555556</v>
   <v>       0.36111111      0.27777778      0.05555556</v>
   <v>       0.38888889      0.27777778      0.05555556</v>
   <v>       0.41666667      0.27777778      0.05555556</v>
   <v>       0.44444444      0.27777778      0.05555556</v>
   <v>       0.47222222      0.27777778      0.05555556</v>
   <v>       0.50000000      0.27777778      0.05555556</v>
   <v>       0.30555556      0.30555556      0.05555556</v>
   <v>       0.33333333      0.30555556      0.05555556</v>
   <v>       0.36111111      0.30555556      0.05555556</v>
   <v>       0.38888889      0.30555556      0.05555556</v>
   <v>       0.41666667      0.30555556      0.05555556</v>
   <v>       0.44444444      0.30555556      0.05555556</v>
   <v>       0.47222222      0.30555556      0.05555556</v>
   <v>       0.50000000      0.30555556      0.05555556</v>
   <v>       0.33333333      0.33333333      0.05555556</v>
   <v>       0.36111111      0.33333333      0.05555556</v>
   <v>       0.38888889      0.33333333      0.05555556</v>
   <v>       0.41666667      0.33333333      0.05555556</v>
   <v>       0.44444444      0.33333333      0.05555556</v>
   <v>       0.47222222      0.33333333      0.05555556</v>
   <v>       0.50000000      0.33333333      0.05555556</v>
   <v>       0.36111111      0.36111111      0.05555556</v>
   <v>       0.38888889      0.36111111      0.05555556</v>
   <v>       0.41666667      0.36111111      0.05555556</v>
   <v>       0.44444444      0.36111111      0.05555556</v>
   <v>       0.47222222      0.36111111      0.05555556</v>
   <v>       0.50000000      0.36111111      0.05555556</v>
   <v>       0.38888889      0.38888889      0.05555556</v>
   <v>       0.41666667      0.38888889      0.05555556</v>
   <v>       0.44444444      0.38888889      0.05555556</v>
   <v>       0.47222222      0.38888889      0.05555556</v>
   <v>       0.50000000      0.38888889      0.05555556</v>
   <v>       0.41666667      0.41666667      0.05555556</v>
   <v>       0.44444444      0.41666667      0.05555556</v>
   <v>       0.47222222      0.41666667      0.05555556</v>
   <v>       0.50000000      0.41666667      0.05555556</v>
   <v>       0.44444444      0.44444444      0.05555556</v>
   <v>       0.47222222      0.44444444      0.05555556</v>
   <v>       0.50000000      0.44444444      0.05555556</v>
   <v>       0.47222222      0.47222222      0.05555556</v>
   <v>       0.50000000      0.47222222      0.05555556</v>
   <v>       0.50000000      0.50000000      0.05555556</v>
   <v>       0.08333333      0.08333333      0.08333333</v>
   <v>       0.11111111      0.08333333      0.08333333</v>
   <v>       0.13888889      0.08333333      0.08333333</v>
   <v>       0.16666667      0.08333333      0.08333333</v>
   <v>       0.19444444      0.08333333      0.08333333</v>
   <v>       0.22222222      0.08333333      0.08333333</v>
   <v>       0.25000000      0.08333333      0.08333333</v>
   <v>       0.27777778      0.08333333      0.08333333</v>
   <v>       0.30555556      0.08333333      0.08333333</v>
   <v>       0.33333333      0.08333333      0.08333333</v>
   <v>       0.36111111      0.08333333      0.08333333</v>
   <v>       0.38888889      0.08333333      0.08333333</v>
   <v>       0.41666667      0.08333333      0.08333333</v>
   <v>       0.44444444      0.08333333      0.08333333</v>
   <v>       0.47222222      0.08333333      0.08333333</v>
   <v>       0.50000000      0.08333333      0.08333333</v>
   <v>       0.11111111      0.11111111      0.08333333</v>
   <v>       0.13888889      0.11111111      0.08333333</v>
   <v>       0.16666667      0.11111111      0.08333333</v>
   <v>       0.19444444      0.11111111      0.08333333</v>
   <v>       0.22222222      0.11111111      0.08333333</v>
   <v>       0.25000000      0.11111111      0.08333333</v>
   <v>       0.27777778      0.11111111      0.08333333</v>
   <v>       0.30555556      0.11111111      0.08333333</v>
   <v>       0.33333333      0.11111111      0.08333333</v>
   <v>       0.36111111      0.11111111      0.08333333</v>
   <v>       0.38888889      0.11111111      0.08333333</v>
   <v>       0.41666667      0.11111111      0.08333333</v>
   <v>       0.44444444      0.11111111      0.08333333</v>
   <v>       0.47222222      0.11111111      0.08333333</v>
   <v>       0.50000000      0.11111111      0.08333333</v>
   <v>       0.13888889      0.13888889      0.08333333</v>
   <v>       0.16666667      0.13888889      0.08333333</v>
   <v>       0.19444444      0.13888889      0.08333333</v>
   <v>       0.22222222      0.13888889      0.08333333</v>
   <v>       0.25000000      0.13888889      0.08333333</v>
   <v>       0.27777778      0.13888889      0.08333333</v>
   <v>       0.30555556      0.13888889      0.08333333</v>
   <v>       0.33333333      0.13888889      0.08333333</v>
   <v>       0.36111111      0.13888889      0.08333333</v>
   <v>       0.38888889      0.13888889      0.08333333</v>
   <v>       0.41666667      0.13888889      0.08333333</v>
   <v>       0.44444444      0.13888889      0.08333333</v>
   <v>       0.47222222      0.13888889      0.08333333</v>
   <v>       0.50000000      0.13888889      0.08333333</v>
   <v>       0.16666667      0.16666667      0.08333333</v>
   <v>       0.19444444      0.16666667      0.08333333</v>
   <v>       0.22222222      0.16666667      0.08333333</v>
   <v>       0.25000000      0.16666667      0.08333333</v>
   <v>       0.27777778      0.16666667      0.08333333</v>
   <v>       0.30555556      0.16666667      0.08333333</v>
   <v>       0.33333333      0.16666667      0.08333333</v>
   <v>       0.36111111      0.16666667      0.08333333</v>
   <v>       0.38888889      0.16666667      0.08333333</v>
   <v>       0.41666667      0.16666667      0.08333333</v>
   <v>       0.44444444      0.16666667      0.08333333</v>
   <v>       0.47222222      0.16666667      0.08333333</v>
   <v>       0.50000000      0.16666667      0.08333333</v>
   <v>       0.19444444      0.19444444      0.08333333</v>
   <v>       0.22222222      0.19444444      0.08333333</v>
   <v>       0.25000000      0.19444444      0.08333333</v>
   <v>       0.27777778      0.19444444      0.08333333</v>
   <v>       0.30555556      0.19444444      0.08333333</v>
   <v>       0.33333333      0.19444444      0.08333333</v>
   <v>       0.36111111      0.19444444      0.08333333</v>
   <v>       0.38888889      0.19444444      0.08333333</v>
   <v>       0.41666667      0.19444444      0.08333333</v>
   <v>       0.44444444      0.19444444      0.08333333</v>
   <v>       0.47222222      0.19444444      0.08333333</v>
   <v>       0.50000000      0.19444444      0.08333333</v>
   <v>       0.22222222      0.22222222      0.08333333</v>
   <v>       0.25000000      0.22222222      0.08333333</v>
   <v>       0.27777778      0.22222222      0.08333333</v>
   <v>       0.30555556      0.22222222      0.08333333</v>
   <v>       0.33333333      0.22222222      0.08333333</v>
   <v>       0.36111111      0.22222222      0.08333333</v>
   <v>       0.38888889      0.22222222      0.08333333</v>
   <v>       0.41666667      0.22222222      0.08333333</v>
   <v>       0.44444444      0.22222222      0.08333333</v>
   <v>       0.47222222      0.22222222      0.08333333</v>
   <v>       0.50000000      0.22222222      0.08333333</v>
   <v>       0.25000000      0.25000000      0.08333333</v>
   <v>       0.27777778      0.25000000      0.08333333</v>
   <v>       0.30555556      0.25000000      0.08333333</v>
   <v>       0.33333333      0.25000000      0.08333333</v>
   <v>       0.36111111      0.25000000      0.08333333</v>
   <v>       0.38888889      0.25000000      0.08333333</v>
   <v>       0.41666667      0.25000000      0.08333333</v>
   <v>       0.44444444      0.25000000      0.08333333</v>
   <v>       0.47222222      0.25000000      0.08333333</v>
   <v>       0.50000000      0.25000000      0.08333333</v>
   <v>       0.27777778      0.27777778      0.08333333</v>
   <v>       0.30555556      0.27777778      0.08333333</v>
   <v>       0.33333333      0.27777778      0.08333333</v>
   <v>       0.36111111      0.27777778      0.08333333</v>
   <v>       0.38888889      0.27777778      0.08333333</v>
   <v>       0.41666667      0.27777778      0.08333333</v>
   <v>       0.44444444      0.27777778      0.08333333</v>
   <v>       0.47222222      0.27777778      0.08333333</v>
   <v>       0.50000000      0.27777778      0.08333333</v>
   <v>       0.30555556      0.30555556      0.08333333</v>
   <v>       0.33333333      0.30555556      0.08333333</v>
   <v>       0.36111111      0.30555556      0.08333333</v>
   <v>       0.38888889      0.30555556      0.08333333</v>
   <v>       0.41666667      0.30555556      0.08333333</v>
   <v>       0.44444444      0.30555556      0.08333333</v>
   <v>       0.47222222      0.30555556      0.08333333</v>
   <v>       0.50000000      0.30555556      0.08333333</v>
   <v>       0.33333333      0.33333333      0.08333333</v>
   <v>       0.36111111      0.33333333      0.08333333</v>
   <v>       0.38888889      0.33333333      0.08333333</v>
   <v>       0.41666667      0.33333333      0.08333333</v>
   <v>       0.44444444      0.33333333      0.08333333</v>
   <v>       0.47222222      0.33333333      0.08333333</v>
   <v>       0.50000000      0.33333333      0.08333333</v>
   <v>       0.36111111      0.36111111      0.08333333</v>
   <v>       0.38888889      0.36111111      0.08333333</v>
   <v>       0.41666667      0.36111111      0.08333333</v>
   <v>       0.44444444      0.36111111      0.08333333</v>
   <v>       0.47222222      0.36111111      0.08333333</v>
   <v>       0.50000000      0.36111111      0.08333333</v>
   <v>       0.38888889      0.38888889      0.08333333</v>
   <v>       0.41666667      0.38888889      0.08333333</v>
   <v>       0.44444444      0.38888889      0.08333333</v>
   <v>       0.47222222      0.38888889      0.08333333</v>
   <v>       0.50000000      0.38888889      0.08333333</v>
   <v>       0.41666667      0.41666667      0.08333333</v>
   <v>       0.44444444      0.41666667      0.08333333</v>
   <v>       0.47222222      0.41666667      0.08333333</v>
   <v>       0.50000000      0.41666667      0.08333333</v>
   <v>       0.44444444      0.44444444      0.08333333</v>
   <v>       0.47222222      0.44444444      0.08333333</v>
   <v>       0.50000000      0.44444444      0.08333333</v>
   <v>       0.47222222      0.47222222      0.08333333</v>
   <v>       0.50000000      0.47222222      0.08333333</v>
   <v>       0.50000000      0.50000000      0.08333333</v>
   <v>       0.11111111      0.11111111      0.11111111</v>
   <v>       0.13888889      0.11111111      0.11111111</v>
   <v>       0.16666667      0.11111111      0.11111111</v>
   <v>       0.19444444      0.11111111      0.11111111</v>
   <v>       0.22222222      0.11111111      0.11111111</v>
   <v>       0.25000000      0.11111111      0.11111111</v>
   <v>       0.27777778      0.11111111      0.11111111</v>
   <v>       0.30555556      0.11111111      0.11111111</v>
   <v>       0.33333333      0.11111111      0.11111111</v>
   <v>       0.36111111      0.11111111      0.11111111</v>
   <v>       0.38888889      0.11111111      0.11111111</v>
   <v>       0.41666667      0.11111111      0.11111111</v>
   <v>       0.44444444      0.11111111      0.11111111</v>
   <v>       0.47222222      0.11111111      0.11111111</v>
   <v>       0.50000000      0.11111111      0.11111111</v>
   <v>       0.13888889      0.13888889      0.11111111</v>
   <v>       0.16666667      0.13888889      0.11111111</v>
   <v>       0.19444444      0.13888889      0.11111111</v>
   <v>       0.22222222      0.13888889      0.11111111</v>
   <v>       0.25000000      0.13888889      0.11111111</v>
   <v>       0.27777778      0.13888889      0.11111111</v>
   <v>       0.30555556      0.13888889      0.11111111</v>
   <v>       0.33333333      0.13888889      0.11111111</v>
   <v>       0.36111111      0.13888889      0.11111111</v>
   <v>       0.38888889      0.13888889      0.11111111</v>
   <v>       0.41666667      0.13888889      0.11111111</v>
   <v>       0.44444444      0.13888889      0.11111111</v>
   <v>       0.47222222      0.13888889      0.11111111</v>
   <v>       0.50000000      0.13888889      0.11111111</v>
   <v>       0.16666667      0.16666667      0.11111111</v>
   <v>       0.19444444      0.16666667      0.11111111</v>
   <v>       0.22222222      0.16666667      0.11111111</v>
   <v>       0.25000000      0.16666667      0.11111111</v>
   <v>       0.27777778      0.16666667      0.11111111</v>
   <v>       0.30555556      0.16666667      0.11111111</v>
   <v>       0.33333333      0.16666667      0.11111111</v>
   <v>       0.36111111      0.16666667      0.11111111</v>
   <v>       0.38888889      0.16666667      0.11111111</v>
   <v>       0.41666667      0.16666667      0.11111111</v>
   <v>       0.44444444      0.16666667      0.11111111</v>
   <v>       0.47222222      0.16666667      0.11111111</v>
   <v>       0.50000000      0.16666667      0.11111111</v>
   <v>       0.19444444      0.19444444      0.11111111</v>
   <v>       0.22222222      0.19444444      0.11111111</v>
   <v>       0.25000000      0.19444444      0.11111111</v>
   <v>       0.27777778      0.19444444      0.11111111</v>
   <v>       0.30555556      0.19444444      0.11111111</v>
   <v>       0.33333333      0.19444444      0.11111111</v>
   <v>       0.36111111      0.19444444      0.11111111</v>
   <v>       0.38888889      0.19444444      0.11111111</v>
   <v>       0.41666667      0.19444444      0.11111111</v>
   <v>       0.44444444      0.19444444      0.11111111</v>
   <v>       0.47222222      0.19444444      0.11111111</v>
   <v>       0.50000000      0.19444444      0.11111111</v>
   <v>       0.22222222      0.22222222      0.11111111</v>
   <v>       0.25000000      0.22222222      0.11111111</v>
   <v>       0.27777778      0.22222222      0.11111111</v>
   <v>       0.30555556      0.22222222      0.11111111</v>
   <v>       0.33333333      0.22222222      0.11111111</v>
   <v>       0.36111111      0.22222222      0.11111111</v>
   <v>       0.38888889      0.22222222      0.11111111</v>
   <v>       0.41666667      0.22222222      0.11111111</v>
   <v>       0.44444444      0.22222222      0.11111111</v>
   <v>       0.47222222      0.22222222      0.11111111</v>
   <v>       0.50000000      0.22222222      0.11111111</v>
   <v>       0.25000000      0.25000000      0.11111111</v>
   <v>       0.27777778      0.25000000      0.11111111</v>
   <v>       0.30555556      0.25000000      0.11111111</v>
   <v>       0.33333333      0.25000000      0.11111111</v>
   <v>       0.36111111      0.25000000      0.11111111</v>
   <v>       0.38888889      0.25000000      0.11111111</v>
   <v>       0.41666667      0.25000000      0.11111111</v>
   <v>       0.44444444      0.25000000      0.11111111</v>
   <v>       0.47222222      0.25000000      0.11111111</v>
   <v>       0.50000000      0.25000000      0.11111111</v>
   <v>       0.27777778      0.27777778      0.11111111</v>
   <v>       0.30555556      0.27777778      0.11111111</v>
   <v>       0.33333333      0.27777778      0.11111111</v>
   <v>       0.36111111      0.27777778      0.11111111</v>
   <v>       0.38888889      0.27777778      0.11111111</v>
   <v>       0.41666667      0.27777778      0.11111111</v>
   <v>       0.44444444      0.27777778      0.11111111</v>
   <v>       0.47222222      0.27777778      0.11111111</v>
   <v>       0.50000000      0.27777778      0.11111111</v>
   <v>       0.30555556      0.30555556      0.11111111</v>
   <v>       0.33333333      0.30555556      0.11111111</v>
   <v>       0.36111111      0.30555556      0.11111111</v>
   <v>       0.38888889      0.30555556      0.11111111</v>
   <v>       0.41666667      0.30555556      0.11111111</v>
   <v>       0.44444444      0.30555556      0.11111111</v>
   <v>       0.47222222      0.30555556      0.11111111</v>
   <v>       0.50000000      0.30555556      0.11111111</v>
   <v>       0.33333333      0.33333333      0.11111111</v>
   <v>       0.36111111      0.33333333      0.11111111</v>
   <v>       0.38888889      0.33333333      0.11111111</v>
   <v>       0.41666667      0.33333333      0.11111111</v>
   <v>       0.44444444      0.33333333      0.11111111</v>
   <v>       0.47222222      0.33333333      0.11111111</v>
   <v>       0.50000000      0.33333333      0.11111111</v>
   <v>       0.36111111      0.36111111      0.11111111</v>
   <v>       0.38888889      0.36111111      0.11111111</v>
   <v>       0.41666667      0.36111111      0.11111111</v>
   <v>       0.44444444      0.36111111      0.11111111</v>
   <v>       0.47222222      0.36111111      0.11111111</v>
   <v>       0.50000000      0.36111111      0.11111111</v>
   <v>       0.38888889      0.38888889      0.11111111</v>
   <v>       0.41666667      0.38888889      0.11111111</v>
   <v>       0.44444444      0.38888889      0.11111111</v>
   <v>       0.47222222      0.38888889      0.11111111</v>
   <v>       0.50000000      0.38888889      0.11111111</v>
   <v>       0.41666667      0.41666667      0.11111111</v>
   <v>       0.44444444      0.41666667      0.11111111</v>
   <v>       0.47222222      0.41666667      0.11111111</v>
   <v>       0.50000000      0.41666667      0.11111111</v>
   <v>       0.44444444      0.44444444      0.11111111</v>
   <v>       0.47222222      0.44444444      0.11111111</v>
   <v>       0.50000000      0.44444444      0.11111111</v>
   <v>       0.47222222      0.47222222      0.11111111</v>
   <v>       0.50000000      0.47222222      0.11111111</v>
   <v>       0.50000000      0.50000000      0.11111111</v>
   <v>       0.13888889      0.13888889      0.13888889</v>
   <v>       0.16666667      0.13888889      0.13888889</v>
   <v>       0.19444444      0.13888889      0.13888889</v>
   <v>       0.22222222      0.13888889      0.13888889</v>
   <v>       0.25000000      0.13888889      0.13888889</v>
   <v>       0.27777778      0.13888889      0.13888889</v>
   <v>       0.30555556      0.13888889      0.13888889</v>
   <v>       0.33333333      0.13888889      0.13888889</v>
   <v>       0.36111111      0.13888889      0.13888889</v>
   <v>       0.38888889      0.13888889      0.13888889</v>
   <v>       0.41666667      0.13888889      0.13888889</v>
   <v>       0.44444444      0.13888889      0.13888889</v>
   <v>       0.47222222      0.13888889      0.13888889</v>
   <v>       0.50000000      0.13888889      0.13888889</v>
   <v>       0.16666667      0.16666667      0.13888889</v>
   <v>       0.19444444      0.16666667      0.13888889</v>
   <v>       0.22222222      0.16666667      0.13888889</v>
   <v>       0.25000000      0.16666667      0.13888889</v>
   <v>       0.27777778      0.16666667      0.13888889</v>
   <v>       0.30555556      0.16666667      0.13888889</v>
   <v>       0.33333333      0.16666667      0.13888889</v>
   <v>       0.36111111      0.16666667      0.13888889</v>
   <v>       0.38888889      0.16666667      0.13888889</v>
   <v>       0.41666667      0.16666667      0.13888889</v>
   <v>       0.44444444      0.16666667      0.13888889</v>
   <v>       0.47222222      0.16666667      0.13888889</v>
   <v>       0.50000000      0.16666667      0.13888889</v>
   <v>       0.19444444      0.19444444      0.13888889</v>
   <v>       0.22222222      0.19444444      0.13888889</v>
   <v>       0.25000000      0.19444444      0.13888889</v>
   <v>       0.27777778      0.19444444      0.13888889</v>
   <v>       0.30555556      0.19444444      0.13888889</v>
   <v>       0.33333333      0.19444444      0.13888889</v>
   <v>       0.36111111      0.19444444      0.13888889</v>
   <v>       0.38888889      0.19444444      0.13888889</v>
   <v>       0.41666667      0.19444444      0.13888889</v>
   <v>       0.44444444      0.19444444      0.13888889</v>
   <v>       0.47222222      0.19444444      0.13888889</v>
   <v>       0.50000000      0.19444444      0.13888889</v>
   <v>       0.22222222      0.22222222      0.13888889</v>
   <v>       0.25000000      0.22222222      0.13888889</v>
   <v>       0.27777778      0.22222222      0.13888889</v>
   <v>       0.30555556      0.22222222      0.13888889</v>
   <v>       0.33333333      0.22222222      0.13888889</v>
   <v>       0.36111111      0.22222222      0.13888889</v>
   <v>       0.38888889      0.22222222      0.13888889</v>
   <v>       0.41666667      0.22222222      0.13888889</v>
   <v>       0.44444444      0.22222222      0.13888889</v>
   <v>       0.47222222      0.22222222      0.13888889</v>
   <v>       0.50000000      0.22222222      0.13888889</v>
   <v>       0.25000000      0.25000000      0.13888889</v>
   <v>       0.27777778      0.25000000      0.13888889</v>
   <v>       0.30555556      0.25000000      0.13888889</v>
   <v>       0.33333333      0.25000000      0.13888889</v>
   <v>       0.36111111      0.25000000      0.13888889</v>
   <v>       0.38888889      0.25000000      0.13888889</v>
   <v>       0.41666667      0.25000000      0.13888889</v>
   <v>       0.44444444      0.25000000      0.13888889</v>
   <v>       0.47222222      0.25000000      0.13888889</v>
   <v>       0.50000000      0.25000000      0.13888889</v>
   <v>       0.27777778      0.27777778      0.13888889</v>
   <v>       0.30555556      0.27777778      0.13888889</v>
   <v>       0.33333333      0.27777778      0.13888889</v>
   <v>       0.36111111      0.27777778      0.13888889</v>
   <v>       0.38888889      0.27777778      0.13888889</v>
   <v>       0.41666667      0.27777778      0.13888889</v>
   <v>       0.44444444      0.27777778      0.13888889</v>
   <v>       0.47222222      0.27777778      0.13888889</v>
   <v>       0.50000000      0.27777778      0.13888889</v>
   <v>       0.30555556      0.30555556      0.13888889</v>
   <v>       0.33333333      0.30555556      0.13888889</v>
   <v>       0.36111111      0.30555556      0.13888889</v>
   <v>       0.38888889      0.30555556      0.13888889</v>
   <v>       0.41666667      0.30555556      0.13888889</v>
   <v>       0.44444444      0.30555556      0.13888889</v>
   <v>       0.47222222      0.30555556      0.13888889</v>
   <v>       0.50000000      0.30555556      0.13888889</v>
   <v>       0.33333333      0.33333333      0.13888889</v>
   <v>       0.36111111      0.33333333      0.13888889</v>
   <v>       0.38888889      0.33333333      0.13888889</v>
   <v>       0.41666667      0.33333333      0.13888889</v>
   <v>       0.44444444      0.33333333      0.13888889</v>
   <v>       0.47222222      0.33333333      0.13888889</v>
   <v>       0.50000000      0.33333333      0.13888889</v>
   <v>       0.36111111      0.36111111      0.13888889</v>
   <v>       0.38888889      0.36111111      0.13888889</v>
   <v>       0.41666667      0.36111111      0.13888889</v>
   <v>       0.44444444      0.36111111      0.13888889</v>
   <v>       0.47222222      0.36111111      0.13888889</v>
   <v>       0.50000000      0.36111111      0.13888889</v>
   <v>       0.38888889      0.38888889      0.13888889</v>
   <v>       0.41666667      0.38888889      0.13888889</v>
   <v>       0.44444444      0.38888889      0.13888889</v>
   <v>       0.47222222      0.38888889      0.13888889</v>
   <v>       0.50000000      0.38888889      0.13888889</v>
   <v>       0.41666667      0.41666667      0.13888889</v>
   <v>       0.44444444      0.41666667      0.13888889</v>
   <v>       0.47222222      0.41666667      0.13888889</v>
   <v>       0.50000000      0.41666667      0.13888889</v>
   <v>       0.44444444      0.44444444      0.13888889</v>
   <v>       0.47222222      0.44444444      0.13888889</v>
   <v>       0.50000000      0.44444444      0.13888889</v>
   <v>       0.47222222      0.47222222      0.13888889</v>
   <v>       0.50000000      0.47222222      0.13888889</v>
   <v>       0.50000000      0.50000000      0.13888889</v>
   <v>       0.16666667      0.16666667      0.16666667</v>
   <v>       0.19444444      0.16666667      0.16666667</v>
   <v>       0.22222222      0.16666667      0.16666667</v>
   <v>       0.25000000      0.16666667      0.16666667</v>
   <v>       0.27777778      0.16666667      0.16666667</v>
   <v>       0.30555556      0.16666667      0.16666667</v>
   <v>       0.33333333      0.16666667      0.16666667</v>
   <v>       0.36111111      0.16666667      0.16666667</v>
   <v>       0.38888889      0.16666667      0.16666667</v>
   <v>       0.41666667      0.16666667      0.16666667</v>
   <v>       0.44444444      0.16666667      0.16666667</v>
   <v>       0.47222222      0.16666667      0.16666667</v>
   <v>       0.50000000      0.16666667      0.16666667</v>
   <v>       0.19444444      0.19444444      0.16666667</v>
   <v>       0.22222222      0.19444444      0.16666667</v>
   <v>       0.25000000      0.19444444      0.16666667</v>
   <v>       0.27777778      0.19444444      0.16666667</v>
   <v>       0.30555556      0.19444444      0.16666667</v>
   <v>       0.33333333      0.19444444      0.16666667</v>
   <v>       0.36111111      0.19444444      0.16666667</v>
   <v>       0.38888889      0.19444444      0.16666667</v>
   <v>       0.41666667      0.19444444      0.16666667</v>
   <v>       0.44444444      0.19444444      0.16666667</v>
   <v>       0.47222222      0.19444444      0.16666667</v>
   <v>       0.50000000      0.19444444      0.16666667</v>
   <v>       0.22222222      0.22222222      0.16666667</v>
   <v>       0.25000000      0.22222222      0.16666667</v>
   <v>       0.27777778      0.22222222      0.16666667</v>
   <v>       0.30555556      0.22222222      0.16666667</v>
   <v>       0.33333333      0.22222222      0.16666667</v>
   <v>       0.36111111      0.22222222      0.16666667</v>
   <v>       0.38888889      0.22222222      0.16666667</v>
   <v>       0.41666667      0.22222222      0.16666667</v>
   <v>       0.44444444      0.22222222      0.16666667</v>
   <v>       0.47222222      0.22222222      0.16666667</v>
   <v>       0.50000000      0.22222222      0.16666667</v>
   <v>       0.25000000      0.25000000      0.16666667</v>
   <v>       0.27777778      0.25000000      0.16666667</v>
   <v>       0.30555556      0.25000000      0.16666667</v>
   <v>       0.33333333      0.25000000      0.16666667</v>
   <v>       0.36111111      0.25000000      0.16666667</v>
   <v>       0.38888889      0.25000000      0.16666667</v>
   <v>       0.41666667      0.25000000      0.16666667</v>
   <v>       0.44444444      0.25000000      0.16666667</v>
   <v>       0.47222222      0.25000000      0.16666667</v>
   <v>       0.50000000      0.25000000      0.16666667</v>
   <v>       0.27777778      0.27777778      0.16666667</v>
   <v>       0.30555556      0.27777778      0.16666667</v>
   <v>       0.33333333      0.27777778      0.16666667</v>
   <v>       0.36111111      0.27777778      0.16666667</v>
   <v>       0.38888889      0.27777778      0.16666667</v>
   <v>       0.41666667      0.27777778      0.16666667</v>
   <v>       0.44444444      0.27777778      0.16666667</v>
   <v>       0.47222222      0.27777778      0.16666667</v>
   <v>       0.50000000      0.27777778      0.16666667</v>
   <v>       0.30555556      0.30555556      0.16666667</v>
   <v>       0.33333333      0.30555556      0.16666667</v>
   <v>       0.36111111      0.30555556      0.16666667</v>
   <v>       0.38888889      0.30555556      0.16666667</v>
   <v>       0.41666667      0.30555556      0.16666667</v>
   <v>       0.44444444      0.30555556      0.16666667</v>
   <v>       0.47222222      0.30555556      0.16666667</v>
   <v>       0.50000000      0.30555556      0.16666667</v>
   <v>       0.33333333      0.33333333      0.16666667</v>
   <v>       0.36111111      0.33333333      0.16666667</v>
   <v>       0.38888889      0.33333333      0.16666667</v>
   <v>       0.41666667      0.33333333      0.16666667</v>
   <v>       0.44444444      0.33333333      0.16666667</v>
   <v>       0.47222222      0.33333333      0.16666667</v>
   <v>       0.50000000      0.33333333      0.16666667</v>
   <v>       0.36111111      0.36111111      0.16666667</v>
   <v>       0.38888889      0.36111111      0.16666667</v>
   <v>       0.41666667      0.36111111      0.16666667</v>
   <v>       0.44444444      0.36111111      0.16666667</v>
   <v>       0.47222222      0.36111111      0.16666667</v>
   <v>       0.50000000      0.36111111      0.16666667</v>
   <v>       0.38888889      0.38888889      0.16666667</v>
   <v>       0.41666667      0.38888889      0.16666667</v>
   <v>       0.44444444      0.38888889      0.16666667</v>
   <v>       0.47222222      0.38888889      0.16666667</v>
   <v>       0.50000000      0.38888889      0.16666667</v>
   <v>       0.41666667      0.41666667      0.16666667</v>
   <v>       0.44444444      0.41666667      0.16666667</v>
   <v>       0.47222222      0.41666667      0.16666667</v>
   <v>       0.50000000      0.41666667      0.16666667</v>
   <v>       0.44444444      0.44444444      0.16666667</v>
   <v>       0.47222222      0.44444444      0.16666667</v>
   <v>       0.50000000      0.44444444      0.16666667</v>
   <v>       0.47222222      0.47222222      0.16666667</v>
   <v>       0.50000000      0.47222222      0.16666667</v>
   <v>       0.50000000      0.50000000      0.16666667</v>
   <v>       0.19444444      0.19444444      0.19444444</v>
   <v>       0.22222222      0.19444444      0.19444444</v>
   <v>       0.25000000      0.19444444      0.19444444</v>
   <v>       0.27777778      0.19444444      0.19444444</v>
   <v>       0.30555556      0.19444444      0.19444444</v>
   <v>       0.33333333      0.19444444      0.19444444</v>
   <v>       0.36111111      0.19444444      0.19444444</v>
   <v>       0.38888889      0.19444444      0.19444444</v>
   <v>       0.41666667      0.19444444      0.19444444</v>
   <v>       0.44444444      0.19444444      0.19444444</v>
   <v>       0.47222222      0.19444444      0.19444444</v>
   <v>       0.50000000      0.19444444      0.19444444</v>
   <v>       0.22222222      0.22222222      0.19444444</v>
   <v>       0.25000000      0.22222222      0.19444444</v>
   <v>       0.27777778      0.22222222      0.19444444</v>
   <v>       0.30555556      0.22222222      0.19444444</v>
   <v>       0.33333333      0.22222222      0.19444444</v>
   <v>       0.36111111      0.22222222      0.19444444</v>
   <v>       0.38888889      0.22222222      0.19444444</v>
   <v>       0.41666667      0.22222222      0.19444444</v>
   <v>       0.44444444      0.22222222      0.19444444</v>
   <v>       0.47222222      0.22222222      0.19444444</v>
   <v>       0.50000000      0.22222222      0.19444444</v>
   <v>       0.25000000      0.25000000      0.19444444</v>
   <v>       0.27777778      0.25000000      0.19444444</v>
   <v>       0.30555556      0.25000000      0.19444444</v>
   <v>       0.33333333      0.25000000      0.19444444</v>
   <v>       0.36111111      0.25000000      0.19444444</v>
   <v>       0.38888889      0.25000000      0.19444444</v>
   <v>       0.41666667      0.25000000      0.19444444</v>
   <v>       0.44444444      0.25000000      0.19444444</v>
   <v>       0.47222222      0.25000000      0.19444444</v>
   <v>       0.50000000      0.25000000      0.19444444</v>
   <v>       0.27777778      0.27777778      0.19444444</v>
   <v>       0.30555556      0.27777778      0.19444444</v>
   <v>       0.33333333      0.27777778      0.19444444</v>
   <v>       0.36111111      0.27777778      0.19444444</v>
   <v>       0.38888889      0.27777778      0.19444444</v>
   <v>       0.41666667      0.27777778      0.19444444</v>
   <v>       0.44444444      0.27777778      0.19444444</v>
   <v>       0.47222222      0.27777778      0.19444444</v>
   <v>       0.50000000      0.27777778      0.19444444</v>
   <v>       0.30555556      0.30555556      0.19444444</v>
   <v>       0.33333333      0.30555556      0.19444444</v>
   <v>       0.36111111      0.30555556      0.19444444</v>
   <v>       0.38888889      0.30555556      0.19444444</v>
   <v>       0.41666667      0.30555556      0.19444444</v>
   <v>       0.44444444      0.30555556      0.19444444</v>
   <v>       0.47222222      0.30555556      0.19444444</v>
   <v>       0.50000000      0.30555556      0.19444444</v>
   <v>       0.33333333      0.33333333      0.19444444</v>
   <v>       0.36111111      0.33333333      0.19444444</v>
   <v>       0.38888889      0.33333333      0.19444444</v>
   <v>       0.41666667      0.33333333      0.19444444</v>
   <v>       0.44444444      0.33333333      0.19444444</v>
   <v>       0.47222222      0.33333333      0.19444444</v>
   <v>       0.50000000      0.33333333      0.19444444</v>
   <v>       0.36111111      0.36111111      0.19444444</v>
   <v>       0.38888889      0.36111111      0.19444444</v>
   <v>       0.41666667      0.36111111      0.19444444</v>
   <v>       0.44444444      0.36111111      0.19444444</v>
   <v>       0.47222222      0.36111111      0.19444444</v>
   <v>       0.50000000      0.36111111      0.19444444</v>
   <v>       0.38888889      0.38888889      0.19444444</v>
   <v>       0.41666667      0.38888889      0.19444444</v>
   <v>       0.44444444      0.38888889      0.19444444</v>
   <v>       0.47222222      0.38888889      0.19444444</v>
   <v>       0.50000000      0.38888889      0.19444444</v>
   <v>       0.41666667      0.41666667      0.19444444</v>
   <v>       0.44444444      0.41666667      0.19444444</v>
   <v>       0.47222222      0.41666667      0.19444444</v>
   <v>       0.50000000      0.41666667      0.19444444</v>
   <v>       0.44444444      0.44444444      0.19444444</v>
   <v>       0.47222222      0.44444444      0.19444444</v>
   <v>       0.50000000      0.44444444      0.19444444</v>
   <v>       0.47222222      0.47222222      0.19444444</v>
   <v>       0.50000000      0.47222222      0.19444444</v>
   <v>       0.50000000      0.50000000      0.19444444</v>
   <v>       0.22222222      0.22222222      0.22222222</v>
   <v>       0.25000000      0.22222222      0.22222222</v>
   <v>       0.27777778      0.22222222      0.22222222</v>
   <v>       0.30555556      0.22222222      0.22222222</v>
   <v>       0.33333333      0.22222222      0.22222222</v>
   <v>       0.36111111      0.22222222      0.22222222</v>
   <v>       0.38888889      0.22222222      0.22222222</v>
   <v>       0.41666667      0.22222222      0.22222222</v>
   <v>       0.44444444      0.22222222      0.22222222</v>
   <v>       0.47222222      0.22222222      0.22222222</v>
   <v>       0.50000000      0.22222222      0.22222222</v>
   <v>       0.25000000      0.25000000      0.22222222</v>
   <v>       0.27777778      0.25000000      0.22222222</v>
   <v>       0.30555556      0.25000000      0.22222222</v>
   <v>       0.33333333      0.25000000      0.22222222</v>
   <v>       0.36111111      0.25000000      0.22222222</v>
   <v>       0.38888889      0.25000000      0.22222222</v>
   <v>       0.41666667      0.25000000      0.22222222</v>
   <v>       0.44444444      0.25000000      0.22222222</v>
   <v>       0.47222222      0.25000000      0.22222222</v>
   <v>       0.50000000      0.25000000      0.22222222</v>
   <v>       0.27777778      0.27777778      0.22222222</v>
   <v>       0.30555556      0.27777778      0.22222222</v>
   <v>       0.33333333      0.27777778      0.22222222</v>
   <v>       0.36111111      0.27777778      0.22222222</v>
   <v>       0.38888889      0.27777778      0.22222222</v>
   <v>       0.41666667      0.27777778      0.22222222</v>
   <v>       0.44444444      0.27777778      0.22222222</v>
   <v>       0.47222222      0.27777778      0.22222222</v>
   <v>       0.50000000      0.27777778      0.22222222</v>
   <v>       0.30555556      0.30555556      0.22222222</v>
   <v>       0.33333333      0.30555556      0.22222222</v>
   <v>       0.36111111      0.30555556      0.22222222</v>
   <v>       0.38888889      0.30555556      0.22222222</v>
   <v>       0.41666667      0.30555556      0.22222222</v>
   <v>       0.44444444      0.30555556      0.22222222</v>
   <v>       0.47222222      0.30555556      0.22222222</v>
   <v>       0.50000000      0.30555556      0.22222222</v>
   <v>       0.33333333      0.33333333      0.22222222</v>
   <v>       0.36111111      0.33333333      0.22222222</v>
   <v>       0.38888889      0.33333333      0.22222222</v>
   <v>       0.41666667      0.33333333      0.22222222</v>
   <v>       0.44444444      0.33333333      0.22222222</v>
   <v>       0.47222222      0.33333333      0.22222222</v>
   <v>       0.50000000      0.33333333      0.22222222</v>
   <v>       0.36111111      0.36111111      0.22222222</v>
   <v>       0.38888889      0.36111111      0.22222222</v>
   <v>       0.41666667      0.36111111      0.22222222</v>
   <v>       0.44444444      0.36111111      0.22222222</v>
   <v>       0.47222222      0.36111111      0.22222222</v>
   <v>       0.50000000      0.36111111      0.22222222</v>
   <v>       0.38888889      0.38888889      0.22222222</v>
   <v>       0.41666667      0.38888889      0.22222222</v>
   <v>       0.44444444      0.38888889      0.22222222</v>
   <v>       0.47222222      0.38888889      0.22222222</v>
   <v>       0.50000000      0.38888889      0.22222222</v>
   <v>       0.41666667      0.41666667      0.22222222</v>
   <v>       0.44444444      0.41666667      0.22222222</v>
   <v>       0.47222222      0.41666667      0.22222222</v>
   <v>       0.50000000      0.41666667      0.22222222</v>
   <v>       0.44444444      0.44444444      0.22222222</v>
   <v>       0.47222222      0.44444444      0.22222222</v>
   <v>       0.50000000      0.44444444      0.22222222</v>
   <v>       0.47222222      0.47222222      0.22222222</v>
   <v>       0.50000000      0.47222222      0.22222222</v>
   <v>       0.50000000      0.50000000      0.22222222</v>
   <v>       0.25000000      0.25000000      0.25000000</v>
   <v>       0.27777778      0.25000000      0.25000000</v>
   <v>       0.30555556      0.25000000      0.25000000</v>
   <v>       0.33333333      0.25000000      0.25000000</v>
   <v>       0.36111111      0.25000000      0.25000000</v>
   <v>       0.38888889      0.25000000      0.25000000</v>
   <v>       0.41666667      0.25000000      0.25000000</v>
   <v>       0.44444444      0.25000000      0.25000000</v>
   <v>       0.47222222      0.25000000      0.25000000</v>
   <v>       0.50000000      0.25000000      0.25000000</v>
   <v>       0.27777778      0.27777778      0.25000000</v>
   <v>       0.30555556      0.27777778      0.25000000</v>
   <v>       0.33333333      0.27777778      0.25000000</v>
   <v>       0.36111111      0.27777778      0.25000000</v>
   <v>       0.38888889      0.27777778      0.25000000</v>
   <v>       0.41666667      0.27777778      0.25000000</v>
   <v>       0.44444444      0.27777778      0.25000000</v>
   <v>       0.47222222      0.27777778      0.25000000</v>
   <v>       0.50000000      0.27777778      0.25000000</v>
   <v>       0.30555556      0.30555556      0.25000000</v>
   <v>       0.33333333      0.30555556      0.25000000</v>
   <v>       0.36111111      0.30555556      0.25000000</v>
   <v>       0.38888889      0.30555556      0.25000000</v>
   <v>       0.41666667      0.30555556      0.25000000</v>
   <v>       0.44444444      0.30555556      0.25000000</v>
   <v>       0.47222222      0.30555556      0.25000000</v>
   <v>       0.50000000      0.30555556      0.25000000</v>
   <v>       0.33333333      0.33333333      0.25000000</v>
   <v>       0.36111111      0.33333333      0.25000000</v>
   <v>       0.38888889      0.33333333      0.25000000</v>
   <v>       0.41666667      0.33333333      0.25000000</v>
   <v>       0.44444444      0.33333333      0.25000000</v>
   <v>       0.47222222      0.33333333      0.25000000</v>
   <v>       0.50000000      0.33333333      0.25000000</v>
   <v>       0.36111111      0.36111111      0.25000000</v>
   <v>       0.38888889      0.36111111      0.25000000</v>
   <v>       0.41666667      0.36111111      0.25000000</v>
   <v>       0.44444444      0.36111111      0.25000000</v>
   <v>       0.47222222      0.36111111      0.25000000</v>
   <v>       0.50000000      0.36111111      0.25000000</v>
   <v>       0.38888889      0.38888889      0.25000000</v>
   <v>       0.41666667      0.38888889      0.25000000</v>
   <v>       0.44444444      0.38888889      0.25000000</v>
   <v>       0.47222222      0.38888889      0.25000000</v>
   <v>       0.50000000      0.38888889      0.25000000</v>
   <v>       0.41666667      0.41666667      0.25000000</v>
   <v>       0.44444444      0.41666667      0.25000000</v>
   <v>       0.47222222      0.41666667      0.25000000</v>
   <v>       0.50000000      0.41666667      0.25000000</v>
   <v>       0.44444444      0.44444444      0.25000000</v>
   <v>       0.47222222      0.44444444      0.25000000</v>
   <v>       0.50000000      0.44444444      0.25000000</v>
   <v>       0.47222222      0.47222222      0.25000000</v>
   <v>       0.50000000      0.47222222      0.25000000</v>
   <v>       0.50000000      0.50000000      0.25000000</v>
   <v>       0.27777778      0.27777778      0.27777778</v>
   <v>       0.30555556      0.27777778      0.27777778</v>
   <v>       0.33333333      0.27777778      0.27777778</v>
   <v>       0.36111111      0.27777778      0.27777778</v>
   <v>       0.38888889      0.27777778      0.27777778</v>
   <v>       0.41666667      0.27777778      0.27777778</v>
   <v>       0.44444444      0.27777778      0.27777778</v>
   <v>       0.47222222      0.27777778      0.27777778</v>
   <v>       0.50000000      0.27777778      0.27777778</v>
   <v>       0.30555556      0.30555556      0.27777778</v>
   <v>       0.33333333      0.30555556      0.27777778</v>
   <v>       0.36111111      0.30555556      0.27777778</v>
   <v>       0.38888889      0.30555556      0.27777778</v>
   <v>       0.41666667      0.30555556      0.27777778</v>
   <v>       0.44444444      0.30555556      0.27777778</v>
   <v>       0.47222222      0.30555556      0.27777778</v>
   <v>       0.50000000      0.30555556      0.27777778</v>
   <v>       0.33333333      0.33333333      0.27777778</v>
   <v>       0.36111111      0.33333333      0.27777778</v>
   <v>       0.38888889      0.33333333      0.27777778</v>
   <v>       0.41666667      0.33333333      0.27777778</v>
   <v>       0.44444444      0.33333333      0.27777778</v>
   <v>       0.47222222      0.33333333      0.27777778</v>
   <v>       0.50000000      0.33333333      0.27777778</v>
   <v>       0.36111111      0.36111111      0.27777778</v>
   <v>       0.38888889      0.36111111      0.27777778</v>
   <v>       0.41666667      0.36111111      0.27777778</v>
   <v>       0.44444444      0.36111111      0.27777778</v>
   <v>       0.47222222      0.36111111      0.27777778</v>
   <v>       0.50000000      0.36111111      0.27777778</v>
   <v>       0.38888889      0.38888889      0.27777778</v>
   <v>       0.41666667      0.38888889      0.27777778</v>
   <v>       0.44444444      0.38888889      0.27777778</v>
   <v>       0.47222222      0.38888889      0.27777778</v>
   <v>       0.50000000      0.38888889      0.27777778</v>
   <v>       0.41666667      0.41666667      0.27777778</v>
   <v>       0.44444444      0.41666667      0.27777778</v>
   <v>       0.47222222      0.41666667      0.27777778</v>
   <v>       0.50000000      0.41666667      0.27777778</v>
   <v>       0.44444444      0.44444444      0.27777778</v>
   <v>       0.47222222      0.44444444      0.27777778</v>
   <v>       0.50000000      0.44444444      0.27777778</v>
   <v>       0.47222222      0.47222222      0.27777778</v>
   <v>       0.50000000      0.47222222      0.27777778</v>
   <v>       0.50000000      0.50000000      0.27777778</v>
   <v>       0.30555556      0.30555556      0.30555556</v>
   <v>       0.33333333      0.30555556      0.30555556</v>
   <v>       0.36111111      0.30555556      0.30555556</v>
   <v>       0.38888889      0.30555556      0.30555556</v>
   <v>       0.41666667      0.30555556      0.30555556</v>
   <v>       0.44444444      0.30555556      0.30555556</v>
   <v>       0.47222222      0.30555556      0.30555556</v>
   <v>       0.50000000      0.30555556      0.30555556</v>
   <v>       0.33333333      0.33333333      0.30555556</v>
   <v>       0.36111111      0.33333333      0.30555556</v>
   <v>       0.38888889      0.33333333      0.30555556</v>
   <v>       0.41666667      0.33333333      0.30555556</v>
   <v>       0.44444444      0.33333333      0.30555556</v>
   <v>       0.47222222      0.33333333      0.30555556</v>
   <v>       0.50000000      0.33333333      0.30555556</v>
   <v>       0.36111111      0.36111111      0.30555556</v>
   <v>       0.38888889      0.36111111      0.30555556</v>
   <v>       0.41666667      0.36111111      0.30555556</v>
   <v>       0.44444444      0.36111111      0.30555556</v>
   <v>       0.47222222      0.36111111      0.30555556</v>
   <v>       0.50000000      0.36111111      0.30555556</v>
   <v>       0.38888889      0.38888889      0.30555556</v>
   <v>       0.41666667      0.38888889      0.30555556</v>
   <v>       0.44444444      0.38888889      0.30555556</v>
   <v>       0.47222222      0.38888889      0.30555556</v>
   <v>       0.50000000      0.38888889      0.30555556</v>
   <v>       0.41666667      0.41666667      0.30555556</v>
   <v>       0.44444444      0.41666667      0.30555556</v>
   <v>       0.47222222      0.41666667      0.30555556</v>
   <v>       0.50000000      0.41666667      0.30555556</v>
   <v>       0.44444444      0.44444444      0.30555556</v>
   <v>       0.47222222      0.44444444      0.30555556</v>
   <v>       0.50000000      0.44444444      0.30555556</v>
   <v>       0.47222222      0.47222222      0.30555556</v>
   <v>       0.50000000      0.47222222      0.30555556</v>
   <v>       0.50000000      0.50000000      0.30555556</v>
   <v>       0.33333333      0.33333333      0.33333333</v>
   <v>       0.36111111      0.33333333      0.33333333</v>
   <v>       0.38888889      0.33333333      0.33333333</v>
   <v>       0.41666667      0.33333333      0.33333333</v>
   <v>       0.44444444      0.33333333      0.33333333</v>
   <v>       0.47222222      0.33333333      0.33333333</v>
   <v>       0.50000000      0.33333333      0.33333333</v>
   <v>       0.36111111      0.36111111      0.33333333</v>
   <v>       0.38888889      0.36111111      0.33333333</v>
   <v>       0.41666667      0.36111111      0.33333333</v>
   <v>       0.44444444      0.36111111      0.33333333</v>
   <v>       0.47222222      0.36111111      0.33333333</v>
   <v>       0.50000000      0.36111111      0.33333333</v>
   <v>       0.38888889      0.38888889      0.33333333</v>
   <v>       0.41666667      0.38888889      0.33333333</v>
   <v>       0.44444444      0.38888889      0.33333333</v>
   <v>       0.47222222      0.38888889      0.33333333</v>
   <v>       0.50000000      0.38888889      0.33333333</v>
   <v>       0.41666667      0.41666667      0.33333333</v>
   <v>       0.44444444      0.41666667      0.33333333</v>
   <v>       0.47222222      0.41666667      0.33333333</v>
   <v>       0.50000000      0.41666667      0.33333333</v>
   <v>       0.44444444      0.44444444      0.33333333</v>
   <v>       0.47222222      0.44444444      0.33333333</v>
   <v>       0.50000000      0.44444444      0.33333333</v>
   <v>       0.47222222      0.47222222      0.33333333</v>
   <v>       0.50000000      0.47222222      0.33333333</v>
   <v>       0.50000000      0.50000000      0.33333333</v>
   <v>       0.36111111      0.36111111      0.36111111</v>
   <v>       0.38888889      0.36111111      0.36111111</v>
   <v>       0.41666667      0.36111111      0.36111111</v>
   <v>       0.44444444      0.36111111      0.36111111</v>
   <v>       0.47222222      0.36111111      0.36111111</v>
   <v>       0.50000000      0.36111111      0.36111111</v>
   <v>       0.38888889      0.38888889      0.36111111</v>
   <v>       0.41666667      0.38888889      0.36111111</v>
   <v>       0.44444444      0.38888889      0.36111111</v>
   <v>       0.47222222      0.38888889      0.36111111</v>
   <v>       0.50000000      0.38888889      0.36111111</v>
   <v>       0.41666667      0.41666667      0.36111111</v>
   <v>       0.44444444      0.41666667      0.36111111</v>
   <v>       0.47222222      0.41666667      0.36111111</v>
   <v>       0.50000000      0.41666667      0.36111111</v>
   <v>       0.44444444      0.44444444      0.36111111</v>
   <v>       0.47222222      0.44444444      0.36111111</v>
   <v>       0.50000000      0.44444444      0.36111111</v>
   <v>       0.47222222      0.47222222      0.36111111</v>
   <v>       0.50000000      0.47222222      0.36111111</v>
   <v>       0.50000000      0.50000000      0.36111111</v>
   <v>       0.38888889      0.38888889      0.38888889</v>
   <v>       0.41666667      0.38888889      0.38888889</v>
   <v>       0.44444444      0.38888889      0.38888889</v>
   <v>       0.47222222      0.38888889      0.38888889</v>
   <v>       0.50000000      0.38888889      0.38888889</v>
   <v>       0.41666667      0.41666667      0.38888889</v>
   <v>       0.44444444      0.41666667      0.38888889</v>
   <v>       0.47222222      0.41666667      0.38888889</v>
   <v>       0.50000000      0.41666667      0.38888889</v>
   <v>       0.44444444      0.44444444      0.38888889</v>
   <v>       0.47222222      0.44444444      0.38888889</v>
   <v>       0.50000000      0.44444444      0.38888889</v>
   <v>       0.47222222      0.47222222      0.38888889</v>
   <v>       0.50000000      0.47222222      0.38888889</v>
   <v>       0.50000000      0.50000000      0.38888889</v>
[...]
       <r>  -1.7916  1.0000</r>
       <r>  -1.7601  1.0000</r>
       <r>  -1.7381  1.0000</r>
       <r>  -1.7177  1.0000</r>
       <r>  -1.7024  1.0000</r>
       <r>  -1.7024  1.0000</r>
       <r>  -0.4317  1.0000</r>
       <r>  -0.4317  1.0000</r>
       <r>  -0.3967  1.0000</r>
       <r>  -0.3057  1.0000</r>
       <r>  -0.2183  1.0000</r>
       <r>  -0.1913  1.0000</r>
       <r>  -0.1913  1.0000</r>
       <r>  -0.1861  1.0000</r>
       <r>   1.8556  1.0000</r>
       <r>   2.3592  1.0000</r>
       <r>   2.9653  0.0000</r>
       <r>   2.9653  0.0000</r>
       <r>   6.0013  0.0000</r>
       <r>   6.0013  0.0000</r>
       <r>   6.5442  0.0000</r>
       <r>   6.9692  0.0000</r>
       <r>  18.0198  0.0000</r>
       <r>  18.0198  0.0000</r>
       <r>  18.2964  0.0000</r>
       <r>  18.4643  0.0000</r>
      </set>
      <set comment="kpoint 1314">
       <r>  -3.0775  1.0000</r>
       <r>  -3.0775  1.0000</r>
       <r>  -3.0416  1.0000</r>
       <r>  -3.0416  1.0000</r>
       <r>  -1.8180  1.0000</r>
       <r>  -1.8180  1.0000</r>
       <r>  -1.7748  1.0000</r>
       <r>  -1.7748  1.0000</r>
       <r>  -1.7305  1.0000</r>
       <r>  -1.7305  1.0000</r>
       <r>  -1.7057  1.0000</r>
       <r>  -1.7057  1.0000</r>
       <r>  -0.4182  1.0000</r>
       <r>  -0.4182  1.0000</r>
       <r>  -0.3455  1.0000</r>
       <r>  -0.3455  1.0000</r>
       <r>  -0.1991  1.0000</r>
       <r>  -0.1991  1.0000</r>
       <r>  -0.1947  1.0000</r>
       <r>  -0.1947  1.0000</r>
       <r>   2.1016  1.0000</r>
       <r>   2.1016  1.0000</r>
       <r>   2.9761  0.0000</r>
       <r>   2.9761  0.0000</r>
       <r>   5.9725  0.0000</r>
       <r>   5.9725  0.0000</r>
       <r>   6.7455  0.0000</r>
       <r>   6.7455  0.0000</r>
       <r>  18.0385  0.0000</r>
       <r>  18.0385  0.0000</r>
       <r>  18.3936  0.0000</r>
       <r>  18.3936  0.0000</r>
      </set>
      <set comment="kpoint 1315">
       <r>  -3.0956  1.0000</r>
       <r>  -3.0551  1.0000</r>
       <r>  -3.0551  1.0000</r>
       <r>  -3.0473  1.0000</r>
       <r>  -1.8145  1.0000</r>
       <r>  -1.8056  1.0000</r>
       <r>  -1.8056  1.0000</r>
       <r>  -1.7508  1.0000</r>
       <r>  -1.7495  1.0000</r>
       <r>  -1.7141  1.0000</r>
       <r>  -1.7141  1.0000</r>
       <r>  -1.7095  1.0000</r>
       <r>  -0.4118  1.0000</r>
       <r>  -0.4029  1.0000</r>
       <r>  -0.4029  1.0000</r>
       <r>  -0.2515  1.0000</r>
       <r>  -0.2396  1.0000</r>
       <r>  -0.1868  1.0000</r>
       <r>  -0.1830  1.0000</r>
       <r>  -0.1830  1.0000</r>
       <r>   1.8134  1.0000</r>
       <r>   2.7072  1.0000</r>
       <r>   2.7072  1.0000</r>
       <r>   2.9274  0.0000</r>
       <r>   5.9970  0.0000</r>
       <r>   6.1965  0.0000</r>
       <r>   6.1965  0.0000</r>
       <r>   6.9611  0.0000</r>
       <r>  18.0490  0.0000</r>
       <r>  18.1746  0.0000</r>
       <r>  18.1746  0.0000</r>
       <r>  18.4869  0.0000</r>
      </set>
      <set comment="kpoint 1316">
       <r>  -3.0955  1.0000</r>
       <r>  -3.0752  1.0000</r>
       <r>  -3.0632  1.0000</r>
       <r>  -3.0592  1.0000</r>
       <r>  -1.8074  1.0000</r>
       <r>  -1.8030  1.0000</r>
       <r>  -1.7888  1.0000</r>
       <r>  -1.7613  1.0000</r>
       <r>  -1.7482  1.0000</r>
       <r>  -1.7304  1.0000</r>
       <r>  -1.7226  1.0000</r>
       <r>  -1.7204  1.0000</r>
       <r>  -0.3713  1.0000</r>
       <r>  -0.3665  1.0000</r>
       <r>  -0.3454  1.0000</r>
       <r>  -0.2648  1.0000</r>
       <r>  -0.2190  1.0000</r>
       <r>  -0.1925  1.0000</r>
       <r>  -0.1905  1.0000</r>
       <r>  -0.1884  1.0000</r>
       <r>   2.0207  1.0000</r>
       <r>   2.4740  1.0000</r>
       <r>   2.7849  0.9999</r>
       <r>   2.8992  0.0000</r>
       <r>   5.9647  0.0000</r>
       <r>   6.0683  0.0000</r>
       <r>   6.3446  0.0000</r>
       <r>   6.7308  0.0000</r>
       <r>  18.1123  0.0000</r>
       <r>  18.1785  0.0000</r>
       <r>  18.2984  0.0000</r>
       <r>  18.4392  0.0000</r>
      </set>
      <set comment="kpoint 1317">
       <r>  -3.0887  1.0000</r>
       <r>  -3.0887  1.0000</r>
       <r>  -3.0645  1.0000</r>
       <r>  -3.0645  1.0000</r>
       <r>  -1.8034  1.0000</r>
       <r>  -1.8034  1.0000</r>
       <r>  -1.7741  1.0000</r>
       <r>  -1.7741  1.0000</r>
       <r>  -1.7418  1.0000</r>
       <r>  -1.7418  1.0000</r>
       <r>  -1.7248  1.0000</r>
       <r>  -1.7248  1.0000</r>
       <r>  -0.3546  1.0000</r>
       <r>  -0.3546  1.0000</r>
       <r>  -0.2986  1.0000</r>
       <r>  -0.2986  1.0000</r>
       <r>  -0.2004  1.0000</r>
       <r>  -0.2004  1.0000</r>
       <r>  -0.1951  1.0000</r>
       <r>  -0.1951  1.0000</r>
       <r>   2.2429  1.0000</r>
       <r>   2.2429  1.0000</r>
       <r>   2.8506  0.0000</r>
       <r>   2.8506  0.0000</r>
       <r>   5.9894  0.0000</r>
       <r>   5.9894  0.0000</r>
       <r>   6.5242  0.0000</r>
       <r>   6.5242  0.0000</r>
       <r>  18.1569  0.0000</r>
       <r>  18.1569  0.0000</r>
       <r>  18.3793  0.0000</r>
       <r>  18.3793  0.0000</r>
      </set>
      <set comment="kpoint 1318">
       <r>  -3.0977  1.0000</r>
       <r>  -3.0814  1.0000</r>
       <r>  -3.0814  1.0000</r>
       <r>  -3.0733  1.0000</r>
       <r>  -1.7975  1.0000</r>
       <r>  -1.7881  1.0000</r>
       <r>  -1.7881  1.0000</r>
       <r>  -1.7652  1.0000</r>
       <r>  -1.7528  1.0000</r>
       <r>  -1.7379  1.0000</r>
       <r>  -1.7379  1.0000</r>
       <r>  -1.7328  1.0000</r>
       <r>  -0.3256  1.0000</r>
       <r>  -0.3111  1.0000</r>
       <r>  -0.3111  1.0000</r>
       <r>  -0.2381  1.0000</r>
       <r>  -0.2311  1.0000</r>
       <r>  -0.1985  1.0000</r>
       <r>  -0.1970  1.0000</r>
       <r>  -0.1970  1.0000</r>
       <r>   2.2022  1.0000</r>
       <r>   2.5917  1.0000</r>
       <r>   2.5917  1.0000</r>
       <r>   2.8111  0.4829</r>
       <r>   5.9855  0.0000</r>
       <r>   6.1813  0.0000</r>
       <r>   6.1813  0.0000</r>
       <r>   6.5176  0.0000</r>
       <r>  18.1827  0.0000</r>
       <r>  18.2769  0.0000</r>
       <r>  18.2769  0.0000</r>
       <r>  18.3983  0.0000</r>
      </set>
      <set comment="kpoint 1319">
       <r>  -3.0929  1.0000</r>
       <r>  -3.0929  1.0000</r>
       <r>  -3.0807  1.0000</r>
       <r>  -3.0807  1.0000</r>
       <r>  -1.7908  1.0000</r>
       <r>  -1.7908  1.0000</r>
       <r>  -1.7752  1.0000</r>
       <r>  -1.7752  1.0000</r>
       <r>  -1.7482  1.0000</r>
       <r>  -1.7482  1.0000</r>
       <r>  -1.7389  1.0000</r>
       <r>  -1.7389  1.0000</r>
       <r>  -0.3025  1.0000</r>
       <r>  -0.3025  1.0000</r>
       <r>  -0.2671  1.0000</r>
       <r>  -0.2671  1.0000</r>
       <r>  -0.2110  1.0000</r>
       <r>  -0.2110  1.0000</r>
       <r>  -0.2025  1.0000</r>
       <r>  -0.2025  1.0000</r>
       <r>   2.3948  1.0000</r>
       <r>   2.3948  1.0000</r>
       <r>   2.7063  1.0000</r>
       <r>   2.7063  1.0000</r>
       <r>   6.0596  0.0000</r>
       <r>   6.0596  0.0000</r>
       <r>   6.3330  0.0000</r>
       <r>   6.3330  0.0000</r>
       <r>  18.2375  0.0000</r>
       <r>  18.2375  0.0000</r>
       <r>  18.3455  0.0000</r>
       <r>  18.3455  0.0000</r>
      </set>
      <set comment="kpoint 1320">
       <r>  -3.0902  1.0000</r>
       <r>  -3.0902  1.0000</r>
       <r>  -3.0902  1.0000</r>
       <r>  -3.0902  1.0000</r>
       <r>  -1.7808  1.0000</r>
       <r>  -1.7808  1.0000</r>
       <r>  -1.7808  1.0000</r>
       <r>  -1.7808  1.0000</r>
       <r>  -1.7472  1.0000</r>
       <r>  -1.7472  1.0000</r>
       <r>  -1.7472  1.0000</r>
       <r>  -1.7472  1.0000</r>
       <r>  -0.2672  1.0000</r>
       <r>  -0.2672  1.0000</r>
       <r>  -0.2672  1.0000</r>
       <r>  -0.2672  1.0000</r>
       <r>  -0.2134  1.0000</r>
       <r>  -0.2134  1.0000</r>
       <r>  -0.2134  1.0000</r>
       <r>  -0.2134  1.0000</r>
       <r>   2.5516  1.0000</r>
       <r>   2.5516  1.0000</r>
       <r>   2.5516  1.0000</r>
       <r>   2.5516  1.0000</r>
       <r>   6.1763  0.0000</r>
       <r>   6.1763  0.0000</r>
       <r>   6.1763  0.0000</r>
       <r>   6.1763  0.0000</r>
       <r>  18.2983  0.0000</r>
       <r>  18.2983  0.0000</r>
       <r>  18.2983  0.0000</r>
       <r>  18.2983  0.0000</r>
      </set>
      <set comment="kpoint 1321">
       <r>  -3.1048  1.0000</r>
       <r>  -3.0722  1.0000</r>
       <r>  -3.0722  1.0000</r>
       <r>  -3.0722  1.0000</r>
       <r>  -1.7985  1.0000</r>
       <r>  -1.7985  1.0000</r>
       <r>  -1.7985  1.0000</r>
       <r>  -1.7558  1.0000</r>
       <r>  -1.7558  1.0000</r>
       <r>  -1.7289  1.0000</r>
       <r>  -1.7289  1.0000</r>
       <r>  -1.7289  1.0000</r>
       <r>  -0.3485  1.0000</r>
       <r>  -0.3485  1.0000</r>
       <r>  -0.3485  1.0000</r>
       <r>  -0.2254  1.0000</r>
       <r>  -0.2254  1.0000</r>
       <r>  -0.1819  1.0000</r>
       <r>  -0.1819  1.0000</r>
       <r>  -0.1819  1.0000</r>
       <r>   1.9778  1.0000</r>
       <r>   2.7454  1.0000</r>
       <r>   2.7454  1.0000</r>
       <r>   2.7454  1.0000</r>
       <r>   6.0634  0.0000</r>
       <r>   6.0634  0.0000</r>
       <r>   6.0634  0.0000</r>
       <r>   6.7232  0.0000</r>
       <r>  18.2263  0.0000</r>
       <r>  18.2263  0.0000</r>
       <r>  18.2263  0.0000</r>
       <r>  18.4698  0.0000</r>
      </set>
      <set comment="kpoint 1322">
       <r>  -3.1070  1.0000</r>
       <r>  -3.0906  1.0000</r>
       <r>  -3.0825  1.0000</r>
       <r>  -3.0825  1.0000</r>
       <r>  -1.7937  1.0000</r>
       <r>  -1.7937  1.0000</r>
       <r>  -1.7845  1.0000</r>
       <r>  -1.7630  1.0000</r>
       <r>  -1.7568  1.0000</r>
       <r>  -1.7433  1.0000</r>
       <r>  -1.7384  1.0000</r>
       <r>  -1.7384  1.0000</r>
       <r>  -0.3105  1.0000</r>
       <r>  -0.3105  1.0000</r>
       <r>  -0.2959  1.0000</r>
       <r>  -0.2318  1.0000</r>
       <r>  -0.2052  1.0000</r>
       <r>  -0.1861  1.0000</r>
       <r>  -0.1861  1.0000</r>
       <r>  -0.1834  1.0000</r>
       <r>   2.1595  1.0000</r>
       <r>   2.5508  1.0000</r>
       <r>   2.7703  1.0000</r>
       <r>   2.7703  1.0000</r>
       <r>   5.9812  0.0000</r>
       <r>   5.9812  0.0000</r>
       <r>   6.1758  0.0000</r>
       <r>   6.5107  0.0000</r>
       <r>  18.2536  0.0000</r>
       <r>  18.2536  0.0000</r>
       <r>  18.3285  0.0000</r>
       <r>  18.4371  0.0000</r>
      </set>
      <set comment="kpoint 1323">
       <r>  -3.1022  1.0000</r>
       <r>  -3.1022  1.0000</r>
       <r>  -3.0859  1.0000</r>
       <r>  -3.0859  1.0000</r>
       <r>  -1.7919  1.0000</r>
       <r>  -1.7919  1.0000</r>
       <r>  -1.7727  1.0000</r>
       <r>  -1.7727  1.0000</r>
       <r>  -1.7526  1.0000</r>
       <r>  -1.7526  1.0000</r>
       <r>  -1.7417  1.0000</r>
       <r>  -1.7417  1.0000</r>
       <r>  -0.2961  1.0000</r>
       <r>  -0.2961  1.0000</r>
       <r>  -0.2562  1.0000</r>
       <r>  -0.2562  1.0000</r>
       <r>  -0.1911  1.0000</r>
       <r>  -0.1911  1.0000</r>
       <r>  -0.1892  1.0000</r>
       <r>  -0.1892  1.0000</r>
       <r>   2.3528  1.0000</r>
       <r>   2.3528  1.0000</r>
       <r>   2.7790  1.0000</r>
       <r>   2.7790  1.0000</r>
       <r>   5.9533  0.0000</r>
       <r>   5.9533  0.0000</r>
       <r>   6.3268  0.0000</r>
       <r>   6.3268  0.0000</r>
       <r>  18.2623  0.0000</r>
       <r>  18.2623  0.0000</r>
       <r>  18.3922  0.0000</r>
       <r>  18.3922  0.0000</r>
      </set>
      <set comment="kpoint 1324">
       <r>  -3.1113  1.0000</r>
       <r>  -3.0990  1.0000</r>
       <r>  -3.0990  1.0000</r>
       <r>  -3.0949  1.0000</r>
       <r>  -1.7866  1.0000</r>
       <r>  -1.7820  1.0000</r>
       <r>  -1.7820  1.0000</r>
       <r>  -1.7649  1.0000</r>
       <r>  -1.7624  1.0000</r>
       <r>  -1.7514  1.0000</r>
       <r>  -1.7514  1.0000</r>
       <r>  -1.7490  1.0000</r>
       <r>  -0.2696  1.0000</r>
       <r>  -0.2619  1.0000</r>
       <r>  -0.2619  1.0000</r>
       <r>  -0.2100  1.0000</r>
       <r>  -0.2066  1.0000</r>
       <r>  -0.1881  1.0000</r>
       <r>  -0.1864  1.0000</r>
       <r>  -0.1864  1.0000</r>
       <r>   2.3104  1.0000</r>
       <r>   2.6236  1.0000</r>
       <r>   2.6236  1.0000</r>
       <r>   2.7374  1.0000</r>
       <r>   5.9495  0.0000</r>
       <r>   6.0503  0.0000</r>
       <r>   6.0503  0.0000</r>
       <r>   6.3209  0.0000</r>
       <r>  18.2969  0.0000</r>
       <r>  18.3333  0.0000</r>
       <r>  18.3333  0.0000</r>
       <r>  18.4161  0.0000</r>
      </set>
      <set comment="kpoint 1325">
       <r>  -3.1086  1.0000</r>
       <r>  -3.1086  1.0000</r>
       <r>  -3.1004  1.0000</r>
       <r>  -3.1004  1.0000</r>
       <r>  -1.7824  1.0000</r>
       <r>  -1.7824  1.0000</r>
       <r>  -1.7723  1.0000</r>
       <r>  -1.7723  1.0000</r>
       <r>  -1.7595  1.0000</r>
       <r>  -1.7595  1.0000</r>
       <r>  -1.7536  1.0000</r>
       <r>  -1.7536  1.0000</r>
       <r>  -0.2506  1.0000</r>
       <r>  -0.2506  1.0000</r>
       <r>  -0.2272  1.0000</r>
       <r>  -0.2272  1.0000</r>
       <r>  -0.1937  1.0000</r>
       <r>  -0.1937  1.0000</r>
       <r>  -0.1906  1.0000</r>
       <r>  -0.1906  1.0000</r>
       <r>   2.4676  1.0000</r>
       <r>   2.4676  1.0000</r>
       <r>   2.6874  1.0000</r>
       <r>   2.6874  1.0000</r>
       <r>   5.9734  0.0000</r>
       <r>   5.9734  0.0000</r>
       <r>   6.1656  0.0000</r>
       <r>   6.1656  0.0000</r>
       <r>  18.3221  0.0000</r>
       <r>  18.3221  0.0000</r>
       <r>  18.3826  0.0000</r>
       <r>  18.3826  0.0000</r>
      </set>
      <set comment="kpoint 1326">
       <r>  -3.1080  1.0000</r>
       <r>  -3.1080  1.0000</r>
       <r>  -3.1080  1.0000</r>
       <r>  -3.1080  1.0000</r>
       <r>  -1.7752  1.0000</r>
       <r>  -1.7752  1.0000</r>
       <r>  -1.7752  1.0000</r>
       <r>  -1.7752  1.0000</r>
       <r>  -1.7602  1.0000</r>
       <r>  -1.7602  1.0000</r>
       <r>  -1.7602  1.0000</r>
       <r>  -1.7602  1.0000</r>
       <r>  -0.2218  1.0000</r>
       <r>  -0.2218  1.0000</r>
       <r>  -0.2218  1.0000</r>
       <r>  -0.2218  1.0000</r>
       <r>  -0.1975  1.0000</r>
       <r>  -0.1975  1.0000</r>
       <r>  -0.1975  1.0000</r>
       <r>  -0.1975  1.0000</r>
       <r>   2.5813  1.0000</r>
       <r>   2.5813  1.0000</r>
       <r>   2.5813  1.0000</r>
       <r>   2.5813  1.0000</r>
       <r>   6.0460  0.0000</r>
       <r>   6.0460  0.0000</r>
       <r>   6.0460  0.0000</r>
       <r>   6.0460  0.0000</r>
       <r>  18.3592  0.0000</r>
       <r>  18.3592  0.0000</r>
       <r>  18.3592  0.0000</r>
       <r>  18.3592  0.0000</r>
      </set>
      <set comment="kpoint 1327">
       <r>  -3.1178  1.0000</r>
       <r>  -3.1096  1.0000</r>
       <r>  -3.1096  1.0000</r>
       <r>  -3.1096  1.0000</r>
       <r>  -1.7777  1.0000</r>
       <r>  -1.7777  1.0000</r>
       <r>  -1.7777  1.0000</r>
       <r>  -1.7668  1.0000</r>
       <r>  -1.7668  1.0000</r>
       <r>  -1.7601  1.0000</r>
       <r>  -1.7601  1.0000</r>
       <r>  -1.7601  1.0000</r>
       <r>  -0.2280  1.0000</r>
       <r>  -0.2280  1.0000</r>
       <r>  -0.2280  1.0000</r>
       <r>  -0.1950  1.0000</r>
       <r>  -0.1950  1.0000</r>
       <r>  -0.1840  1.0000</r>
       <r>  -0.1840  1.0000</r>
       <r>  -0.1840  1.0000</r>
       <r>   2.4242  1.0000</r>
       <r>   2.6445  1.0000</r>
       <r>   2.6445  1.0000</r>
       <r>   2.6445  1.0000</r>
       <r>   5.9695  0.0000</r>
       <r>   5.9695  0.0000</r>
       <r>   5.9695  0.0000</r>
       <r>   6.1605  0.0000</r>
       <r>  18.3570  0.0000</r>
       <r>  18.3570  0.0000</r>
       <r>  18.3570  0.0000</r>
       <r>  18.4102  0.0000</r>
      </set>
      <set comment="kpoint 1328">
       <r>  -3.1173  1.0000</r>
       <r>  -3.1173  1.0000</r>
       <r>  -3.1131  1.0000</r>
       <r>  -3.1131  1.0000</r>
       <r>  -1.7760  1.0000</r>
       <r>  -1.7760  1.0000</r>
       <r>  -1.7711  1.0000</r>
       <r>  -1.7711  1.0000</r>
       <r>  -1.7661  1.0000</r>
       <r>  -1.7661  1.0000</r>
       <r>  -1.7634  1.0000</r>
       <r>  -1.7634  1.0000</r>
       <r>  -0.2139  1.0000</r>
       <r>  -0.2139  1.0000</r>
       <r>  -0.2026  1.0000</r>
       <r>  -0.2026  1.0000</r>
       <r>  -0.1863  1.0000</r>
       <r>  -0.1863  1.0000</r>
       <r>  -0.1858  1.0000</r>
       <r>  -0.1858  1.0000</r>
       <r>   2.5378  1.0000</r>
       <r>   2.5378  1.0000</r>
       <r>   2.6517  1.0000</r>
       <r>   2.6517  1.0000</r>
       <r>   5.9422  0.0000</r>
       <r>   5.9422  0.0000</r>
       <r>   6.0416  0.0000</r>
       <r>   6.0416  0.0000</r>
       <r>  18.3635  0.0000</r>
       <r>  18.3635  0.0000</r>
       <r>  18.3908  0.0000</r>
       <r>  18.3908  0.0000</r>
      </set>
      <set comment="kpoint 1329">
       <r>  -3.1188  1.0000</r>
       <r>  -3.1188  1.0000</r>
       <r>  -3.1188  1.0000</r>
       <r>  -3.1188  1.0000</r>
       <r>  -1.7718  1.0000</r>
       <r>  -1.7718  1.0000</r>
       <r>  -1.7718  1.0000</r>
       <r>  -1.7718  1.0000</r>
       <r>  -1.7680  1.0000</r>
       <r>  -1.7680  1.0000</r>
       <r>  -1.7680  1.0000</r>
       <r>  -1.7680  1.0000</r>
       <r>  -0.1940  1.0000</r>
       <r>  -0.1940  1.0000</r>
       <r>  -0.1940  1.0000</r>
       <r>  -0.1940  1.0000</r>
       <r>  -0.1879  1.0000</r>
       <r>  -0.1879  1.0000</r>
       <r>  -0.1879  1.0000</r>
       <r>  -0.1879  1.0000</r>
       <r>   2.6007  1.0000</r>
       <r>   2.6007  1.0000</r>
       <r>   2.6007  1.0000</r>
       <r>   2.6007  1.0000</r>
       <r>   5.9657  0.0000</r>
       <r>   5.9657  0.0000</r>
       <r>   5.9657  0.0000</r>
       <r>   5.9657  0.0000</r>
       <r>  18.3837  0.0000</r>
       <r>  18.3837  0.0000</r>
       <r>  18.3837  0.0000</r>
       <r>  18.3837  0.0000</r>
      </set>
      <set comment="kpoint 1330">
       <r>  -3.1223  1.0000</r>
       <r>  -3.1223  1.0000</r>
       <r>  -3.1223  1.0000</r>
       <r>  -3.1223  1.0000</r>
       <r>  -1.7706  1.0000</r>
       <r>  -1.7706  1.0000</r>
       <r>  -1.7706  1.0000</r>
       <r>  -1.7706  1.0000</r>
       <r>  -1.7706  1.0000</r>
       <r>  -1.7706  1.0000</r>
       <r>  -1.7706  1.0000</r>
       <r>  -1.7706  1.0000</r>
       <r>  -0.1847  1.0000</r>
       <r>  -0.1847  1.0000</r>
       <r>  -0.1847  1.0000</r>
       <r>  -0.1847  1.0000</r>
       <r>  -0.1847  1.0000</r>
       <r>  -0.1847  1.0000</r>
       <r>  -0.1847  1.0000</r>
       <r>  -0.1847  1.0000</r>
       <r>   2.6075  1.0000</r>
       <r>   2.6075  1.0000</r>
       <r>   2.6075  1.0000</r>
       <r>   2.6075  1.0000</r>
       <r>   5.9385  0.0000</r>
       <r>   5.9385  0.0000</r>
       <r>   5.9385  0.0000</r>
       <r>   5.9385  0.0000</r>
       <r>  18.3902  0.0000</r>
       <r>  18.3902  0.0000</r>
       <r>  18.3902  0.0000</r>
       <r>  18.3902  0.0000</r>
      </set>
     </set>
    </set>
   </array>
  </eigenvalues>
 </calculation>
 <structure name="finalpos" >
  <crystal>
   <varray name="basis" >
    <v>       4.20540682      0.00000000      0.00000000</v>
    <v>       0.00000000      4.20540682      0.00000000</v>
    <v>       0.00000000      0.00000000      4.20540682</v>
   </varray>
   <i name="volume">     74.37449729</i>
   <varray name="rec_basis" >
    <v>       0.23778912      0.00000000      0.00000000</v>
    <v>       0.00000000      0.23778912      0.00000000</v>
    <v>       0.00000000      0.00000000      0.23778912</v>
   </varray>
  </crystal>
  <varray name="positions" >
   <v>       0.00000000      0.00000000      0.00000000</v>
   <v>       0.50000000      0.50000000      0.00000000</v>
   <v>       0.50000000      0.00000000      0.50000000</v>
   <v>       0.00000000      0.50000000      0.50000000</v>
  </varray>
 </structure>
</modeling>
