   4   4   0   0
  0.1749193E+02  0.4120652E-09  0.4120652E-09  0.4120652E-09  0.5000000E-15
  1.000000000000000E-004
  CAR 
 unknown system                          
     19.47160409     -4.41893774  301      7.40895134      1.00000000
     -4.419  0.0000E+00  0.0000E+00
     -4.339  0.0000E+00  0.0000E+00
     -4.260  0.0000E+00  0.0000E+00
     -4.180  0.0000E+00  0.0000E+00
     -4.100  0.0000E+00  0.0000E+00
     -4.021  0.0000E+00  0.0000E+00
     -3.941  0.0000E+00  0.0000E+00
     -3.861  0.0000E+00  0.0000E+00
     -3.782  0.0000E+00  0.0000E+00
     -3.702  0.0000E+00  0.0000E+00
     -3.623  0.0000E+00  0.0000E+00
     -3.543  0.0000E+00  0.0000E+00
     -3.463  0.0000E+00  0.0000E+00
     -3.384  0.2073E-15  0.1651E-16
     -3.304  0.1995E-01  0.1588E-02
     -3.224  0.1208E+00  0.1135E-01
     -3.145  0.1918E+00  0.2679E-01
     -3.065  0.2209E+00  0.4470E-01
     -2.986  0.2730E+00  0.6657E-01
     -2.906  0.2895E+00  0.9034E-01
     -2.826  0.3484E+00  0.1184E+00
     -2.747  0.3324E+00  0.1461E+00
     -2.667  0.3697E+00  0.1761E+00
     -2.587  0.4156E+00  0.2112E+00
     -2.508  0.4047E+00  0.2444E+00
     -2.428  0.4685E+00  0.2827E+00
     -2.348  0.4288E+00  0.3183E+00
     -2.269  0.4802E+00  0.3585E+00
     -2.189  0.5008E+00  0.3996E+00
     -2.110  0.5311E+00  0.4437E+00
     -2.030  0.4953E+00  0.4853E+00
     -1.950  0.5647E+00  0.5337E+00
     -1.871  0.5158E+00  0.5785E+00
     -1.791  0.6069E+00  0.6290E+00
     -1.711  0.5305E+00  0.6755E+00
     -1.632  0.6290E+00  0.7284E+00
     -1.552  0.5981E+00  0.7795E+00
     -1.472  0.6367E+00  0.8348E+00
     -1.393  0.5821E+00  0.8845E+00
     -1.313  0.7017E+00  0.9452E+00
     -1.234  0.6521E+00  0.1000E+01
     -1.154  0.6656E+00  0.1059E+01
     -1.074  0.5997E+00  0.1113E+01
     -0.995  0.7837E+00  0.1179E+01
     -0.915  0.6495E+00  0.1235E+01
     -0.835  0.8073E+00  0.1304E+01
     -0.756  0.6366E+00  0.1361E+01
     -0.676  0.7786E+00  0.1427E+01
     -0.596  0.7973E+00  0.1494E+01
     -0.517  0.7553E+00  0.1558E+01
     -0.437  0.8376E+00  0.1626E+01
     -0.358  0.7890E+00  0.1693E+01
     -0.278  0.8356E+00  0.1765E+01
     -0.198  0.8815E+00  0.1838E+01
     -0.119  0.7342E+00  0.1899E+01
     -0.039  0.1013E+01  0.1982E+01
      0.041  0.8317E+00  0.2051E+01
      0.120  0.8400E+00  0.2122E+01
      0.200  0.9690E+00  0.2201E+01
      0.280  0.8002E+00  0.2270E+01
      0.359  0.1037E+01  0.2353E+01
      0.439  0.9298E+00  0.2429E+01
      0.518  0.8803E+00  0.2500E+01
      0.598  0.1043E+01  0.2586E+01
      0.678  0.1039E+01  0.2669E+01
      0.757  0.9717E+00  0.2748E+01
      0.837  0.1007E+01  0.2830E+01
      0.917  0.9883E+00  0.2910E+01
      0.996  0.1104E+01  0.2998E+01
      1.076  0.1066E+01  0.3083E+01
      1.156  0.9568E+00  0.3164E+01
      1.235  0.1019E+01  0.3251E+01
      1.315  0.1070E+01  0.3343E+01
      1.394  0.1003E+01  0.3429E+01
      1.474  0.9931E+00  0.3511E+01
      1.554  0.1101E+01  0.3604E+01
      1.633  0.1131E+01  0.3700E+01
      1.713  0.1040E+01  0.3787E+01
      1.793  0.1101E+01  0.3877E+01
      1.872  0.1064E+01  0.3965E+01
      1.952  0.1114E+01  0.4056E+01
      2.032  0.1365E+01  0.4166E+01
      2.111  0.1064E+01  0.4254E+01
      2.191  0.1103E+01  0.4344E+01
      2.270  0.1180E+01  0.4442E+01
      2.350  0.1215E+01  0.4542E+01
      2.430  0.1200E+01  0.4639E+01
      2.509  0.1204E+01  0.4738E+01
      2.589  0.1082E+01  0.4829E+01
      2.669  0.1376E+01  0.4941E+01
      2.748  0.1163E+01  0.5036E+01
      2.828  0.1225E+01  0.5139E+01
      2.907  0.1234E+01  0.5241E+01
      2.987  0.1129E+01  0.5333E+01
      3.067  0.1454E+01  0.5450E+01
      3.146  0.1252E+01  0.5553E+01
      3.226  0.1320E+01  0.5663E+01
      3.306  0.1179E+01  0.5759E+01
      3.385  0.1369E+01  0.5872E+01
      3.465  0.1313E+01  0.5981E+01
      3.545  0.1376E+01  0.6095E+01
      3.624  0.1227E+01  0.6196E+01
      3.704  0.1391E+01  0.6309E+01
      3.783  0.1369E+01  0.6423E+01
      3.863  0.1248E+01  0.6526E+01
      3.943  0.1505E+01  0.6649E+01
      4.022  0.1286E+01  0.6758E+01
      4.102  0.1458E+01  0.6878E+01
      4.182  0.1398E+01  0.6992E+01
      4.261  0.1332E+01  0.7102E+01
      4.341  0.1559E+01  0.7230E+01
      4.421  0.1375E+01  0.7345E+01
      4.500  0.1362E+01  0.7458E+01
      4.580  0.1489E+01  0.7583E+01
      4.659  0.1661E+01  0.7717E+01
      4.739  0.1494E+01  0.7839E+01
      4.819  0.1517E+01  0.7961E+01
      4.898  0.1667E+01  0.8097E+01
      4.978  0.1478E+01  0.8217E+01
      5.058  0.1502E+01  0.8341E+01
      5.137  0.1436E+01  0.8462E+01
      5.217  0.1618E+01  0.8596E+01
      5.297  0.1266E+01  0.8700E+01
      5.376  0.1603E+01  0.8828E+01
      5.456  0.1368E+01  0.8943E+01
      5.535  0.1444E+01  0.9061E+01
      5.615  0.1430E+01  0.9180E+01
      5.695  0.1435E+01  0.9298E+01
      5.774  0.1206E+01  0.9400E+01
      5.854  0.1407E+01  0.9518E+01
      5.934  0.1495E+01  0.9641E+01
      6.013  0.1440E+01  0.9759E+01
      6.093  0.1477E+01  0.9880E+01
      6.173  0.1472E+01  0.1000E+02
      6.252  0.1503E+01  0.1012E+02
      6.332  0.1682E+01  0.1026E+02
      6.411  0.1317E+01  0.1037E+02
      6.491  0.1743E+01  0.1051E+02
      6.571  0.1424E+01  0.1063E+02
      6.650  0.1653E+01  0.1076E+02
      6.730  0.1558E+01  0.1089E+02
      6.810  0.1575E+01  0.1102E+02
      6.889  0.1484E+01  0.1114E+02
      6.969  0.1654E+01  0.1128E+02
      7.049  0.1625E+01  0.1141E+02
      7.128  0.1563E+01  0.1154E+02
      7.208  0.1359E+01  0.1166E+02
      7.287  0.1686E+01  0.1180E+02
      7.367  0.1771E+01  0.1194E+02
      7.447  0.1630E+01  0.1208E+02
      7.526  0.1598E+01  0.1220E+02
      7.606  0.1563E+01  0.1233E+02
      7.686  0.1727E+01  0.1247E+02
      7.765  0.1616E+01  0.1261E+02
      7.845  0.1744E+01  0.1275E+02
      7.925  0.1651E+01  0.1288E+02
      8.004  0.1764E+01  0.1303E+02
      8.084  0.1728E+01  0.1317E+02
      8.163  0.1682E+01  0.1331E+02
      8.243  0.1606E+01  0.1344E+02
      8.323  0.1611E+01  0.1358E+02
      8.402  0.1881E+01  0.1373E+02
      8.482  0.1698E+01  0.1387E+02
      8.562  0.1797E+01  0.1402E+02
      8.641  0.1600E+01  0.1415E+02
      8.721  0.1831E+01  0.1430E+02
      8.800  0.1640E+01  0.1443E+02
      8.880  0.1869E+01  0.1459E+02
      8.960  0.1724E+01  0.1473E+02
      9.039  0.1731E+01  0.1487E+02
      9.119  0.1889E+01  0.1503E+02
      9.199  0.1834E+01  0.1518E+02
      9.278  0.1580E+01  0.1531E+02
      9.358  0.1616E+01  0.1545E+02
      9.438  0.2151E+01  0.1562E+02
      9.517  0.1882E+01  0.1578E+02
      9.597  0.1856E+01  0.1593E+02
      9.676  0.1656E+01  0.1607E+02
      9.756  0.1797E+01  0.1621E+02
      9.836  0.1890E+01  0.1637E+02
      9.915  0.1887E+01  0.1652E+02
      9.995  0.1947E+01  0.1668E+02
     10.075  0.1625E+01  0.1682E+02
     10.154  0.2087E+01  0.1699E+02
     10.234  0.1653E+01  0.1713E+02
     10.314  0.2047E+01  0.1729E+02
     10.393  0.1853E+01  0.1745E+02
     10.473  0.1985E+01  0.1761E+02
     10.552  0.1871E+01  0.1776E+02
     10.632  0.2114E+01  0.1794E+02
     10.712  0.1765E+01  0.1808E+02
     10.791  0.1856E+01  0.1824E+02
     10.871  0.2082E+01  0.1841E+02
     10.951  0.1948E+01  0.1857E+02
     11.030  0.1918E+01  0.1873E+02
     11.110  0.1912E+01  0.1888E+02
     11.190  0.2171E+01  0.1906E+02
     11.269  0.1698E+01  0.1920E+02
     11.349  0.2247E+01  0.1939E+02
     11.428  0.2120E+01  0.1956E+02
     11.508  0.1789E+01  0.1971E+02
     11.588  0.1932E+01  0.1987E+02
     11.667  0.2307E+01  0.2006E+02
     11.747  0.1895E+01  0.2021E+02
     11.827  0.2059E+01  0.2038E+02
     11.906  0.2200E+01  0.2057E+02
     11.986  0.2057E+01  0.2074E+02
     12.066  0.1905E+01  0.2089E+02
     12.145  0.2072E+01  0.2106E+02
     12.225  0.2126E+01  0.2124E+02
     12.304  0.2222E+01  0.2142E+02
     12.384  0.2213E+01  0.2160E+02
     12.464  0.2281E+01  0.2179E+02
     12.543  0.2028E+01  0.2196E+02
     12.623  0.2334E+01  0.2215E+02
     12.703  0.2415E+01  0.2235E+02
     12.782  0.2126E+01  0.2253E+02
     12.862  0.2467E+01  0.2273E+02
     12.942  0.2454E+01  0.2293E+02
     13.021  0.2280E+01  0.2312E+02
     13.101  0.2227E+01  0.2330E+02
     13.180  0.2350E+01  0.2350E+02
     13.260  0.2374E+01  0.2369E+02
     13.340  0.2322E+01  0.2388E+02
     13.419  0.2059E+01  0.2405E+02
     13.499  0.2309E+01  0.2424E+02
     13.579  0.2205E+01  0.2442E+02
     13.658  0.2232E+01  0.2460E+02
     13.738  0.2409E+01  0.2480E+02
     13.818  0.2043E+01  0.2496E+02
     13.897  0.2198E+01  0.2515E+02
     13.977  0.1977E+01  0.2531E+02
     14.056  0.2196E+01  0.2549E+02
     14.136  0.1944E+01  0.2565E+02
     14.216  0.2341E+01  0.2584E+02
     14.295  0.2218E+01  0.2602E+02
     14.375  0.2103E+01  0.2619E+02
     14.455  0.1925E+01  0.2636E+02
     14.534  0.2080E+01  0.2653E+02
     14.614  0.2153E+01  0.2671E+02
     14.693  0.2055E+01  0.2688E+02
     14.773  0.2200E+01  0.2706E+02
     14.853  0.1957E+01  0.2722E+02
     14.932  0.2144E+01  0.2740E+02
     15.012  0.2198E+01  0.2758E+02
     15.092  0.2232E+01  0.2776E+02
     15.171  0.1911E+01  0.2792E+02
     15.251  0.2060E+01  0.2809E+02
     15.331  0.1994E+01  0.2826E+02
     15.410  0.2061E+01  0.2842E+02
     15.490  0.2227E+01  0.2861E+02
     15.569  0.1942E+01  0.2877E+02
     15.649  0.1979E+01  0.2893E+02
     15.729  0.2082E+01  0.2910E+02
     15.808  0.1886E+01  0.2926E+02
     15.888  0.2134E+01  0.2943E+02
     15.968  0.1882E+01  0.2958E+02
     16.047  0.1608E+01  0.2972E+02
     16.127  0.1944E+01  0.2988E+02
     16.207  0.1838E+01  0.3003E+02
     16.286  0.1813E+01  0.3018E+02
     16.366  0.1488E+01  0.3030E+02
     16.445  0.1696E+01  0.3044E+02
     16.525  0.1591E+01  0.3057E+02
     16.605  0.1375E+01  0.3069E+02
     16.684  0.1562E+01  0.3081E+02
     16.764  0.1319E+01  0.3092E+02
     16.844  0.1115E+01  0.3101E+02
     16.923  0.1125E+01  0.3111E+02
     17.003  0.1126E+01  0.3120E+02
     17.083  0.1123E+01  0.3129E+02
     17.162  0.9855E+00  0.3137E+02
     17.242  0.1002E+01  0.3145E+02
     17.321  0.9186E+00  0.3153E+02
     17.401  0.8736E+00  0.3160E+02
     17.481  0.7794E+00  0.3167E+02
     17.560  0.7965E+00  0.3173E+02
     17.640  0.6847E+00  0.3179E+02
     17.720  0.5501E+00  0.3183E+02
     17.799  0.6199E+00  0.3188E+02
     17.879  0.4206E+00  0.3192E+02
     17.959  0.3086E+00  0.3194E+02
     18.038  0.2122E+00  0.3196E+02
     18.118  0.1363E+00  0.3197E+02
     18.197  0.1651E+00  0.3199E+02
     18.277  0.1138E+00  0.3200E+02
     18.357  0.3876E-01  0.3200E+02
     18.436  0.1292E-01  0.3200E+02
     18.516  0.0000E+00  0.3200E+02
     18.596  0.0000E+00  0.3200E+02
     18.675  0.0000E+00  0.3200E+02
     18.755  0.0000E+00  0.3200E+02
     18.835  0.0000E+00  0.3200E+02
     18.914  0.0000E+00  0.3200E+02
     18.994  0.0000E+00  0.3200E+02
     19.073  0.0000E+00  0.3200E+02
     19.153  0.0000E+00  0.3200E+02
     19.233  0.0000E+00  0.3200E+02
     19.312  0.0000E+00  0.3200E+02
     19.392  0.0000E+00  0.3200E+02
     19.472  0.0000E+00  0.3200E+02
