    4    4    1    1
  0.1749193E+02  0.4120652E-09  0.4120652E-09  0.4120652E-09  0.5000000E-15
  1.000000000000000E-004
  CAR 
 unknown system                          
   12 1330   16
 
  0.0000000E+00  0.0000000E+00  0.0000000E+00  0.2143347E-04
   1       -3.3330
   2        4.6214
   3        4.6214
   4        4.6214
   5        5.8070
   6        5.8070
   7        5.8070
   8       12.6470
   9       12.6470
  10       12.6470
  11       12.7332
  12       12.7332
  13       12.7332
  14       12.7332
  15       12.7332
  16       12.7332
 
  0.2777778E-01  0.0000000E+00  0.0000000E+00  0.1286008E-03
   1       -3.3263
   2        4.4677
   3        4.6276
   4        4.6276
   5        5.8136
   6        5.8136
   7        5.9725
   8       12.2451
   9       12.2451
  10       12.6536
  11       12.6776
  12       12.6776
  13       12.7390
  14       12.7390
  15       13.1476
  16       13.1476
 
  0.5555556E-01  0.0000000E+00  0.0000000E+00  0.1286008E-03
   1       -3.3061
   2        4.1378
   3        4.6462
   4        4.6462
   5        5.8333
   6        5.8333
   7        6.3377
   8       11.8156
   9       11.8156
  10       12.5229
  11       12.5229
  12       12.6735
  13       12.7563
  14       12.7563
  15       13.6144
  16       13.6144
 
  0.8333333E-01  0.0000000E+00  0.0000000E+00  0.1286008E-03
   1       -3.2725
   2        3.7563
   3        4.6772
   4        4.6772
   5        5.8663
   6        5.8663
   7        6.7779
   8       11.3979
   9       11.3979
  10       12.2957
  11       12.2957
  12       12.7067
  13       12.7852
  14       12.7852
  15       14.0942
  16       14.0942
 
  0.1111111E+00  0.0000000E+00  0.0000000E+00  0.1286008E-03
   1       -3.2254
   2        3.3633
   3        4.7206
   4        4.7206
   5        5.9123
   6        5.9123
   7        7.2532
   8       10.9925
   9       10.9925
  10       12.0225
  11       12.0225
  12       12.7531
  13       12.8256
  14       12.8256
  15       14.5865
  16       14.5865
 
  0.1388889E+00  0.0000000E+00  0.0000000E+00  0.1286008E-03
   1       -3.1649
   2        2.9715
   3        4.7763
   4        4.7763
   5        5.9715
   6        5.9715
   7        7.7507
   8       10.5996
   9       10.5996
  10       11.7225
  11       11.7225
  12       12.8128
  13       12.8776
  14       12.8776
  15       15.0911
  16       15.0911
 
  0.1666667E+00  0.0000000E+00  0.0000000E+00  0.1286008E-03
   1       -3.0910
   2        2.5862
   3        4.8445
   4        4.8445
   5        6.0436
   6        6.0436
   7        8.2652
   8       10.2192
   9       10.2192
  10       11.4086
  11       11.4086
  12       12.8856
  13       12.9411
  14       12.9411
  15       15.6080
  16       15.6080
 
  0.1944444E+00  0.0000000E+00  0.0000000E+00  0.1286008E-03
   1       -3.0037
   2        2.2097
   3        4.9251
   4        4.9251
   5        6.1288
   6        6.1288
   7        8.7943
   8        9.8513
   9        9.8513
  10       11.0888
  11       11.0888
  12       12.9717
  13       13.0162
  14       13.0162
  15       16.1369
  16       16.1388
 
  0.2222222E+00  0.0000000E+00  0.0000000E+00  0.1286008E-03
   1       -2.9030
   2        1.8434
   3        5.0181
   4        5.0181
   5        6.2267
   6        6.2267
   7        9.3365
   8        9.4960
   9        9.4960
  10       10.7686
  11       10.7686
  12       13.0710
  13       13.1029
  14       13.1029
  15       16.3355
  16       16.6779
 
  0.2500000E+00  0.0000000E+00  0.0000000E+00  0.1286008E-03
   1       -2.7890
   2        1.4880
   3        5.1235
   4        5.1235
   5        6.3374
   6        6.3374
   7        9.1532
   8        9.1532
   9        9.8912
  10       10.4515
  11       10.4515
  12       13.1834
  13       13.2011
  14       13.2011
  15       16.4373
  16       16.9367
 
  0.2777778E+00  0.0000000E+00  0.0000000E+00  0.1286008E-03
   1       -2.6617
   2        1.1440
   3        5.2413
   4        5.2413
   5        6.4606
   6        6.4606
   7        8.8229
   8        8.8229
   9       10.1399
  10       10.1399
  11       10.4577
  12       13.3090
  13       13.3109
  14       13.3109
  15       16.5505
  16       16.6334
 
  0.3055556E+00  0.0000000E+00  0.0000000E+00  0.1286008E-03
   1       -2.5211
   2        0.8118
   3        5.3716
   4        5.3716
   5        6.5961
   6        6.5961
   7        8.5052
   8        8.5052
   9        9.8357
  10        9.8357
  11       11.0355
  12       13.4322
  13       13.4322
  14       13.4477
  15       16.3407
  16       16.3407
 
  0.3333333E+00  0.0000000E+00  0.0000000E+00  0.1286008E-03
   1       -2.3672
   2        0.4916
   3        5.5143
   4        5.5143
   5        6.7436
   6        6.7436
   7        8.2000
   8        8.2000
   9        9.5405
  10        9.5405
  11       11.6244
  12       13.5651
  13       13.5651
  14       13.5994
  15       16.0590
  16       16.0590
 
  0.3611111E+00  0.0000000E+00  0.0000000E+00  0.1286008E-03
   1       -2.2002
   2        0.1836
   3        5.6694
   4        5.6694
   5        6.9023
   6        6.9023
   7        7.9074
   8        7.9074
   9        9.2557
  10        9.2557
  11       12.2240
  12       13.7096
  13       13.7096
  14       13.7641
  15       15.7884
  16       15.7884
 
  0.3888889E+00  0.0000000E+00  0.0000000E+00  0.1286008E-03
   1       -2.0200
   2       -0.1121
   3        5.8370
   4        5.8370
   5        7.0714
   6        7.0714
   7        7.6273
   8        7.6273
   9        8.9828
  10        8.9828
  11       12.8340
  12       13.8657
  13       13.8657
  14       13.9417
  15       15.5291
  16       15.5291
 
  0.4166667E+00  0.0000000E+00  0.0000000E+00  0.1286008E-03
   1       -1.8267
   2       -0.3952
   3        6.0171
   4        6.0171
   5        7.2485
   6        7.2485
   7        7.3598
   8        7.3598
   9        8.7245
  10        8.7245
  11       13.4540
  12       14.0333
  13       14.0333
  14       14.1322
  15       15.2810
  16       15.2810
 
  0.4444444E+00  0.0000000E+00  0.0000000E+00  0.1286008E-03
   1       -1.6204
   2       -0.6658
   3        6.2096
   4        6.2096
   5        7.1047
   6        7.1047
   7        7.4282
   8        7.4282
   9        8.4866
  10        8.4866
  11       14.0836
  12       14.2124
  13       14.2124
  14       14.3354
  15       15.0444
  16       15.0444
 
  0.4722222E+00  0.0000000E+00  0.0000000E+00  0.1286008E-03
   1       -1.4010
   2       -0.9237
   3        6.4147
   4        6.4147
   5        6.8622
   6        6.8622
   7        7.5923
   8        7.5923
   9        8.2876
  10        8.2876
  11       14.4032
  12       14.4032
  13       14.5513
  14       14.7223
  15       14.8191
  16       14.8191
 
  0.5000000E+00  0.0000000E+00  0.0000000E+00  0.6430041E-04
   1       -1.1688
   2       -1.1688
   3        6.6322
   4        6.6322
   5        6.6322
   6        6.6322
   7        7.6739
   8        7.6739
   9        8.1943
  10        8.1943
  11       14.6054
  12       14.6054
  13       14.6054
  14       14.6054
  15       14.7797
  16       14.7797
 
  0.2777778E-01  0.2777778E-01  0.0000000E+00  0.2572016E-03
   1       -3.3196
   2        4.4740
   3        4.4740
   4        4.6338
   5        5.8202
   6        5.9790
   7        5.9790
   8       12.0158
   9       12.2513
  10       12.2513
  11       12.6834
  12       12.6834
  13       12.7449
  14       13.1538
  15       13.1538
  16       13.2645
 
  0.5555556E-01  0.2777778E-01  0.0000000E+00  0.5144033E-03
   1       -3.2994
   2        4.1441
   3        4.4927
   4        4.6524
   5        5.8399
   6        5.9986
   7        6.3441
   8       11.6351
   9       11.8218
  10       12.2701
  11       12.5287
  12       12.6539
  13       12.7008
  14       13.1722
  15       13.6140
  16       13.6206
 
  0.8333333E-01  0.2777778E-01  0.0000000E+00  0.5144033E-03
   1       -3.2657
   2        3.7627
   3        4.5240
   4        4.6834
   5        5.8728
   6        6.0312
   7        6.7843
   8       11.2375
   9       11.4041
  10       12.3013
  11       12.3016
  12       12.4402
  13       12.7298
  14       13.2030
  15       14.0546
  16       14.1004
 
  0.1111111E+00  0.2777778E-01  0.0000000E+00  0.5144033E-03
   1       -3.2187
   2        3.3697
   3        4.5677
   4        4.7268
   5        5.9189
   6        6.0769
   7        7.2596
   8       10.8428
   9       10.9988
  10       12.0285
  11       12.1694
  12       12.3450
  13       12.7703
  14       13.2462
  15       14.5285
  16       14.5927
 
  0.1388889E+00  0.2777778E-01  0.0000000E+00  0.5144033E-03
   1       -3.1582
   2        2.9779
   3        4.6239
   4        4.7825
   5        5.9780
   6        6.1356
   7        7.7570
   8       10.4563
   9       10.6059
  10       11.7286
  11       11.8690
  12       12.4011
  13       12.8224
  14       13.3016
  15       15.0225
  16       15.0973
 
  0.1666667E+00  0.2777778E-01  0.0000000E+00  0.5144033E-03
   1       -3.0843
   2        2.5926
   3        4.6927
   4        4.8507
   5        6.0502
   6        6.2072
   7        8.2715
   8       10.0800
   9       10.2255
  10       11.4147
  11       11.5541
  12       12.4697
  13       12.8862
  14       13.3695
  15       15.5323
  16       15.6141
 
  0.1944444E+00  0.2777778E-01  0.0000000E+00  0.5144033E-03
   1       -2.9970
   2        2.2162
   3        4.7739
   4        4.9313
   5        6.1352
   6        6.2916
   7        8.8005
   8        9.7148
   9        9.8576
  10       11.0950
  11       11.2335
  12       12.5507
  13       12.9615
  14       13.4497
  15       16.0561
  16       16.1431
 
  0.2222222E+00  0.2777778E-01  0.0000000E+00  0.5144033E-03
   1       -2.8963
   2        1.8499
   3        4.8676
   4        5.0243
   5        6.2332
   6        6.3888
   7        9.3427
   8        9.3613
   9        9.5022
  10       10.7748
  11       10.9126
  12       12.6440
  13       13.0484
  14       13.5423
  15       16.4001
  16       16.5939
 
  0.2500000E+00  0.2777778E-01  0.0000000E+00  0.5144033E-03
   1       -2.7823
   2        1.4945
   3        4.9738
   4        5.1297
   5        6.3438
   6        6.4987
   7        9.0198
   8        9.1594
   9        9.8973
  10       10.4578
  11       10.5949
  12       12.7496
  13       13.1468
  14       13.6473
  15       16.5016
  16       16.6687
 
  0.2777778E+00  0.2777778E-01  0.0000000E+00  0.5144033E-03
   1       -2.6550
   2        1.1505
   3        5.0925
   4        5.2475
   5        6.4668
   6        6.6210
   7        8.6904
   8        8.8291
   9       10.1463
  10       10.2830
  11       10.4637
  12       12.8674
  13       13.2569
  14       13.7648
  15       16.3565
  16       16.5807
 
  0.3055556E+00  0.2777778E-01  0.0000000E+00  0.5144033E-03
   1       -2.5144
   2        0.8183
   3        5.2236
   4        5.3778
   5        6.6021
   6        6.7555
   7        8.3734
   8        8.5114
   9        9.8423
  10        9.9787
  11       11.0415
  12       12.9975
  13       13.3786
  14       13.8947
  15       16.0545
  16       16.2879
 
  0.3333333E+00  0.2777778E-01  0.0000000E+00  0.5144033E-03
   1       -2.3605
   2        0.4982
   3        5.3672
   4        5.5205
   5        6.7490
   6        6.9019
   7        8.0691
   8        8.2062
   9        9.5473
  10        9.6834
  11       11.6302
  12       13.1397
  13       13.5119
  14       14.0371
  15       15.7629
  16       16.0067
 
  0.3611111E+00  0.2777778E-01  0.0000000E+00  0.5144033E-03
   1       -2.1935
   2        0.1902
   3        5.5232
   4        5.6756
   5        6.9065
   6        7.0594
   7        7.7782
   8        7.9136
   9        9.2628
  10        9.3983
  11       12.2297
  12       13.2940
  13       13.6567
  14       14.1919
  15       15.4820
  16       15.7363
 
  0.3888889E+00  0.2777778E-01  0.0000000E+00  0.5144033E-03
   1       -2.0133
   2       -0.1055
   3        5.6917
   4        5.8432
   5        7.0703
   6        7.2270
   7        7.5041
   8        7.6335
   9        8.9905
  10        9.1248
  11       12.8394
  12       13.4603
  13       13.8133
  14       14.3593
  15       15.2119
  16       15.4771
 
  0.4166667E+00  0.2777778E-01  0.0000000E+00  0.5144033E-03
   1       -1.8200
   2       -0.3886
   3        5.8726
   4        6.0233
   5        7.1672
   6        7.3185
   7        7.3660
   8        7.4019
   9        8.7336
  10        8.8649
  11       13.4587
  12       13.6385
  13       13.9818
  14       14.5391
  15       14.9530
  16       15.2290
 
  0.4444444E+00  0.2777778E-01  0.0000000E+00  0.5144033E-03
   1       -1.6137
   2       -0.6592
   3        6.0658
   4        6.2159
   5        6.9565
   6        7.1109
   7        7.4583
   8        7.5769
   9        8.4997
  10        8.6227
  11       13.8285
  12       14.0810
  13       14.1684
  14       14.7052
  15       14.7315
  16       14.9922
 
  0.4722222E+00  0.2777778E-01  0.0000000E+00  0.5144033E-03
   1       -1.3944
   2       -0.9171
   3        6.2713
   4        6.4209
   5        6.7181
   6        6.8684
   7        7.6318
   8        7.7253
   9        8.3159
  10        8.4101
  11       14.0303
  12       14.3491
  13       14.4688
  14       14.7298
  15       14.7667
  16       14.9362
 
  0.5000000E+00  0.2777778E-01  0.0000000E+00  0.2572016E-03
   1       -1.1622
   2       -1.1622
   3        6.4889
   4        6.4889
   5        6.6384
   6        6.6384
   7        7.7563
   8        7.7563
   9        8.2731
  10        8.2731
  11       14.2438
  12       14.2438
  13       14.5525
  14       14.5525
  15       15.1533
  16       15.1533
 
  0.5555556E-01  0.5555556E-01  0.0000000E+00  0.2572016E-03
   1       -3.2792
   2        4.1630
   3        4.1630
   4        4.6710
   5        5.8597
   6        6.3635
   7        6.3635
   8       11.2892
   9       11.8405
  10       11.8405
  11       12.5462
  12       12.5462
  13       12.7797
  14       13.6391
  15       13.6391
  16       13.7004
 
  0.8333333E-01  0.5555556E-01  0.0000000E+00  0.5144033E-03
   1       -3.2456
   2        3.7818
   3        4.1946
   4        4.7020
   5        5.8926
   6        6.3958
   7        6.8035
   8       10.9095
   9       11.4228
  10       11.8717
  11       12.3193
  12       12.5754
  13       12.6940
  14       13.6699
  15       13.9824
  16       14.1189
 
  0.1111111E+00  0.5555556E-01  0.0000000E+00  0.5144033E-03
   1       -3.1985
   2        3.3889
   3        4.2388
   4        4.7453
   5        5.9386
   6        6.4410
   7        7.2786
   8       10.5253
   9       11.0174
  10       11.9152
  11       12.0464
  12       12.4690
  13       12.6163
  14       13.7132
  15       14.3886
  16       14.6112
 
  0.1388889E+00  0.5555556E-01  0.0000000E+00  0.5144033E-03
   1       -3.1380
   2        2.9972
   3        4.2957
   4        4.8011
   5        5.9976
   6        6.4990
   7        7.7760
   8       10.1455
   9       10.6245
  10       11.7466
  11       11.9713
  12       12.1856
  13       12.6688
  14       13.7687
  15       14.8493
  16       15.1158
 
  0.1666667E+00  0.5555556E-01  0.0000000E+00  0.5144033E-03
   1       -3.0641
   2        2.6120
   3        4.3651
   4        4.8693
   5        6.0697
   6        6.5698
   7        8.2903
   8        9.7736
   9       10.2441
  10       11.4330
  11       11.8778
  12       12.0397
  13       12.7330
  14       13.8366
  15       15.3397
  16       15.6326
 
  0.1944444E+00  0.5555556E-01  0.0000000E+00  0.5144033E-03
   1       -2.9768
   2        2.2356
   3        4.4472
   4        4.9499
   5        6.1547
   6        6.6533
   7        8.8192
   8        9.4114
   9        9.8762
  10       11.1135
  11       11.5605
  12       12.1206
  13       12.8089
  14       13.9169
  15       15.8507
  16       16.1615
 
  0.2222222E+00  0.5555556E-01  0.0000000E+00  0.5144033E-03
   1       -2.8762
   2        1.8694
   3        4.5419
   4        5.0429
   5        6.2524
   6        6.7494
   7        9.0599
   8        9.3612
   9        9.5209
  10       10.7935
  11       11.2413
  12       12.2138
  13       12.8964
  14       14.0096
  15       16.3783
  16       16.5841
 
  0.2500000E+00  0.5555556E-01  0.0000000E+00  0.5144033E-03
   1       -2.7622
   2        1.5140
   3        4.6491
   4        5.1483
   5        6.3628
   6        6.8580
   7        8.7198
   8        9.1781
   9        9.9156
  10       10.4767
  11       10.9247
  12       12.3194
  13       12.9956
  14       14.1145
  15       16.2732
  16       16.6835
 
  0.2777778E+00  0.5555556E-01  0.0000000E+00  0.5144033E-03
   1       -2.6349
   2        1.1701
   3        4.7689
   4        5.2661
   5        6.4854
   6        6.9790
   7        8.3916
   8        8.8478
   9       10.1656
  10       10.4818
  11       10.6137
  12       12.4373
  13       13.1065
  14       14.2319
  15       15.9565
  16       16.4317
 
  0.3055556E+00  0.5555556E-01  0.0000000E+00  0.5144033E-03
   1       -2.4943
   2        0.8380
   3        4.9012
   4        5.3964
   5        6.6198
   6        7.1119
   7        8.0759
   8        8.5301
   9        9.8620
  10       10.3100
  11       11.0593
  12       12.5675
  13       13.2290
  14       14.3616
  15       15.6502
  16       16.1411
 
  0.3333333E+00  0.5555556E-01  0.0000000E+00  0.5144033E-03
   1       -2.3405
   2        0.5178
   3        5.0461
   4        5.5391
   5        6.7646
   6        7.2564
   7        7.7739
   8        8.2249
   9        9.5677
  10       10.0151
  11       11.6476
  12       12.7100
  13       13.3633
  14       14.5036
  15       15.3547
  16       15.8607
 
  0.3611111E+00  0.5555556E-01  0.0000000E+00  0.5144033E-03
   1       -2.1735
   2        0.2099
   3        5.2034
   4        5.6943
   5        6.9154
   6        7.4116
   7        7.4900
   8        7.9323
   9        9.2843
  10        9.7302
  11       12.2464
  12       12.8647
  13       13.5094
  14       14.6580
  15       15.0703
  16       15.5909
 
  0.3888889E+00  0.5555556E-01  0.0000000E+00  0.5144033E-03
   1       -1.9933
   2       -0.0857
   3        5.3732
   4        5.8619
   5        7.0307
   6        7.2651
   7        7.5756
   8        7.6522
   9        9.0143
  10        9.4563
  11       12.8550
  12       13.0316
  13       13.6676
  14       14.7971
  15       14.8246
  16       15.3318
 
  0.4166667E+00  0.5555556E-01  0.0000000E+00  0.5144033E-03
   1       -1.8001
   2       -0.3689
   3        5.5554
   4        6.0419
   5        6.8865
   6        7.3227
   7        7.3846
   8        7.7436
   9        8.7630
  10        9.1947
  11       13.2106
  12       13.4707
  13       13.8402
  14       14.5353
  15       15.0036
  16       15.0836
 
  0.4444444E+00  0.5555556E-01  0.0000000E+00  0.5144033E-03
   1       -1.5938
   2       -0.6394
   3        5.7499
   4        6.2345
   5        6.6449
   6        7.1296
   7        7.4984
   8        7.8990
   9        8.5475
  10        8.9475
  11       13.4016
  12       13.9907
  13       14.1295
  14       14.2851
  15       14.8464
  16       15.1947
 
  0.4722222E+00  0.5555556E-01  0.0000000E+00  0.5144033E-03
   1       -1.3745
   2       -0.8972
   3        5.9566
   4        6.4052
   5        6.4395
   6        6.8870
   7        7.6888
   8        7.9714
   9        8.4383
  10        8.7196
  11       13.6047
  12       14.0465
  13       14.1999
  14       14.6203
  15       14.7500
  16       15.3980
 
  0.5000000E+00  0.5555556E-01  0.0000000E+00  0.2572016E-03
   1       -1.1423
   2       -1.1423
   3        6.1752
   4        6.1752
   5        6.6570
   6        6.6570
   7        7.8696
   8        7.8696
   9        8.5273
  10        8.5273
  11       13.8196
  12       13.8196
  13       14.4051
  14       14.4051
  15       15.3944
  16       15.3944
 
  0.8333333E-01  0.8333333E-01  0.0000000E+00  0.2572016E-03
   1       -3.2119
   2        3.8136
   3        3.8136
   4        4.7330
   5        5.9254
   6        6.8355
   7        6.8355
   8       10.5390
   9       11.4539
  10       11.4539
  11       12.3488
  12       12.3488
  13       12.8378
  14       14.0121
  15       14.1498
  16       14.1498
 
  0.1111111E+00  0.8333333E-01  0.0000000E+00  0.5144033E-03
   1       -3.1649
   2        3.4209
   3        3.8582
   4        4.7763
   5        5.9714
   6        6.8803
   7        7.3104
   8       10.1600
   9       11.0486
  10       11.4975
  11       12.0762
  12       12.3901
  13       12.7624
  14       14.1930
  15       14.2518
  16       14.6420
 
  0.1388889E+00  0.8333333E-01  0.0000000E+00  0.5144033E-03
   1       -3.1044
   2        3.0294
   3        3.9155
   4        4.8321
   5        6.0303
   6        6.9378
   7        7.8075
   8        9.7834
   9       10.6556
  10       11.5535
  11       11.7768
  12       12.4432
  13       12.5412
  14       14.2485
  15       14.6381
  16       15.1466
 
  0.1666667E+00  0.8333333E-01  0.0000000E+00  0.5144033E-03
   1       -3.0305
   2        2.6442
   3        3.9854
   4        4.9003
   5        6.1023
   6        7.0079
   7        8.3216
   8        9.4136
   9       10.2752
  10       11.4634
  11       11.6219
  12       12.2596
  13       12.5080
  14       14.3164
  15       15.0931
  16       15.6633
 
  0.1944444E+00  0.8333333E-01  0.0000000E+00  0.5144033E-03
   1       -2.9433
   2        2.2680
   3        4.0681
   4        4.9809
   5        6.1870
   6        7.0907
   7        8.8502
   8        9.0528
   9        9.9074
  10       11.1443
  11       11.7028
  12       11.9550
  13       12.5846
  14       14.3966
  15       15.5842
  16       16.1922
 
  0.2222222E+00  0.8333333E-01  0.0000000E+00  0.5144033E-03
   1       -2.8426
   2        1.9018
   3        4.1634
   4        5.0739
   5        6.2844
   6        7.1859
   7        8.7023
   8        9.3920
   9        9.5520
  10       10.8247
  11       11.6428
  12       11.7960
  13       12.6730
  14       14.4892
  15       16.0991
  16       16.2035
 
  0.2500000E+00  0.8333333E-01  0.0000000E+00  0.5144033E-03
   1       -2.7287
   2        1.5466
   3        4.2714
   4        5.1793
   5        6.3942
   6        7.2935
   7        8.3629
   8        9.2092
   9        9.9461
  10       10.5084
  11       11.3306
  12       11.9016
  13       12.7732
  14       14.5941
  15       15.8736
  16       16.5136
 
  0.2777778E+00  0.8333333E-01  0.0000000E+00  0.5144033E-03
   1       -2.6014
   2        1.2028
   3        4.3921
   4        5.2971
   5        6.5158
   6        7.4131
   7        8.0357
   8        8.8789
   9       10.1978
  10       10.5118
  11       11.0224
  12       12.0196
  13       12.8852
  14       14.7112
  15       15.5541
  16       16.2148
 
  0.3055556E+00  0.8333333E-01  0.0000000E+00  0.5144033E-03
   1       -2.4609
   2        0.8707
   3        4.5253
   4        5.4274
   5        6.6479
   6        7.5444
   7        7.7221
   8        8.5612
   9        9.8950
  10       10.7208
  11       11.0887
  12       12.1499
  13       13.0090
  14       14.8407
  15       15.2455
  16       15.9256
 
  0.3333333E+00  0.8333333E-01  0.0000000E+00  0.5144033E-03
   1       -2.3071
   2        0.5506
   3        4.6711
   4        5.5701
   5        6.7859
   6        7.4268
   7        7.6867
   8        8.2560
   9        9.6020
  10       10.4274
  11       11.6762
  12       12.2926
  13       13.1448
  14       14.9479
  15       14.9824
  16       15.6461
 
  0.3611111E+00  0.8333333E-01  0.0000000E+00  0.5144033E-03
   1       -2.1401
   2        0.2427
   3        4.8295
   4        5.7253
   5        6.8958
   6        7.1836
   7        7.8384
   8        7.9634
   9        9.3211
  10       10.1436
  11       12.2736
  12       12.4475
  13       13.2930
  14       14.6616
  15       15.1364
  16       15.3766
 
  0.3888889E+00  0.8333333E-01  0.0000000E+00  0.5144033E-03
   1       -1.9600
   2       -0.0528
   3        5.0003
   4        5.8929
   5        6.7785
   6        7.1916
   7        7.6833
   8        7.9957
   9        9.0568
  10        9.8702
  11       12.6146
  12       12.8785
  13       13.4555
  14       14.3868
  15       15.1175
  16       15.3026
 
  0.4166667E+00  0.8333333E-01  0.0000000E+00  0.5144033E-03
   1       -1.7668
   2       -0.3359
   3        5.1836
   4        6.0730
   5        6.5320
   6        7.3522
   7        7.4157
   8        8.1453
   9        8.8228
  10        9.6082
  11       12.7940
  12       13.4690
  13       13.6539
  14       14.1236
  15       14.8690
  16       15.4809
 
  0.4444444E+00  0.8333333E-01  0.0000000E+00  0.5144033E-03
   1       -1.5605
   2       -0.6063
   3        5.3792
   4        6.2655
   5        6.2811
   6        7.1606
   7        7.5398
   8        8.2282
   9        8.6785
  10        9.3589
  11       12.9855
  12       13.7804
  13       13.8722
  14       14.1524
  15       14.6313
  16       15.6712
 
  0.4722222E+00  0.8333333E-01  0.0000000E+00  0.5144033E-03
   1       -1.3413
   2       -0.8641
   3        5.5871
   4        6.0386
   5        6.4706
   6        6.9181
   7        7.7398
   8        8.1343
   9        8.7345
  10        9.1245
  11       13.1892
  12       13.6326
  13       13.9816
  14       14.4043
  15       14.7812
  16       15.8736
 
  0.5000000E+00  0.8333333E-01  0.0000000E+00  0.2572016E-03
   1       -1.1091
   2       -1.1091
   3        5.8070
   4        5.8070
   5        6.6881
   6        6.6881
   7        7.9444
   8        7.9444
   9        8.9101
  10        8.9101
  11       13.4049
  12       13.4049
  13       14.1880
  14       14.1880
  15       15.4245
  16       15.4245
 
  0.1111111E+00  0.1111111E+00  0.0000000E+00  0.2572016E-03
   1       -3.1179
   2        3.4657
   3        3.4657
   4        4.8197
   5        6.0172
   6        7.3548
   7        7.3548
   8        9.7838
   9       11.0921
  10       11.0921
  11       12.1179
  12       12.1179
  13       12.9191
  14       14.2475
  15       14.6852
  16       14.6852
 
  0.1388889E+00  0.1111111E+00  0.0000000E+00  0.5144033E-03
   1       -3.0574
   2        3.0744
   3        3.5233
   4        4.8755
   5        6.0760
   6        7.4119
   7        7.8516
   8        9.4087
   9       10.6992
  10       11.1481
  11       11.8190
  12       12.1715
  13       12.8554
  14       14.4677
  15       14.7407
  16       15.1897
 
  0.1666667E+00  0.1111111E+00  0.0000000E+00  0.5144033E-03
   1       -2.9836
   2        2.6894
   3        3.5936
   4        4.9437
   5        6.1477
   6        7.4815
   7        8.3654
   8        9.0398
   9       10.3188
  10       11.2165
  11       11.5061
  12       12.2371
  13       12.6432
  14       14.8085
  15       14.8472
  16       15.7064
 
  0.1944444E+00  0.1111111E+00  0.0000000E+00  0.5144033E-03
   1       -2.8963
   2        2.3133
   3        3.6767
   4        5.0243
   5        6.2321
   6        7.5636
   7        8.6795
   8        8.8936
   9        9.9509
  10       11.1874
  11       11.2974
  12       12.3145
  13       12.3692
  14       14.8886
  15       15.3033
  16       16.1574
 
  0.2222222E+00  0.1111111E+00  0.0000000E+00  0.5144033E-03
   1       -2.7957
   2        1.9473
   3        3.7726
   4        5.1173
   5        6.3289
   6        7.6580
   7        8.3295
   8        9.4350
   9        9.5956
  10       10.8684
  11       11.3907
  12       12.0724
  13       12.4039
  14       14.9811
  15       15.7994
  16       15.8131
 
  0.2500000E+00  0.1111111E+00  0.0000000E+00  0.5144033E-03
   1       -2.6818
   2        1.5922
   3        3.8811
   4        5.2227
   5        6.4377
   6        7.7644
   7        7.9910
   8        9.2527
   9        9.9885
  10       10.5528
  11       11.4963
  12       11.7689
  13       12.5052
  14       15.0858
  15       15.4808
  16       16.2570
 
  0.2777778E+00  0.1111111E+00  0.0000000E+00  0.5144033E-03
   1       -2.5545
   2        1.2484
   3        4.0024
   4        5.3406
   5        6.5569
   6        7.6657
   7        7.8827
   8        8.9225
   9       10.2431
  10       10.5535
  11       11.4662
  12       11.6144
  13       12.6186
  14       15.1594
  15       15.2028
  16       15.9545
 
  0.3055556E+00  0.1111111E+00  0.0000000E+00  0.5144033E-03
   1       -2.4140
   2        0.9165
   3        4.1363
   4        5.4708
   5        6.6821
   6        7.3585
   7        8.0120
   8        8.6047
   9        9.9418
  10       11.1294
  11       11.1684
  12       11.7448
  13       12.7441
  14       14.8490
  15       15.3320
  16       15.6664
 
  0.3333333E+00  0.1111111E+00  0.0000000E+00  0.5144033E-03
   1       -2.2603
   2        0.5965
   3        4.2829
   4        5.6136
   5        6.7827
   6        7.1001
   7        8.1510
   8        8.2995
   9        9.6514
  10       10.8777
  11       11.7152
  12       11.8875
  13       12.8823
  14       14.5499
  15       15.3874
  16       15.4734
 
  0.3611111E+00  0.1111111E+00  0.0000000E+00  0.5144033E-03
   1       -2.0934
   2        0.2887
   3        4.4420
   4        5.7687
   5        6.6737
   6        7.0754
   7        8.0069
   8        8.2964
   9        9.3761
  10       10.5958
  11       12.0426
  12       12.3087
  13       13.0351
  14       14.2624
  15       15.1180
  16       15.6270
 
  0.3888889E+00  0.1111111E+00  0.0000000E+00  0.5144033E-03
   1       -1.9133
   2       -0.0068
   3        4.6137
   4        5.9363
   5        6.4197
   6        7.2198
   7        7.7268
   8        8.4365
   9        9.1281
  10       10.3237
  11       12.2099
  12       12.8974
  13       13.2145
  14       13.9865
  15       14.8586
  16       15.7926
 
  0.4166667E+00  0.1111111E+00  0.0000000E+00  0.5144033E-03
   1       -1.7202