 running on    8 nodes
 distr:  one band on    1 nodes,    8 groups
 vasp.4.6.28 25Jul05 complex 
 POSCAR found :  1 types and    4 ions
 LDA part: xc-table for Pade appr. of Perdew
 POSCAR, INCAR and KPOINTS ok, starting setup
 WARNING: wrap around errors must be expected
 FFT: planning ...           1
 reading WAVECAR
 WARNING: random wavefunctions but no delay for mixing, default for NELMDL
 entering main loop
       N       E                     dE             d eps       ncg     rms          rms(c)
DAV:   1     0.133434377393E+02    0.13343E+02   -0.61206E+03 42560   0.990E+02
DAV:   2    -0.140692358249E+02   -0.27413E+02   -0.25692E+02 54992   0.109E+02
DAV:   3    -0.150076578162E+02   -0.93842E+00   -0.93028E+00 57080   0.149E+01
DAV:   4    -0.150147308759E+02   -0.70731E-02   -0.70713E-02 50944   0.154E+00
DAV:   5    -0.150148164991E+02   -0.85623E-04   -0.85623E-04 58216   0.175E-01    0.182E+00
DAV:   6    -0.149645049097E+02    0.50312E-01   -0.70176E-03 50808   0.428E-01    0.113E+00
DAV:   7    -0.149278849997E+02    0.36620E-01   -0.21377E-02 49152   0.709E-01    0.494E-02
DAV:   8    -0.149278925236E+02   -0.75239E-05   -0.15348E-04 56280   0.781E-02    0.129E-02
DAV:   9    -0.149278953074E+02   -0.27838E-05   -0.42917E-06 55160   0.100E-02    0.126E-03
DAV:  10    -0.149278941567E+02    0.11507E-05   -0.54652E-08 57672   0.160E-03    0.302E-04
DAV:  11    -0.149278939897E+02    0.16694E-06   -0.14875E-09 39696   0.231E-04    0.296E-05
DAV:  12    -0.149278940239E+02   -0.34187E-07   -0.20693E-10 33280   0.883E-05    0.818E-06
DAV:  13    -0.149278940239E+02   -0.10544E-10   -0.39896E-11 29880   0.314E-05
   1 F= -.14927894E+02 E0= -.14927827E+02  d E =-.133479E-03
