 vasp.4.6.28 25Jul05 complex 
 executed on             LinuxIFC date 2017.01.14  08:54:28
 running on    8 nodes
 distr:  one band on    1 nodes,    8 groups


--------------------------------------------------------------------------------------------------------


 INCAR:
 POTCAR:   PAW_PBE Al 04Jan2001                   
 POTCAR:   PAW_PBE Al 04Jan2001                   
   VRHFIN =Al: s2p1                                                             
   LEXCH  = PE                                                                  
   EATOM  =    53.5387 eV,    3.9350 Ry                                         
                                                                                
   TITEL  = PAW_PBE Al 04Jan2001                                                
   LULTRA =        F    use ultrasoft PP ?                                      
   IUNSCR =        1    unscreen: 0-lin 1-nonlin 2-no                           
   RPACOR =    1.500    partial core radius                                     
   POMASS =   26.982; ZVAL   =    3.000    mass and valenz                      
   RCORE  =    1.900    outmost cutoff radius                                   
   RWIGS  =    2.650; RWIGS  =    1.402    wigner-seitz radius (au A)           
   ENMAX  =  240.300; ENMIN  =  180.225 eV                                      
   ICORE  =        2    local potential                                         
   LCOR   =        T    correct aug charges                                     
   LPAW   =        T    paw PP                                                  
   EAUG   =  291.052                                                            
   DEXC   =    -.041                                                            
   RMAX   =    2.974    core radius for proj-oper                               
   RAUG   =    1.300    factor for augmentation sphere                          
   RDEP   =    1.966    radius for radial grids                                 
   QCUT   =   -4.203; QGAM   =    8.405    optimization parameters              
                                                                                
   Description                                                                  
     l     E      TYP  RCUT    TYP  RCUT                                        
     0   .000     23  1.900                                                     
     0   .000     23  1.900                                                     
     1   .000     23  1.900                                                     
     1  1.000     23  1.900                                                     
     2   .000      7  1.900                                                     
  local pseudopotential read in
  partial core-charges read in
  atomic valenz-charges read in
  non local Contribution for L=           0  read in
    real space projection operators read in
  non local Contribution for L=           0  read in
    real space projection operators read in
  non local Contribution for L=           1  read in
    real space projection operators read in
  non local Contribution for L=           1  read in
    real space projection operators read in
    PAW grid and wavefunctions read in
 
   number of l-projection  operators is LMAX  =           4
   number of lm-projection operators is LMMAX =           8
 
 PAW_PBE Al 04Jan2001                   :
 energy of atom  1       EATOM=  -53.5387
 kinetic energy error for atom=    0.0000 (will be added to EATOM!!)
 
 EXHCAR: internal setup
 exchange correlation table for  LEXCH =        8
   RHO(1)=    0.500       N(1)  =     2000
   RHO(2)=  100.500       N(2)  =     4000
 
 POSCAR: Al                                      
  positions in direct lattice
  No initial velocities read in
 


--------------------------------------------------------------------------------------------------------


 ion  position               nearest neighbor table
   1  0.500  0.500  0.000-   2 2.91   3 2.91   4 2.91   2 2.91   3 2.91   2 2.91   4 2.91   2 2.91
                             3 2.91   4 2.91   3 2.91   4 2.91
   2  0.500  0.000  0.500-   1 2.91   3 2.91   4 2.91   1 2.91   4 2.91   1 2.91   3 2.91   1 2.91
                             3 2.91   4 2.91   4 2.91   3 2.91
   3  0.000  0.500  0.500-   1 2.91   2 2.91   4 2.91   1 2.91   4 2.91   2 2.91   4 2.91   4 2.91
                             1 2.91   2 2.91   1 2.91   2 2.91
   4  0.000  0.000  0.000-   1 2.91   2 2.91   3 2.91   2 2.91   3 2.91   1 2.91   3 2.91   3 2.91
                             1 2.91   2 2.91   2 2.91   1 2.91
 
  LATTYP: Found a simple cubic cell.
 ALAT       =     4.1206519769
  
  Lattice vectors:
  
 A1 = (   4.1206519769,   0.0000000000,   0.0000000000)
 A2 = (   0.0000000000,   4.1206519769,   0.0000000000)
 A3 = (   0.0000000000,   0.0000000000,   4.1206519769)
 Subroutine PRICEL returns following result:
 
  LATTYP: Found a face centered cubic cell.
 ALAT       =     4.1206519769
  
  Lattice vectors:
  
 A1 = (   2.0603259884,   2.0603259884,  -0.0000000000)
 A2 = (   2.0603259884,   0.0000000000,  -2.0603259884)
 A3 = (   0.0000000000,   2.0603259884,  -2.0603259884)
 
   4 primitive cells build up your supercell.
 

Analysis of symmetry for initial positions (statically):

 Routine SETGRP: Setting up the symmetry group for a 
 simple cubic supercell.


 Subroutine GETGRP returns: Found 48 space group operations
 (whereof 48 operations were pure point group operations)
 out of a pool of 48 trial point group operations.


The static configuration has the point symmetry O_h .

Analysis of symmetry for dynamics (positions and initial velocities):

 Subroutine DYNSYM returns: Found 48 space group operations
 (whereof 48 operations were pure point group operations)
 out of a pool of 48 trial space group operations
 (whereof 48 operations were pure point group operations)
 and found also     4 'primitive' translations


The dynamic configuration has the point symmetry O_h .
 
 
 KPOINTS: Automatic mesh                          

Automatic generation of k-mesh.
 
 Subroutine IBZKPT returns following result:
 ===========================================
 
 Found   1330 irreducible k-points:
 
 Following reciprocal coordinates:
            Coordinates               Weight
  0.000000  0.000000  0.000000      1.000000
  0.027778  0.000000  0.000000      6.000000
  0.055556  0.000000  0.000000      6.000000
  0.083333  0.000000  0.000000      6.000000
  0.111111  0.000000  0.000000      6.000000
  0.138889  0.000000  0.000000      6.000000
  0.166667  0.000000  0.000000      6.000000
  0.194444  0.000000  0.000000      6.000000
  0.222222  0.000000  0.000000      6.000000
  0.250000  0.000000  0.000000      6.000000
  0.277778  0.000000  0.000000      6.000000
  0.305556  0.000000  0.000000      6.000000
  0.333333  0.000000  0.000000      6.000000
  0.361111  0.000000  0.000000      6.000000
  0.388889  0.000000  0.000000      6.000000
  0.416667  0.000000  0.000000      6.000000
  0.444444  0.000000  0.000000      6.000000
  0.472222  0.000000  0.000000      6.000000
  0.500000  0.000000  0.000000      3.000000
  0.027778  0.027778  0.000000     12.000000
  0.055556  0.027778  0.000000     24.000000
  0.083333  0.027778  0.000000     24.000000
  0.111111  0.027778  0.000000     24.000000
  0.138889  0.027778  0.000000     24.000000
  0.166667  0.027778  0.000000     24.000000
  0.194444  0.027778  0.000000     24.000000
  0.222222  0.027778  0.000000     24.000000
  0.250000  0.027778  0.000000     24.000000
  0.277778  0.027778  0.000000     24.000000
  0.305556  0.027778  0.000000     24.000000
  0.333333  0.027778  0.000000     24.000000
  0.361111  0.027778  0.000000     24.000000
  0.388889  0.027778  0.000000     24.000000
  0.416667  0.027778  0.000000     24.000000
  0.444444  0.027778  0.000000     24.000000
  0.472222  0.027778  0.000000     24.000000
  0.500000  0.027778  0.000000     12.000000
  0.055556  0.055556  0.000000     12.000000
  0.083333  0.055556  0.000000     24.000000
  0.111111  0.055556  0.000000     24.000000
  0.138889  0.055556  0.000000     24.000000
  0.166667  0.055556  0.000000     24.000000
  0.194444  0.055556  0.000000     24.000000
  0.222222  0.055556  0.000000     24.000000
  0.250000  0.055556  0.000000     24.000000
  0.277778  0.055556  0.000000     24.000000
  0.305556  0.055556  0.000000     24.000000
  0.333333  0.055556  0.000000     24.000000
  0.361111  0.055556  0.000000     24.000000
  0.388889  0.055556  0.000000     24.000000
  0.416667  0.055556  0.000000     24.000000
  0.444444  0.055556  0.000000     24.000000
  0.472222  0.055556  0.000000     24.000000
  0.500000  0.055556  0.000000     12.000000
  0.083333  0.083333  0.000000     12.000000
  0.111111  0.083333  0.000000     24.000000
  0.138889  0.083333  0.000000     24.000000
  0.166667  0.083333  0.000000     24.000000
  0.194444  0.083333  0.000000     24.000000
  0.222222  0.083333  0.000000     24.000000
  0.250000  0.083333  0.000000     24.000000
  0.277778  0.083333  0.000000     24.000000
  0.305556  0.083333  0.000000     24.000000
  0.333333  0.083333  0.000000     24.000000
  0.361111  0.083333  0.000000     24.000000
  0.388889  0.083333  0.000000     24.000000
  0.416667  0.083333  0.000000     24.000000
  0.444444  0.083333  0.000000     24.000000
  0.472222  0.083333  0.000000     24.000000
  0.500000  0.083333  0.000000     12.000000
  0.111111  0.111111  0.000000     12.000000
  0.138889  0.111111  0.000000     24.000000
  0.166667  0.111111  0.000000     24.000000
  0.194444  0.111111  0.000000     24.000000
  0.222222  0.111111  0.000000     24.000000
  0.250000  0.111111  0.000000     24.000000
  0.277778  0.111111  0.000000     24.000000
  0.305556  0.111111  0.000000     24.000000
  0.333333  0.111111  0.000000     24.000000
  0.361111  0.111111  0.000000     24.000000
  0.388889  0.111111  0.000000     24.000000
  0.416667  0.111111  0.000000     24.000000
  0.444444  0.111111  0.000000     24.000000
  0.472222  0.111111  0.000000     24.000000
  0.500000  0.111111  0.000000     12.000000
  0.138889  0.138889  0.000000     12.000000
  0.166667  0.138889  0.000000     24.000000
  0.194444  0.138889  0.000000     24.000000
  0.222222  0.138889  0.000000     24.000000
  0.250000  0.138889  0.000000     24.000000
  0.277778  0.138889  0.000000     24.000000
  0.305556  0.138889  0.000000     24.000000
  0.333333  0.138889  0.000000     24.000000
  0.361111  0.138889  0.000000     24.000000
  0.388889  0.138889  0.000000     24.000000
  0.416667  0.138889  0.000000     24.000000
  0.444444  0.138889  0.000000     24.000000
  0.472222  0.138889  0.000000     24.000000
  0.500000  0.138889  0.000000     12.000000
  0.166667  0.166667  0.000000     12.000000
  0.194444  0.166667  0.000000     24.000000
  0.222222  0.166667  0.000000     24.000000
  0.250000  0.166667  0.000000     24.000000
  0.277778  0.166667  0.000000     24.000000
  0.305556  0.166667  0.000000     24.000000
  0.333333  0.166667  0.000000     24.000000
  0.361111  0.166667  0.000000     24.000000
  0.388889  0.166667  0.000000     24.000000
  0.416667  0.166667  0.000000     24.000000
  0.444444  0.166667  0.000000     24.000000
  0.472222  0.166667  0.000000     24.000000
  0.500000  0.166667  0.000000     12.000000
  0.194444  0.194444  0.000000     12.000000
  0.222222  0.194444  0.000000     24.000000
  0.250000  0.194444  0.000000     24.000000
  0.277778  0.194444  0.000000     24.000000
  0.305556  0.194444  0.000000     24.000000
  0.333333  0.194444  0.000000     24.000000
  0.361111  0.194444  0.000000     24.000000
  0.388889  0.194444  0.000000     24.000000
  0.416667  0.194444  0.000000     24.000000
  0.444444  0.194444  0.000000     24.000000
  0.472222  0.194444  0.000000     24.000000
  0.500000  0.194444  0.000000     12.000000
  0.222222  0.222222  0.000000     12.000000
  0.250000  0.222222  0.000000     24.000000
  0.277778  0.222222  0.000000     24.000000
  0.305556  0.222222  0.000000     24.000000
  0.333333  0.222222  0.000000     24.000000
  0.361111  0.222222  0.000000     24.000000
  0.388889  0.222222  0.000000     24.000000
  0.416667  0.222222  0.000000     24.000000
  0.444444  0.222222  0.000000     24.000000
  0.472222  0.222222  0.000000     24.000000
  0.500000  0.222222  0.000000     12.000000
  0.250000  0.250000  0.000000     12.000000
  0.277778  0.250000  0.000000     24.000000
  0.305556  0.250000  0.000000     24.000000
  0.333333  0.250000  0.000000     24.000000
  0.361111  0.250000  0.000000     24.000000
  0.388889  0.250000  0.000000     24.000000
  0.416667  0.250000  0.000000     24.000000
  0.444444  0.250000  0.000000     24.000000
  0.472222  0.250000  0.000000     24.000000
  0.500000  0.250000  0.000000     12.000000
  0.277778  0.277778  0.000000     12.000000
  0.305556  0.277778  0.000000     24.000000
  0.333333  0.277778  0.000000     24.000000
  0.361111  0.277778  0.000000     24.000000
  0.388889  0.277778  0.000000     24.000000
  0.416667  0.277778  0.000000     24.000000
  0.444444  0.277778  0.000000     24.000000
  0.472222  0.277778  0.000000     24.000000
  0.500000  0.277778  0.000000     12.000000
  0.305556  0.305556  0.000000     12.000000
  0.333333  0.305556  0.000000     24.000000
  0.361111  0.305556  0.000000     24.000000
  0.388889  0.305556  0.000000     24.000000
  0.416667  0.305556  0.000000     24.000000
  0.444444  0.305556  0.000000     24.000000
  0.472222  0.305556  0.000000     24.000000
  0.500000  0.305556  0.000000     12.000000
  0.333333  0.333333  0.000000     12.000000
  0.361111  0.333333  0.000000     24.000000
  0.388889  0.333333  0.000000     24.000000
  0.416667  0.333333  0.000000     24.000000
  0.444444  0.333333  0.000000     24.000000
  0.472222  0.333333  0.000000     24.000000
  0.500000  0.333333  0.000000     12.000000
  0.361111  0.361111  0.000000     12.000000
  0.388889  0.361111  0.000000     24.000000
  0.416667  0.361111  0.000000     24.000000
  0.444444  0.361111  0.000000     24.000000
  0.472222  0.361111  0.000000     24.000000
  0.500000  0.361111  0.000000     12.000000
  0.388889  0.388889  0.000000     12.000000
  0.416667  0.388889  0.000000     24.000000
  0.444444  0.388889  0.000000     24.000000
  0.472222  0.388889  0.000000     24.000000
  0.500000  0.388889  0.000000     12.000000
  0.416667  0.416667  0.000000     12.000000
  0.444444  0.416667  0.000000     24.000000
  0.472222  0.416667  0.000000     24.000000
  0.500000  0.416667  0.000000     12.000000
  0.444444  0.444444  0.000000     12.000000
  0.472222  0.444444  0.000000     24.000000
  0.500000  0.444444  0.000000     12.000000
  0.472222  0.472222  0.000000     12.000000
  0.500000  0.472222  0.000000     12.000000
  0.500000  0.500000  0.000000      3.000000
  0.027778  0.027778  0.027778      8.000000
  0.055556  0.027778  0.027778     24.000000
  0.083333  0.027778  0.027778     24.000000
  0.111111  0.027778  0.027778     24.000000
  0.138889  0.027778  0.027778     24.000000
  0.166667  0.027778  0.027778     24.000000
  0.194444  0.027778  0.027778     24.000000
  0.222222  0.027778  0.027778     24.000000
  0.250000  0.027778  0.027778     24.000000
  0.277778  0.027778  0.027778     24.000000
  0.305556  0.027778  0.027778     24.000000
  0.333333  0.027778  0.027778     24.000000
  0.361111  0.027778  0.027778     24.000000
  0.388889  0.027778  0.027778     24.000000
  0.416667  0.027778  0.027778     24.000000
  0.444444  0.027778  0.027778     24.000000
  0.472222  0.027778  0.027778     24.000000
  0.500000  0.027778  0.027778     12.000000
  0.055556  0.055556  0.027778     24.000000
  0.083333  0.055556  0.027778     48.000000
  0.111111  0.055556  0.027778     48.000000
  0.138889  0.055556  0.027778     48.000000
  0.166667  0.055556  0.027778     48.000000
  0.194444  0.055556  0.027778     48.000000
  0.222222  0.055556  0.027778     48.000000
  0.250000  0.055556  0.027778     48.000000
  0.277778  0.055556  0.027778     48.000000
  0.305556  0.055556  0.027778     48.000000
  0.333333  0.055556  0.027778     48.000000
  0.361111  0.055556  0.027778     48.000000
  0.388889  0.055556  0.027778     48.000000
  0.416667  0.055556  0.027778     48.000000
  0.444444  0.055556  0.027778     48.000000
  0.472222  0.055556  0.027778     48.000000
  0.500000  0.055556  0.027778     24.000000
  0.083333  0.083333  0.027778     24.000000
  0.111111  0.083333  0.027778     48.000000
  0.138889  0.083333  0.027778     48.000000
  0.166667  0.083333  0.027778     48.000000
  0.194444  0.083333  0.027778     48.000000
  0.222222  0.083333  0.027778     48.000000
  0.250000  0.083333  0.027778     48.000000
  0.277778  0.083333  0.027778     48.000000
  0.305556  0.083333  0.027778     48.000000
  0.333333  0.083333  0.027778     48.000000
  0.361111  0.083333  0.027778     48.000000
  0.388889  0.083333  0.027778     48.000000
  0.416667  0.083333  0.027778     48.000000
  0.444444  0.083333  0.027778     48.000000
  0.472222  0.083333  0.027778     48.000000
  0.500000  0.083333  0.027778     24.000000
  0.111111  0.111111  0.027778     24.000000
  0.138889  0.111111  0.027778     48.000000
  0.166667  0.111111  0.027778     48.000000
  0.194444  0.111111  0.027778     48.000000
  0.222222  0.111111  0.027778     48.000000
  0.250000  0.111111  0.027778     48.000000
  0.277778  0.111111  0.027778     48.000000
  0.305556  0.111111  0.027778     48.000000
  0.333333  0.111111  0.027778     48.000000
  0.361111  0.111111  0.027778     48.000000
  0.388889  0.111111  0.027778     48.000000
  0.416667  0.111111  0.027778     48.000000
  0.444444  0.111111  0.027778     48.000000
  0.472222  0.111111  0.027778     48.000000
  0.500000  0.111111  0.027778     24.000000
  0.138889  0.138889  0.027778     24.000000
  0.166667  0.138889  0.027778     48.000000
  0.194444  0.138889  0.027778     48.000000
  0.222222  0.138889  0.027778     48.000000
  0.250000  0.138889  0.027778     48.000000
  0.277778  0.138889  0.027778     48.000000
  0.305556  0.138889  0.027778     48.000000
  0.333333  0.138889  0.027778     48.000000
  0.361111  0.138889  0.027778     48.000000
  0.388889  0.138889  0.027778     48.000000
  0.416667  0.138889  0.027778     48.000000
  0.444444  0.138889  0.027778     48.000000
  0.472222  0.138889  0.027778     48.000000
  0.500000  0.138889  0.027778     24.000000
  0.166667  0.166667  0.027778     24.000000
  0.194444  0.166667  0.027778     48.000000
  0.222222  0.166667  0.027778     48.000000
  0.250000  0.166667  0.027778     48.000000
  0.277778  0.166667  0.027778     48.000000
  0.305556  0.166667  0.027778     48.000000
  0.333333  0.166667  0.027778     48.000000
  0.361111  0.166667  0.027778     48.000000
  0.388889  0.166667  0.027778     48.000000
  0.416667  0.166667  0.027778     48.000000
  0.444444  0.166667  0.027778     48.000000
  0.472222  0.166667  0.027778     48.000000
  0.500000  0.166667  0.027778     24.000000
  0.194444  0.194444  0.027778     24.000000
  0.222222  0.194444  0.027778     48.000000
  0.250000  0.194444  0.027778     48.000000
  0.277778  0.194444  0.027778     48.000000
  0.305556  0.194444  0.027778     48.000000
  0.333333  0.194444  0.027778     48.000000
  0.361111  0.194444  0.027778     48.000000
  0.388889  0.194444  0.027778     48.000000
  0.416667  0.194444  0.027778     48.000000
  0.444444  0.194444  0.027778     48.000000
  0.472222  0.194444  0.027778     48.000000
  0.500000  0.194444  0.027778     24.000000
  0.222222  0.222222  0.027778     24.000000
  0.250000  0.222222  0.027778     48.000000
  0.277778  0.222222  0.027778     48.000000
  0.305556  0.222222  0.027778     48.000000
  0.333333  0.222222  0.027778     48.000000
  0.361111  0.222222  0.027778     48.000000
  0.388889  0.222222  0.027778     48.000000
  0.416667  0.222222  0.027778     48.000000
  0.444444  0.222222  0.027778     48.000000
  0.472222  0.222222  0.027778     48.000000
  0.500000  0.222222  0.027778     24.000000
  0.250000  0.250000  0.027778     24.000000
  0.277778  0.250000  0.027778     48.000000
  0.305556  0.250000  0.027778     48.000000
  0.333333  0.250000  0.027778     48.000000
  0.361111  0.250000  0.027778     48.000000
  0.388889  0.250000  0.027778     48.000000
  0.416667  0.250000  0.027778     48.000000
  0.444444  0.250000  0.027778     48.000000
  0.472222  0.250000  0.027778     48.000000
  0.500000  0.250000  0.027778     24.000000
  0.277778  0.277778  0.027778     24.000000
  0.305556  0.277778  0.027778     48.000000
  0.333333  0.277778  0.027778     48.000000
  0.361111  0.277778  0.027778     48.000000
  0.388889  0.277778  0.027778     48.000000
  0.416667  0.277778  0.027778     48.000000
  0.444444  0.277778  0.027778     48.000000
  0.472222  0.277778  0.027778     48.000000
  0.500000  0.277778  0.027778     24.000000
  0.305556  0.305556  0.027778     24.000000
  0.333333  0.305556  0.027778     48.000000
  0.361111  0.305556  0.027778     48.000000
  0.388889  0.305556  0.027778     48.000000
  0.416667  0.305556  0.027778     48.000000
  0.444444  0.305556  0.027778     48.000000
  0.472222  0.305556  0.027778     48.000000
  0.500000  0.305556  0.027778     24.000000
  0.333333  0.333333  0.027778     24.000000
  0.361111  0.333333  0.027778     48.000000
  0.388889  0.333333  0.027778     48.000000
  0.416667  0.333333  0.027778     48.000000
  0.444444  0.333333  0.027778     48.000000
  0.472222  0.333333  0.027778     48.000000
  0.500000  0.333333  0.027778     24.000000
  0.361111  0.361111  0.027778     24.000000
  0.388889  0.361111  0.027778     48.000000
  0.416667  0.361111  0.027778     48.000000
  0.444444  0.361111  0.027778     48.000000
  0.472222  0.361111  0.027778     48.000000
  0.500000  0.361111  0.027778     24.000000
  0.388889  0.388889  0.027778     24.000000
  0.416667  0.388889  0.027778     48.000000
  0.444444  0.388889  0.027778     48.000000
  0.472222  0.388889  0.027778     48.000000
  0.500000  0.388889  0.027778     24.000000
  0.416667  0.416667  0.027778     24.000000
  0.444444  0.416667  0.027778     48.000000
  0.472222  0.416667  0.027778     48.000000
  0.500000  0.416667  0.027778     24.000000
  0.444444  0.444444  0.027778     24.000000
  0.472222  0.444444  0.027778     48.000000
  0.500000  0.444444  0.027778     24.000000
  0.472222  0.472222  0.027778     24.000000
  0.500000  0.472222  0.027778     24.000000
  0.500000  0.500000  0.027778      6.000000
  0.055556  0.055556  0.055556      8.000000
  0.083333  0.055556  0.055556     24.000000
  0.111111  0.055556  0.055556     24.000000
  0.138889  0.055556  0.055556     24.000000
  0.166667  0.055556  0.055556     24.000000
  0.194444  0.055556  0.055556     24.000000
  0.222222  0.055556  0.055556     24.000000
  0.250000  0.055556  0.055556     24.000000
  0.277778  0.055556  0.055556     24.000000
  0.305556  0.055556  0.055556     24.000000
  0.333333  0.055556  0.055556     24.000000
  0.361111  0.055556  0.055556     24.000000
  0.388889  0.055556  0.055556     24.000000
  0.416667  0.055556  0.055556     24.000000
  0.444444  0.055556  0.055556     24.000000
  0.472222  0.055556  0.055556     24.000000
  0.500000  0.055556  0.055556     12.000000
  0.083333  0.083333  0.055556     24.000000
  0.111111  0.083333  0.055556     48.000000
  0.138889  0.083333  0.055556     48.000000
  0.166667  0.083333  0.055556     48.000000
  0.194444  0.083333  0.055556     48.000000
  0.222222  0.083333  0.055556     48.000000
  0.250000  0.083333  0.055556     48.000000
  0.277778  0.083333  0.055556     48.000000
  0.305556  0.083333  0.055556     48.000000
  0.333333  0.083333  0.055556     48.000000
  0.361111  0.083333  0.055556     48.000000
  0.388889  0.083333  0.055556     48.000000
  0.416667  0.083333  0.055556     48.000000
  0.444444  0.083333  0.055556     48.000000
  0.472222  0.083333  0.055556     48.000000
  0.500000  0.083333  0.055556     24.000000
  0.111111  0.111111  0.055556     24.000000
  0.138889  0.111111  0.055556     48.000000
  0.166667  0.111111  0.055556     48.000000
  0.194444  0.111111  0.055556     48.000000
  0.222222  0.111111  0.055556     48.000000
  0.250000  0.111111  0.055556     48.000000
  0.277778  0.111111  0.055556     48.000000
  0.305556  0.111111  0.055556     48.000000
  0.333333  0.111111  0.055556     48.000000
  0.361111  0.111111  0.055556     48.000000
  0.388889  0.111111  0.055556     48.000000
  0.416667  0.111111  0.055556     48.000000
  0.444444  0.111111  0.055556     48.000000
  0.472222  0.111111  0.055556     48.000000
  0.500000  0.111111  0.055556     24.000000
  0.138889  0.138889  0.055556     24.000000
  0.166667  0.138889  0.055556     48.000000
  0.194444  0.138889  0.055556     48.000000
  0.222222  0.138889  0.055556     48.000000
  0.250000  0.138889  0.055556     48.000000
  0.277778  0.138889  0.055556     48.000000
  0.305556  0.138889  0.055556     48.000000
  0.333333  0.138889  0.055556     48.000000
  0.361111  0.138889  0.055556     48.000000
  0.388889  0.138889  0.055556     48.000000
  0.416667  0.138889  0.055556     48.000000
  0.444444  0.138889  0.055556     48.000000
  0.472222  0.138889  0.055556     48.000000
  0.500000  0.138889  0.055556     24.000000
  0.166667  0.166667  0.055556     24.000000
  0.194444  0.166667  0.055556     48.000000
  0.222222  0.166667  0.055556     48.000000
  0.250000  0.166667  0.055556     48.000000
  0.277778  0.166667  0.055556     48.000000
  0.305556  0.166667  0.055556     48.000000
  0.333333  0.166667  0.055556     48.000000
  0.361111  0.166667  0.055556     48.000000
  0.388889  0.166667  0.055556     48.000000
  0.416667  0.166667  0.055556     48.000000
  0.444444  0.166667  0.055556     48.000000
  0.472222  0.166667  0.055556     48.000000
  0.500000  0.166667  0.055556     24.000000
  0.194444  0.194444  0.055556     24.000000
  0.222222  0.194444  0.055556     48.000000
  0.250000  0.194444  0.055556     48.000000
  0.277778  0.194444  0.055556     48.000000
  0.305556  0.194444  0.055556     48.000000
  0.333333  0.194444  0.055556     48.000000
  0.361111  0.194444  0.055556     48.000000
  0.388889  0.194444  0.055556     48.000000
  0.416667  0.194444  0.055556     48.000000
  0.444444  0.194444  0.055556     48.000000
  0.472222  0.194444  0.055556     48.000000
  0.500000  0.194444  0.055556     24.000000
  0.222222  0.222222  0.055556     24.000000
  0.250000  0.222222  0.055556     48.000000
  0.277778  0.222222  0.055556     48.000000
  0.305556  0.222222  0.055556     48.000000
  0.333333  0.222222  0.055556     48.000000
  0.361111  0.222222  0.055556     48.000000
  0.388889  0.222222  0.055556     48.000000
  0.416667  0.222222  0.055556     48.000000
  0.444444  0.222222  0.055556     48.000000
  0.472222  0.222222  0.055556     48.000000
  0.500000  0.222222  0.055556     24.000000
  0.250000  0.250000  0.055556     24.000000
  0.277778  0.250000  0.055556     48.000000
  0.305556  0.250000  0.055556     48.000000
  0.333333  0.250000  0.055556     48.000000
  0.361111  0.250000  0.055556     48.000000
  0.388889  0.250000  0.055556     48.000000
  0.416667  0.250000  0.055556     48.000000
  0.444444  0.250000  0.055556     48.000000
  0.472222  0.250000  0.055556     48.000000
  0.500000  0.250000  0.055556     24.000000
  0.277778  0.277778  0.055556     24.000000
  0.305556  0.277778  0.055556     48.000000
  0.333333  0.277778  0.055556     48.000000
  0.361111  0.277778  0.055556     48.000000
  0.388889  0.277778  0.055556     48.000000
  0.416667  0.277778  0.055556     48.000000
  0.444444  0.277778  0.055556     48.000000
  0.472222  0.277778  0.055556     48.000000
  0.500000  0.277778  0.055556     24.000000
  0.305556  0.305556  0.055556     24.000000
  0.333333  0.305556  0.055556     48.000000
  0.361111  0.305556  0.055556     48.000000
  0.388889  0.305556  0.055556     48.000000
  0.416667  0.305556  0.055556     48.000000
  0.444444  0.305556  0.055556     48.000000
  0.472222  0.305556  0.055556     48.000000
  0.500000  0.305556  0.055556     24.000000
  0.333333  0.333333  0.055556     24.000000
  0.361111  0.333333  0.055556     48.000000
  0.388889  0.333333  0.055556     48.000000
  0.416667  0.333333  0.055556     48.000000
  0.444444  0.333333  0.055556     48.000000
  0.472222  0.333333  0.055556     48.000000
  0.500000  0.333333  0.055556     24.000000
  0.361111  0.361111  0.055556     24.000000
  0.388889  0.361111  0.055556     48.000000
  0.416667  0.361111  0.055556     48.000000
  0.444444  0.361111  0.055556     48.000000
  0.472222  0.361111  0.055556     48.000000
  0.500000  0.361111  0.055556     24.000000
  0.388889  0.388889  0.055556     24.000000
  0.416667  0.388889  0.055556     48.000000
  0.444444  0.388889  0.055556     48.000000
  0.472222  0.388889  0.055556     48.000000
  0.500000  0.388889  0.055556     24.000000
  0.416667  0.416667  0.055556     24.000000
  0.444444  0.416667  0.055556     48.000000
  0.472222  0.416667  0.055556     48.000000
  0.500000  0.416667  0.055556     24.000000
  0.444444  0.444444  0.055556     24.000000
  0.472222  0.444444  0.055556     48.000000
  0.500000  0.444444  0.055556     24.000000
  0.472222  0.472222  0.055556     24.000000
  0.500000  0.472222  0.055556     24.000000
  0.500000  0.500000  0.055556      6.000000
  0.083333  0.083333  0.083333      8.000000
  0.111111  0.083333  0.083333     24.000000
  0.138889  0.083333  0.083333     24.000000
  0.166667  0.083333  0.083333     24.000000
  0.194444  0.083333  0.083333     24.000000
  0.222222  0.083333  0.083333     24.000000
  0.250000  0.083333  0.083333     24.000000
  0.277778  0.083333  0.083333     24.000000
  0.305556  0.083333  0.083333     24.000000
  0.333333  0.083333  0.083333     24.000000
  0.361111  0.083333  0.083333     24.000000
  0.388889  0.083333  0.083333     24.000000
  0.416667  0.083333  0.083333     24.000000
  0.444444  0.083333  0.083333     24.000000
  0.472222  0.083333  0.083333     24.000000
  0.500000  0.083333  0.083333     12.000000
  0.111111  0.111111  0.083333     24.000000
  0.138889  0.111111  0.083333     48.000000
  0.166667  0.111111  0.083333     48.000000
  0.194444  0.111111  0.083333     48.000000
  0.222222  0.111111  0.083333     48.000000
  0.250000  0.111111  0.083333     48.000000
  0.277778  0.111111  0.083333     48.000000
  0.305556  0.111111  0.083333     48.000000
  0.333333  0.111111  0.083333     48.000000
  0.361111  0.111111  0.083333     48.000000
  0.388889  0.111111  0.083333     48.000000
  0.416667  0.111111  0.083333     48.000000
  0.444444  0.111111  0.083333     48.000000
  0.472222  0.111111  0.083333     48.000000
  0.500000  0.111111  0.083333     24.000000
  0.138889  0.138889  0.083333     24.000000
  0.166667  0.138889  0.083333     48.000000
  0.194444  0.138889  0.083333     48.000000
  0.222222  0.138889  0.083333     48.000000
  0.250000  0.138889  0.083333     48.000000
  0.277778  0.138889  0.083333     48.000000
  0.305556  0.138889  0.083333     48.000000
  0.333333  0.138889  0.083333     48.000000
  0.361111  0.138889  0.083333     48.000000
  0.388889  0.138889  0.083333     48.000000
  0.416667  0.138889  0.083333     48.000000
  0.444444  0.138889  0.083333     48.000000
  0.472222  0.138889  0.083333     48.000000
  0.500000  0.138889  0.083333     24.000000
  0.166667  0.166667  0.083333     24.000000
  0.194444  0.166667  0.083333     48.000000
  0.222222  0.166667  0.083333     48.000000
  0.250000  0.166667  0.083333     48.000000
  0.277778  0.166667  0.083333     48.000000
  0.305556  0.166667  0.083333     48.000000
  0.333333  0.166667  0.083333     48.000000
  0.361111  0.166667  0.083333     48.000000
  0.388889  0.166667  0.083333     48.000000
  0.416667  0.166667  0.083333     48.000000
  0.444444  0.166667  0.083333     48.000000
  0.472222  0.166667  0.083333     48.000000
  0.500000  0.166667  0.083333     24.000000
  0.194444  0.194444  0.083333     24.000000
  0.222222  0.194444  0.083333     48.000000
  0.250000  0.194444  0.083333     48.000000
  0.277778  0.194444  0.083333     48.000000
  0.305556  0.194444  0.083333     48.000000
  0.333333  0.194444  0.083333     48.000000
  0.361111  0.194444  0.083333     48.000000
  0.388889  0.194444  0.083333     48.000000
  0.416667  0.194444  0.083333     48.000000
  0.444444  0.194444  0.083333     48.000000
  0.472222  0.194444  0.083333     48.000000
  0.500000  0.194444  0.083333     24.000000
  0.222222  0.222222  0.083333     24.000000
  0.250000  0.222222  0.083333     48.000000
  0.277778  0.222222  0.083333     48.000000
  0.305556  0.222222  0.083333     48.000000
  0.333333  0.222222  0.083333     48.000000
  0.361111  0.222222  0.083333     48.000000
  0.388889  0.222222  0.083333     48.000000
  0.416667  0.222222  0.083333     48.000000
  0.444444  0.222222  0.083333     48.000000
  0.472222  0.222222  0.083333     48.000000
  0.500000  0.222222  0.083333     24.000000
  0.250000  0.250000  0.083333     24.000000
  0.277778  0.250000  0.083333     48.000000
  0.305556  0.250000  0.083333     48.000000
  0.333333  0.250000  0.083333     48.000000
  0.361111  0.250000  0.083333     48.000000
  0.388889  0.250000  0.083333     48.000000
  0.416667  0.250000  0.083333     48.000000
  0.444444  0.250000  0.083333     48.000000
  0.472222  0.250000  0.083333     48.000000
  0.500000  0.250000  0.083333     24.000000
  0.277778  0.277778  0.083333     24.000000
  0.305556  0.277778  0.083333     48.000000
  0.333333  0.277778  0.083333     48.000000
  0.361111  0.277778  0.083333     48.000000
  0.388889  0.277778  0.083333     48.000000
  0.416667  0.277778  0.083333     48.000000
  0.444444  0.277778  0.083333     48.000000
  0.472222  0.277778  0.083333     48.000000
  0.500000  0.277778  0.083333     24.000000
  0.305556  0.305556  0.083333     24.000000
  0.333333  0.305556  0.083333     48.000000
  0.361111  0.305556  0.083333     48.000000
  0.388889  0.305556  0.083333     48.000000
  0.416667  0.305556  0.083333     48.000000
  0.444444  0.305556  0.083333     48.000000
  0.472222  0.305556  0.083333     48.000000
  0.500000  0.305556  0.083333     24.000000
  0.333333  0.333333  0.083333     24.000000
  0.361111  0.333333  0.083333     48.000000
  0.388889  0.333333  0.083333     48.000000
  0.416667  0.333333  0.083333     48.000000
  0.444444  0.333333  0.083333     48.000000
  0.472222  0.333333  0.083333     48.000000
  0.500000  0.333333  0.083333     24.000000
  0.361111  0.361111  0.083333     24.000000
  0.388889  0.361111  0.083333     48.000000
  0.416667  0.361111  0.083333     48.000000
  0.444444  0.361111  0.083333     48.000000
  0.472222  0.361111  0.083333     48.000000
  0.500000  0.361111  0.083333     24.000000
  0.388889  0.388889  0.083333     24.000000
  0.416667  0.388889  0.083333     48.000000
  0.444444  0.388889  0.083333     48.000000
  0.472222  0.388889  0.083333     48.000000
  0.500000  0.388889  0.083333     24.000000
  0.416667  0.416667  0.083333     24.000000
  0.444444  0.416667  0.083333     48.000000
  0.472222  0.416667  0.083333     48.000000
  0.500000  0.416667  0.083333     24.000000
  0.444444  0.444444  0.083333     24.000000
  0.472222  0.444444  0.083333     48.000000
  0.500000  0.444444  0.083333     24.000000
  0.472222  0.472222  0.083333     24.000000
  0.500000  0.472222  0.083333     24.000000
  0.500000  0.500000  0.083333      6.000000
  0.111111  0.111111  0.111111      8.000000
  0.138889  0.111111  0.111111     24.000000
  0.166667  0.111111  0.111111     24.000000
  0.194444  0.111111  0.111111     24.000000
  0.222222  0.111111  0.111111     24.000000
  0.250000  0.111111  0.111111     24.000000
  0.277778  0.111111  0.111111     24.000000
  0.305556  0.111111  0.111111     24.000000
  0.333333  0.111111  0.111111     24.000000
  0.361111  0.111111  0.111111     24.000000
  0.388889  0.111111  0.111111     24.000000
  0.416667  0.111111  0.111111     24.000000
  0.444444  0.111111  0.111111     24.000000
  0.472222  0.111111  0.111111     24.000000
  0.500000  0.111111  0.111111     12.000000
  0.138889  0.138889  0.111111     24.000000
  0.166667  0.138889  0.111111     48.000000
  0.194444  0.138889  0.111111     48.000000
  0.222222  0.138889  0.111111     48.000000
  0.250000  0.138889  0.111111     48.000000
  0.277778  0.138889  0.111111     48.000000
  0.305556  0.138889  0.111111     48.000000
  0.333333  0.138889  0.111111     48.000000
  0.361111  0.138889  0.111111     48.000000
  0.388889  0.138889  0.111111     48.000000
  0.416667  0.138889  0.111111     48.000000
  0.444444  0.138889  0.111111     48.000000
  0.472222  0.138889  0.111111     48.000000
  0.500000  0.138889  0.111111     24.000000
  0.166667  0.166667  0.111111     24.000000
  0.194444  0.166667  0.111111     48.000000
  0.222222  0.166667  0.111111     48.000000
  0.250000  0.166667  0.111111     48.000000
  0.277778  0.166667  0.111111     48.000000
  0.305556  0.166667  0.111111     48.000000
  0.333333  0.166667  0.111111     48.000000
  0.361111  0.166667  0.111111     48.000000
  0.388889  0.166667  0.111111     48.000000
  0.416667  0.166667  0.111111     48.000000
  0.444444  0.166667  0.111111     48.000000
  0.472222  0.166667  0.111111     48.000000
  0.500000  0.166667  0.111111     24.000000
  0.194444  0.194444  0.111111     24.000000
  0.222222  0.194444  0.111111     48.000000
  0.250000  0.194444  0.111111     48.000000
  0.277778  0.194444  0.111111     48.000000
  0.305556  0.194444  0.111111     48.000000
  0.333333  0.194444  0.111111     48.000000
  0.361111  0.194444  0.111111     48.000000
  0.388889  0.194444  0.111111     48.000000
  0.416667  0.194444  0.111111     48.000000
  0.444444  0.194444  0.111111     48.000000
  0.472222  0.194444  0.111111     48.000000
  0.500000  0.194444  0.111111     24.000000
  0.222222  0.222222  0.111111     24.000000
  0.250000  0.222222  0.111111     48.000000
  0.277778  0.222222  0.111111     48.000000
  0.305556  0.222222  0.111111     48.000000
  0.333333  0.222222  0.111111     48.000000
  0.361111  0.222222  0.111111     48.000000
  0.388889  0.222222  0.111111     48.000000
  0.416667  0.222222  0.111111     48.000000
  0.444444  0.222222  0.111111     48.000000
  0.472222  0.222222  0.111111     48.000000
  0.500000  0.222222  0.111111     24.000000
  0.250000  0.250000  0.111111     24.000000
  0.277778  0.250000  0.111111     48.000000
  0.305556  0.250000  0.111111     48.000000
  0.333333  0.250000  0.111111     48.000000
  0.361111  0.250000  0.111111     48.000000
  0.388889  0.250000  0.111111     48.000000
  0.416667  0.250000  0.111111     48.000000
  0.444444  0.250000  0.111111     48.000000
  0.472222  0.250000  0.111111     48.000000
  0.500000  0.250000  0.111111     24.000000
  0.277778  0.277778  0.111111     24.000000
  0.305556  0.277778  0.111111     48.000000
  0.333333  0.277778  0.111111     48.000000
  0.361111  0.277778  0.111111     48.000000
  0.388889  0.277778  0.111111     48.000000
  0.416667  0.277778  0.111111     48.000000
  0.444444  0.277778  0.111111     48.000000
  0.472222  0.277778  0.111111     48.000000
  0.500000  0.277778  0.111111     24.000000
  0.305556  0.305556  0.111111     24.000000
  0.333333  0.305556  0.111111     48.000000
  0.361111  0.305556  0.111111     48.000000
  0.388889  0.305556  0.111111     48.000000
  0.416667  0.305556  0.111111     48.000000
  0.444444  0.305556  0.111111     48.000000
  0.472222  0.305556  0.111111     48.000000
  0.500000  0.305556  0.111111     24.000000
  0.333333  0.333333  0.111111     24.000000
  0.361111  0.333333  0.111111     48.000000
  0.388889  0.333333  0.111111     48.000000
  0.416667  0.333333  0.111111     48.000000
  0.444444  0.333333  0.111111     48.000000
  0.472222  0.333333  0.111111     48.000000
  0.500000  0.333333  0.111111     24.000000
  0.361111  0.361111  0.111111     24.000000
  0.388889  0.361111  0.111111     48.000000
  0.416667  0.361111  0.111111     48.000000
  0.444444  0.361111  0.111111     48.000000
  0.472222  0.361111  0.111111     48.000000
  0.500000  0.361111  0.111111     24.000000
  0.388889  0.388889  0.111111     24.000000
  0.416667  0.388889  0.111111     48.000000
  0.444444  0.388889  0.111111     48.000000
  0.472222  0.388889  0.111111     48.000000
  0.500000  0.388889  0.111111     24.000000
  0.416667  0.416667  0.111111     24.000000
  0.444444  0.416667  0.111111     48.000000
  0.472222  0.416667  0.111111     48.000000
  0.500000  0.416667  0.111111     24.000000
  0.444444  0.444444  0.111111     24.000000
  0.472222  0.444444  0.111111     48.000000
  0.500000  0.444444  0.111111     24.000000
  0.472222  0.472222  0.111111     24.000000
  0.500000  0.472222  0.111111     24.000000
  0.500000  0.500000  0.111111      6.000000
  0.138889  0.138889  0.138889      8.000000
  0.166667  0.138889  0.138889     24.000000
  0.194444  0.138889  0.138889     24.000000
  0.222222  0.138889  0.138889     24.000000
  0.250000  0.138889  0.138889     24.000000
  0.277778  0.138889  0.138889     24.000000
  0.305556  0.138889  0.138889     24.000000
  0.333333  0.138889  0.138889     24.000000
  0.361111  0.138889  0.138889     24.000000
  0.388889  0.138889  0.138889     24.000000
  0.416667  0.138889  0.138889     24.000000
  0.444444  0.138889  0.138889     24.000000
  0.472222  0.138889  0.138889     24.000000
  0.500000  0.138889  0.138889     12.000000
  0.166667  0.166667  0.138889     24.000000
  0.194444  0.166667  0.138889     48.000000
  0.222222  0.166667  0.138889     48.000000
  0.250000  0.166667  0.138889     48.000000
  0.277778  0.166667  0.138889     48.000000
  0.305556  0.166667  0.138889     48.000000
  0.333333  0.166667  0.138889     48.000000
  0.361111  0.166667  0.138889     48.000000
  0.388889  0.166667  0.138889     48.000000
  0.416667  0.166667  0.138889     48.000000
  0.444444  0.166667  0.138889     48.000000
  0.472222  0.166667  0.138889     48.000000
  0.500000  0.166667  0.138889     24.000000
  0.194444  0.194444  0.138889     24.000000
  0.222222  0.194444  0.138889     48.000000
  0.250000  0.194444  0.138889     48.000000
  0.277778  0.194444  0.138889     48.000000
  0.305556  0.194444  0.138889     48.000000
  0.333333  0.194444  0.138889     48.000000
  0.361111  0.194444  0.138889     48.000000
  0.388889  0.194444  0.138889     48.000000
  0.416667  0.194444  0.138889     48.000000
  0.444444  0.194444  0.138889     48.000000
  0.472222  0.194444  0.138889     48.000000
  0.500000  0.194444  0.138889     24.000000
  0.222222  0.222222  0.138889     24.000000
  0.250000  0.222222  0.138889     48.000000
  0.277778  0.222222  0.138889     48.000000
  0.305556  0.222222  0.138889     48.000000
  0.333333  0.222222  0.138889     48.000000
  0.361111  0.222222  0.138889     48.000000
  0.388889  0.222222  0.138889     48.000000
  0.416667  0.222222  0.138889     48.000000
  0.444444  0.222222  0.138889     48.000000
  0.472222  0.222222  0.138889     48.000000
  0.500000  0.222222  0.138889     24.000000
  0.250000  0.250000  0.138889     24.000000
  0.277778  0.250000  0.138889     48.000000
  0.305556  0.250000  0.138889     48.000000
  0.333333  0.250000  0.138889     48.000000
  0.361111  0.250000  0.138889     48.000000
  0.388889  0.250000  0.138889     48.000000
  0.416667  0.250000  0.138889     48.000000
  0.444444  0.250000  0.138889     48.000000
  0.472222  0.250000  0.138889     48.000000
  0.500000  0.250000  0.138889     24.000000
  0.277778  0.277778  0.138889     24.000000
  0.305556  0.277778  0.138889     48.000000
  0.333333  0.277778  0.138889     48.000000
  0.361111  0.277778  0.138889     48.000000
  0.388889  0.277778  0.138889     48.000000
  0.416667  0.277778  0.138889     48.000000
  0.444444  0.277778  0.138889     48.000000
  0.472222  0.277778  0.138889     48.000000
  0.500000  0.277778  0.138889     24.000000
  0.305556  0.305556  0.138889     24.000000
  0.333333  0.305556  0.138889     48.000000
  0.361111  0.305556  0.138889     48.000000
  0.388889  0.305556  0.138889     48.000000
  0.416667  0.305556  0.138889     48.000000
  0.444444  0.305556  0.138889     48.000000
  0.472222  0.305556  0.138889     48.000000
  0.500000  0.305556  0.138889     24.000000
  0.333333  0.333333  0.138889     24.000000
  0.361111  0.333333  0.138889     48.000000
  0.388889  0.333333  0.138889     48.000000
  0.416667  0.333333  0.138889     48.000000
  0.444444  0.333333  0.138889     48.000000
  0.472222  0.333333  0.138889     48.000000
  0.500000  0.333333  0.138889     24.000000
  0.361111  0.361111  0.138889     24.000000
  0.388889  0.361111  0.138889     48.000000
  0.416667  0.361111  0.138889     48.000000
  0.444444  0.361111  0.138889     48.000000
  0.472222  0.361111  0.138889     48.000000
  0.500000  0.361111  0.138889     24.000000
  0.388889  0.388889  0.138889     24.000000
  0.416667  0.388889  0.138889     48.000000
  0.444444  0.388889  0.138889     48.000000
  0.472222  0.388889  0.138889     48.000000
  0.500000  0.388889  0.138889     24.000000
  0.416667  0.416667  0.138889     24.000000
  0.444444  0.416667  0.138889     48.000000
  0.472222  0.416667  0.138889     48.000000
  0.500000  0.416667  0.138889     24.000000
  0.444444  0.444444  0.138889     24.000000
  0.472222  0.444444  0.138889     48.000000
  0.500000  0.444444  0.138889     24.000000
  0.472222  0.472222  0.138889     24.000000
  0.500000  0.472222  0.138889     24.000000
  0.500000  0.500000  0.138889      6.000000
  0.166667  0.166667  0.166667      8.000000
  0.194444  0.166667  0.166667     24.000000
  0.222222  0.166667  0.166667     24.000000
  0.250000  0.166667  0.166667     24.000000
  0.277778  0.166667  0.166667     24.000000
  0.305556  0.166667  0.166667     24.000000
  0.333333  0.166667  0.166667     24.000000
  0.361111  0.166667  0.166667     24.000000
  0.388889  0.166667  0.166667     24.000000
  0.416667  0.166667  0.166667     24.000000
  0.444444  0.166667  0.166667     24.000000
  0.472222  0.166667  0.166667     24.000000
  0.500000  0.166667  0.166667     12.000000
  0.194444  0.194444  0.166667     24.000000
  0.222222  0.194444  0.166667     48.000000
  0.250000  0.194444  0.166667     48.000000
  0.277778  0.194444  0.166667     48.000000
  0.305556  0.194444  0.166667     48.000000
  0.333333  0.194444  0.166667     48.000000
  0.361111  0.194444  0.166667     48.000000
  0.388889  0.194444  0.166667     48.000000
  0.416667  0.194444  0.166667     48.000000
  0.444444  0.194444  0.166667     48.000000
  0.472222  0.194444  0.166667     48.000000
  0.500000  0.194444  0.166667     24.000000
  0.222222  0.222222  0.166667     24.000000
  0.250000  0.222222  0.166667     48.000000
  0.277778  0.222222  0.166667     48.000000
  0.305556  0.222222  0.166667     48.000000
  0.333333  0.222222  0.166667     48.000000
  0.361111  0.222222  0.166667     48.000000
  0.388889  0.222222  0.166667     48.000000
  0.416667  0.222222  0.166667     48.000000
  0.444444  0.222222  0.166667     48.000000
  0.472222  0.222222  0.166667     48.000000
  0.500000  0.222222  0.166667     24.000000
  0.250000  0.250000  0.166667     24.000000
  0.277778  0.250000  0.166667     48.000000
  0.305556  0.250000  0.166667     48.000000
  0.333333  0.250000  0.166667     48.000000
  0.361111  0.250000  0.166667     48.000000
  0.388889  0.250000  0.166667     48.000000
  0.416667  0.250000  0.166667     48.000000
  0.444444  0.250000  0.166667     48.000000
  0.472222  0.250000  0.166667     48.000000
  0.500000  0.250000  0.166667     24.000000
  0.277778  0.277778  0.166667     24.000000
  0.305556  0.277778  0.166667     48.000000
  0.333333  0.277778  0.166667     48.000000
  0.361111  0.277778  0.166667     48.000000
  0.388889  0.277778  0.166667     48.000000
  0.416667  0.277778  0.166667     48.000000
  0.444444  0.277778  0.166667     48.000000
  0.472222  0.277778  0.166667     48.000000
  0.500000  0.277778  0.166667     24.000000
  0.305556  0.305556  0.166667     24.000000
  0.333333  0.305556  0.166667     48.000000
  0.361111  0.305556  0.166667     48.000000
  0.388889  0.305556  0.166667     48.000000
  0.416667  0.305556  0.166667     48.000000
  0.444444  0.305556  0.166667     48.000000
  0.472222  0.305556  0.166667     48.000000
  0.500000  0.305556  0.166667     24.000000
  0.333333  0.333333  0.166667     24.000000
  0.361111  0.333333  0.166667     48.000000
  0.388889  0.333333  0.166667     48.000000
  0.416667  0.333333  0.166667     48.000000
  0.444444  0.333333  0.166667     48.000000
  0.472222  0.333333  0.166667     48.000000
  0.500000  0.333333  0.166667     24.000000
  0.361111  0.361111  0.166667     24.000000
  0.388889  0.361111  0.166667     48.000000
  0.416667  0.361111  0.166667     48.000000
  0.444444  0.361111  0.166667     48.000000
  0.472222  0.361111  0.166667     48.000000
  0.500000  0.361111  0.166667     24.000000
  0.388889  0.388889  0.166667     24.000000
  0.416667  0.388889  0.166667     48.000000
  0.444444  0.388889  0.166667     48.000000
  0.472222  0.388889  0.166667     48.000000
  0.500000  0.388889  0.166667     24.000000
  0.416667  0.416667  0.166667     24.000000
  0.444444  0.416667  0.166667     48.000000
  0.472222  0.416667  0.166667     48.000000
  0.500000  0.416667  0.166667     24.000000
  0.444444  0.444444  0.166667     24.000000
  0.472222  0.444444  0.166667     48.000000
  0.500000  0.444444  0.166667     24.000000
  0.472222  0.472222  0.166667     24.000000
  0.500000  0.472222  0.166667     24.000000
  0.500000  0.500000  0.166667      6.000000
  0.194444  0.194444  0.194444      8.000000
  0.222222  0.194444  0.194444     24.000000
  0.250000  0.194444  0.194444     24.000000
  0.277778  0.194444  0.194444     24.000000
  0.305556  0.194444  0.194444     24.000000
  0.333333  0.194444  0.194444     24.000000
  0.361111  0.194444  0.194444     24.000000
  0.388889  0.194444  0.194444     24.000000
  0.416667  0.194444  0.194444     24.000000
  0.444444  0.194444  0.194444     24.000000
  0.472222  0.194444  0.194444     24.000000
  0.500000  0.194444  0.194444     12.000000
  0.222222  0.222222  0.194444     24.000000
  0.250000  0.222222  0.194444     48.000000
  0.277778  0.222222  0.194444     48.000000
  0.305556  0.222222  0.194444     48.000000
  0.333333  0.222222  0.194444     48.000000
  0.361111  0.222222  0.194444     48.000000
  0.388889  0.222222  0.194444     48.000000
  0.416667  0.222222  0.194444     48.000000
  0.444444  0.222222  0.194444     48.000000
  0.472222  0.222222  0.194444     48.000000
  0.500000  0.222222  0.194444     24.000000
  0.250000  0.250000  0.194444     24.000000
  0.277778  0.250000  0.194444     48.000000
  0.305556  0.250000  0.194444     48.000000
  0.333333  0.250000  0.194444     48.000000
  0.361111  0.250000  0.194444     48.000000
  0.388889  0.250000  0.194444     48.000000
  0.416667  0.250000  0.194444     48.000000
  0.444444  0.250000  0.194444     48.000000
  0.472222  0.250000  0.194444     48.000000
  0.500000  0.250000  0.194444     24.000000
  0.277778  0.277778  0.194444     24.000000
  0.305556  0.277778  0.194444     48.000000
  0.333333  0.277778  0.194444     48.000000
  0.361111  0.277778  0.194444     48.000000
  0.388889  0.277778  0.194444     48.000000
  0.416667  0.277778  0.194444     48.000000
  0.444444  0.277778  0.194444     48.000000
  0.472222  0.277778  0.194444     48.000000
  0.500000  0.277778  0.194444     24.000000
  0.305556  0.305556  0.194444     24.000000
  0.333333  0.305556  0.194444     48.000000
  0.361111  0.305556  0.194444     48.000000
  0.388889  0.305556  0.194444     48.000000
  0.416667  0.305556  0.194444     48.000000
  0.444444  0.305556  0.194444     48.000000
  0.472222  0.305556  0.194444     48.000000
  0.500000  0.305556  0.194444     24.000000
  0.333333  0.333333  0.194444     24.000000
  0.361111  0.333333  0.194444     48.000000
  0.388889  0.333333  0.194444     48.000000
  0.416667  0.333333  0.194444     48.000000
  0.444444  0.333333  0.194444     48.000000
  0.472222  0.333333  0.194444     48.000000
  0.500000  0.333333  0.194444     24.000000
  0.361111  0.361111  0.194444     24.000000
  0.388889  0.361111  0.194444     48.000000
  0.416667  0.361111  0.194444     48.000000
  0.444444  0.361111  0.194444     48.000000
  0.472222  0.361111  0.194444     48.000000
  0.500000  0.361111  0.194444     24.000000
  0.388889  0.388889  0.194444     24.000000
  0.416667  0.388889  0.194444     48.000000
  0.444444  0.388889  0.194444     48.000000
  0.472222  0.388889  0.194444     48.000000
  0.500000  0.388889  0.194444     24.000000
  0.416667  0.416667  0.194444     24.000000
  0.444444  0.416667  0.194444     48.000000
  0.472222  0.416667  0.194444     48.000000
  0.500000  0.416667  0.194444     24.000000
  0.444444  0.444444  0.194444     24.000000
  0.472222  0.444444  0.194444     48.000000
  0.500000  0.444444  0.194444     24.000000
  0.472222  0.472222  0.194444     24.000000
  0.500000  0.472222  0.194444     24.000000
  0.500000  0.500000  0.194444      6.000000
  0.222222  0.222222  0.222222      8.000000
  0.250000  0.222222  0.222222     24.000000
  0.277778  0.222222  0.222222     24.000000
  0.305556  0.222222  0.222222     24.000000
  0.333333  0.222222  0.222222     24.000000
  0.361111  0.222222  0.222222     24.000000
  0.388889  0.222222  0.222222     24.000000
  0.416667  0.222222  0.222222     24.000000
  0.444444  0.222222  0.222222     24.000000
  0.472222  0.222222  0.222222     24.000000
  0.500000  0.222222  0.222222     12.000000
  0.250000  0.250000  0.222222     24.000000
  0.277778  0.250000  0.222222     48.000000
  0.305556  0.250000  0.222222     48.000000
  0.333333  0.250000  0.222222     48.000000
  0.361111  0.250000  0.222222     48.000000
  0.388889  0.250000  0.222222     48.000000
  0.416667  0.250000  0.222222     48.000000
  0.444444  0.250000  0.222222     48.000000
  0.472222  0.250000  0.222222     48.000000
  0.500000  0.250000  0.222222     24.000000
  0.277778  0.277778  0.222222     24.000000
  0.305556  0.277778  0.222222     48.000000
  0.333333  0.277778  0.222222     48.000000
  0.361111  0.277778  0.222222     48.000000
  0.388889  0.277778  0.222222     48.000000
  0.416667  0.277778  0.222222     48.000000
  0.444444  0.277778  0.222222     48.000000
  0.472222  0.277778  0.222222     48.000000
  0.500000  0.277778  0.222222     24.000000
  0.305556  0.305556  0.222222     24.000000
  0.333333  0.305556  0.222222     48.000000
  0.361111  0.305556  0.222222     48.000000
  0.388889  0.305556  0.222222     48.000000
  0.416667  0.305556  0.222222     48.000000
  0.444444  0.305556  0.222222     48.000000
  0.472222  0.305556  0.222222     48.000000
  0.500000  0.305556  0.222222     24.000000
  0.333333  0.333333  0.222222     24.000000
  0.361111  0.333333  0.222222     48.000000
  0.388889  0.333333  0.222222     48.000000
  0.416667  0.333333  0.222222     48.000000
  0.444444  0.333333  0.222222     48.000000
  0.472222  0.333333  0.222222     48.000000
  0.500000  0.333333  0.222222     24.000000
  0.361111  0.361111  0.222222     24.000000
  0.388889  0.361111  0.222222     48.000000
  0.416667  0.361111  0.222222     48.000000
  0.444444  0.361111  0.222222     48.000000
  0.472222  0.361111  0.222222     48.000000
  0.500000  0.361111  0.222222     24.000000
  0.388889  0.388889  0.222222     24.000000
  0.416667  0.388889  0.222222     48.000000
  0.444444  0.388889  0.222222     48.000000
  0.472222  0.388889  0.222222     48.000000
  0.500000  0.388889  0.222222     24.000000
  0.416667  0.416667  0.222222     24.000000
  0.444444  0.416667  0.222222     48.000000
  0.472222  0.416667  0.222222     48.000000
  0.500000  0.416667  0.222222     24.000000
  0.444444  0.444444  0.222222     24.000000
  0.472222  0.444444  0.222222     48.000000
  0.500000  0.444444  0.222222     24.000000
  0.472222  0.472222  0.222222     24.000000
  0.500000  0.472222  0.222222     24.000000
  0.500000  0.500000  0.222222      6.000000
  0.250000  0.250000  0.250000      8.000000
  0.277778  0.250000  0.250000     24.000000
  0.305556  0.250000  0.250000     24.000000
  0.333333  0.250000  0.250000     24.000000
  0.361111  0.250000  0.250000     24.000000
  0.388889  0.250000  0.250000     24.000000
  0.416667  0.250000  0.250000     24.000000
  0.444444  0.250000  0.250000     24.000000
  0.472222  0.250000  0.250000     24.000000
  0.500000  0.250000  0.250000     12.000000
  0.277778  0.277778  0.250000     24.000000
  0.305556  0.277778  0.250000     48.000000
  0.333333  0.277778  0.250000     48.000000
  0.361111  0.277778  0.250000     48.000000
  0.388889  0.277778  0.250000     48.000000
  0.416667  0.277778  0.250000     48.000000
  0.444444  0.277778  0.250000     48.000000
  0.472222  0.277778  0.250000     48.000000
  0.500000  0.277778  0.250000     24.000000
  0.305556  0.305556  0.250000     24.000000
  0.333333  0.305556  0.250000     48.000000
  0.361111  0.305556  0.250000     48.000000
  0.388889  0.305556  0.250000     48.000000
  0.416667  0.305556  0.250000     48.000000
  0.444444  0.305556  0.250000     48.000000
  0.472222  0.305556  0.250000     48.000000
  0.500000  0.305556  0.250000     24.000000
  0.333333  0.333333  0.250000     24.000000
  0.361111  0.333333  0.250000     48.000000
  0.388889  0.333333  0.250000     48.000000
  0.416667  0.333333  0.250000     48.000000
  0.444444  0.333333  0.250000     48.000000
  0.472222  0.333333  0.250000     48.000000
  0.500000  0.333333  0.250000     24.000000
  0.361111  0.361111  0.250000     24.000000
  0.388889  0.361111  0.250000     48.000000
  0.416667  0.361111  0.250000     48.000000
  0.444444  0.361111  0.250000     48.000000
  0.472222  0.361111  0.250000     48.000000
  0.500000  0.361111  0.250000     24.000000
  0.388889  0.388889  0.250000     24.000000
  0.416667  0.388889  0.250000     48.000000
  0.444444  0.388889  0.250000     48.000000
  0.472222  0.388889  0.250000     48.000000
  0.500000  0.388889  0.250000     24.000000
  0.416667  0.416667  0.250000     24.000000
  0.444444  0.416667  0.250000     48.000000
  0.472222  0.416667  0.250000     48.000000
  0.500000  0.416667  0.250000     24.000000
  0.444444  0.444444  0.250000     24.000000
  0.472222  0.444444  0.250000     48.000000
  0.500000  0.444444  0.250000     24.000000
  0.472222  0.472222  0.250000     24.000000
  0.500000  0.472222  0.250000     24.000000
  0.500000  0.500000  0.250000      6.000000
  0.277778  0.277778  0.277778      8.000000
  0.305556  0.277778  0.277778     24.000000
  0.333333  0.277778  0.277778     24.000000
  0.361111  0.277778  0.277778     24.000000
  0.388889  0.277778  0.277778     24.000000
  0.416667  0.277778  0.277778     24.000000
  0.444444  0.277778  0.277778     24.000000
  0.472222  0.277778  0.277778     24.000000
  0.500000  0.277778  0.277778     12.000000
  0.305556  0.305556  0.277778     24.000000
  0.333333  0.305556  0.277778     48.000000
  0.361111  0.305556  0.277778     48.000000
  0.388889  0.305556  0.277778     48.000000
  0.416667  0.305556  0.277778     48.000000
  0.444444  0.305556  0.277778     48.000000
  0.472222  0.305556  0.277778     48.000000
  0.500000  0.305556  0.277778     24.000000
  0.333333  0.333333  0.277778     24.000000
  0.361111  0.333333  0.277778     48.000000
  0.388889  0.333333  0.277778     48.000000
  0.416667  0.333333  0.277778     48.000000
  0.444444  0.333333  0.277778     48.000000
  0.472222  0.333333  0.277778     48.000000
  0.500000  0.333333  0.277778     24.000000
  0.361111  0.361111  0.277778     24.000000
  0.388889  0.361111  0.277778     48.000000
  0.416667  0.361111  0.277778     48.000000
  0.444444  0.361111  0.277778     48.000000
  0.472222  0.361111  0.277778     48.000000
  0.500000  0.361111  0.277778     24.000000
  0.388889  0.388889  0.277778     24.000000
  0.416667  0.388889  0.277778     48.000000
  0.444444  0.388889  0.277778     48.000000
  0.472222  0.388889  0.277778     48.000000
  0.500000  0.388889  0.277778     24.000000
  0.416667  0.416667  0.277778     24.000000
  0.444444  0.416667  0.277778     48.000000
  0.472222  0.416667  0.277778     48.000000
  0.500000  0.416667  0.277778     24.000000
  0.444444  0.444444  0.277778     24.000000
  0.472222  0.444444  0.277778     48.000000
  0.500000  0.444444  0.277778     24.000000
  0.472222  0.472222  0.277778     24.000000
  0.500000  0.472222  0.277778     24.000000
  0.500000  0.500000  0.277778      6.000000
  0.305556  0.305556  0.305556      8.000000
  0.333333  0.305556  0.305556     24.000000
  0.361111  0.305556  0.305556     24.000000
  0.388889  0.305556  0.305556     24.000000
  0.416667  0.305556  0.305556     24.000000
  0.444444  0.305556  0.305556     24.000000
  0.472222  0.305556  0.305556     24.000000
  0.500000  0.305556  0.305556     12.000000
  0.333333  0.333333  0.305556     24.000000
  0.361111  0.333333  0.305556     48.000000
  0.388889  0.333333  0.305556     48.000000
  0.416667  0.333333  0.305556     48.000000
  0.444444  0.333333  0.305556     48.000000
  0.472222  0.333333  0.305556     48.000000
  0.500000  0.333333  0.305556     24.000000
  0.361111  0.361111  0.305556     24.000000
  0.388889  0.361111  0.305556     48.000000
  0.416667  0.361111  0.305556     48.000000
  0.444444  0.361111  0.305556     48.000000
  0.472222  0.361111  0.305556     48.000000
  0.500000  0.361111  0.305556     24.000000
  0.388889  0.388889  0.305556     24.000000
  0.416667  0.388889  0.305556     48.000000
  0.444444  0.388889  0.305556     48.000000
  0.472222  0.388889  0.305556     48.000000
  0.500000  0.388889  0.305556     24.000000
  0.416667  0.416667  0.305556     24.000000
  0.444444  0.416667  0.305556     48.000000
  0.472222  0.416667  0.305556     48.000000
  0.500000  0.416667  0.305556     24.000000
  0.444444  0.444444  0.305556     24.000000
  0.472222  0.444444  0.305556     48.000000
  0.500000  0.444444  0.305556     24.000000
  0.472222  0.472222  0.305556     24.000000
  0.500000  0.472222  0.305556     24.000000
  0.500000  0.500000  0.305556      6.000000
  0.333333  0.333333  0.333333      8.000000
  0.361111  0.333333  0.333333     24.000000
  0.388889  0.333333  0.333333     24.000000
  0.416667  0.333333  0.333333     24.000000
  0.444444  0.333333  0.333333     24.000000
  0.472222  0.333333  0.333333     24.000000
  0.500000  0.333333  0.333333     12.000000
  0.361111  0.361111  0.333333     24.000000
  0.388889  0.361111  0.333333     48.000000
  0.416667  0.361111  0.333333     48.000000
  0.444444  0.361111  0.333333     48.000000
  0.472222  0.361111  0.333333     48.000000
  0.500000  0.361111  0.333333     24.000000
  0.388889  0.388889  0.333333     24.000000
  0.416667  0.388889  0.333333     48.000000
  0.444444  0.388889  0.333333     48.000000
  0.472222  0.388889  0.333333     48.000000
  0.500000  0.388889  0.333333     24.000000
  0.416667  0.416667  0.333333     24.000000
  0.444444  0.416667  0.333333     48.000000
  0.472222  0.416667  0.333333     48.000000
  0.500000  0.416667  0.333333     24.000000
  0.444444  0.444444  0.333333     24.000000
  0.472222  0.444444  0.333333     48.000000
  0.500000  0.444444  0.333333     24.000000
  0.472222  0.472222  0.333333     24.000000
  0.500000  0.472222  0.333333     24.000000
  0.500000  0.500000  0.333333      6.000000
  0.361111  0.361111  0.361111      8.000000
  0.388889  0.361111  0.361111     24.000000
  0.416667  0.361111  0.361111     24.000000
  0.444444  0.361111  0.361111     24.000000
  0.472222  0.361111  0.361111     24.000000
  0.500000  0.361111  0.361111     12.000000
  0.388889  0.388889  0.361111     24.000000
  0.416667  0.388889  0.361111     48.000000
  0.444444  0.388889  0.361111     48.000000
  0.472222  0.388889  0.361111     48.000000
  0.500000  0.388889  0.361111     24.000000
  0.416667  0.416667  0.361111     24.000000
  0.444444  0.416667  0.361111     48.000000
  0.472222  0.416667  0.361111     48.000000
  0.500000  0.416667  0.361111     24.000000
  0.444444  0.444444  0.361111     24.000000
  0.472222  0.444444  0.361111     48.000000
  0.500000  0.444444  0.361111     24.000000
  0.472222  0.472222  0.361111     24.000000
  0.500000  0.472222  0.361111     24.000000
  0.500000  0.500000  0.361111      6.000000
  0.388889  0.388889  0.388889      8.000000
  0.416667  0.388889  0.388889     24.000000
  0.444444  0.388889  0.388889     24.000000
  0.472222  0.388889  0.388889     24.000000
  0.500000  0.388889  0.388889     12.000000
  0.416667  0.416667  0.388889     24.000000
  0.444444  0.416667  0.388889     48.000000
  0.472222  0.416667  0.388889     48.000000
  0.500000  0.416667  0.388889     24.000000
  0.444444  0.444444  0.388889     24.000000
  0.472222  0.444444  0.388889     48.000000
  0.500000  0.444444  0.388889     24.000000
  0.472222  0.472222  0.388889     24.000000
  0.500000  0.472222  0.388889     24.000000
  0.500000  0.500000  0.388889      6.000000
  0.416667  0.416667  0.416667      8.000000
  0.444444  0.416667  0.416667     24.000000
  0.472222  0.416667  0.416667     24.000000
  0.500000  0.416667  0.416667     12.000000
  0.444444  0.444444  0.416667     24.000000
  0.472222  0.444444  0.416667     48.000000
  0.500000  0.444444  0.416667     24.000000
  0.472222  0.472222  0.416667     24.000000
  0.500000  0.472222  0.416667     24.000000
  0.500000  0.500000  0.416667      6.000000
  0.444444  0.444444  0.444444      8.000000
  0.472222  0.444444  0.444444     24.000000
  0.500000  0.444444  0.444444     12.000000
  0.472222  0.472222  0.444444     24.000000
  0.500000  0.472222  0.444444     24.000000
  0.500000  0.500000  0.444444      6.000000
  0.472222  0.472222  0.472222      8.000000
  0.500000  0.472222  0.472222     12.000000
  0.500000  0.500000  0.472222      6.000000
  0.500000  0.500000  0.500000      1.000000
 
 Following cartesian coordinates:
            Coordinates               Weight
  0.000000  0.000000  0.000000      1.000000
  0.006876  0.000000  0.000000      6.000000
  0.013752  0.000000  0.000000      6.000000
  0.020628  0.000000  0.000000      6.000000
  0.027504  0.000000  0.000000      6.000000
  0.034380  0.000000  0.000000      6.000000
  0.041256  0.000000  0.000000      6.000000
  0.048132  0.000000  0.000000      6.000000
  0.055007  0.000000  0.000000      6.000000
  0.061883  0.000000  0.000000      6.000000
  0.068759  0.000000  0.000000      6.000000
  0.075635  0.000000  0.000000      6.000000
  0.082511  0.000000  0.000000      6.000000
  0.089387  0.000000  0.000000      6.000000
  0.096263  0.000000  0.000000      6.000000
  0.103139  0.000000  0.000000      6.000000
  0.110015  0.000000  0.000000      6.000000
  0.116891  0.000000  0.000000      6.000000
  0.123767  0.000000  0.000000      3.000000
  0.006876  0.006876  0.000000     12.000000
  0.013752  0.006876  0.000000     24.000000
  0.020628  0.006876  0.000000     24.000000
  0.027504  0.006876  0.000000     24.000000
  0.034380  0.006876  0.000000     24.000000
  0.041256  0.006876  0.000000     24.000000
  0.048132  0.006876  0.000000     24.000000
  0.055007  0.006876  0.000000     24.000000
  0.061883  0.006876  0.000000     24.000000
  0.068759  0.006876  0.000000     24.000000
  0.075635  0.006876  0.000000     24.000000
  0.082511  0.006876  0.000000     24.000000
  0.089387  0.006876  0.000000     24.000000
  0.096263  0.006876  0.000000     24.000000
  0.103139  0.006876  0.000000     24.000000
  0.110015  0.006876  0.000000     24.000000
  0.116891  0.006876  0.000000     24.000000
  0.123767  0.006876  0.000000     12.000000
  0.013752  0.013752  0.000000     12.000000
  0.020628  0.013752  0.000000     24.000000
  0.027504  0.013752  0.000000     24.000000
  0.034380  0.013752  0.000000     24.000000
  0.041256  0.013752  0.000000     24.000000
  0.048132  0.013752  0.000000     24.000000
  0.055007  0.013752  0.000000     24.000000
  0.061883  0.013752  0.000000     24.000000
  0.068759  0.013752  0.000000     24.000000
  0.075635  0.013752  0.000000     24.000000
  0.082511  0.013752  0.000000     24.000000
  0.089387  0.013752  0.000000     24.000000
  0.096263  0.013752  0.000000     24.000000
  0.103139  0.013752  0.000000     24.000000
  0.110015  0.013752  0.000000     24.000000
  0.116891  0.013752  0.000000     24.000000
  0.123767  0.013752  0.000000     12.000000
  0.020628  0.020628  0.000000     12.000000
  0.027504  0.020628  0.000000     24.000000
  0.034380  0.020628  0.000000     24.000000
  0.041256  0.020628  0.000000     24.000000
  0.048132  0.020628  0.000000     24.000000
  0.055007  0.020628  0.000000     24.000000
  0.061883  0.020628  0.000000     24.000000
  0.068759  0.020628  0.000000     24.000000
  0.075635  0.020628  0.000000     24.000000
  0.082511  0.020628  0.000000     24.000000
  0.089387  0.020628  0.000000     24.000000
  0.096263  0.020628  0.000000     24.000000
  0.103139  0.020628  0.000000     24.000000
  0.110015  0.020628  0.000000     24.000000
  0.116891  0.020628  0.000000     24.000000
  0.123767  0.020628  0.000000     12.000000
  0.027504  0.027504  0.000000     12.000000
  0.034380  0.027504  0.000000     24.000000
  0.041256  0.027504  0.000000     24.000000
  0.048132  0.027504  0.000000     24.000000
  0.055007  0.027504  0.000000     24.000000
  0.061883  0.027504  0.000000     24.000000
  0.068759  0.027504  0.000000     24.000000
  0.075635  0.027504  0.000000     24.000000
  0.082511  0.027504  0.000000     24.000000
  0.089387  0.027504  0.000000     24.000000
  0.096263  0.027504  0.000000     24.000000
  0.103139  0.027504  0.000000     24.000000
  0.110015  0.027504  0.000000     24.000000
  0.116891  0.027504  0.000000     24.000000
  0.123767  0.027504  0.000000     12.000000
  0.034380  0.034380  0.000000     12.000000
  0.041256  0.034380  0.000000     24.000000
  0.048132  0.034380  0.000000     24.000000
  0.055007  0.034380  0.000000     24.000000
  0.061883  0.034380  0.000000     24.000000
  0.068759  0.034380  0.000000     24.000000
  0.075635  0.034380  0.000000     24.000000
  0.082511  0.034380  0.000000     24.000000
  0.089387  0.034380  0.000000     24.000000
  0.096263  0.034380  0.000000     24.000000
  0.103139  0.034380  0.000000     24.000000
  0.110015  0.034380  0.000000     24.000000
  0.116891  0.034380  0.000000     24.000000
  0.123767  0.034380  0.000000     12.000000
  0.041256  0.041256  0.000000     12.000000
  0.048132  0.041256  0.000000     24.000000
  0.055007  0.041256  0.000000     24.000000
  0.061883  0.041256  0.000000     24.000000
  0.068759  0.041256  0.000000     24.000000
  0.075635  0.041256  0.000000     24.000000
  0.082511  0.041256  0.000000     24.000000
  0.089387  0.041256  0.000000     24.000000
  0.096263  0.041256  0.000000     24.000000
  0.103139  0.041256  0.000000     24.000000
  0.110015  0.041256  0.000000     24.000000
  0.116891  0.041256  0.000000     24.000000
  0.123767  0.041256  0.000000     12.000000
  0.048132  0.048132  0.000000     12.000000
  0.055007  0.048132  0.000000     24.000000
  0.061883  0.048132  0.000000     24.000000
  0.068759  0.048132  0.000000     24.000000
  0.075635  0.048132  0.000000     24.000000
  0.082511  0.048132  0.000000     24.000000
  0.089387  0.048132  0.000000     24.000000
  0.096263  0.048132  0.000000     24.000000
  0.103139  0.048132  0.000000     24.000000
  0.110015  0.048132  0.000000     24.000000
  0.116891  0.048132  0.000000     24.000000
  0.123767  0.048132  0.000000     12.000000
  0.055007  0.055007  0.000000     12.000000
  0.061883  0.055007  0.000000     24.000000
  0.068759  0.055007  0.000000     24.000000
  0.075635  0.055007  0.000000     24.000000
  0.082511  0.055007  0.000000     24.000000
  0.089387  0.055007  0.000000     24.000000
  0.096263  0.055007  0.000000     24.000000
  0.103139  0.055007  0.000000     24.000000
  0.110015  0.055007  0.000000     24.000000
  0.116891  0.055007  0.000000     24.000000
  0.123767  0.055007  0.000000     12.000000
  0.061883  0.061883  0.000000     12.000000
  0.068759  0.061883  0.000000     24.000000
  0.075635  0.061883  0.000000     24.000000
  0.082511  0.061883  0.000000     24.000000
  0.089387  0.061883  0.000000     24.000000
  0.096263  0.061883  0.000000     24.000000
  0.103139  0.061883  0.000000     24.000000
  0.110015  0.061883  0.000000     24.000000
  0.116891  0.061883  0.000000     24.000000
  0.123767  0.061883  0.000000     12.000000
  0.068759  0.068759  0.000000     12.000000
  0.075635  0.068759  0.000000     24.000000
  0.082511  0.068759  0.000000     24.000000
  0.089387  0.068759  0.000000     24.000000
  0.096263  0.068759  0.000000     24.000000
  0.103139  0.068759  0.000000     24.000000
  0.110015  0.068759  0.000000     24.000000
  0.116891  0.068759  0.000000     24.000000
  0.123767  0.068759  0.000000     12.000000
  0.075635  0.075635  0.000000     12.000000
  0.082511  0.075635  0.000000     24.000000
  0.089387  0.075635  0.000000     24.000000
  0.096263  0.075635  0.000000     24.000000
  0.103139  0.075635  0.000000     24.000000
  0.110015  0.075635  0.000000     24.000000
  0.116891  0.075635  0.000000     24.000000
  0.123767  0.075635  0.000000     12.000000
  0.082511  0.082511  0.000000     12.000000
  0.089387  0.082511  0.000000     24.000000
  0.096263  0.082511  0.000000     24.000000
  0.103139  0.082511  0.000000     24.000000
  0.110015  0.082511  0.000000     24.000000
  0.116891  0.082511  0.000000     24.000000
  0.123767  0.082511  0.000000     12.000000
  0.089387  0.089387  0.000000     12.000000
  0.096263  0.089387  0.000000     24.000000
  0.103139  0.089387  0.000000     24.000000
  0.110015  0.089387  0.000000     24.000000
  0.116891  0.089387  0.000000     24.000000
  0.123767  0.089387  0.000000     12.000000
  0.096263  0.096263  0.000000     12.000000
  0.103139  0.096263  0.000000     24.000000
  0.110015  0.096263  0.000000     24.000000
  0.116891  0.096263  0.000000     24.000000
  0.123767  0.096263  0.000000     12.000000
  0.103139  0.103139  0.000000     12.000000
  0.110015  0.103139  0.000000     24.000000
  0.116891  0.103139  0.000000     24.000000
  0.123767  0.103139  0.000000     12.000000
  0.110015  0.110015  0.000000     12.000000
  0.116891  0.110015  0.000000     24.000000
  0.123767  0.110015  0.000000     12.000000
  0.116891  0.116891  0.000000     12.000000
  0.123767  0.116891  0.000000     12.000000
  0.123767  0.123767  0.000000      3.000000
  0.006876  0.006876  0.006876      8.000000
  0.013752  0.006876  0.006876     24.000000
  0.020628  0.006876  0.006876     24.000000
  0.027504  0.006876  0.006876     24.000000
  0.034380  0.006876  0.006876     24.000000
  0.041256  0.006876  0.006876     24.000000
  0.048132  0.006876  0.006876     24.000000
  0.055007  0.006876  0.006876     24.000000
  0.061883  0.006876  0.006876     24.000000
  0.068759  0.006876  0.006876     24.000000
  0.075635  0.006876  0.006876     24.000000
  0.082511  0.006876  0.006876     24.000000
  0.089387  0.006876  0.006876     24.000000
  0.096263  0.006876  0.006876     24.000000
  0.103139  0.006876  0.006876     24.000000
  0.110015  0.006876  0.006876     24.000000
  0.116891  0.006876  0.006876     24.000000
  0.123767  0.006876  0.006876     12.000000
  0.013752  0.013752  0.006876     24.000000
  0.020628  0.013752  0.006876     48.000000
  0.027504  0.013752  0.006876     48.000000
  0.034380  0.013752  0.006876     48.000000
  0.041256  0.013752  0.006876     48.000000
  0.048132  0.013752  0.006876     48.000000
  0.055007  0.013752  0.006876     48.000000
  0.061883  0.013752  0.006876     48.000000
  0.068759  0.013752  0.006876     48.000000
  0.075635  0.013752  0.006876     48.000000
  0.082511  0.013752  0.006876     48.000000
  0.089387  0.013752  0.006876     48.000000
  0.096263  0.013752  0.006876     48.000000
  0.103139  0.013752  0.006876     48.000000
  0.110015  0.013752  0.006876     48.000000
  0.116891  0.013752  0.006876     48.000000
  0.123767  0.013752  0.006876     24.000000
  0.020628  0.020628  0.006876     24.000000
  0.027504  0.020628  0.006876     48.000000
  0.034380  0.020628  0.006876     48.000000
  0.041256  0.020628  0.006876     48.000000
  0.048132  0.020628  0.006876     48.000000
  0.055007  0.020628  0.006876     48.000000
  0.061883  0.020628  0.006876     48.000000
  0.068759  0.020628  0.006876     48.000000
  0.075635  0.020628  0.006876     48.000000
  0.082511  0.020628  0.006876     48.000000
  0.089387  0.020628  0.006876     48.000000
  0.096263  0.020628  0.006876     48.000000
  0.103139  0.020628  0.006876     48.000000
  0.110015  0.020628  0.006876     48.000000
  0.116891  0.020628  0.006876     48.000000
  0.123767  0.020628  0.006876     24.000000
  0.027504  0.027504  0.006876     24.000000
  0.034380  0.027504  0.006876     48.000000
  0.041256  0.027504  0.006876     48.000000
  0.048132  0.027504  0.006876     48.000000
  0.055007  0.027504  0.006876     48.000000
  0.061883  0.027504  0.006876     48.000000
  0.068759  0.027504  0.006876     48.000000
  0.075635  0.027504  0.006876     48.000000
  0.082511  0.027504  0.006876     48.000000
  0.089387  0.027504  0.006876     48.000000
  0.096263  0.027504  0.006876     48.000000
  0.103139  0.027504  0.006876     48.000000
  0.110015  0.027504  0.006876     48.000000
  0.116891  0.027504  0.006876     48.000000
  0.123767  0.027504  0.006876     24.000000
  0.034380  0.034380  0.006876     24.000000
  0.041256  0.034380  0.006876     48.000000
  0.048132  0.034380  0.006876     48.000000
  0.055007  0.034380  0.006876     48.000000
  0.061883  0.034380  0.006876     48.000000
  0.068759  0.034380  0.006876     48.000000
  0.075635  0.034380  0.006876     48.000000
  0.082511  0.034380  0.006876     48.000000
  0.089387  0.034380  0.006876     48.000000
  0.096263  0.034380  0.006876     48.000000
  0.103139  0.034380  0.006876     48.000000
  0.110015  0.034380  0.006876     48.000000
  0.116891  0.034380  0.006876     48.000000
  0.123767  0.034380  0.006876     24.000000
  0.041256  0.041256  0.006876     24.000000
  0.048132  0.041256  0.006876     48.000000
  0.055007  0.041256  0.006876     48.000000
  0.061883  0.041256  0.006876     48.000000
  0.068759  0.041256  0.006876     48.000000
  0.075635  0.041256  0.006876     48.000000
  0.082511  0.041256  0.006876     48.000000
  0.089387  0.041256  0.006876     48.000000
  0.096263  0.041256  0.006876     48.000000
  0.103139  0.041256  0.006876     48.000000
  0.110015  0.041256  0.006876     48.000000
  0.116891  0.041256  0.006876     48.000000
  0.123767  0.041256  0.006876     24.000000
  0.048132  0.048132  0.006876     24.000000
  0.055007  0.048132  0.006876     48.000000
  0.061883  0.048132  0.006876     48.000000
  0.068759  0.048132  0.006876     48.000000
  0.075635  0.048132  0.006876     48.000000
  0.082511  0.048132  0.006876     48.000000
  0.089387  0.048132  0.006876     48.000000
  0.096263  0.048132  0.006876     48.000000
  0.103139  0.048132  0.006876     48.000000
  0.110015  0.048132  0.006876     48.000000
  0.116891  0.048132  0.006876     48.000000
  0.123767  0.048132  0.006876     24.000000
  0.055007  0.055007  0.006876     24.000000
  0.061883  0.055007  0.006876     48.000000
  0.068759  0.055007  0.006876     48.000000
  0.075635  0.055007  0.006876     48.000000
  0.082511  0.055007  0.006876     48.000000
  0.089387  0.055007  0.006876     48.000000
  0.096263  0.055007  0.006876     48.000000
  0.103139  0.055007  0.006876     48.000000
  0.110015  0.055007  0.006876     48.000000
  0.116891  0.055007  0.006876     48.000000
[...]
     16      17.7343      0.00000

 k-point *** :       0.5000    0.5000    0.3889
  band No.  band energies     occupation 
      1       2.2420      2.00000
      2       2.2420      2.00000
      3       2.2420      2.00000
      4       2.2420      2.00000
      5       4.1012      2.00000
      6       4.1012      2.00000
      7       4.1012      2.00000
      8       4.1012      2.00000
      9      16.5358      0.00000
     10      16.5358      0.00000
     11      16.5358      0.00000
     12      16.5358      0.00000
     13      17.6289      0.00000
     14      17.6289      0.00000
     15      17.6289      0.00000
     16      17.6289      0.00000

 k-point *** :       0.4167    0.4167    0.4167
  band No.  band energies     occupation 
      1       1.1418      2.00000
      2       2.5461      2.00000
      3       2.5461      2.00000
      4       2.5461      2.00000
      5       3.9408      2.00000
      6       3.9408      2.00000
      7       3.9408      2.00000
      8       5.3224      2.00000
      9      16.0577      0.00000
     10      16.0577      0.00000
     11      16.0577      0.00000
     12      16.6574      0.00000
     13      16.6574      0.00000
     14      16.6574      0.00000
     15      17.8967      0.00000
     16      17.8967      0.00000

 k-point *** :       0.4444    0.4167    0.4167
  band No.  band energies     occupation 
      1       1.3442      2.00000
      2       2.2807      2.00000
      3       2.7464      2.00000
      4       2.7464      2.00000
      5       3.6778      2.00000
      6       3.6778      2.00000
      7       4.1397      2.00000
      8       5.0610      2.00000
      9      16.2210      0.00000
     10      16.2210      0.00000
     11      16.6286      0.00000
     12      16.7356      0.00000
     13      16.7356      0.00000
     14      16.8373      0.00000
     15      17.6662      0.00000
     16      18.1348      0.00000

 k-point *** :       0.4722    0.4167    0.4167
  band No.  band energies     occupation 
      1       1.5594      2.00000
      2       2.0277      2.00000
      3       2.9587      2.00000
      4       2.9587      2.00000
      5       3.4279      2.00000
      6       3.4279      2.00000
      7       4.3513      2.00000
      8       4.8120      2.00000
      9      16.3850      0.00000
     10      16.3850      0.00000
     11      16.6722      0.00000
     12      16.6722      0.00000
     13      17.0285      0.00000
     14      17.1886      0.00000
     15      17.4436      0.00000
     16      18.1387      0.00000

 k-point *** :       0.5000    0.4167    0.4167
  band No.  band energies     occupation 
      1       1.7873      2.00000
      2       1.7873      2.00000
      3       3.1543      2.00000
      4       3.1543      2.00000
      5       3.2198      2.00000
      6       3.2198      2.00000
      7       4.5754      2.00000
      8       4.5754      2.00000
      9      16.5361      0.00000
     10      16.5361      0.00000
     11      16.5470      0.00000
     12      16.5470      0.00000
     13      17.2307      0.00000
     14      17.2307      0.00000
     15      17.7210      0.00000
     16      17.7210      0.00000

 k-point *** :       0.4444    0.4444    0.4167
  band No.  band energies     occupation 
      1       1.5464      2.00000
      2       2.4816      2.00000
      3       2.4816      2.00000
      4       2.9459      2.00000
      5       3.4151      2.00000
      6       3.8768      2.00000
      7       3.8768      2.00000
      8       4.7994      2.00000
      9      16.3854      0.00000
     10      16.7817      0.00000
     11      16.7817      0.00000
     12      16.9129      0.00000
     13      16.9129      0.00000
     14      17.0165      0.00000
     15      17.6609      0.00000
     16      18.2091      0.00000

 k-point *** :       0.4722    0.4444    0.4167
  band No.  band energies     occupation 
      1       1.7613      2.00000
      2       2.2290      2.00000
      3       2.6950      2.00000
      4       3.1293      2.00000
      5       3.1933      2.00000
      6       3.6264      2.00000
      7       4.0886      2.00000
      8       4.5500      2.00000
      9      16.5511      0.00000
     10      16.8444      0.00000
     11      16.9281      0.00000
     12      17.0995      0.00000
     13      17.1042      0.00000
     14      17.3262      0.00000
     15      17.4890      0.00000
     16      18.2105      0.00000

 k-point *** :       0.5000    0.4444    0.4167
  band No.  band energies     occupation 
      1       1.9889      2.00000
      2       1.9889      2.00000
      3       2.9203      2.00000
      4       2.9203      2.00000
      5       3.3892      2.00000
      6       3.3892      2.00000
      7       4.3130      2.00000
      8       4.3130      2.00000
      9      16.7102      0.00000
     10      16.7102      0.00000
     11      17.0492      0.00000
     12      17.0492      0.00000
     13      17.2936      0.00000
     14      17.2936      0.00000
     15      17.8326      0.00000
     16      17.8326      0.00000

 k-point *** :       0.4722    0.4722    0.4167
  band No.  band energies     occupation 
      1       1.9759      2.00000
      2       2.4429      2.00000
      3       2.4429      2.00000
      4       2.9075      2.00000
      5       3.3763      2.00000
      6       3.8383      2.00000
      7       3.8383      2.00000
      8       4.3003      2.00000
      9      16.7194      0.00000
     10      17.0231      0.00000
     11      17.0231      0.00000
     12      17.3716      0.00000
     13      17.3963      0.00000
     14      17.4411      0.00000
     15      17.4411      0.00000
     16      18.1729      0.00000

 k-point *** :       0.5000    0.4722    0.4167
  band No.  band energies     occupation 
      1       2.2032      2.00000
      2       2.2032      2.00000
      3       2.6693      2.00000
      4       2.6693      2.00000
      5       3.6007      2.00000
      6       3.6007      2.00000
      7       4.0630      2.00000
      8       4.0630      2.00000
      9      16.8825      0.00000
     10      16.8825      0.00000
     11      17.2030      0.00000
     12      17.2030      0.00000
     13      17.4911      0.00000
     14      17.4911      0.00000
     15      17.8866      0.00000
     16      17.8866      0.00000

 k-point *** :       0.5000    0.5000    0.4167
  band No.  band energies     occupation 
      1       2.4300      2.00000
      2       2.4300      2.00000
      3       2.4300      2.00000
      4       2.4300      2.00000
      5       3.8255      2.00000
      6       3.8255      2.00000
      7       3.8255      2.00000
      8       3.8255      2.00000
      9      17.0521      0.00000
     10      17.0521      0.00000
     11      17.0521      0.00000
     12      17.0521      0.00000
     13      17.7921      0.00000
     14      17.7921      0.00000
     15      17.7921      0.00000
     16      17.7921      0.00000

 k-point *** :       0.4444    0.4444    0.4444
  band No.  band energies     occupation 
      1       1.7483      2.00000
      2       2.6821      2.00000
      3       2.6821      2.00000
      4       2.6821      2.00000
      5       3.6136      2.00000
      6       3.6136      2.00000
      7       3.6136      2.00000
      8       4.5373      2.00000
      9      16.9373      0.00000
     10      16.9373      0.00000
     11      16.9373      0.00000
     12      17.1958      0.00000
     13      17.1958      0.00000
     14      17.1958      0.00000
     15      18.0076      0.00000
     16      18.0076      0.00000

 k-point *** :       0.4722    0.4444    0.4444
  band No.  band energies     occupation 
      1       1.9629      2.00000
      2       2.4300      2.00000
      3       2.8946      2.00000
      4       2.8946      2.00000
      5       3.3635      2.00000
      6       3.3635      2.00000
      7       3.8256      2.00000
      8       4.2876      2.00000
      9      17.0874      0.00000
     10      17.0874      0.00000
     11      17.2793      0.00000
     12      17.2793      0.00000
     13      17.3859      0.00000
     14      17.4689      0.00000
     15      17.7948      0.00000
     16      18.1996      0.00000

 k-point *** :       0.5000    0.4444    0.4444
  band No.  band energies     occupation 
      1       2.1902      2.00000
      2       2.1902      2.00000
      3       3.0918      2.00000
      4       3.0918      2.00000
      5       3.1537      2.00000
      6       3.1537      2.00000
      7       4.0503      2.00000
      8       4.0503      2.00000
      9      17.2043      0.00000
     10      17.2043      0.00000
     11      17.2270      0.00000
     12      17.2270      0.00000
     13      17.5861      0.00000
     14      17.5861      0.00000
     15      17.9511      0.00000
     16      17.9511      0.00000

 k-point *** :       0.4722    0.4722    0.4444
  band No.  band energies     occupation 
      1       2.1773      2.00000
      2       2.6435      2.00000
      3       2.6435      2.00000
      4       3.0794      2.00000
      5       3.1405      2.00000
      6       3.5751      2.00000
      7       3.5751      2.00000
      8       4.0375      2.00000
      9      17.2444      0.00000
     10      17.4593      0.00000
     11      17.4593      0.00000
     12      17.5736      0.00000
     13      17.5954      0.00000
     14      17.5954      0.00000
     15      17.8002      0.00000
     16      18.2382      0.00000

 k-point *** :       0.5000    0.4722    0.4444
  band No.  band energies     occupation 
      1       2.4042      2.00000
      2       2.4042      2.00000
      3       2.8690      2.00000
      4       2.8690      2.00000
      5       3.3377      2.00000
      6       3.3377      2.00000
      7       3.8000      2.00000
      8       3.8000      2.00000
      9      17.3822      0.00000
     10      17.3822      0.00000
     11      17.6423      0.00000
     12      17.6423      0.00000
     13      17.6599      0.00000
     14      17.6599      0.00000
     15      18.0303      0.00000
     16      18.0303      0.00000

 k-point *** :       0.5000    0.5000    0.4444
  band No.  band energies     occupation 
      1       2.6306      2.00000
      2       2.6306      2.00000
      3       2.6306      2.00000
      4       2.6306      2.00000
      5       3.5622      2.00000
      6       3.5622      2.00000
      7       3.5622      2.00000
      8       3.5622      2.00000
      9      17.5379      0.00000
     10      17.5379      0.00000
     11      17.5379      0.00000
     12      17.5379      0.00000
     13      17.9605      0.00000
     14      17.9605      0.00000
     15      17.9605      0.00000
     16      17.9605      0.00000

 k-point *** :       0.4722    0.4722    0.4722
  band No.  band energies     occupation 
      1       2.3912      2.00000
      2       2.8561      2.00000
      3       2.8561      2.00000
      4       2.8561      2.00000
      5       3.3248      2.00000
      6       3.3248      2.00000
      7       3.3248      2.00000
      8       3.7872      2.00000
      9      17.7342      0.00000
     10      17.7342      0.00000
     11      17.7342      0.00000
     12      17.7598      0.00000
     13      17.7598      0.00000
     14      17.7598      0.00000
     15      18.1328      0.00000
     16      18.1328      0.00000

 k-point *** :       0.5000    0.4722    0.4722
  band No.  band energies     occupation 
      1       2.6177      2.00000
      2       2.6177      2.00000
      3       3.0544      2.00000
      4       3.0544      2.00000
      5       3.1140      2.00000
      6       3.1140      2.00000
      7       3.5494      2.00000
      8       3.5494      2.00000
      9      17.8109      0.00000
     10      17.8109      0.00000
     11      17.8412      0.00000
     12      17.8412      0.00000
     13      17.9510      0.00000
     14      17.9510      0.00000
     15      18.1318      0.00000
     16      18.1318      0.00000

 k-point *** :       0.5000    0.5000    0.4722
  band No.  band energies     occupation 
      1       2.8433      2.00000
      2       2.8433      2.00000
      3       2.8433      2.00000
      4       2.8433      2.00000
      5       3.3119      2.00000
      6       3.3119      2.00000
      7       3.3119      2.00000
      8       3.3119      2.00000
      9      17.9651      0.00000
     10      17.9651      0.00000
     11      17.9651      0.00000
     12      17.9651      0.00000
     13      18.1207      0.00000
     14      18.1207      0.00000
     15      18.1207      0.00000
     16      18.1207      0.00000

 k-point *** :       0.5000    0.5000    0.5000
  band No.  band energies     occupation 
      1       3.0419      2.00000
      2       3.0419      2.00000
      3       3.0419      2.00000
      4       3.0419      2.00000
      5       3.1008      2.00000
      6       3.1008      2.00000
      7       3.1008      2.00000
      8       3.1008      2.00000
      9      18.2072      0.00000
     10      18.2072      0.00000
     11      18.2072      0.00000
     12      18.2072      0.00000
     13      18.2072      0.00000
     14      18.2072      0.00000
     15      18.2072      0.00000
     16      18.2072      0.00000


--------------------------------------------------------------------------------------------------------


 soft charge-density along one line, spin component           1
         0         1         2         3         4         5         6         7         8         9
 total charge-density along one line
 
 pseudopotential strength for first ion, spin component:           1
  8.463  -0.005   0.000   0.000  -0.000   0.000   0.000  -0.000
 -0.005   0.000   0.000   0.000  -0.000  -0.000  -0.000   0.000
  0.000   0.000   1.985  -0.000  -0.000  -0.025   0.000   0.000
  0.000   0.000  -0.000   1.985  -0.000   0.000  -0.025   0.000
 -0.000  -0.000  -0.000  -0.000   1.985   0.000   0.000  -0.025
  0.000  -0.000  -0.025   0.000   0.000  -0.012   0.000   0.000
  0.000  -0.000   0.000  -0.025   0.000   0.000  -0.012   0.000
 -0.000   0.000   0.000   0.000  -0.025   0.000   0.000  -0.012
 total augmentation occupancy for first ion, spin component:           1
  1.352  -0.410  -0.000  -0.000  -0.000  -0.000  -0.000  -0.000
 -0.410   0.413  -0.000   0.000   0.000   0.000   0.000  -0.000
 -0.000  -0.000   0.680  -0.081   0.022  -0.139   0.015   0.003
 -0.000   0.000  -0.081   0.772  -0.014   0.015  -0.116   0.007
 -0.000   0.000   0.022  -0.014   0.613   0.003   0.007  -0.144
 -0.000   0.000  -0.139   0.015   0.003   0.032  -0.002  -0.002
 -0.000   0.000   0.015  -0.116   0.007  -0.002   0.019  -0.001
 -0.000  -0.000   0.003   0.007  -0.144  -0.002  -0.001   0.038


------------------------ aborting loop because EDIFF is reached ----------------------------------------




--------------------------------------------------------------------------------------------------------


    CHARGE:  VPU time    1.72: CPU time    1.72
    FORLOC:  VPU time    0.00: CPU time    0.00
    FORNL :  VPU time    3.86: CPU time    3.85
    STRESS:  VPU time   22.40: CPU time   22.39
    FORCOR:  VPU time    0.06: CPU time    0.06
    FORHAR:  VPU time    0.01: CPU time    0.01
    MIXING:  VPU time    0.00: CPU time    0.00


--------------------------------------------------------------------------------------------------------



  FREE ENERGIE OF THE ION-ELECTRON SYSTEM (eV)
  ---------------------------------------------------
  free  energy   TOTEN  =       -14.927894 eV

  energy  without entropy=      -14.927761  energy(sigma->0) =      -14.927827
 

  FORCE on cell =-STRESS in cart. coord.  units (eV/reduce length):
  Direction    X        Y        Z        XY       YZ       ZX
  --------------------------------------------------------------------------------------
  Alpha Z     -0.77     -0.77     -0.77
  Ewald      -96.13    -96.13    -96.13     -0.00     -0.00     -0.00
  Hartree      0.13      0.13      0.13     -0.00     -0.00     -0.00
  E(xc)      -33.64    -33.64    -33.64     -0.00     -0.00      0.00
  Local        0.36      0.36      0.36      0.00     -0.00      0.00
  n-local     73.64     74.46     76.04      0.11      0.76      0.29
  augment     -4.29     -4.29     -4.29      0.00      0.00      0.00
  Kinetic     55.32     57.17     61.11      1.65     -8.19     -1.83
  -------------------------------------------------------------------------------------
  Total       -1.76     -1.76     -1.76      0.00      0.00      0.00
  in kB      -40.27    -40.27    -40.27      0.00      0.00      0.00
  external pressure =      -40.27 kB  Pullay stress =        0.00 kB


 VOLUME and BASIS-vectors are now :
 -----------------------------------------------------------------------------
  energy-cutoff  :     1000.00
  volume of cell :       69.97
      direct lattice vectors                 reciprocal lattice vectors
     4.120651977  0.000000000  0.000000000     0.242680043  0.000000000  0.000000000
     0.000000000  4.120651977  0.000000000     0.000000000  0.242680043  0.000000000
     0.000000000  0.000000000  4.120651977     0.000000000  0.000000000  0.242680043

  length of vectors
     4.120651977  4.120651977  4.120651977     0.242680043  0.242680043  0.242680043


 FORCES acting on ions
    electron-ion (+dipol)            ewald-force                    non-local-force                 convergence-correction
 -----------------------------------------------------------------------------------------------
   -.447E-14 -.184E-13 0.984E-13   -.396E-15 -.263E-15 -.446E-15   -.239E-26 -.139E-26 0.127E-26   -.518E-17 0.148E-15 -.587E-16
   -.451E-14 -.854E-15 0.198E-13   -.430E-15 0.637E-15 0.317E-15   0.761E-27 0.237E-26 0.357E-26   -.275E-16 -.135E-15 0.589E-16
   0.215E-14 -.484E-14 -.496E-14   0.481E-15 -.633E-15 0.305E-15   -.939E-27 0.509E-27 -.139E-26   0.454E-17 0.142E-15 0.527E-16
   0.204E-14 -.189E-15 0.511E-15   0.447E-15 0.266E-15 -.221E-15   0.157E-26 -.358E-26 0.268E-26   0.357E-16 -.144E-15 -.607E-16
 -----------------------------------------------------------------------------------------------
   -.479E-14 -.243E-13 0.114E-12   0.102E-15 0.670E-17 -.447E-16   -.993E-27 -.209E-26 0.613E-26   0.757E-17 0.106E-16 -.781E-17
 
 
 POSITION                                       TOTAL-FORCE (eV/Angst)
 -----------------------------------------------------------------------------------
      2.06033      2.06033      0.00000        -0.000000     -0.000000      0.000000
      2.06033      0.00000      2.06033         0.000000      0.000000      0.000000
      0.00000      2.06033      2.06033         0.000000     -0.000000     -0.000000
      0.00000      0.00000      0.00000         0.000000     -0.000000     -0.000000
 -----------------------------------------------------------------------------------
    total drift:                               -0.000000     -0.000000      0.000000


--------------------------------------------------------------------------------------------------------



 mean value of Nose-termostat <S>:     1.000 mean value of <T> :     0.000
 mean temperature <T/S>/<1/S>  :     0.000

     LOOP+:  VPU time  599.85: CPU time  599.82
  
  
 General timing and accounting informations for this job:
 ========================================================
  
                  Total CPU time used (sec):      623.971
                            User time (sec):      428.922
                          System time (sec):      195.049
                         Elapsed time (sec):      623.973
  
                   Maximum memory used (kb):     3888708.
                   Average memory used (kb):           0.
  
                          Minor page faults:       740821
                          Major page faults:            0
                 Voluntary context switches:          969
