   4   4   0   0
  0.2352439E+02  0.4548409E-09  0.4548409E-09  0.4548409E-09  0.5000000E-15
  1.000000000000000E-004
  CAR 
 unknown system                          
     12.25691219     -5.44726331  301      2.34148149      1.00000000
     -5.447  0.0000E+00  0.0000E+00
     -5.388  0.0000E+00  0.0000E+00
     -5.329  0.0000E+00  0.0000E+00
     -5.270  0.0000E+00  0.0000E+00
     -5.211  0.0000E+00  0.0000E+00
     -5.152  0.0000E+00  0.0000E+00
     -5.093  0.0000E+00  0.0000E+00
     -5.034  0.0000E+00  0.0000E+00
     -4.975  0.0000E+00  0.0000E+00
     -4.916  0.0000E+00  0.0000E+00
     -4.857  0.0000E+00  0.0000E+00
     -4.798  0.0000E+00  0.0000E+00
     -4.739  0.0000E+00  0.0000E+00
     -4.680  0.1069E-08  0.6310E-10
     -4.621  0.1959E-01  0.1156E-02
     -4.562  0.1173E+00  0.8080E-02
     -4.503  0.2343E+00  0.2191E-01
     -4.444  0.1569E+00  0.3117E-01
     -4.385  0.1167E+00  0.3806E-01
     -4.326  0.4640E+00  0.6544E-01
     -4.267  0.4734E+00  0.9337E-01
     -4.208  0.6387E-02  0.9375E-01
     -4.149  0.2333E+00  0.1075E+00
     -4.090  0.5858E+00  0.1421E+00
     -4.031  0.4700E+00  0.1698E+00
     -3.972  0.4753E+00  0.1979E+00
     -3.913  0.1577E+00  0.2072E+00
     -3.854  0.4712E+00  0.2350E+00
     -3.795  0.9408E+00  0.2905E+00
     -3.736  0.8468E-06  0.2905E+00
     -3.677  0.5052E+00  0.3203E+00
     -3.618  0.6159E+00  0.3567E+00
     -3.559  0.1090E+01  0.4210E+00
     -3.500  0.2753E+00  0.4372E+00
     -3.441  0.1551E+01  0.5288E+00
     -3.382  0.8121E-01  0.5336E+00
     -3.323  0.4504E+00  0.5601E+00
     -3.264  0.9320E-01  0.5656E+00
     -3.205  0.1620E+01  0.6612E+00
     -3.146  0.1025E+01  0.7218E+00
     -3.087  0.8504E+00  0.7720E+00
     -3.028  0.6511E+00  0.8104E+00
     -2.969  0.1232E+01  0.8831E+00
     -2.910  0.1227E+01  0.9555E+00
     -2.851  0.7628E+00  0.1001E+01
     -2.792  0.2354E+01  0.1140E+01
     -2.733  0.9185E+00  0.1194E+01
     -2.674  0.1846E+01  0.1303E+01
     -2.615  0.2882E+01  0.1473E+01
     -2.556  0.4792E+01  0.1756E+01
     -2.497  0.2246E+01  0.1888E+01
     -2.438  0.5273E+01  0.2199E+01
     -2.379  0.4300E+01  0.2453E+01
     -2.320  0.3136E+01  0.2638E+01
     -2.261  0.8939E+01  0.3166E+01
     -2.201  0.8589E+01  0.3673E+01
     -2.142  0.8474E+01  0.4173E+01
     -2.083  0.1402E+02  0.5000E+01
     -2.024  0.1087E+02  0.5641E+01
     -1.965  0.1098E+02  0.6289E+01
     -1.906  0.1342E+02  0.7081E+01
     -1.847  0.9095E+01  0.7618E+01
     -1.788  0.1012E+02  0.8215E+01
     -1.729  0.1157E+02  0.8898E+01
     -1.670  0.8696E+01  0.9411E+01
     -1.611  0.7835E+01  0.9874E+01
     -1.552  0.7574E+01  0.1032E+02
     -1.493  0.6748E+01  0.1072E+02
     -1.434  0.1481E+02  0.1159E+02
     -1.375  0.9261E+01  0.1214E+02
     -1.316  0.1577E+02  0.1307E+02
     -1.257  0.1677E+02  0.1406E+02
     -1.198  0.1305E+02  0.1483E+02
     -1.139  0.1621E+02  0.1579E+02
     -1.080  0.1124E+02  0.1645E+02
     -1.021  0.1484E+02  0.1733E+02
     -0.962  0.1760E+02  0.1837E+02
     -0.903  0.2279E+02  0.1971E+02
     -0.844  0.2361E+02  0.2110E+02
     -0.785  0.1591E+02  0.2204E+02
     -0.726  0.1499E+02  0.2293E+02
     -0.667  0.1458E+02  0.2379E+02
     -0.608  0.1264E+02  0.2453E+02
     -0.549  0.1038E+02  0.2515E+02
     -0.490  0.1258E+02  0.2589E+02
     -0.431  0.1183E+02  0.2659E+02
     -0.372  0.1326E+02  0.2737E+02
     -0.313  0.1690E+02  0.2837E+02
     -0.254  0.1540E+02  0.2928E+02
     -0.195  0.1737E+02  0.3030E+02
     -0.136  0.1237E+02  0.3103E+02
     -0.077  0.1424E+02  0.3187E+02
     -0.018  0.1305E+02  0.3264E+02
      0.041  0.1203E+02  0.3335E+02
      0.100  0.1124E+02  0.3401E+02
      0.159  0.1294E+02  0.3478E+02
      0.218  0.1320E+02  0.3556E+02
      0.277  0.1141E+02  0.3623E+02
      0.336  0.1922E+02  0.3737E+02
      0.395  0.1732E+02  0.3839E+02
      0.454  0.2017E+02  0.3958E+02
      0.513  0.1882E+02  0.4069E+02
      0.572  0.8624E+01  0.4120E+02
      0.631  0.1103E+02  0.4185E+02
      0.690  0.1323E+01  0.4193E+02
      0.749  0.3920E+00  0.4195E+02
      0.808  0.5501E+00  0.4198E+02
      0.867  0.9619E+00  0.4204E+02
      0.926  0.2628E+01  0.4219E+02
      0.985  0.2762E+01  0.4236E+02
      1.044  0.4737E+00  0.4239E+02
      1.103  0.1720E+01  0.4249E+02
      1.162  0.1154E+01  0.4256E+02
      1.221  0.2229E+00  0.4257E+02
      1.280  0.3704E+00  0.4259E+02
      1.339  0.2391E+01  0.4273E+02
      1.398  0.2375E+01  0.4287E+02
      1.457  0.1089E+01  0.4294E+02
      1.516  0.1615E+01  0.4303E+02
      1.575  0.1192E+01  0.4310E+02
      1.634  0.1738E+01  0.4320E+02
      1.693  0.5305E-01  0.4321E+02
      1.752  0.1218E+00  0.4321E+02
      1.811  0.1612E+01  0.4331E+02
      1.870  0.2693E+01  0.4347E+02
      1.929  0.1399E+01  0.4355E+02
      1.988  0.1731E+01  0.4365E+02
      2.048  0.1101E+01  0.4372E+02
      2.107  0.1458E+01  0.4380E+02
      2.166  0.4737E+00  0.4383E+02
      2.225  0.1291E+01  0.4391E+02
      2.284  0.2708E+00  0.4392E+02
      2.343  0.1357E+01  0.4400E+02
      2.402  0.2399E+01  0.4415E+02
      2.461  0.2127E+01  0.4427E+02
      2.520  0.1869E+01  0.4438E+02
      2.579  0.6875E+00  0.4442E+02
      2.638  0.9777E+00  0.4448E+02
      2.697  0.1924E+01  0.4459E+02
      2.756  0.4764E+00  0.4462E+02
      2.815  0.9462E+00  0.4468E+02
      2.874  0.1627E+01  0.4477E+02
      2.933  0.1677E+01  0.4487E+02
      2.992  0.2739E+01  0.4503E+02
      3.051  0.1571E+01  0.4513E+02
      3.110  0.1081E+01  0.4519E+02
      3.169  0.3026E-02  0.4519E+02
      3.228  0.1417E+01  0.4527E+02
      3.287  0.9378E+00  0.4533E+02
      3.346  0.2766E+01  0.4549E+02
      3.405  0.1586E+01  0.4559E+02
      3.464  0.1075E-05  0.4559E+02
      3.523  0.2004E+01  0.4571E+02
      3.582  0.2873E+01  0.4587E+02
      3.641  0.3012E+00  0.4589E+02
      3.700  0.6200E+00  0.4593E+02
      3.759  0.7928E+00  0.4598E+02
      3.818  0.3745E+01  0.4620E+02
      3.877  0.9859E+00  0.4625E+02
      3.936  0.9155E+00  0.4631E+02
      3.995  0.2561E+01  0.4646E+02
      4.054  0.1755E+01  0.4656E+02
      4.113  0.1210E+01  0.4664E+02
      4.172  0.1253E+01  0.4671E+02
      4.231  0.1770E+01  0.4681E+02
      4.290  0.2857E+01  0.4698E+02
      4.349  0.2622E+01  0.4714E+02
      4.408  0.8495E+00  0.4719E+02
      4.467  0.1926E+01  0.4730E+02
      4.526  0.1925E+01  0.4741E+02
      4.585  0.9440E+00  0.4747E+02
      4.644  0.2284E+01  0.4760E+02
      4.703  0.1008E+01  0.4766E+02
      4.762  0.1211E+01  0.4774E+02
      4.821  0.2791E+01  0.4790E+02
      4.880  0.1874E+01  0.4801E+02
      4.939  0.2311E+00  0.4802E+02
      4.998  0.1526E+01  0.4811E+02
      5.057  0.1453E+01  0.4820E+02
      5.116  0.7979E+00  0.4825E+02
      5.175  0.9140E+00  0.4830E+02
      5.234  0.1487E+01  0.4839E+02
      5.293  0.1130E+01  0.4846E+02
      5.352  0.8814E+00  0.4851E+02
      5.411  0.2956E+00  0.4853E+02
      5.470  0.6966E+00  0.4857E+02
      5.529  0.3255E+01  0.4876E+02
      5.588  0.1094E+01  0.4882E+02
      5.647  0.1655E+01  0.4892E+02
      5.706  0.2686E+00  0.4894E+02
      5.765  0.1478E+01  0.4902E+02
      5.824  0.1454E+01  0.4911E+02
      5.883  0.7333E+00  0.4915E+02
      5.942  0.1499E+01  0.4924E+02
      6.001  0.1147E+01  0.4931E+02
      6.060  0.4682E+00  0.4934E+02
      6.119  0.1682E+01  0.4944E+02
      6.178  0.1385E+01  0.4952E+02
      6.237  0.1466E+01  0.4960E+02
      6.297  0.1952E+01  0.4972E+02
      6.356  0.4457E+00  0.4975E+02
      6.415  0.6334E+00  0.4978E+02
      6.474  0.2646E+01  0.4994E+02
      6.533  0.1124E+01  0.5001E+02
      6.592  0.2808E+01  0.5017E+02
      6.651  0.1390E+01  0.5025E+02
      6.710  0.1608E+01  0.5035E+02
      6.769  0.3873E+01  0.5058E+02
      6.828  0.3243E+01  0.5077E+02
      6.887  0.5455E+00  0.5080E+02
      6.946  0.2976E+01  0.5098E+02
      7.005  0.1824E+01  0.5108E+02
      7.064  0.1354E+01  0.5116E+02
      7.123  0.2344E+01  0.5130E+02
      7.182  0.0000E+00  0.5130E+02
      7.241  0.1927E+00  0.5131E+02
      7.300  0.1908E+01  0.5143E+02
      7.359  0.2136E+01  0.5155E+02
      7.418  0.1602E+01  0.5165E+02
      7.477  0.8123E+00  0.5169E+02
      7.536  0.4096E+00  0.5172E+02
      7.595  0.1172E-01  0.5172E+02
      7.654  0.1164E+01  0.5179E+02
      7.713  0.2185E+01  0.5192E+02
      7.772  0.1822E+01  0.5202E+02
      7.831  0.3274E+01  0.5222E+02
      7.890  0.1098E+01  0.5228E+02
      7.949  0.9969E+00  0.5234E+02
      8.008  0.4688E+01  0.5262E+02
      8.067  0.5282E+00  0.5265E+02
      8.126  0.1771E+01  0.5275E+02
      8.185  0.6430E+00  0.5279E+02
      8.244  0.1230E+01  0.5286E+02
      8.303  0.1662E+01  0.5296E+02
      8.362  0.1370E+01  0.5304E+02
      8.421  0.4572E+00  0.5307E+02
      8.480  0.1456E+01  0.5316E+02
      8.539  0.3080E+00  0.5317E+02
      8.598  0.3497E+01  0.5338E+02
      8.657  0.1209E+01  0.5345E+02
      8.716  0.1437E+01  0.5354E+02
      8.775  0.1477E+01  0.5362E+02
      8.834  0.7866E+00  0.5367E+02
      8.893  0.2411E+01  0.5381E+02
      8.952  0.2445E+01  0.5396E+02
      9.011  0.3736E+00  0.5398E+02
      9.070  0.1279E+01  0.5405E+02
      9.129  0.2321E+01  0.5419E+02
      9.188  0.3250E+01  0.5438E+02
      9.247  0.3392E+01  0.5458E+02
      9.306  0.4990E+00  0.5461E+02
      9.365  0.9828E+00  0.5467E+02
      9.424  0.1067E+01  0.5473E+02
      9.483  0.9340E+00  0.5479E+02
      9.542  0.1887E+01  0.5490E+02
      9.601  0.1228E+01  0.5497E+02
      9.660  0.2163E+01  0.5510E+02
      9.719  0.8654E+00  0.5515E+02
      9.778  0.9451E+00  0.5521E+02
      9.837  0.1173E+01  0.5528E+02
      9.896  0.1380E+01  0.5536E+02
      9.955  0.2152E+01  0.5549E+02
     10.014  0.4056E+00  0.5551E+02
     10.073  0.9681E+00  0.5557E+02
     10.132  0.1619E+01  0.5566E+02
     10.191  0.1445E+01  0.5575E+02
     10.250  0.6497E+00  0.5579E+02
     10.309  0.1043E-01  0.5579E+02
     10.368  0.9413E+00  0.5584E+02
     10.427  0.1829E-14  0.5584E+02
     10.486  0.3376E+00  0.5586E+02
     10.546  0.1396E+00  0.5587E+02
     10.605  0.4642E+00  0.5590E+02
     10.664  0.1113E+01  0.5596E+02
     10.723  0.6363E-01  0.5597E+02
     10.782  0.1598E+00  0.5598E+02
     10.841  0.1147E+00  0.5598E+02
     10.900  0.0000E+00  0.5598E+02
     10.959  0.0000E+00  0.5598E+02
     11.018  0.0000E+00  0.5598E+02
     11.077  0.0000E+00  0.5598E+02
     11.136  0.0000E+00  0.5598E+02
     11.195  0.2422E-07  0.5598E+02
     11.254  0.1176E+00  0.5599E+02
     11.313  0.0000E+00  0.5599E+02
     11.372  0.4928E-04  0.5599E+02
     11.431  0.1975E-01  0.5599E+02
     11.490  0.1567E+00  0.5600E+02
     11.549  0.0000E+00  0.5600E+02
     11.608  0.0000E+00  0.5600E+02
     11.667  0.0000E+00  0.5600E+02
     11.726  0.0000E+00  0.5600E+02
     11.785  0.0000E+00  0.5600E+02
     11.844  0.0000E+00  0.5600E+02
     11.903  0.0000E+00  0.5600E+02
     11.962  0.0000E+00  0.5600E+02
     12.021  0.0000E+00  0.5600E+02
     12.080  0.0000E+00  0.5600E+02
     12.139  0.0000E+00  0.5600E+02
     12.198  0.0000E+00  0.5600E+02
     12.257  0.0000E+00  0.5600E+02
