    4    4    1    1
  0.2352439E+02  0.4548409E-09  0.4548409E-09  0.4548409E-09  0.5000000E-15
  1.000000000000000E-004
  CAR 
 unknown system                          
   44   84   28
 
  0.0000000E+00  0.0000000E+00  0.0000000E+00  0.5787037E-03
   1       -4.6425
   2       -2.4116
   3       -2.4116
   4       -2.4116
   5       -2.2487
   6       -2.2487
   7       -2.2487
   8       -1.0719
   9       -1.0719
  10       -1.0719
  11       -0.2244
  12       -0.2244
  13        0.4213
  14        0.4213
  15        0.4213
  16        0.6293
  17        0.6293
  18        0.6293
  19        0.6293
  20        0.6293
  21        0.6293
  22        4.1122
  23        4.1122
  24        4.1122
  25        5.9250
  26        5.9250
  27        5.9250
  28       11.3915
 
  0.8333333E-01  0.0000000E+00  0.0000000E+00  0.3472222E-02
   1       -4.5814
   2       -2.3951
   3       -2.3766
   4       -2.3766
   5       -2.2307
   6       -2.2209
   7       -2.2209
   8       -1.0944
   9       -1.0500
  10       -1.0500
  11       -0.2476
  12       -0.2139
  13        0.3892
  14        0.3892
  15        0.4096
  16        0.5133
  17        0.5133
  18        0.5893
  19        0.5893
  20        0.6293
  21        0.6293
  22        3.3808
  23        4.2789
  24        4.2789
  25        5.8970
  26        5.8970
  27        6.7665
  28       11.2305
 
  0.1666667E+00  0.0000000E+00  0.0000000E+00  0.3472222E-02
   1       -4.3996
   2       -2.3514
   3       -2.2757
   4       -2.2757
   5       -2.1777
   6       -2.1377
   7       -2.1377
   8       -1.1599
   9       -0.9849
  10       -0.9849
  11       -0.3142
  12       -0.1833
  13        0.2201
  14        0.2201
  15        0.2956
  16        0.2956
  17        0.3757
  18        0.4756
  19        0.4756
  20        0.6295
  21        0.6295
  22        2.2523
  23        4.7231
  24        4.7231
  25        5.8202
  26        5.8202
  27        8.2289
  28       10.7811
 
  0.2500000E+00  0.0000000E+00  0.0000000E+00  0.3472222E-02
   1       -4.1030
   2       -2.3019
   3       -2.1215
   4       -2.1215
   5       -2.0921
   6       -1.9993
   7       -1.9993
   8       -1.2622
   9       -0.8782
  10       -0.8782
  11       -0.4136
  12       -0.1558
  13       -0.1558
  14       -0.1342
  15        0.1496
  16        0.1496
  17        0.3043
  18        0.3043
  19        0.3221
  20        0.6297
  21        0.6297
  22        1.1937
  23        5.3471
  24        5.3471
  25        5.7149
  26        5.7149
  27        9.8587
  28       10.1368
 
  0.3333333E+00  0.0000000E+00  0.0000000E+00  0.3472222E-02
   1       -3.7052
   2       -2.2957
   3       -1.9786
   4       -1.9402
   5       -1.9402
   6       -1.8066
   7       -1.8066
   8       -1.3925
   9       -0.7330
  10       -0.7330
  11       -0.5490
  12       -0.5490
  13       -0.5252
  14       -0.0695
  15       -0.0256
  16       -0.0256
  17        0.0964
  18        0.0964
  19        0.2530
  20        0.3066
  21        0.6299
  22        0.6299
  23        5.6097
  24        5.6097
  25        6.0798
  26        6.0798
  27        9.3755
  28        9.3755
 
  0.4166667E+00  0.0000000E+00  0.0000000E+00  0.3472222E-02
   1       -3.2364
   2       -2.4264
   3       -1.8432
   4       -1.7794
   5       -1.7794
   6       -1.5610
   7       -1.5610
   8       -1.5401
   9       -0.9248
  10       -0.9248
  11       -0.6090
  12       -0.5541
  13       -0.5541
  14       -0.3086
  15       -0.1833
  16       -0.1833
  17       -0.1272
  18       -0.1272
  19        0.0066
  20        0.1735
  21        0.6300
  22        0.6300
  23        5.5332
  24        5.5332
  25        6.8780
  26        6.8780
  27        8.5540
  28        8.5540
 
  0.5000000E+00  0.0000000E+00  0.0000000E+00  0.1736111E-02
   1       -2.7670
   2       -2.7670
   3       -1.7112
   4       -1.7112
   5       -1.6938
   6       -1.6938
   7       -1.2653
   8       -1.2653
   9       -1.2653
  10       -1.2653
  11       -0.5837
  12       -0.5837
  13       -0.3487
  14       -0.3487
  15       -0.3487
  16       -0.3487
  17       -0.2506
  18       -0.2506
  19        0.0894
  20        0.0894
  21        0.6301
  22        0.6301
  23        5.5053
  24        5.5053
  25        7.7116
  26        7.7116
  27        7.7116
  28        7.7116
 
  0.8333333E-01  0.8333333E-01  0.0000000E+00  0.6944444E-02
   1       -4.5207
   2       -2.3597
   3       -2.3597
   4       -2.3476
   5       -2.2033
   6       -2.2033
   7       -2.1887
   8       -1.1024
   9       -1.0421
  10       -1.0300
  11       -0.2535
  12       -0.2187
  13        0.3588
  14        0.3599
  15        0.3599
  16        0.4333
  17        0.4865
  18        0.4865
  19        0.5893
  20        0.5893
  21        0.6019
  22        3.5262
  23        3.5262
  24        4.4373
  25        5.8650
  26        6.7566
  27        6.7566
  28       10.6592
 
  0.1666667E+00  0.8333333E-01  0.0000000E+00  0.1388889E-01
   1       -4.3406
   2       -2.3149
   3       -2.2634
   4       -2.2576
   5       -2.1513
   6       -2.1211
   7       -2.0933
   8       -1.1593
   9       -0.9839
  10       -0.9707
  11       -0.3107
  12       -0.1903
  13        0.1254
  14        0.1716
  15        0.2575
  16        0.2696
  17        0.3296
  18        0.4238
  19        0.4752
  20        0.5880
  21        0.5890
  22        2.4133
  23        3.8882
  24        4.8646
  25        5.7750
  26        6.7420
  27        8.1929
  28       10.0262
 
  0.2500000E+00  0.8333333E-01  0.0000000E+00  0.1388889E-01
   1       -4.0470
   2       -2.2634
   3       -2.1304
   4       -2.1015
   5       -2.0675
   6       -1.9846
   7       -1.9414
   8       -1.2575
   9       -0.8788
  10       -0.8772
  11       -0.4010
  12       -0.2403
  13       -0.1843
  14       -0.1353
  15        0.0668
  16        0.1301
  17        0.1770
  18        0.3035
  19        0.3449
  20        0.5853
  21        0.5886
  22        1.4052
  23        4.3305
  24        5.4727
  25        5.6447
  26        6.7703
  27        9.4129
  28        9.7495
 
  0.3333333E+00  0.8333333E-01  0.0000000E+00  0.1388889E-01
   1       -3.6533
   2       -2.2547
   3       -1.9595
   4       -1.9563
   5       -1.9171
   6       -1.7947
   7       -1.7497
   8       -1.3840
   9       -0.7708
  10       -0.7341
  11       -0.6226
  12       -0.5636
  13       -0.4809
  14       -0.2153
  15       -0.0615
  16       -0.0377
  17        0.0005
  18        0.0953
  19        0.2368
  20        0.5851
  21        0.5881
  22        0.6376
  23        4.7324
  24        5.4977
  25        6.1933
  26        6.9178
  27        8.8309
  28        9.4718
 
  0.4166667E+00  0.8333333E-01  0.0000000E+00  0.1388889E-01
   1       -3.1894
   2       -2.3842
   3       -1.8239
   4       -1.7823
   5       -1.7533
   6       -1.5530
   7       -1.5374
   8       -1.5278
   9       -0.9807
  10       -0.9295
  11       -0.7307
  12       -0.5555
  13       -0.5356
  14       -0.4370
  15       -0.1863
  16       -0.1624
  17       -0.1286
  18        0.0176
  19        0.0273
  20        0.2654
  21        0.5857
  22        0.5874
  23        5.0193
  24        5.3525
  25        6.9830
  26        7.2429
  27        8.2648
  28        8.6506
 
  0.5000000E+00  0.8333333E-01  0.0000000E+00  0.6944444E-02
   1       -2.7239
   2       -2.7239
   3       -1.6898
   4       -1.6898
   5       -1.6779
   6       -1.6779
   7       -1.2901
   8       -1.2901
   9       -1.2627
  10       -1.2627
  11       -0.7103
  12       -0.7103
  13       -0.3502
  14       -0.3502
  15       -0.2470
  16       -0.2470
  17       -0.2414
  18       -0.2414
  19        0.1296
  20        0.1296
  21        0.5865
  22        0.5865
  23        5.2057
  24        5.2057
  25        7.7182
  26        7.7182
  27        7.8111
  28        7.8111
 
  0.1666667E+00  0.1666667E+00  0.0000000E+00  0.6944444E-02
   1       -4.1657
   2       -2.2142
   3       -2.2092
   4       -2.2092
   5       -2.0724
   6       -2.0724
   7       -1.9763
   8       -1.1822
   9       -0.9548
  10       -0.9297
  11       -0.3302
  12       -0.1780
  13       -0.0569
  14       -0.0569
  15        0.0016
  16        0.1928
  17        0.3321
  18        0.3321
  19        0.4741
  20        0.4741
  21        0.5212
  22        2.7903
  23        2.7903
  24        5.2552
  25        5.6422
  26        8.0913
  27        8.0913
  28        9.3004
 
  0.2500000E+00  0.1666667E+00  0.0000000E+00  0.1388889E-01
   1       -3.8811
   2       -2.1514
   3       -2.1172
   4       -2.0466
   5       -1.9940
   6       -1.9415
   7       -1.8113
   8       -1.2547
   9       -0.8701
  10       -0.8680
  11       -0.4310
  12       -0.3927
  13       -0.2988
  14       -0.2808
  15       -0.1117
  16        0.0709
  17        0.1989
  18        0.2809
  19        0.3013
  20        0.4723
  21        0.4849
  22        1.8248
  23        3.2447
  24        5.4323
  25        5.8262
  26        7.9495
  27        8.7089
  28        9.4391
 
  0.3333333E+00  0.1666667E+00  0.0000000E+00  0.1388889E-01
   1       -3.5004
   2       -2.1355
   3       -1.9721
   4       -1.8901
   5       -1.8523
   6       -1.7600
   7       -1.6271
   8       -1.3640
   9       -0.8249
  10       -0.7972
  11       -0.7314
  12       -0.6121
  13       -0.5780
  14       -0.4356
  15       -0.0766
  16       -0.0074
  17        0.0335
  18        0.0922
  19        0.1728
  20        0.4700
  21        0.4708
  22        1.0745
  23        3.7034
  24        5.1639
  25        6.5172
  26        7.8175
  27        8.2659
  28        9.7519
 
  0.4166667E+00  0.1666667E+00  0.0000000E+00  0.1388889E-01
   1       -3.0522
   2       -2.2625
   3       -1.7898
   4       -1.7668
   5       -1.6774
   6       -1.5301
   7       -1.4939
   8       -1.4671
   9       -1.1202
  10       -0.9457
  11       -0.8463
  12       -0.8077
  13       -0.5565
  14       -0.3712
  15       -0.2018
  16       -0.1319
  17       -0.1304
  18        0.0018
  19        0.1279
  20        0.4664
  21        0.4678
  22        0.5852
  23        4.1306
  24        4.8557
  25        7.2853
  26        7.7530
  27        7.9649
  28        8.9314
 
  0.5000000E+00  0.1666667E+00  0.0000000E+00  0.6944444E-02
   1       -2.5996
   2       -2.5996
   3       -1.6355
   4       -1.6355
   5       -1.6317
   6       -1.6317
   7       -1.3448
   8       -1.3448
   9       -1.2562
  10       -1.2562
  11       -0.8816
  12       -0.8816
  13       -0.3529
  14       -0.3529
  15       -0.2291
  16       -0.2291
  17       -0.2036
  18       -0.2036
  19        0.3064
  20        0.3064
  21        0.4662
  22        0.4662
  23        4.5134
  24        4.5134
  25        7.7963
  26        7.7963
  27        8.0992
  28        8.0992
 
  0.2500000E+00  0.2500000E+00  0.0000000E+00  0.6944444E-02
   1       -3.6123
   2       -2.0588
   3       -1.9776
   4       -1.9776
   5       -1.8725
   6       -1.8725
   7       -1.6453
   8       -1.2809
   9       -0.8553
  10       -0.8161
  11       -0.6696
  12       -0.6696
  13       -0.4598
  14       -0.4275
  15       -0.0262
  16       -0.0199
  17        0.1671
  18        0.1671
  19        0.2981
  20        0.2981
  21        0.3913
  22        2.2941
  23        2.2941
  24        5.0882
  25        6.3564
  26        8.2277
  27        9.0067
  28        9.0067
 
  0.3333333E+00  0.2500000E+00  0.0000000E+00  0.1388889E-01
   1       -3.2550
   2       -1.9515
   3       -1.9497
   4       -1.7816
   5       -1.7646
   6       -1.7050
   7       -1.4754
   8       -1.3490
   9       -1.0104
  10       -0.9058
  11       -0.8570
  12       -0.7063
  13       -0.7059
  14       -0.4600
  15       -0.1469
  16        0.0192
  17        0.0693
  18        0.0885
  19        0.1321
  20        0.2948
  21        0.3340
  22        1.5263
  23        2.7716
  24        4.6554
  25        7.0122
  26        7.9667
  27        8.5689
  28        9.9200
 
  0.4166667E+00  0.2500000E+00  0.0000000E+00  0.1388889E-01
   1       -2.8366
   2       -2.0782
   3       -1.7957
   4       -1.6750
   5       -1.5606
   6       -1.4954
   7       -1.4474
   8       -1.3576
   9       -1.2990
  10       -1.0369
  11       -0.9801
  12       -0.9187
  13       -0.5467
  14       -0.4083
  15       -0.2451
  16       -0.1363
  17       -0.1343
  18       -0.0879
  19        0.2930
  20        0.3063
  21        0.3314
  22        0.9684
  23        3.2453
  24        4.1875
  25        7.7536
  26        7.8929
  27        8.2117
  28        9.3722
 
  0.5000000E+00  0.2500000E+00  0.0000000E+00  0.6944444E-02
   1       -2.4107
   2       -2.4107
   3       -1.6001
   4       -1.6001
   5       -1.5603
   6       -1.5603
   7       -1.3613
   8       -1.3613
   9       -1.2499
  10       -1.2499
  11       -1.0107
  12       -1.0107
  13       -0.3514
  14       -0.3514
  15       -0.2670
  16       -0.2670
  17       -0.2460
  18       -0.2460
  19        0.2954
  20        0.2954
  21        0.5931
  22        0.5931
  23        3.7157
  24        3.7157
  25        7.9797
  26        7.9797
  27        8.5494
  28        8.5494
 
  0.3333333E+00  0.3333333E+00  0.0000000E+00  0.6944444E-02
   1       -2.9338
   2       -1.8916
   3       -1.7210
   4       -1.7210
   5       -1.6342
   6       -1.6342
   7       -1.3597
   8       -1.3242
   9       -1.1886
  10       -1.1886
  11       -0.8796
  12       -0.8528
  13       -0.6357
  14       -0.5109
  15       -0.2433
  16       -0.0644
  17       -0.0644
  18        0.0866
  19        0.0866
  20        0.2196
  21        0.3396
  22        1.9875
  23        1.9875
  24        4.0722
  25        7.6358
  26        7.8969
  27        9.2452
  28        9.2452
 
  0.4166667E+00  0.3333333E+00  0.0000000E+00  0.1388889E-01
   1       -2.5648
   2       -1.8722
   3       -1.7900
   4       -1.5540
   5       -1.5252
   6       -1.4540
   7       -1.4040
   8       -1.3847
   9       -1.2306
  10       -1.1951
  11       -1.0427
  12       -0.9478
  13       -0.5093
  14       -0.4942
  15       -0.3253
  16       -0.2104
  17       -0.2081
  18       -0.1306
  19        0.0906
  20        0.1458
  21        0.6007
  22        1.3784
  23        2.4616
  24        3.4962
  25        8.0063
  26        8.3513
  27        8.6882
  28        9.9278
 
  0.5000000E+00  0.3333333E+00  0.0000000E+00  0.6944444E-02
   1       -2.1904
   2       -2.1904
   3       -1.6469
   4       -1.6469
   5       -1.4734
   6       -1.4734
   7       -1.2725
   8       -1.2725
   9       -1.2512
  10       -1.2512
  11       -1.0745
  12       -1.0745
  13       -0.3761
  14       -0.3761
  15       -0.3355
  16       -0.3355
  17       -0.3164
  18       -0.3164
  19        0.1070
  20        0.1070
  21        0.9321
  22        0.9321
  23        2.9599
  24        2.9599
  25        8.2724
  26        8.2724
  27        9.1290
  28        9.1290
 
  0.4166667E+00  0.4166667E+00  0.0000000E+00  0.6944444E-02
   1       -2.2699
   2       -1.7661
   3       -1.7375
   4       -1.7375
   5       -1.4139
   6       -1.4139
   7       -1.3807
   8       -1.2261
   9       -1.2261
  10       -1.1406
  11       -1.1339
  12       -0.9728
  13       -0.5492
  14       -0.4265
  15       -0.4162
  16       -0.3415
  17       -0.3415
  18       -0.1123
  19       -0.1123
  20        0.0167
  21        0.9229
  22        1.8187
  23        1.8187
  24        2.8615
  25        8.2718
  26        9.0452
  27        9.2333
  28        9.2333
 
  0.5000000E+00  0.4166667E+00  0.0000000E+00  0.6944444E-02
   1       -1.9874
   2       -1.9874
   3       -1.7314
   4       -1.7314
   5       -1.3857
   6       -1.3857
   7       -1.2696
   8       -1.2696
   9       -1.1449
  10       -1.1449
  11       -1.0698
  12       -1.0698
  13       -0.4860
  14       -0.4860
  15       -0.4325
  16       -0.4325
  17       -0.2912
  18       -0.2912
  19       -0.0675
  20       -0.0675
  21        1.3165
  22        1.3165
  23        2.3058
  24        2.3058
  25        8.6808
  26        8.6808
  27        9.8200
  28        9.8556
 
  0.5000000E+00  0.5000000E+00  0.0000000E+00  0.1736111E-02
   1       -1.8376
   2       -1.8376
   3       -1.8376
   4       -1.8376
   5       -1.3142
   6       -1.3142
   7       -1.3142
   8       -1.3142
   9       -1.0625
  10       -1.0625
  11       -1.0625
  12       -1.0625
  13       -0.5205
  14       -0.5205
  15       -0.5205
  16       -0.5205
  17       -0.2038
  18       -0.2038
  19       -0.2038
  20       -0.2038
  21        1.7647
  22        1.7647
  23        1.7647
  24        1.7647
  25        9.2118
  26        9.2118
  27        9.2118
  28        9.2118
 
  0.8333333E-01  0.8333333E-01  0.8333333E-01  0.4629630E-02
   1       -4.4608
   2       -2.3308
   3       -2.3308
   4       -2.3308
   5       -2.1711
   6       -2.1711
   7       -2.1711
   8       -1.1084
   9       -1.0236
  10       -1.0236
  11       -0.2403
  12       -0.2403
  13        0.3313
  14        0.3313
  15        0.3313
  16        0.3826
  17        0.3826
  18        0.3826
  19        0.5811
  20        0.5811
  21        0.5811
  22        3.6601
  23        3.6601
  24        3.6601
  25        6.7407
  26        6.7407
  27        6.7407
  28       10.7793
 
  0.1666667E+00  0.8333333E-01  0.8333333E-01  0.1388889E-01
   1       -4.2826
   2       -2.2862
   3       -2.2468
   4       -2.2468
   5       -2.1190
   6       -2.0755
   7       -2.0755
   8       -1.1572
   9       -0.9734
  10       -0.9685
  11       -0.3007
  12       -0.2016
  13        0.0939
  14        0.0939
  15        0.2335
  16        0.2489
  17        0.2660
  18        0.2660
  19        0.5249
  20        0.5685
  21        0.5685
  22        2.5553
  23        3.9977
  24        3.9977
  25        6.7057
  26        6.7057
  27        8.1366
  28       10.1750
 
  0.2500000E+00  0.8333333E-01  0.8333333E-01  0.1388889E-01
   1       -3.9924
   2       -2.2343
   3       -2.1143
   4       -2.1143
   5       -2.0356
   6       -1.9237
   7       -1.9237
   8       -1.2500
   9       -0.8809
  10       -0.8779
  11       -0.3829
  12       -0.2617
  13       -0.2617
  14       -0.1397
  15       -0.0079
  16        0.1162
  17        0.1380
  18        0.1380
  19        0.4452
  20        0.5589
  21        0.5589
  22        1.5656
  23        4.4111
  24        4.4111
  25        6.6933
  26        6.6933
  27        9.5872
  28        9.6173
 
  0.3333333E+00  0.8333333E-01  0.8333333E-01  0.1388889E-01
   1       -3.6038
   2       -2.2241
   3       -1.9430
   4       -1.9430
   5       -1.9261
   6       -1.7338
   7       -1.7338
   8       -1.3718
   9       -0.7881
  10       -0.7544
  11       -0.6309
  12       -0.6309
  13       -0.4341
  14       -0.3265
  15       -0.0586
  16       -0.0528
  17       -0.0233
  18       -0.0233
  19        0.3510
  20        0.5534
  21        0.5534
  22        0.7876
  23        4.7727
  24        4.7727
  25        6.7677
  26        6.7677
  27        9.1294
  28        9.1294
 
  0.4166667E+00  0.8333333E-01  0.8333333E-01  0.1388889E-01
   1       -3.1463
   2       -2.3512
   3       -1.7973
   4       -1.7612
   5       -1.7612
   6       -1.5332
   7       -1.5332
   8       -1.5108
   9       -0.9731
  10       -0.9731
  11       -0.7752
  12       -0.6317
  13       -0.6019
  14       -0.3417
  15       -0.2396
  16       -0.1742
  17       -0.1742
  18        0.0370
  19        0.2478
  20        0.2529
  21        0.5507
  22        0.5507
  23        4.9906
  24        4.9906
  25        6.9456
  26        6.9456
  27        8.7318
  28        8.7318
 
  0.5000000E+00  0.8333333E-01  0.8333333E-01  0.6944444E-02
   1       -2.6871
   2       -2.6871
   3       -1.6682
   4       -1.6682
   5       -1.6560
   6       -1.6560
   7       -1.3712
   8       -1.3712
   9       -1.2001
  10       -1.2001
  11       -0.7739
  12       -0.7739
  13       -0.4271
  14       -0.4271
  15       -0.2405
  16       -0.2405
  17       -0.1037
  18       -0.1037
  19        0.1412
  20        0.1412
  21        0.5499
  22        0.5499
  23        5.0568
  24        5.0568
  25        7.0640
  26        7.0640
  27        8.5518
  28        8.5518
 
  0.1666667E+00  0.1666667E+00  0.8333333E-01  0.1388889E-01
   1       -4.1105
   2       -2.2030
   3       -2.2030
   4       -2.2005
   5       -2.0231
   6       -2.0231
   7       -1.9569
   8       -1.1741
   9       -0.9483
  10       -0.9327
  11       -0.3070
  12       -0.1954
  13       -0.0829
  14       -0.0829
  15       -0.0561
  16        0.1453
  17        0.1993
  18        0.1993
  19        0.5198
  20        0.5198
  21        0.5291
  22        2.9022
  23        2.9022
  24        4.2764
  25        6.6041
  26        7.9676
  27        7.9676
  28        9.5301
 
  0.2500000E+00  0.1666667E+00  0.8333333E-01  0.2777778E-01
   1       -3.8309
   2       -2.1516
   3       -2.1067
   4       -2.0724
   5       -1.9397
   6       -1.8706
   7       -1.7914
   8       -1.2386
   9       -0.8771
  10       -0.8737
  11       -0.4440
  12       -0.3598
  13       -0.3401
  14       -0.3289
  15       -0.1242
  16        0.0355
  17        0.0613
  18        0.1098
  19        0.4495
  20        0.4925
  21        0.4932
  22        1.9334
  23        3.3348
  24        4.6040
  25        6.4763
  26        7.7031
  27        9.0885
  28        9.1393
 
  0.3333333E+00  0.1666667E+00  0.8333333E-01  0.2777778E-01
   1       -3.4581
   2       -2.1386
   3       -1.9647
   4       -1.9018
   5       -1.8338
   6       -1.6838
   7       -1.6106
   8       -1.3402
   9       -0.8336
  10       -0.7920
  11       -0.7662
  12       -0.6608
  13       -0.6127
  14       -0.3737
  15       -0.1153
  16       -0.0937
  17       -0.0226
  18       -0.0169
  19        0.3500
  20        0.4675
  21        0.4704
  22        1.1533
  23        3.7791
  24        4.8154
  25        6.4278
  26        7.3920
  27        8.8840
  28        9.8908
 
  0.4166667E+00  0.1666667E+00  0.8333333E-01  0.2777778E-01
   1       -3.0211
   2       -2.2593
   3       -1.7830
   4       -1.7158
   5       -1.7081
   6       -1.5195
   7       -1.4737
   8       -1.4617
   9       -1.0744
  10       -0.9551
  11       -0.8613
  12       -0.8379
  13       -0.6334
  14       -0.3009
  15       -0.2555
  16       -0.2143
  17       -0.1657
  18        0.1161
  19        0.2022
  20        0.4547
  21        0.4569
  22        0.6011
  23        4.1916
  24        4.7797
  25        6.5557
  26        7.0847
  27        8.9168
  28        9.5180
 
  0.5000000E+00  0.1666667E+00  0.8333333E-01  0.1388889E-01
   1       -2.5827
   2       -2.5827
   3       -1.6148
   4       -1.6148
   5       -1.5901
   6       -1.5901
   7       -1.4698
   8       -1.4698
   9       -1.1404
  10       -1.1404
  11       -0.9030
  12       -0.9030
  13       -0.4769
  14       -0.4769
  15       -0.2503
  16       -0.2503
  17       -0.0261
  18       -0.0261
  19        0.2900
  20        0.2900
  21        0.4517
  22        0.4517
  23        4.5407
  24        4.5407
  25        6.8007
  26        6.8007
  27        9.1560
  28        9.1560
 
  0.2500000E+00  0.2500000E+00  0.8333333E-01  0.1388889E-01
   1       -3.5703
   2       -2.0543
   3       -2.0246
   4       -2.0246
   5       -1.7847
   6       -1.7847
   7       -1.6264
   8       -1.2519
   9       -0.8623
  10       -0.8391
  11       -0.6763
  12       -0.6763
  13       -0.5017
  14       -0.3780
  15       -0.0851
  16       -0.0352
  17        0.0037
  18        0.0037
  19        0.4076
  20        0.4076
  21        0.4222
  22        2.3774
  23        2.3774
  24        4.7520
  25        6.2452
  26        8.5510
  27        8.5510
  28        8.8698
 
  0.3333333E+00  0.2500000E+00  0.8333333E-01  0.2777778E-01
   1       -3.2260
   2       -2.0142
   3       -1.9547
   4       -1.8620
   5       -1.6789
   6       -1.5950
   7       -1.4658
   8       -1.3061
   9       -0.9875
  10       -0.9076
  11       -0.8630
  12       -0.7618
  13       -0.7246
  14       -0.3783
  15       -0.1984
  16       -0.1603
  17       -0.0887
  18        0.1161
  19        0.2943
  20        0.3602
  21        0.3648
  22        1.5831
  23        2.8444
  24        4.6248
  25        6.2623
  26        7.9545
  27        8.9265
  28        9.3150
 
  0.4166667E+00  0.2500000E+00  0.8333333E-01  0.2777778E-01
   1       -2.8275
   2       -2.1306
   3       -1.8098
   4       -1.6768
   5       -1.5763
   6       -1.4751
   7       -1.3889
   8       -1.3858
   9       -1.1725
  10       -1.0399
  11       -0.9362
  12       -0.9243
  13       -0.6528
  14       -0.3421
  15       -0.2891
  16       -0.2709
  17       -0.2062
  18        0.1330
  19        0.3143
  20        0.3284
  21        0.3293
  22        0.9852
  23        3.3164
  24        4.2459
  25        6.5444
  26        7.4140
  27        9.2027
  28       10.0767
 
  0.5000000E+00  0.2500000E+00  0.8333333E-01  0.1388889E-01
   1       -2.4300
   2       -2.4300
   3       -1.6355
   4       -1.6355
   5       -1.4820
   6       -1.4820
   7       -1.4694
   8       -1.4694
   9       -1.0871
  10       -1.0871
  11       -1.0161
  12       -1.0161
  13       -0.5117
  14       -0.5117
  15       -0.2965
  16       -0.2965
  17       -0.0739
  18       -0.0739
  19        0.3178
  20        0.3178
  21        0.5822
  22        0.5822
  23        3.7877
  24        3.7877
  25        6.9438
  26        6.9438
  27        9.6471
  28        9.6471
 
  0.3333333E+00  0.3333333E+00  0.8333333E-01  0.1388889E-01
   1       -2.9262
   2       -1.9089
   3       -1.8709
   4       -1.8709
   5       -1.4767
   6       -1.4767
   7       -1.3382
   8       -1.2935
   9       -1.1565
  10       -1.1565
  11       -0.8804
  12       -0.8229
  13       -0.7342
  14       -0.3910
  15       -0.3091
  16       -0.2243
  17       -0.2243
  18        0.2283
  19        0.2283
  20        0.2698
  21        0.3222
  22        2.0377
  23        2.0377
  24        4.1397
  25        6.4481
  26        8.5501
  27        8.5501
  28        9.1822
 
  0.4166667E+00  0.3333333E+00  0.8333333E-01  0.2777778E-01
   1       -2.5890
   2       -1.9986
   3       -1.8301
   4       -1.7463
   5       -1.3856
   6       -1.3728
   7       -1.3125
   8       -1.3023
   9       -1.2093
  10       -1.1893
  11       -0.9441
  12       -0.9189
  13       -0.6694
  14       -0.3918
  15       -0.3915
  16       -0.3119
  17       -0.3119
  18        0.0593
  19        0.1804
  20        0.1998
  21        0.5846
  22        1.3970
  23        2.5144
  24        3.5699
  25        6.8250
  26        7.8788
  27        9.2122
  28        9.6052
 
  0.5000000E+00  0.3333333E+00  0.8333333E-01  0.1388889E-01
   1       -2.2593
   2       -2.2593
   3       -1.7417
   4       -1.7417
   5       -1.3710
   6       -1.3710
   7       -1.3482
   8       -1.3482
   9       -1.0708
  10       -1.0708
  11       -1.0316
  12       -1.0316
  13       -0.5504
  14       -0.5504
  15       -0.3909
  16       -0.3909
  17       -0.1386
  18       -0.1386
  19        0.1688
  20        0.1688
  21        0.9260
  22        0.9260
  23        3.0222
  24        3.0222
  25        7.3057
  26        7.3057
  27        9.9472
  28        9.9472
 
  0.4166667E+00  0.4166667E+00  0.8333333E-01  0.1388889E-01
   1       -2.3372
   2       -1.8993
   3       -1.8993
   4       -1.8402
   5       -1.2870
   6       -1.2870
   7       -1.2697
   8       -1.2647
   9       -1.1467
  10       -1.1467
  11       -0.9475
  12       -0.9059
  13       -0.6733
  14       -0.4897
  15       -0.4577
  16       -0.4577
  17       -0.2877
  18        0.0106
  19        0.0106
  20        0.0863
  21        0.9117
  22        1.8440
  23        1.8440
  24        2.9191
  25        7.2589
  26        8.4533
  27        8.4533
  28        9.8943
 
  0.5000000E+00  0.4166667E+00  0.8333333E-01  0.1388889E-01
   1       -2.1013
   2       -2.1013
   3       -1.8529
   4       -1.8529
   5       -1.2864
   6       -1.2864
   7       -1.2586
   8       -1.2586
   9       -1.0225
  10       -1.0225
  11       -0.9695
  12       -0.9695
  13       -0.5980
  14       -0.5980
  15       -0.5147
  16       -0.5147
  17       -0.1642
  18       -0.1642
  19        0.0166
  20        0.0166
  21        1.3182
  22        1.3182
  23        2.3446
  24        2.3446
  25        7.8032
  26        7.8032
  27        9.1265
  28        9.1265
 
  0.5000000E+00  0.5000000E+00  0.8333333E-01  0.3472222E-02
   1       -1.9686
   2       -1.9686
   3       -1.9686
   4       -1.9686
   5       -1.2479
   6       -1.2479
   7       -1.2479
   8       -1.2479
   9       -0.9428
  10       -0.9428
  11       -0.9428
  12       -0.9428
  13       -0.6085
  14       -0.6085
  15       -0.6085
  16       -0.6085
  17       -0.1095
  18       -0.1095
  19       -0.1095
  20       -0.1095
  21        1.7812
  22        1.7812
  23        1.7812
  24        1.7812
  25        8.4117
  26        8.4117
  27        8.4117
  28        8.4117
 
  0.1666667E+00  0.1666667E+00  0.1666667E+00  0.4629630E-02
   1       -3.9472
   2       -2.1654
   3       -2.1654
   4       -2.1654
   5       -1.8991
   6       -1.8991
   7       -1.8991
   8       -1.1674
   9       -0.9264
  10       -0.9264
  11       -0.2410
  12       -0.2410
  13       -0.2201
  14       -0.2201
  15       -0.2201
  16        0.0280
  17        0.0280
  18        0.0280
  19        0.5318
  20        0.5318
  21        0.5318
  22        3.1929
  23        3.1929
  24        3.1929
  25        7.6087
  26        7.6087
  27        7.6087
  28       10.2398
 
  0.2500000E+00  0.1666667E+00  0.1666667E+00  0.1388889E-01