       N       E                     dE             d eps       ncg     rms          rms(c)
DAV:   1     0.494789629605E+03    0.49479E+03   -0.25709E+04  4704   0.201E+03
DAV:   2     0.134780631702E+02   -0.48131E+03   -0.45550E+03  4740   0.474E+02
DAV:   3    -0.117913304811E+02   -0.25269E+02   -0.23896E+02  5328   0.108E+02
DAV:   4    -0.123737045753E+02   -0.58237E+00   -0.58026E+00  4992   0.163E+01
DAV:   5    -0.123798796311E+02   -0.61751E-02   -0.61744E-02  4960   0.160E+00    0.477E+00
DAV:   6    -0.116422552721E+02    0.73762E+00   -0.24392E+00  4908   0.143E+01    0.112E+00
DAV:   7    -0.116293966572E+02    0.12859E-01   -0.71516E-02  4908   0.179E+00    0.627E-01
DAV:   8    -0.116272652763E+02    0.21314E-02   -0.61558E-03  4876   0.783E-01    0.475E-02
DAV:   9    -0.116273362387E+02   -0.70962E-04   -0.22123E-04  5064   0.113E-01    0.233E-02
DAV:  10    -0.116273516750E+02   -0.15436E-04   -0.29893E-05  4848   0.384E-02    0.287E-03
DAV:  11    -0.116273528184E+02   -0.11434E-05   -0.12979E-06  4940   0.966E-03    0.146E-03
DAV:  12    -0.116273523032E+02    0.51526E-06   -0.15206E-07  4888   0.393E-03    0.910E-05
DAV:  13    -0.116273523263E+02   -0.23175E-07   -0.56444E-10  2684   0.160E-04    0.545E-05
DAV:  14    -0.116273523277E+02   -0.13897E-08   -0.24554E-10  2540   0.121E-04
   1 F= -.11627352E+02 E0= -.11627256E+02  d E =-.192566E-03
