<?xml version="1.0" encoding="ISO-8859-1"?>
<modeling>
 <generator>
  <i name="program" type="string">vasp</i>
  <i name="version" type="string">4.6.28 </i>
  <i name="subversion" type="string">25Jul05 complex  parallel</i>
  <i name="platform" type="string">LinuxIFC</i>
  <i name="date" type="string">2017 01 06</i>
  <i name="time" type="string">05:35:51</i>
 </generator>
 <incar>
  <i type="string" name="PREC">accurate</i>
  <i type="int" name="IALGO">    38</i>
  <i type="logical" name="ADDGRID"> T  </i>
  <i name="EDIFF">      0.00000001</i>
  <i type="int" name="IBRION">    -1</i>
  <i name="ENCUT">    750.00000000</i>
  <i type="logical" name="LREAL"> F  </i>
  <i type="int" name="ISMEAR">     0</i>
  <i name="SIGMA">      0.01000000</i>
  <i type="logical" name="LWAVE"> F  </i>
  <i type="logical" name="LCHARG"> F  </i>
 </incar>
 <kpoints>
  <generation param="Gamma">
   <v type="int" name="divisions">      12      12      12</v>
   <v name="usershift">      0.00000000      0.00000000      0.00000000</v>
   <v name="genvec1">      0.08333333      0.00000000      0.00000000</v>
   <v name="genvec2">      0.00000000      0.08333333      0.00000000</v>
   <v name="genvec3">      0.00000000      0.00000000      0.08333333</v>
   <v name="shift">      0.00000000      0.00000000      0.00000000</v>
  </generation>
  <varray name="kpointlist" >
   <v>       0.00000000      0.00000000      0.00000000</v>
   <v>       0.08333333      0.00000000      0.00000000</v>
   <v>       0.16666667      0.00000000      0.00000000</v>
   <v>       0.25000000      0.00000000      0.00000000</v>
   <v>       0.33333333      0.00000000      0.00000000</v>
   <v>       0.41666667      0.00000000      0.00000000</v>
   <v>       0.50000000      0.00000000      0.00000000</v>
   <v>       0.08333333      0.08333333      0.00000000</v>
   <v>       0.16666667      0.08333333      0.00000000</v>
   <v>       0.25000000      0.08333333      0.00000000</v>
   <v>       0.33333333      0.08333333      0.00000000</v>
   <v>       0.41666667      0.08333333      0.00000000</v>
   <v>       0.50000000      0.08333333      0.00000000</v>
   <v>       0.16666667      0.16666667      0.00000000</v>
   <v>       0.25000000      0.16666667      0.00000000</v>
   <v>       0.33333333      0.16666667      0.00000000</v>
   <v>       0.41666667      0.16666667      0.00000000</v>
   <v>       0.50000000      0.16666667      0.00000000</v>
   <v>       0.25000000      0.25000000      0.00000000</v>
   <v>       0.33333333      0.25000000      0.00000000</v>
   <v>       0.41666667      0.25000000      0.00000000</v>
   <v>       0.50000000      0.25000000      0.00000000</v>
   <v>       0.33333333      0.33333333      0.00000000</v>
   <v>       0.41666667      0.33333333      0.00000000</v>
   <v>       0.50000000      0.33333333      0.00000000</v>
   <v>       0.41666667      0.41666667      0.00000000</v>
   <v>       0.50000000      0.41666667      0.00000000</v>
   <v>       0.50000000      0.50000000      0.00000000</v>
   <v>       0.08333333      0.08333333      0.08333333</v>
   <v>       0.16666667      0.08333333      0.08333333</v>
   <v>       0.25000000      0.08333333      0.08333333</v>
   <v>       0.33333333      0.08333333      0.08333333</v>
   <v>       0.41666667      0.08333333      0.08333333</v>
   <v>       0.50000000      0.08333333      0.08333333</v>
   <v>       0.16666667      0.16666667      0.08333333</v>
   <v>       0.25000000      0.16666667      0.08333333</v>
   <v>       0.33333333      0.16666667      0.08333333</v>
   <v>       0.41666667      0.16666667      0.08333333</v>
   <v>       0.50000000      0.16666667      0.08333333</v>
   <v>       0.25000000      0.25000000      0.08333333</v>
   <v>       0.33333333      0.25000000      0.08333333</v>
   <v>       0.41666667      0.25000000      0.08333333</v>
   <v>       0.50000000      0.25000000      0.08333333</v>
   <v>       0.33333333      0.33333333      0.08333333</v>
   <v>       0.41666667      0.33333333      0.08333333</v>
   <v>       0.50000000      0.33333333      0.08333333</v>
   <v>       0.41666667      0.41666667      0.08333333</v>
   <v>       0.50000000      0.41666667      0.08333333</v>
   <v>       0.50000000      0.50000000      0.08333333</v>
   <v>       0.16666667      0.16666667      0.16666667</v>
   <v>       0.25000000      0.16666667      0.16666667</v>
   <v>       0.33333333      0.16666667      0.16666667</v>
   <v>       0.41666667      0.16666667      0.16666667</v>
   <v>       0.50000000      0.16666667      0.16666667</v>
   <v>       0.25000000      0.25000000      0.16666667</v>
   <v>       0.33333333      0.25000000      0.16666667</v>
   <v>       0.41666667      0.25000000      0.16666667</v>
   <v>       0.50000000      0.25000000      0.16666667</v>
   <v>       0.33333333      0.33333333      0.16666667</v>
   <v>       0.41666667      0.33333333      0.16666667</v>
   <v>       0.50000000      0.33333333      0.16666667</v>
   <v>       0.41666667      0.41666667      0.16666667</v>
   <v>       0.50000000      0.41666667      0.16666667</v>
   <v>       0.50000000      0.50000000      0.16666667</v>
   <v>       0.25000000      0.25000000      0.25000000</v>
   <v>       0.33333333      0.25000000      0.25000000</v>
   <v>       0.41666667      0.25000000      0.25000000</v>
   <v>       0.50000000      0.25000000      0.25000000</v>
   <v>       0.33333333      0.33333333      0.25000000</v>
   <v>       0.41666667      0.33333333      0.25000000</v>
   <v>       0.50000000      0.33333333      0.25000000</v>
   <v>       0.41666667      0.41666667      0.25000000</v>
   <v>       0.50000000      0.41666667      0.25000000</v>
   <v>       0.50000000      0.50000000      0.25000000</v>
   <v>       0.33333333      0.33333333      0.33333333</v>
   <v>       0.41666667      0.33333333      0.33333333</v>
   <v>       0.50000000      0.33333333      0.33333333</v>
   <v>       0.41666667      0.41666667      0.33333333</v>
   <v>       0.50000000      0.41666667      0.33333333</v>
   <v>       0.50000000      0.50000000      0.33333333</v>
   <v>       0.41666667      0.41666667      0.41666667</v>
   <v>       0.50000000      0.41666667      0.41666667</v>
   <v>       0.50000000      0.50000000      0.41666667</v>
   <v>       0.50000000      0.50000000      0.50000000</v>
  </varray>
  <varray name="weights" >
   <v>       0.00057870</v>
   <v>       0.00347222</v>
   <v>       0.00347222</v>
   <v>       0.00347222</v>
   <v>       0.00347222</v>
   <v>       0.00347222</v>
   <v>       0.00173611</v>
   <v>       0.00694444</v>
   <v>       0.01388889</v>
   <v>       0.01388889</v>
   <v>       0.01388889</v>
   <v>       0.01388889</v>
   <v>       0.00694444</v>
   <v>       0.00694444</v>
   <v>       0.01388889</v>
   <v>       0.01388889</v>
   <v>       0.01388889</v>
   <v>       0.00694444</v>
   <v>       0.00694444</v>
   <v>       0.01388889</v>
   <v>       0.01388889</v>
   <v>       0.00694444</v>
   <v>       0.00694444</v>
   <v>       0.01388889</v>
   <v>       0.00694444</v>
   <v>       0.00694444</v>
   <v>       0.00694444</v>
   <v>       0.00173611</v>
   <v>       0.00462963</v>
   <v>       0.01388889</v>
   <v>       0.01388889</v>
   <v>       0.01388889</v>
   <v>       0.01388889</v>
   <v>       0.00694444</v>
   <v>       0.01388889</v>
   <v>       0.02777778</v>
   <v>       0.02777778</v>
   <v>       0.02777778</v>
   <v>       0.01388889</v>
   <v>       0.01388889</v>
   <v>       0.02777778</v>
   <v>       0.02777778</v>
   <v>       0.01388889</v>
   <v>       0.01388889</v>
   <v>       0.02777778</v>
   <v>       0.01388889</v>
   <v>       0.01388889</v>
   <v>       0.01388889</v>
   <v>       0.00347222</v>
   <v>       0.00462963</v>
   <v>       0.01388889</v>
   <v>       0.01388889</v>
   <v>       0.01388889</v>
   <v>       0.00694444</v>
   <v>       0.01388889</v>
   <v>       0.02777778</v>
   <v>       0.02777778</v>
   <v>       0.01388889</v>
   <v>       0.01388889</v>
   <v>       0.02777778</v>
   <v>       0.01388889</v>
   <v>       0.01388889</v>
   <v>       0.01388889</v>
   <v>       0.00347222</v>
   <v>       0.00462963</v>
   <v>       0.01388889</v>
   <v>       0.01388889</v>
   <v>       0.00694444</v>
   <v>       0.01388889</v>
   <v>       0.02777778</v>
   <v>       0.01388889</v>
   <v>       0.01388889</v>
   <v>       0.01388889</v>
   <v>       0.00347222</v>
   <v>       0.00462963</v>
   <v>       0.01388889</v>
   <v>       0.00694444</v>
   <v>       0.01388889</v>
   <v>       0.01388889</v>
   <v>       0.00347222</v>
   <v>       0.00462963</v>
   <v>       0.00694444</v>
   <v>       0.00347222</v>
   <v>       0.00057870</v>
  </varray>
 </kpoints>
 <parameters>
  <separator name="general" >
   <i type="string" name="SYSTEM">unknown system</i>
   <i type="logical" name="LCOMPAT"> F  </i>
  </separator>
  <separator name="electronic" >
   <i type="string" name="PREC">accura</i>
   <i name="ENMAX">    750.00000000</i>
   <i name="ENAUG">    356.67000000</i>
   <i name="EDIFF">      0.00000001</i>
   <i type="int" name="IALGO">    38</i>
   <i type="int" name="IWAVPR">    10</i>
   <i type="int" name="NBANDS">    26</i>
   <i name="NELECT">     44.00000000</i>
   <separator name="electronic smearing" >
    <i type="int" name="ISMEAR">     0</i>
    <i name="SIGMA">      0.01000000</i>
   </separator>
   <separator name="electronic projectors" >
    <i type="logical" name="LREAL"> F  </i>
    <v name="ROPT">      0.00000000</v>
    <i type="int" name="LMAXPAW">  -100</i>
    <i type="int" name="LMAXMIX">     2</i>
   </separator>
   <separator name="electronic startup" >
    <i type="int" name="ISTART">     0</i>
    <i type="int" name="ICHARG">     2</i>
    <i type="int" name="INIWAV">     1</i>
   </separator>
   <separator name="electronic spin" >
    <i type="int" name="ISPIN">     1</i>
    <i type="logical" name="LNONCOLLINEAR"> F  </i>
    <v name="MAGMOM">      1.00000000      1.00000000      1.00000000      1.00000000</v>
    <i name="NUPDOWN">     -1.00000000</i>
    <i type="logical" name="LSORBIT"> F  </i>
    <v name="SAXIS">      0.00000000      0.00000000      1.00000000</v>
    <i type="logical" name="LSPIRAL"> F  </i>
    <v name="QSPIRAL">      0.00000000      0.00000000      0.00000000</v>
    <i type="logical" name="LZEROZ"> F  </i>
   </separator>
   <separator name="electronic exchange-correlation" >
    <i type="string" name="GGA">--</i>
    <i type="int" name="VOSKOWN">     0</i>
    <i type="logical" name="LASPH"> F  </i>
    <i type="logical" name="LMETAGGA"> F  </i>
    <i type="string" name="GGA2">--</i>
   </separator>
   <separator name="electronic convergence" >
    <i type="int" name="NELM">    60</i>
    <i type="int" name="NELMDL">     0</i>
    <i type="int" name="NELMIN">     2</i>
    <i name="ENINI">    750.00000000</i>
    <separator name="electronic convergence detail" >
     <i type="logical" name="LDIAG"> T  </i>
     <i name="WEIMIN">      0.00000000</i>
     <i name="EBREAK">      0.00000000</i>
     <i name="DEPER">      0.30000000</i>
     <i type="int" name="NRMM">     4</i>
     <i name="TIME">      0.10000000</i>
    </separator>
   </separator>
   <separator name="electronic mixer" >
    <i name="AMIX">      0.40000000</i>
    <i name="BMIX">      1.00000000</i>
    <i name="AMIN">      0.10000000</i>
    <i name="AMIX_MAG">      1.60000000</i>
    <i name="BMIX_MAG">      1.00000000</i>
    <separator name="electronic mixer details" >
     <i type="int" name="IMIX">     4</i>
     <i type="int" name="MAXMIX">   -45</i>
     <i name="WC">    100.00000000</i>
     <i type="int" name="INIMIX">     1</i>
     <i type="int" name="MIXPRE">     1</i>
     <i type="int" name="MREMOVE">     5</i>
    </separator>
   </separator>
   <separator name="electronic dipolcorrection" >
    <i type="int" name="IDIPOL">     0</i>
    <i type="logical" name="LDIPOL"> F  </i>
    <v name="DIPOL">   -100.00000000</v>
    <i name="EFIELD">      0.00000000</i>
   </separator>
  </separator>
  <separator name="grids" >
   <i type="int" name="NGX">    42</i>
   <i type="int" name="NGY">    42</i>
   <i type="int" name="NGZ">    42</i>
   <i type="int" name="NGXF">    84</i>
   <i type="int" name="NGYF">    84</i>
   <i type="int" name="NGZF">    84</i>
   <i type="logical" name="ADDGRID"> T  </i>
  </separator>
  <separator name="ionic" >
   <i type="int" name="NSW">     0</i>
   <i type="int" name="IBRION">    -1</i>
   <i type="int" name="ISIF">     2</i>
   <i name="PSTRESS">      0.00000000</i>
   <i name="EDIFFG">      0.00000010</i>
   <i type="int" name="NFREE">     0</i>
   <i name="POTIM">      0.50000000</i>
   <i name="SMASS">     -3.00000000</i>
  </separator>
  <separator name="ionic md" >
   <i name="TEBEG">      0.00010000</i>
   <i name="TEEND">      0.00010000</i>
   <i type="int" name="NBLOCK">     1</i>
   <i type="int" name="KBLOCK">     1</i>
   <i type="int" name="NPACO">   256</i>
   <i name="APACO">     16.00000000</i>
  </separator>
  <separator name="symmetry" >
   <i type="int" name="ISYM">     2</i>
   <i name="SYMPREC">      0.00001000</i>
  </separator>
  <separator name="dos" >
   <i type="logical" name="LORBIT"> F  </i>
   <v name="RWIGS">     -1.00000000</v>
   <i type="int" name="NEDOS">   301</i>
   <i name="EMIN">     10.00000000</i>
   <i name="EMAX">    -10.00000000</i>
  </separator>
  <separator name="writing" >
   <i type="int" name="NWRITE">     2</i>
   <i type="logical" name="LWAVE"> F  </i>
   <i type="logical" name="LCHARG"> F  </i>
   <i type="logical" name="LPARD"> F  </i>
   <i type="logical" name="LVTOT"> F  </i>
   <i type="logical" name="LELF"> F  </i>
   <i type="logical" name="LOPTICS"> F  </i>
   <i name="STM">      0.00000000</i>
  </separator>
  <separator name="performance" >
   <i type="int" name="NPAR">     4</i>
   <i type="int" name="NSIM">     4</i>
   <i type="int" name="NBLK">   256</i>
   <i type="logical" name="LPLANE"> T  </i>
   <i type="logical" name="LCRITICAL_MEM"> F  </i>
   <i type="logical" name="LSCALAPACK"> F  </i>
   <i type="logical" name="LSCALU"> F  </i>
   <i type="logical" name="LASYNC"> F  </i>
  </separator>
  <separator name="miscellaneous" >
   <i type="int" name="IDIOT">     3</i>
   <i type="logical" name="LMUSIC"> F  </i>
   <v name="POMASS">    196.96600000</v>
   <i type="logical" name="LCORR"> T  </i>
  </separator>
  <i type="logical" name="LREAL_COMPAT"> F  </i>
  <i type="logical" name="GGA_COMPAT"> T  </i>
  <i type="logical" name="LBERRY"> F  </i>
  <i type="int" name="ICORELEVEL">     0</i>
  <i type="logical" name="LDAU"> F  </i>
  <i type="int" name="I_CONSTRAINED_M">     0</i>
 </parameters>
 <atominfo>
  <atoms>       4</atoms>
  <types>       1</types>
  <array name="atoms" >
   <dimension dim="1">ion</dimension>
   <field type="string">element</field>
   <field type="int">atomtype</field>
   <set>
    <rc><c>Au</c><c>   1</c></rc>
    <rc><c>Au</c><c>   1</c></rc>
    <rc><c>Au</c><c>   1</c></rc>
    <rc><c>Au</c><c>   1</c></rc>
   </set>
  </array>
  <array name="atomtypes" >
   <dimension dim="1">type</dimension>
   <field type="int">atomspertype</field>
   <field type="string">element</field>
   <field>mass</field>
   <field>valence</field>
   <field type="string">pseudopotential</field>
   <set>
    <rc><c>   4</c><c>Au</c><c>    196.96600000</c><c>     11.00000000</c><c> PAW_PBE Au 06Sep2000                   </c></rc>
   </set>
  </array>
 </atominfo>
 <structure name="initialpos" >
  <crystal>
   <varray name="basis" >
    <v>       4.54840857      0.00000000      0.00000000</v>
    <v>       0.00000000      4.54840857      0.00000000</v>
    <v>       0.00000000      0.00000000      4.54840857</v>
   </varray>
   <i name="volume">     94.09757005</i>
   <varray name="rec_basis" >
    <v>       0.21985712      0.00000000      0.00000000</v>
    <v>       0.00000000      0.21985712      0.00000000</v>
    <v>       0.00000000      0.00000000      0.21985712</v>
   </varray>
  </crystal>
  <varray name="positions" >
   <v>       0.00000000      0.00000000      0.00000000</v>
   <v>       0.50000000      0.50000000      0.00000000</v>
   <v>       0.50000000      0.00000000      0.50000000</v>
   <v>       0.00000000      0.50000000      0.50000000</v>
  </varray>
 </structure>
 <calculation>
  <scstep>
   <time name="dav">   14.86   14.89</time>
   <time name="total">   15.46   15.49</time>
   <energy>
    <i name="alphaZ">    318.44739864</i>
    <i name="ewald">  -3512.67726304</i>
    <i name="hartreedc">   -670.83189642</i>
    <i name="XCdc">     57.71609313</i>
    <i name="pawpsdc">   2990.04966927</i>
    <i name="pawaedc">  -2896.51663641</i>
    <i name="eentropy">     -0.00009567</i>
    <i name="bandstr">    504.37863612</i>
    <i name="atom">   3704.22372399</i>
    <i name="e_fr_energy">    494.78962961</i>
    <i name="e_wo_entrp">    494.78972527</i>
    <i name="e_0_energy">    494.78967744</i>
   </energy>
  </scstep>
  <scstep>
   <time name="dav">   14.92   14.94</time>
   <time name="total">   14.93   14.94</time>
   <energy>
    <i name="e_fr_energy">     13.47806317</i>
    <i name="e_wo_entrp">     13.47817613</i>
    <i name="e_0_energy">     13.47811965</i>
   </energy>
  </scstep>
  <scstep>
   <time name="dav">   16.24   16.25</time>
   <time name="total">   16.25   16.26</time>
   <energy>
    <i name="e_fr_energy">    -11.79133048</i>
    <i name="e_wo_entrp">    -11.79119641</i>
    <i name="e_0_energy">    -11.79126344</i>
   </energy>
  </scstep>
  <scstep>
   <time name="dav">   15.52   15.53</time>
   <time name="total">   15.52   15.54</time>
   <energy>
    <i name="e_fr_energy">    -12.37370458</i>
    <i name="e_wo_entrp">    -12.37356514</i>
    <i name="e_0_energy">    -12.37363486</i>
   </energy>
  </scstep>
  <scstep>
   <time name="dav">   15.35   15.36</time>
   <time name="total">   16.87   16.89</time>
   <energy>
    <i name="e_fr_energy">    -12.37987963</i>
    <i name="e_wo_entrp">    -12.37974019</i>
    <i name="e_0_energy">    -12.37980991</i>
   </energy>
  </scstep>
  <scstep>
   <time name="dav">   15.30   15.31</time>
   <time name="total">   17.56   17.58</time>
   <energy>
    <i name="e_fr_energy">    -11.64225527</i>
    <i name="e_wo_entrp">    -11.64204424</i>
    <i name="e_0_energy">    -11.64214976</i>
   </energy>
  </scstep>
  <scstep>
   <time name="dav">   10.28   10.29</time>
   <time name="total">   11.90   11.92</time>
   <energy>
    <i name="e_fr_energy">    -11.62939666</i>
    <i name="e_wo_entrp">    -11.62920604</i>
    <i name="e_0_energy">    -11.62930135</i>
   </energy>
  </scstep>
  <scstep>
   <time name="dav">   11.19   11.21</time>
   <time name="total">   13.13   13.15</time>
   <energy>
    <i name="e_fr_energy">    -11.62726528</i>
    <i name="e_wo_entrp">    -11.62707232</i>
    <i name="e_0_energy">    -11.62716880</i>
   </energy>
  </scstep>
  <scstep>
   <time name="dav">   15.67   15.69</time>
   <time name="total">   17.57   17.59</time>
   <energy>
    <i name="e_fr_energy">    -11.62733624</i>
    <i name="e_wo_entrp">    -11.62714661</i>
    <i name="e_0_energy">    -11.62724142</i>
   </energy>
  </scstep>
  <scstep>
   <time name="dav">   14.10   14.13</time>
   <time name="total">   15.61   15.65</time>
   <energy>
    <i name="e_fr_energy">    -11.62735168</i>
    <i name="e_wo_entrp">    -11.62715945</i>
    <i name="e_0_energy">    -11.62725556</i>
   </energy>
  </scstep>
  <scstep>
   <time name="dav">   10.38   10.39</time>
   <time name="total">   11.79   11.80</time>
   <energy>
    <i name="e_fr_energy">    -11.62735282</i>
    <i name="e_wo_entrp">    -11.62716014</i>
    <i name="e_0_energy">    -11.62725648</i>
   </energy>
  </scstep>
  <scstep>
   <time name="dav">   14.72   14.77</time>
   <time name="total">   16.64   16.69</time>
   <energy>
    <i name="e_fr_energy">    -11.62735230</i>
    <i name="e_wo_entrp">    -11.62715972</i>
    <i name="e_0_energy">    -11.62725601</i>
   </energy>
  </scstep>
  <scstep>
   <time name="dav">   10.55   10.58</time>
   <time name="total">   12.64   12.67</time>
   <energy>
    <i name="e_fr_energy">    -11.62735233</i>
    <i name="e_wo_entrp">    -11.62715975</i>
    <i name="e_0_energy">    -11.62725604</i>
   </energy>
  </scstep>
  <scstep>
   <time name="dav">   10.28   10.30</time>
   <time name="total">   10.89   10.91</time>
   <energy>
    <i name="alphaZ">    318.44739864</i>
    <i name="ewald">  -3512.67726304</i>
    <i name="hartreedc">   -631.88362595</i>
    <i name="XCdc">     55.90335482</i>
    <i name="pawpsdc">   2919.13410307</i>
    <i name="pawaedc">  -2830.85783731</i>
    <i name="eentropy">     -0.00019257</i>
    <i name="bandstr">    -33.91701399</i>
    <i name="atom">   3704.22372399</i>
    <i name="e_fr_energy">    -11.62735233</i>
    <i name="e_wo_entrp">    -11.62715976</i>
    <i name="e_0_energy">    -11.62725604</i>
   </energy>
  </scstep>
  <structure>
   <crystal>
    <varray name="basis" >
     <v>       4.54840857      0.00000000      0.00000000</v>
     <v>       0.00000000      4.54840857      0.00000000</v>
     <v>       0.00000000      0.00000000      4.54840857</v>
    </varray>
    <i name="volume">     94.09757005</i>
    <varray name="rec_basis" >
     <v>       0.21985712      0.00000000      0.00000000</v>
     <v>       0.00000000      0.21985712      0.00000000</v>
     <v>       0.00000000      0.00000000      0.21985712</v>
    </varray>
   </crystal>
   <varray name="positions" >
    <v>       0.00000000      0.00000000      0.00000000</v>
    <v>       0.50000000      0.50000000      0.00000000</v>
    <v>       0.50000000      0.00000000      0.50000000</v>
    <v>       0.00000000      0.50000000      0.50000000</v>
   </varray>
  </structure>
  <varray name="forces" >
   <v>      -0.00000000      0.00000000     -0.00000000</v>
   <v>       0.00000000      0.00000000      0.00000000</v>
   <v>       0.00000000      0.00000000      0.00000000</v>
   <v>       0.00000000      0.00000000      0.00000000</v>
  </varray>
  <varray name="stress" >
   <v>    -159.20375165      0.00000000     -0.00000000</v>
   <v>       0.00000000   -159.20375165      0.00000000</v>
   <v>      -0.00000000      0.00000000   -159.20375165</v>
  </varray>
  <energy>
   <i name="e_fr_energy">    -11.62735233</i>
   <i name="e_wo_entrp">    -11.62725604</i>
   <i name="e_0_energy">     -0.00019257</i>
  </energy>
  <eigenvalues>
   <array>
    <dimension dim="1">band</dimension>
    <dimension dim="2">kpoint</dimension>
    <dimension dim="3">spin</dimension>
    <field>eigene</field>
    <field>occ</field>
    <set>
     <set comment="spin 1">
      <set comment="kpoint 1">
       <r>  -4.6425  1.0000</r>
       <r>  -2.4116  1.0000</r>
       <r>  -2.4116  1.0000</r>
       <r>  -2.4116  1.0000</r>
       <r>  -2.2487  1.0000</r>
       <r>  -2.2487  1.0000</r>
       <r>  -2.2487  1.0000</r>
       <r>  -1.0719  1.0000</r>
       <r>  -1.0719  1.0000</r>
       <r>  -1.0719  1.0000</r>
       <r>  -0.2244  1.0000</r>
       <r>  -0.2244  1.0000</r>
       <r>   0.4213  1.0000</r>
       <r>   0.4213  1.0000</r>
       <r>   0.4213  1.0000</r>
       <r>   0.6293  1.0000</r>
       <r>   0.6293  1.0000</r>
       <r>   0.6293  1.0000</r>
       <r>   0.6293  1.0000</r>
       <r>   0.6293  1.0000</r>
       <r>   0.6293  1.0000</r>
       <r>   4.1122  0.0000</r>
       <r>   4.1122  0.0000</r>
       <r>   4.1122  0.0000</r>
       <r>   5.9250  0.0000</r>
       <r>   5.9250  0.0000</r>
       <r>   5.9250  0.0000</r>
       <r>  11.3915  0.0000</r>
      </set>
      <set comment="kpoint 2">
       <r>  -4.5814  1.0000</r>
       <r>  -2.3951  1.0000</r>
       <r>  -2.3766  1.0000</r>
       <r>  -2.3766  1.0000</r>
       <r>  -2.2307  1.0000</r>
       <r>  -2.2209  1.0000</r>
       <r>  -2.2209  1.0000</r>
       <r>  -1.0944  1.0000</r>
       <r>  -1.0500  1.0000</r>
       <r>  -1.0500  1.0000</r>
       <r>  -0.2476  1.0000</r>
       <r>  -0.2139  1.0000</r>
       <r>   0.3892  1.0000</r>
       <r>   0.3892  1.0000</r>
       <r>   0.4096  1.0000</r>
       <r>   0.5133  1.0000</r>
       <r>   0.5133  1.0000</r>
       <r>   0.5893  1.0000</r>
       <r>   0.5893  1.0000</r>
       <r>   0.6293  1.0000</r>
       <r>   0.6293  1.0000</r>
       <r>   3.3808  0.0000</r>
       <r>   4.2789  0.0000</r>
       <r>   4.2789  0.0000</r>
       <r>   5.8970  0.0000</r>
       <r>   5.8970  0.0000</r>
       <r>   6.7665  0.0000</r>
       <r>  11.2305  0.0000</r>
      </set>
      <set comment="kpoint 3">
       <r>  -4.3996  1.0000</r>
       <r>  -2.3514  1.0000</r>
       <r>  -2.2757  1.0000</r>
       <r>  -2.2757  1.0000</r>
       <r>  -2.1777  1.0000</r>
       <r>  -2.1377  1.0000</r>
       <r>  -2.1377  1.0000</r>
       <r>  -1.1599  1.0000</r>
       <r>  -0.9849  1.0000</r>
       <r>  -0.9849  1.0000</r>
       <r>  -0.3142  1.0000</r>
       <r>  -0.1833  1.0000</r>
       <r>   0.2201  1.0000</r>
       <r>   0.2201  1.0000</r>
       <r>   0.2956  1.0000</r>
       <r>   0.2956  1.0000</r>
       <r>   0.3757  1.0000</r>
       <r>   0.4756  1.0000</r>
       <r>   0.4756  1.0000</r>
       <r>   0.6295  1.0000</r>
       <r>   0.6295  1.0000</r>
       <r>   2.2523  1.0000</r>
       <r>   4.7231  0.0000</r>
       <r>   4.7231  0.0000</r>
       <r>   5.8202  0.0000</r>
       <r>   5.8202  0.0000</r>
       <r>   8.2289  0.0000</r>
       <r>  10.7811  0.0000</r>
      </set>
      <set comment="kpoint 4">
       <r>  -4.1030  1.0000</r>
       <r>  -2.3019  1.0000</r>
       <r>  -2.1215  1.0000</r>
       <r>  -2.1215  1.0000</r>
       <r>  -2.0921  1.0000</r>
       <r>  -1.9993  1.0000</r>
       <r>  -1.9993  1.0000</r>
       <r>  -1.2622  1.0000</r>
       <r>  -0.8782  1.0000</r>
       <r>  -0.8782  1.0000</r>
       <r>  -0.4136  1.0000</r>
       <r>  -0.1558  1.0000</r>
       <r>  -0.1558  1.0000</r>
       <r>  -0.1342  1.0000</r>
       <r>   0.1496  1.0000</r>
       <r>   0.1496  1.0000</r>
       <r>   0.3043  1.0000</r>
       <r>   0.3043  1.0000</r>
       <r>   0.3221  1.0000</r>
       <r>   0.6297  1.0000</r>
       <r>   0.6297  1.0000</r>
       <r>   1.1937  1.0000</r>
       <r>   5.3471  0.0000</r>
       <r>   5.3471  0.0000</r>
       <r>   5.7149  0.0000</r>
       <r>   5.7149  0.0000</r>
       <r>   9.8587  0.0000</r>
       <r>  10.1368  0.0000</r>
      </set>
      <set comment="kpoint 5">
       <r>  -3.7052  1.0000</r>
       <r>  -2.2957  1.0000</r>
       <r>  -1.9786  1.0000</r>
       <r>  -1.9402  1.0000</r>
       <r>  -1.9402  1.0000</r>
       <r>  -1.8066  1.0000</r>
       <r>  -1.8066  1.0000</r>
       <r>  -1.3925  1.0000</r>
       <r>  -0.7330  1.0000</r>
       <r>  -0.7330  1.0000</r>
       <r>  -0.5490  1.0000</r>
       <r>  -0.5490  1.0000</r>
       <r>  -0.5252  1.0000</r>
       <r>  -0.0695  1.0000</r>
       <r>  -0.0256  1.0000</r>
       <r>  -0.0256  1.0000</r>
       <r>   0.0964  1.0000</r>
       <r>   0.0964  1.0000</r>
       <r>   0.2530  1.0000</r>
       <r>   0.3066  1.0000</r>
       <r>   0.6299  1.0000</r>
       <r>   0.6299  1.0000</r>
       <r>   5.6097  0.0000</r>
       <r>   5.6097  0.0000</r>
       <r>   6.0798  0.0000</r>
       <r>   6.0798  0.0000</r>
       <r>   9.3755  0.0000</r>
       <r>   9.3755  0.0000</r>
      </set>
      <set comment="kpoint 6">
       <r>  -3.2364  1.0000</r>
       <r>  -2.4264  1.0000</r>
       <r>  -1.8432  1.0000</r>
       <r>  -1.7794  1.0000</r>
       <r>  -1.7794  1.0000</r>
       <r>  -1.5610  1.0000</r>
       <r>  -1.5610  1.0000</r>
       <r>  -1.5401  1.0000</r>
       <r>  -0.9248  1.0000</r>
       <r>  -0.9248  1.0000</r>
       <r>  -0.6090  1.0000</r>
       <r>  -0.5541  1.0000</r>
       <r>  -0.5541  1.0000</r>
       <r>  -0.3086  1.0000</r>
       <r>  -0.1833  1.0000</r>
       <r>  -0.1833  1.0000</r>
       <r>  -0.1272  1.0000</r>
       <r>  -0.1272  1.0000</r>
       <r>   0.0066  1.0000</r>
       <r>   0.1735  1.0000</r>
       <r>   0.6300  1.0000</r>
       <r>   0.6300  1.0000</r>
       <r>   5.5332  0.0000</r>
       <r>   5.5332  0.0000</r>
       <r>   6.8780  0.0000</r>
       <r>   6.8780  0.0000</r>
       <r>   8.5540  0.0000</r>
       <r>   8.5540  0.0000</r>
      </set>
      <set comment="kpoint 7">
       <r>  -2.7670  1.0000</r>
       <r>  -2.7670  1.0000</r>
       <r>  -1.7112  1.0000</r>
       <r>  -1.7112  1.0000</r>
       <r>  -1.6938  1.0000</r>
       <r>  -1.6938  1.0000</r>
       <r>  -1.2653  1.0000</r>
       <r>  -1.2653  1.0000</r>
       <r>  -1.2653  1.0000</r>
       <r>  -1.2653  1.0000</r>
       <r>  -0.5837  1.0000</r>
       <r>  -0.5837  1.0000</r>
       <r>  -0.3487  1.0000</r>
       <r>  -0.3487  1.0000</r>
       <r>  -0.3487  1.0000</r>
       <r>  -0.3487  1.0000</r>
       <r>  -0.2506  1.0000</r>
       <r>  -0.2506  1.0000</r>
       <r>   0.0894  1.0000</r>
       <r>   0.0894  1.0000</r>
       <r>   0.6301  1.0000</r>
       <r>   0.6301  1.0000</r>
       <r>   5.5053  0.0000</r>
       <r>   5.5053  0.0000</r>
       <r>   7.7116  0.0000</r>
       <r>   7.7116  0.0000</r>
       <r>   7.7116  0.0000</r>
       <r>   7.7116  0.0000</r>
      </set>
      <set comment="kpoint 8">
       <r>  -4.5207  1.0000</r>
       <r>  -2.3597  1.0000</r>
       <r>  -2.3597  1.0000</r>
       <r>  -2.3476  1.0000</r>
       <r>  -2.2033  1.0000</r>
       <r>  -2.2033  1.0000</r>
       <r>  -2.1887  1.0000</r>
       <r>  -1.1024  1.0000</r>
       <r>  -1.0421  1.0000</r>
       <r>  -1.0300  1.0000</r>
       <r>  -0.2535  1.0000</r>
       <r>  -0.2187  1.0000</r>
       <r>   0.3588  1.0000</r>
       <r>   0.3599  1.0000</r>
       <r>   0.3599  1.0000</r>
       <r>   0.4333  1.0000</r>
       <r>   0.4865  1.0000</r>
       <r>   0.4865  1.0000</r>
       <r>   0.5893  1.0000</r>
       <r>   0.5893  1.0000</r>
       <r>   0.6019  1.0000</r>
       <r>   3.5262  0.0000</r>
       <r>   3.5262  0.0000</r>
       <r>   4.4373  0.0000</r>
       <r>   5.8650  0.0000</r>
       <r>   6.7566  0.0000</r>
       <r>   6.7566  0.0000</r>
       <r>  10.6592  0.0000</r>
      </set>
      <set comment="kpoint 9">
       <r>  -4.3406  1.0000</r>
       <r>  -2.3149  1.0000</r>
       <r>  -2.2634  1.0000</r>
       <r>  -2.2576  1.0000</r>
       <r>  -2.1513  1.0000</r>
       <r>  -2.1211  1.0000</r>
       <r>  -2.0933  1.0000</r>
       <r>  -1.1593  1.0000</r>
       <r>  -0.9839  1.0000</r>
       <r>  -0.9707  1.0000</r>
       <r>  -0.3107  1.0000</r>
       <r>  -0.1903  1.0000</r>
       <r>   0.1254  1.0000</r>
       <r>   0.1716  1.0000</r>
       <r>   0.2575  1.0000</r>
       <r>   0.2696  1.0000</r>
       <r>   0.3296  1.0000</r>
       <r>   0.4238  1.0000</r>
       <r>   0.4752  1.0000</r>
       <r>   0.5880  1.0000</r>
       <r>   0.5890  1.0000</r>
       <r>   2.4133  0.0000</r>
       <r>   3.8882  0.0000</r>
       <r>   4.8646  0.0000</r>
       <r>   5.7750  0.0000</r>
       <r>   6.7420  0.0000</r>
       <r>   8.1929  0.0000</r>
       <r>  10.0262  0.0000</r>
      </set>
      <set comment="kpoint 10">
       <r>  -4.0470  1.0000</r>
       <r>  -2.2634  1.0000</r>
       <r>  -2.1304  1.0000</r>
       <r>  -2.1015  1.0000</r>
       <r>  -2.0675  1.0000</r>
       <r>  -1.9846  1.0000</r>
       <r>  -1.9414  1.0000</r>
       <r>  -1.2575  1.0000</r>
       <r>  -0.8788  1.0000</r>
       <r>  -0.8772  1.0000</r>
       <r>  -0.4010  1.0000</r>
       <r>  -0.2403  1.0000</r>
       <r>  -0.1843  1.0000</r>
       <r>  -0.1353  1.0000</r>
       <r>   0.0668  1.0000</r>
       <r>   0.1301  1.0000</r>
       <r>   0.1770  1.0000</r>
       <r>   0.3035  1.0000</r>
       <r>   0.3449  1.0000</r>
       <r>   0.5853  1.0000</r>
       <r>   0.5886  1.0000</r>
       <r>   1.4052  1.0000</r>
       <r>   4.3305  0.0000</r>
       <r>   5.4727  0.0000</r>
       <r>   5.6447  0.0000</r>
       <r>   6.7703  0.0000</r>
       <r>   9.4129  0.0000</r>
       <r>   9.7495  0.0000</r>
      </set>
      <set comment="kpoint 11">
       <r>  -3.6533  1.0000</r>
       <r>  -2.2547  1.0000</r>
       <r>  -1.9595  1.0000</r>
       <r>  -1.9563  1.0000</r>
       <r>  -1.9171  1.0000</r>
       <r>  -1.7947  1.0000</r>
       <r>  -1.7497  1.0000</r>
       <r>  -1.3840  1.0000</r>
       <r>  -0.7708  1.0000</r>
       <r>  -0.7341  1.0000</r>
       <r>  -0.6226  1.0000</r>
       <r>  -0.5636  1.0000</r>
       <r>  -0.4809  1.0000</r>
       <r>  -0.2153  1.0000</r>
       <r>  -0.0615  1.0000</r>
       <r>  -0.0377  1.0000</r>
       <r>   0.0005  1.0000</r>
       <r>   0.0953  1.0000</r>
       <r>   0.2368  1.0000</r>
       <r>   0.5851  1.0000</r>
       <r>   0.5881  1.0000</r>
       <r>   0.6376  1.0000</r>
       <r>   4.7324  0.0000</r>
       <r>   5.4977  0.0000</r>
       <r>   6.1933  0.0000</r>
       <r>   6.9178  0.0000</r>
       <r>   8.8309  0.0000</r>
       <r>   9.4718  0.0000</r>
      </set>
      <set comment="kpoint 12">
       <r>  -3.1894  1.0000</r>
       <r>  -2.3842  1.0000</r>
       <r>  -1.8239  1.0000</r>
       <r>  -1.7823  1.0000</r>
       <r>  -1.7533  1.0000</r>
       <r>  -1.5530  1.0000</r>
       <r>  -1.5374  1.0000</r>
       <r>  -1.5278  1.0000</r>
       <r>  -0.9807  1.0000</r>
       <r>  -0.9295  1.0000</r>
       <r>  -0.7307  1.0000</r>
       <r>  -0.5555  1.0000</r>
       <r>  -0.5356  1.0000</r>
       <r>  -0.4370  1.0000</r>
       <r>  -0.1863  1.0000</r>
       <r>  -0.1624  1.0000</r>
       <r>  -0.1286  1.0000</r>
       <r>   0.0176  1.0000</r>
       <r>   0.0273  1.0000</r>
       <r>   0.2654  1.0000</r>
       <r>   0.5857  1.0000</r>
       <r>   0.5874  1.0000</r>
       <r>   5.0193  0.0000</r>
       <r>   5.3525  0.0000</r>
       <r>   6.9830  0.0000</r>
       <r>   7.2429  0.0000</r>
       <r>   8.2648  0.0000</r>
       <r>   8.6506  0.0000</r>
      </set>
      <set comment="kpoint 13">
       <r>  -2.7239  1.0000</r>
       <r>  -2.7239  1.0000</r>
       <r>  -1.6898  1.0000</r>
       <r>  -1.6898  1.0000</r>
       <r>  -1.6779  1.0000</r>
       <r>  -1.6779  1.0000</r>
       <r>  -1.2901  1.0000</r>
       <r>  -1.2901  1.0000</r>
       <r>  -1.2627  1.0000</r>
       <r>  -1.2627  1.0000</r>
       <r>  -0.7103  1.0000</r>
       <r>  -0.7103  1.0000</r>
       <r>  -0.3502  1.0000</r>
       <r>  -0.3502  1.0000</r>
       <r>  -0.2470  1.0000</r>
       <r>  -0.2470  1.0000</r>
       <r>  -0.2414  1.0000</r>
       <r>  -0.2414  1.0000</r>
       <r>   0.1296  1.0000</r>
       <r>   0.1296  1.0000</r>
       <r>   0.5865  1.0000</r>
       <r>   0.5865  1.0000</r>
       <r>   5.2057  0.0000</r>
       <r>   5.2057  0.0000</r>
       <r>   7.7182  0.0000</r>
       <r>   7.7182  0.0000</r>
       <r>   7.8111  0.0000</r>
       <r>   7.8111  0.0000</r>
      </set>
      <set comment="kpoint 14">
       <r>  -4.1657  1.0000</r>
       <r>  -2.2142  1.0000</r>
       <r>  -2.2092  1.0000</r>
       <r>  -2.2092  1.0000</r>
       <r>  -2.0724  1.0000</r>
       <r>  -2.0724  1.0000</r>
       <r>  -1.9763  1.0000</r>
       <r>  -1.1822  1.0000</r>
       <r>  -0.9548  1.0000</r>
       <r>  -0.9297  1.0000</r>
       <r>  -0.3302  1.0000</r>
       <r>  -0.1780  1.0000</r>
       <r>  -0.0569  1.0000</r>
       <r>  -0.0569  1.0000</r>
       <r>   0.0016  1.0000</r>
       <r>   0.1928  1.0000</r>
       <r>   0.3321  1.0000</r>
       <r>   0.3321  1.0000</r>
       <r>   0.4741  1.0000</r>
       <r>   0.4741  1.0000</r>
       <r>   0.5212  1.0000</r>
       <r>   2.7903  0.0000</r>
       <r>   2.7903  0.0000</r>
       <r>   5.2552  0.0000</r>
       <r>   5.6422  0.0000</r>
       <r>   8.0913  0.0000</r>
       <r>   8.0913  0.0000</r>
       <r>   9.3004  0.0000</r>
      </set>
      <set comment="kpoint 15">
       <r>  -3.8811  1.0000</r>
       <r>  -2.1514  1.0000</r>
       <r>  -2.1172  1.0000</r>
       <r>  -2.0466  1.0000</r>
       <r>  -1.9940  1.0000</r>
       <r>  -1.9415  1.0000</r>
       <r>  -1.8113  1.0000</r>
       <r>  -1.2547  1.0000</r>
       <r>  -0.8701  1.0000</r>
       <r>  -0.8680  1.0000</r>
       <r>  -0.4310  1.0000</r>
       <r>  -0.3927  1.0000</r>
       <r>  -0.2988  1.0000</r>
       <r>  -0.2808  1.0000</r>
       <r>  -0.1117  1.0000</r>
       <r>   0.0709  1.0000</r>
       <r>   0.1989  1.0000</r>
       <r>   0.2809  1.0000</r>
       <r>   0.3013  1.0000</r>
       <r>   0.4723  1.0000</r>
       <r>   0.4849  1.0000</r>
       <r>   1.8248  1.0000</r>
       <r>   3.2447  0.0000</r>
       <r>   5.4323  0.0000</r>
       <r>   5.8262  0.0000</r>
       <r>   7.9495  0.0000</r>
       <r>   8.7089  0.0000</r>
       <r>   9.4391  0.0000</r>
      </set>
      <set comment="kpoint 16">
       <r>  -3.5004  1.0000</r>
       <r>  -2.1355  1.0000</r>
       <r>  -1.9721  1.0000</r>
       <r>  -1.8901  1.0000</r>
       <r>  -1.8523  1.0000</r>
       <r>  -1.7600  1.0000</r>
       <r>  -1.6271  1.0000</r>
       <r>  -1.3640  1.0000</r>
       <r>  -0.8249  1.0000</r>
       <r>  -0.7972  1.0000</r>
       <r>  -0.7314  1.0000</r>
       <r>  -0.6121  1.0000</r>
       <r>  -0.5780  1.0000</r>
       <r>  -0.4356  1.0000</r>
       <r>  -0.0766  1.0000</r>
       <r>  -0.0074  1.0000</r>
       <r>   0.0335  1.0000</r>
       <r>   0.0922  1.0000</r>
       <r>   0.1728  1.0000</r>
       <r>   0.4700  1.0000</r>
       <r>   0.4708  1.0000</r>
       <r>   1.0745  1.0000</r>
       <r>   3.7034  0.0000</r>
       <r>   5.1639  0.0000</r>
       <r>   6.5172  0.0000</r>
       <r>   7.8175  0.0000</r>
       <r>   8.2659  0.0000</r>
       <r>   9.7519  0.0000</r>
      </set>
      <set comment="kpoint 17">
       <r>  -3.0522  1.0000</r>
       <r>  -2.2625  1.0000</r>
       <r>  -1.7898  1.0000</r>
       <r>  -1.7668  1.0000</r>
       <r>  -1.6774  1.0000</r>
       <r>  -1.5301  1.0000</r>
       <r>  -1.4939  1.0000</r>
       <r>  -1.4671  1.0000</r>
       <r>  -1.1202  1.0000</r>
       <r>  -0.9457  1.0000</r>
       <r>  -0.8463  1.0000</r>
       <r>  -0.8077  1.0000</r>
       <r>  -0.5565  1.0000</r>
       <r>  -0.3712  1.0000</r>
       <r>  -0.2018  1.0000</r>
       <r>  -0.1319  1.0000</r>
       <r>  -0.1304  1.0000</r>
       <r>   0.0018  1.0000</r>
       <r>   0.1279  1.0000</r>
       <r>   0.4664  1.0000</r>
       <r>   0.4678  1.0000</r>
       <r>   0.5852  1.0000</r>
       <r>   4.1306  0.0000</r>
       <r>   4.8557  0.0000</r>
       <r>   7.2853  0.0000</r>
       <r>   7.7530  0.0000</r>
       <r>   7.9649  0.0000</r>
       <r>   8.9314  0.0000</r>
      </set>
      <set comment="kpoint 18">
       <r>  -2.5996  1.0000</r>
       <r>  -2.5996  1.0000</r>
       <r>  -1.6355  1.0000</r>
       <r>  -1.6355  1.0000</r>
       <r>  -1.6317  1.0000</r>
       <r>  -1.6317  1.0000</r>
       <r>  -1.3448  1.0000</r>
       <r>  -1.3448  1.0000</r>
       <r>  -1.2562  1.0000</r>
       <r>  -1.2562  1.0000</r>
       <r>  -0.8816  1.0000</r>
       <r>  -0.8816  1.0000</r>
       <r>  -0.3529  1.0000</r>
       <r>  -0.3529  1.0000</r>
       <r>  -0.2291  1.0000</r>
       <r>  -0.2291  1.0000</r>
       <r>  -0.2036  1.0000</r>
       <r>  -0.2036  1.0000</r>
       <r>   0.3064  1.0000</r>
       <r>   0.3064  1.0000</r>
       <r>   0.4662  1.0000</r>
       <r>   0.4662  1.0000</r>
       <r>   4.5134  0.0000</r>
       <r>   4.5134  0.0000</r>
       <r>   7.7963  0.0000</r>
       <r>   7.7963  0.0000</r>
       <r>   8.0992  0.0000</r>
       <r>   8.0992  0.0000</r>
      </set>
      <set comment="kpoint 19">
       <r>  -3.6123  1.0000</r>
       <r>  -2.0588  1.0000</r>
       <r>  -1.9776  1.0000</r>
       <r>  -1.9776  1.0000</r>
       <r>  -1.8725  1.0000</r>
       <r>  -1.8725  1.0000</r>
       <r>  -1.6453  1.0000</r>
       <r>  -1.2809  1.0000</r>
       <r>  -0.8553  1.0000</r>
       <r>  -0.8161  1.0000</r>
       <r>  -0.6696  1.0000</r>
       <r>  -0.6696  1.0000</r>
       <r>  -0.4598  1.0000</r>
       <r>  -0.4275  1.0000</r>
       <r>  -0.0262  1.0000</r>
       <r>  -0.0199  1.0000</r>
       <r>   0.1671  1.0000</r>
       <r>   0.1671  1.0000</r>
       <r>   0.2981  1.0000</r>
       <r>   0.2981  1.0000</r>
       <r>   0.3913  1.0000</r>
       <r>   2.2941  1.0000</r>
       <r>   2.2941  1.0000</r>
       <r>   5.0882  0.0000</r>
       <r>   6.3564  0.0000</r>
       <r>   8.2277  0.0000</r>
       <r>   9.0067  0.0000</r>
       <r>   9.0067  0.0000</r>
      </set>
      <set comment="kpoint 20">
       <r>  -3.2550  1.0000</r>
       <r>  -1.9515  1.0000</r>
       <r>  -1.9497  1.0000</r>
       <r>  -1.7816  1.0000</r>
       <r>  -1.7646  1.0000</r>
       <r>  -1.7050  1.0000</r>
       <r>  -1.4754  1.0000</r>
       <r>  -1.3490  1.0000</r>
       <r>  -1.0104  1.0000</r>
       <r>  -0.9058  1.0000</r>
       <r>  -0.8570  1.0000</r>
       <r>  -0.7063  1.0000</r>
       <r>  -0.7059  1.0000</r>
       <r>  -0.4600  1.0000</r>
       <r>  -0.1469  1.0000</r>
       <r>   0.0192  1.0000</r>
       <r>   0.0693  1.0000</r>
       <r>   0.0885  1.0000</r>
       <r>   0.1321  1.0000</r>
       <r>   0.2948  1.0000</r>
       <r>   0.3340  1.0000</r>
       <r>   1.5263  1.0000</r>
       <r>   2.7716  0.0000</r>
       <r>   4.6554  0.0000</r>
       <r>   7.0122  0.0000</r>
       <r>   7.9667  0.0000</r>
       <r>   8.5689  0.0000</r>
       <r>   9.9200  0.0000</r>
      </set>
      <set comment="kpoint 21">
       <r>  -2.8366  1.0000</r>
       <r>  -2.0782  1.0000</r>
       <r>  -1.7957  1.0000</r>
       <r>  -1.6750  1.0000</r>
       <r>  -1.5606  1.0000</r>
       <r>  -1.4954  1.0000</r>
       <r>  -1.4474  1.0000</r>
       <r>  -1.3576  1.0000</r>
       <r>  -1.2990  1.0000</r>
       <r>  -1.0369  1.0000</r>
       <r>  -0.9801  1.0000</r>
       <r>  -0.9187  1.0000</r>
       <r>  -0.5467  1.0000</r>
       <r>  -0.4083  1.0000</r>
       <r>  -0.2451  1.0000</r>
       <r>  -0.1363  1.0000</r>
       <r>  -0.1343  1.0000</r>
       <r>  -0.0879  1.0000</r>
       <r>   0.2930  1.0000</r>
       <r>   0.3063  1.0000</r>
       <r>   0.3314  1.0000</r>
       <r>   0.9684  1.0000</r>
       <r>   3.2453  0.0000</r>
       <r>   4.1875  0.0000</r>
       <r>   7.7536  0.0000</r>
       <r>   7.8929  0.0000</r>
       <r>   8.2117  0.0000</r>
       <r>   9.3722  0.0000</r>
      </set>
      <set comment="kpoint 22">
       <r>  -2.4107  1.0000</r>
       <r>  -2.4107  1.0000</r>
       <r>  -1.6001  1.0000</r>
       <r>  -1.6001  1.0000</r>
       <r>  -1.5603  1.0000</r>
       <r>  -1.5603  1.0000</r>
       <r>  -1.3613  1.0000</r>
       <r>  -1.3613  1.0000</r>
       <r>  -1.2499  1.0000</r>
       <r>  -1.2499  1.0000</r>
       <r>  -1.0107  1.0000</r>
       <r>  -1.0107  1.0000</r>
       <r>  -0.3514  1.0000</r>
       <r>  -0.3514  1.0000</r>
       <r>  -0.2670  1.0000</r>
       <r>  -0.2670  1.0000</r>
       <r>  -0.2460  1.0000</r>
       <r>  -0.2460  1.0000</r>
       <r>   0.2954  1.0000</r>
       <r>   0.2954  1.0000</r>
       <r>   0.5931  1.0000</r>
       <r>   0.5931  1.0000</r>
       <r>   3.7157  0.0000</r>
       <r>   3.7157  0.0000</r>
       <r>   7.9797  0.0000</r>
       <r>   7.9797  0.0000</r>
       <r>   8.5494  0.0000</r>
       <r>   8.5494  0.0000</r>
      </set>
      <set comment="kpoint 23">
       <r>  -2.9338  1.0000</r>
       <r>  -1.8916  1.0000</r>
       <r>  -1.7210  1.0000</r>
       <r>  -1.7210  1.0000</r>
       <r>  -1.6342  1.0000</r>
       <r>  -1.6342  1.0000</r>
       <r>  -1.3597  1.0000</r>
       <r>  -1.3242  1.0000</r>
       <r>  -1.1886  1.0000</r>
       <r>  -1.1886  1.0000</r>
       <r>  -0.8796  1.0000</r>
       <r>  -0.8528  1.0000</r>
       <r>  -0.6357  1.0000</r>
       <r>  -0.5109  1.0000</r>
       <r>  -0.2433  1.0000</r>
       <r>  -0.0644  1.0000</r>
       <r>  -0.0644  1.0000</r>
       <r>   0.0866  1.0000</r>
       <r>   0.0866  1.0000</r>
       <r>   0.2196  1.0000</r>
       <r>   0.3396  1.0000</r>
       <r>   1.9875  1.0000</r>
       <r>   1.9875  1.0000</r>
       <r>   4.0722  0.0000</r>
       <r>   7.6358  0.0000</r>
       <r>   7.8969  0.0000</r>
       <r>   9.2452  0.0000</r>
       <r>   9.2452  0.0000</r>
      </set>
      <set comment="kpoint 24">
       <r>  -2.5648  1.0000</r>
       <r>  -1.8722  1.0000</r>
       <r>  -1.7900  1.0000</r>
       <r>  -1.5540  1.0000</r>
       <r>  -1.5252  1.0000</r>
       <r>  -1.4540  1.0000</r>
       <r>  -1.4040  1.0000</r>
       <r>  -1.3847  1.0000</r>
       <r>  -1.2306  1.0000</r>
       <r>  -1.1951  1.0000</r>
       <r>  -1.0427  1.0000</r>
       <r>  -0.9478  1.0000</r>
       <r>  -0.5093  1.0000</r>
       <r>  -0.4942  1.0000</r>
       <r>  -0.3253  1.0000</r>
       <r>  -0.2104  1.0000</r>
       <r>  -0.2081  1.0000</r>
       <r>  -0.1306  1.0000</r>
       <r>   0.0906  1.0000</r>
       <r>   0.1458  1.0000</r>
       <r>   0.6007  1.0000</r>
       <r>   1.3784  1.0000</r>
       <r>   2.4616  0.0000</r>
       <r>   3.4962  0.0000</r>
       <r>   8.0063  0.0000</r>
       <r>   8.3513  0.0000</r>
       <r>   8.6882  0.0000</r>
       <r>   9.9278  0.0000</r>
      </set>
      <set comment="kpoint 25">
       <r>  -2.1904  1.0000</r>
       <r>  -2.1904  1.0000</r>
       <r>  -1.6469  1.0000</r>
       <r>  -1.6469  1.0000</r>
       <r>  -1.4734  1.0000</r>
       <r>  -1.4734  1.0000</r>
       <r>  -1.2725  1.0000</r>
       <r>  -1.2725  1.0000</r>
       <r>  -1.2512  1.0000</r>
       <r>  -1.2512  1.0000</r>
       <r>  -1.0745  1.0000</r>
       <r>  -1.0745  1.0000</r>
       <r>  -0.3761  1.0000</r>
       <r>  -0.3761  1.0000</r>
       <r>  -0.3355  1.0000</r>
       <r>  -0.3355  1.0000</r>
       <r>  -0.3164  1.0000</r>
       <r>  -0.3164  1.0000</r>
       <r>   0.1070  1.0000</r>
       <r>   0.1070  1.0000</r>
       <r>   0.9321  1.0000</r>
       <r>   0.9321  1.0000</r>
       <r>   2.9599  0.0000</r>
       <r>   2.9599  0.0000</r>
       <r>   8.2724  0.0000</r>
       <r>   8.2724  0.0000</r>
       <r>   9.1290  0.0000</r>
       <r>   9.1290  0.0000</r>
      </set>
      <set comment="kpoint 26">
       <r>  -2.2699  1.0000</r>
       <r>  -1.7661  1.0000</r>
       <r>  -1.7375  1.0000</r>
       <r>  -1.7375  1.0000</r>
       <r>  -1.4139  1.0000</r>
       <r>  -1.4139  1.0000</r>
       <r>  -1.3807  1.0000</r>
       <r>  -1.2261  1.0000</r>
       <r>  -1.2261  1.0000</r>
       <r>  -1.1406  1.0000</r>
       <r>  -1.1339  1.0000</r>
       <r>  -0.9728  1.0000</r>
       <r>  -0.5492  1.0000</r>
       <r>  -0.4265  1.0000</r>
       <r>  -0.4162  1.0000</r>
       <r>  -0.3415  1.0000</r>
       <r>  -0.3415  1.0000</r>
       <r>  -0.1123  1.0000</r>
       <r>  -0.1123  1.0000</r>
       <r>   0.0167  1.0000</r>
       <r>   0.9229  1.0000</r>
       <r>   1.8187  1.0000</r>
       <r>   1.8187  1.0000</r>
       <r>   2.8615  0.0000</r>
       <r>   8.2718  0.0000</r>
       <r>   9.0452  0.0000</r>
       <r>   9.2333  0.0000</r>
       <r>   9.2333  0.0000</r>
      </set>
      <set comment="kpoint 27">
       <r>  -1.9874  1.0000</r>
       <r>  -1.9874  1.0000</r>
       <r>  -1.7314  1.0000</r>
       <r>  -1.7314  1.0000</r>
       <r>  -1.3857  1.0000</r>
       <r>  -1.3857  1.0000</r>
       <r>  -1.2696  1.0000</r>
       <r>  -1.2696  1.0000</r>
       <r>  -1.1449  1.0000</r>
       <r>  -1.1449  1.0000</r>
       <r>  -1.0698  1.0000</r>
       <r>  -1.0698  1.0000</r>
       <r>  -0.4860  1.0000</r>
       <r>  -0.4860  1.0000</r>
       <r>  -0.4325  1.0000</r>
       <r>  -0.4325  1.0000</r>
       <r>  -0.2912  1.0000</r>
       <r>  -0.2912  1.0000</r>
       <r>  -0.0675  1.0000</r>
       <r>  -0.0675  1.0000</r>
       <r>   1.3165  1.0000</r>
       <r>   1.3165  1.0000</r>
       <r>   2.3058  1.0000</r>
       <r>   2.3058  1.0000</r>
       <r>   8.6808  0.0000</r>
       <r>   8.6808  0.0000</r>
       <r>   9.8200  0.0000</r>
       <r>   9.8556  0.0000</r>
      </set>
      <set comment="kpoint 28">
       <r>  -1.8376  1.0000</r>
       <r>  -1.8376  1.0000</r>
       <r>  -1.8376  1.0000</r>
       <r>  -1.8376  1.0000</r>
       <r>  -1.3142  1.0000</r>
       <r>  -1.3142  1.0000</r>
       <r>  -1.3142  1.0000</r>
       <r>  -1.3142  1.0000</r>
       <r>  -1.0625  1.0000</r>
       <r>  -1.0625  1.0000</r>
       <r>  -1.0625  1.0000</r>
       <r>  -1.0625  1.0000</r>
       <r>  -0.5205  1.0000</r>
       <r>  -0.5205  1.0000</r>
       <r>  -0.5205  1.0000</r>
       <r>  -0.5205  1.0000</r>
       <r>  -0.2038  1.0000</r>
       <r>  -0.2038  1.0000</r>
       <r>  -0.2038  1.0000</r>
       <r>  -0.2038  1.0000</r>
       <r>   1.7647  1.0000</r>
       <r>   1.7647  1.0000</r>
       <r>   1.7647  1.0000</r>
       <r>   1.7647  1.0000</r>
       <r>   9.2118  0.0000</r>
       <r>   9.2118  0.0000</r>
       <r>   9.2118  0.0000</r>
       <r>   9.2118  0.0000</r>
      </set>
      <set comment="kpoint 29">
       <r>  -4.4608  1.0000</r>
       <r>  -2.3308  1.0000</r>
       <r>  -2.3308  1.0000</r>
       <r>  -2.3308  1.0000</r>
       <r>  -2.1711  1.0000</r>
       <r>  -2.1711  1.0000</r>
       <r>  -2.1711  1.0000</r>
       <r>  -1.1084  1.0000</r>
       <r>  -1.0236  1.0000</r>
       <r>  -1.0236  1.0000</r>
       <r>  -0.2403  1.0000</r>
       <r>  -0.2403  1.0000</r>
       <r>   0.3313  1.0000</r>
       <r>   0.3313  1.0000</r>
       <r>   0.3313  1.0000</r>
       <r>   0.3826  1.0000</r>
       <r>   0.3826  1.0000</r>
       <r>   0.3826  1.0000</r>
       <r>   0.5811  1.0000</r>
       <r>   0.5811  1.0000</r>
       <r>   0.5811  1.0000</r>
       <r>   3.6601  0.0000</r>
       <r>   3.6601  0.0000</r>
       <r>   3.6601  0.0000</r>
       <r>   6.7407  0.0000</r>
       <r>   6.7407  0.0000</r>
       <r>   6.7407  0.0000</r>
       <r>  10.7793  0.0000</r>
      </set>
      <set comment="kpoint 30">
       <r>  -4.2826  1.0000</r>
       <r>  -2.2862  1.0000</r>
       <r>  -2.2468  1.0000</r>
       <r>  -2.2468  1.0000</r>
       <r>  -2.1190  1.0000</r>
       <r>  -2.0755  1.0000</r>
       <r>  -2.0755  1.0000</r>
       <r>  -1.1572  1.0000</r>
       <r>  -0.9734  1.0000</r>
       <r>  -0.9685  1.0000</r>
       <r>  -0.3007  1.0000</r>
       <r>  -0.2016  1.0000</r>
       <r>   0.0939  1.0000</r>
       <r>   0.0939  1.0000</r>
       <r>   0.2335  1.0000</r>
       <r>   0.2489  1.0000</r>
       <r>   0.2660  1.0000</r>
       <r>   0.2660  1.0000</r>
       <r>   0.5249  1.0000</r>
       <r>   0.5685  1.0000</r>
       <r>   0.5685  1.0000</r>
       <r>   2.5553  0.0000</r>
       <r>   3.9977  0.0000</r>
       <r>   3.9977  0.0000</r>
       <r>   6.7057  0.0000</r>
       <r>   6.7057  0.0000</r>
       <r>   8.1366  0.0000</r>
       <r>  10.1750  0.0000</r>
      </set>
      <set comment="kpoint 31">
       <r>  -3.9924  1.0000</r>
       <r>  -2.2343  1.0000</r>
       <r>  -2.1143  1.0000</r>
       <r>  -2.1143  1.0000</r>
       <r>  -2.0356  1.0000</r>
       <r>  -1.9237  1.0000</r>
       <r>  -1.9237  1.0000</r>
       <r>  -1.2500  1.0000</r>
       <r>  -0.8809  1.0000</r>
       <r>  -0.8779  1.0000</r>
       <r>  -0.3829  1.0000</r>
       <r>  -0.2617  1.0000</r>
       <r>  -0.2617  1.0000</r>
       <r>  -0.1397  1.0000</r>
       <r>  -0.0079  1.0000</r>
       <r>   0.1162  1.0000</r>
       <r>   0.1380  1.0000</r>
       <r>   0.1380  1.0000</r>
       <r>   0.4452  1.0000</r>
       <r>   0.5589  1.0000</r>
       <r>   0.5589  1.0000</r>
       <r>   1.5656  1.0000</r>
       <r>   4.4111  0.0000</r>
       <r>   4.4111  0.0000</r>
       <r>   6.6933  0.0000</r>
       <r>   6.6933  0.0000</r>
       <r>   9.5872  0.0000</r>
       <r>   9.6173  0.0000</r>
      </set>
      <set comment="kpoint 32">
       <r>  -3.6038  1.0000</r>
       <r>  -2.2241  1.0000</r>
       <r>  -1.9430  1.0000</r>
       <r>  -1.9430  1.0000</r>
       <r>  -1.9261  1.0000</r>
       <r>  -1.7338  1.0000</r>
       <r>  -1.7338  1.0000</r>
       <r>  -1.3718  1.0000</r>
       <r>  -0.7881  1.0000</r>
       <r>  -0.7544  1.0000</r>
       <r>  -0.6309  1.0000</r>
       <r>  -0.6309  1.0000</r>
       <r>  -0.4341  1.0000</r>
       <r>  -0.3265  1.0000</r>
       <r>  -0.0586  1.0000</r>
       <r>  -0.0528  1.0000</r>
       <r>  -0.0233  1.0000</r>
       <r>  -0.0233  1.0000</r>
       <r>   0.3510  1.0000</r>
       <r>   0.5534  1.0000</r>
       <r>   0.5534  1.0000</r>
       <r>   0.7876  1.0000</r>
       <r>   4.7727  0.0000</r>
       <r>   4.7727  0.0000</r>
       <r>   6.7677  0.0000</r>
       <r>   6.7677  0.0000</r>
       <r>   9.1294  0.0000</r>
       <r>   9.1294  0.0000</r>
      </set>
      <set comment="kpoint 33">
       <r>  -3.1463  1.0000</r>
       <r>  -2.3512  1.0000</r>
       <r>  -1.7973  1.0000</r>
       <r>  -1.7612  1.0000</r>
       <r>  -1.7612  1.0000</r>
       <r>  -1.5332  1.0000</r>
       <r>  -1.5332  1.0000</r>
       <r>  -1.5108  1.0000</r>
       <r>  -0.9731  1.0000</r>
       <r>  -0.9731  1.0000</r>
       <r>  -0.7752  1.0000</r>
       <r>  -0.6317  1.0000</r>
       <r>  -0.6019  1.0000</r>
       <r>  -0.3417  1.0000</r>
       <r>  -0.2396  1.0000</r>
       <r>  -0.1742  1.0000</r>
       <r>  -0.1742  1.0000</r>
       <r>   0.0370  1.0000</r>
       <r>   0.2478  1.0000</r>
       <r>   0.2529  1.0000</r>
       <r>   0.5507  1.0000</r>
       <r>   0.5507  1.0000</r>
       <r>   4.9906  0.0000</r>
       <r>   4.9906  0.0000</r>
       <r>   6.9456  0.0000</r>
       <r>   6.9456  0.0000</r>
       <r>   8.7318  0.0000</r>
       <r>   8.7318  0.0000</r>
      </set>
      <set comment="kpoint 34">
       <r>  -2.6871  1.0000</r>
       <r>  -2.6871  1.0000</r>
       <r>  -1.6682  1.0000</r>
       <r>  -1.6682  1.0000</r>
       <r>  -1.6560  1.0000</r>
       <r>  -1.6560  1.0000</r>
       <r>  -1.3712  1.0000</r>
       <r>  -1.3712  1.0000</r>
       <r>  -1.2001  1.0000</r>
       <r>  -1.2001  1.0000</r>
       <r>  -0.7739  1.0000</r>
       <r>  -0.7739  1.0000</r>
       <r>  -0.4271  1.0000</r>
       <r>  -0.4271  1.0000</r>
       <r>  -0.2405  1.0000</r>
       <r>  -0.2405  1.0000</r>
       <r>  -0.1037  1.0000</r>
       <r>  -0.1037  1.0000</r>
       <r>   0.1412  1.0000</r>
       <r>   0.1412  1.0000</r>
       <r>   0.5499  1.0000</r>
       <r>   0.5499  1.0000</r>
       <r>   5.0568  0.0000</r>
       <r>   5.0568  0.0000</r>
       <r>   7.0640  0.0000</r>
       <r>   7.0640  0.0000</r>
       <r>   8.5518  0.0000</r>
       <r>   8.5518  0.0000</r>
      </set>
      <set comment="kpoint 35">
       <r>  -4.1105  1.0000</r>
       <r>  -2.2030  1.0000</r>
       <r>  -2.2030  1.0000</r>
       <r>  -2.2005  1.0000</r>
       <r>  -2.0231  1.0000</r>
       <r>  -2.0231  1.0000</r>
       <r>  -1.9569  1.0000</r>
       <r>  -1.1741  1.0000</r>
       <r>  -0.9483  1.0000</r>
       <r>  -0.9327  1.0000</r>
       <r>  -0.3070  1.0000</r>
       <r>  -0.1954  1.0000</r>
       <r>  -0.0829  1.0000</r>
       <r>  -0.0829  1.0000</r>
       <r>  -0.0561  1.0000</r>
       <r>   0.1453  1.0000</r>
       <r>   0.1993  1.0000</r>
       <r>   0.1993  1.0000</r>
       <r>   0.5198  1.0000</r>
       <r>   0.5198  1.0000</r>
       <r>   0.5291  1.0000</r>
       <r>   2.9022  0.0000</r>
       <r>   2.9022  0.0000</r>
       <r>   4.2764  0.0000</r>
       <r>   6.6041  0.0000</r>
       <r>   7.9676  0.0000</r>
       <r>   7.9676  0.0000</r>
       <r>   9.5301  0.0000</r>
      </set>
      <set comment="kpoint 36">
       <r>  -3.8309  1.0000</r>
       <r>  -2.1516  1.0000</r>
       <r>  -2.1067  1.0000</r>
       <r>  -2.0724  1.0000</r>
       <r>  -1.9397  1.0000</r>
       <r>  -1.8706  1.0000</r>
       <r>  -1.7914  1.0000</r>
       <r>  -1.2386  1.0000</r>
       <r>  -0.8771  1.0000</r>
       <r>  -0.8737  1.0000</r>
       <r>  -0.4440  1.0000</r>
       <r>  -0.3598  1.0000</r>
       <r>  -0.3401  1.0000</r>
       <r>  -0.3289  1.0000</r>
       <r>  -0.1242  1.0000</r>
       <r>   0.0355  1.0000</r>
       <r>   0.0613  1.0000</r>
       <r>   0.1098  1.0000</r>
       <r>   0.4495  1.0000</r>
       <r>   0.4925  1.0000</r>
       <r>   0.4932  1.0000</r>
       <r>   1.9334  1.0000</r>
       <r>   3.3348  0.0000</r>
       <r>   4.6040  0.0000</r>
       <r>   6.4763  0.0000</r>
       <r>   7.7031  0.0000</r>
       <r>   9.0885  0.0000</r>
       <r>   9.1393  0.0000</r>
      </set>
      <set comment="kpoint 37">
       <r>  -3.4581  1.0000</r>
       <r>  -2.1386  1.0000</r>
       <r>  -1.9647  1.0000</r>
       <r>  -1.9018  1.0000</r>
       <r>  -1.8338  1.0000</r>
       <r>  -1.6838  1.0000</r>
       <r>  -1.6106  1.0000</r>
       <r>  -1.3402  1.0000</r>
       <r>  -0.8336  1.0000</r>
       <r>  -0.7920  1.0000</r>
       <r>  -0.7662  1.0000</r>
       <r>  -0.6608  1.0000</r>
       <r>  -0.6127  1.0000</r>
       <r>  -0.3737  1.0000</r>
       <r>  -0.1153  1.0000</r>
       <r>  -0.0937  1.0000</r>
       <r>  -0.0226  1.0000</r>
       <r>  -0.0169  1.0000</r>
       <r>   0.3500  1.0000</r>
       <r>   0.4675  1.0000</r>
       <r>   0.4704  1.0000</r>
       <r>   1.1533  1.0000</r>
       <r>   3.7791  0.0000</r>
       <r>   4.8154  0.0000</r>
       <r>   6.4278  0.0000</r>
       <r>   7.3920  0.0000</r>
       <r>   8.8840  0.0000</r>
       <r>   9.8908  0.0000</r>
      </set>
      <set comment="kpoint 38">
       <r>  -3.0211  1.0000</r>
       <r>  -2.2593  1.0000</r>
       <r>  -1.7830  1.0000</r>
       <r>  -1.7158  1.0000</r>
       <r>  -1.7081  1.0000</r>
       <r>  -1.5195  1.0000</r>
       <r>  -1.4737  1.0000</r>
       <r>  -1.4617  1.0000</r>
       <r>  -1.0744  1.0000</r>
       <r>  -0.9551  1.0000</r>
       <r>  -0.8613  1.0000</r>
       <r>  -0.8379  1.0000</r>
       <r>  -0.6334  1.0000</r>
       <r>  -0.3009  1.0000</r>
       <r>  -0.2555  1.0000</r>
       <r>  -0.2143  1.0000</r>
       <r>  -0.1657  1.0000</r>
       <r>   0.1161  1.0000</r>
       <r>   0.2022  1.0000</r>
       <r>   0.4547  1.0000</r>
       <r>   0.4569  1.0000</r>
       <r>   0.6011  1.0000</r>
       <r>   4.1916  0.0000</r>
       <r>   4.7797  0.0000</r>
       <r>   6.5557  0.0000</r>
       <r>   7.0847  0.0000</r>
       <r>   8.9168  0.0000</r>
       <r>   9.5180  0.0000</r>
      </set>
      <set comment="kpoint 39">
       <r>  -2.5827  1.0000</r>
       <r>  -2.5827  1.0000</r>
       <r>  -1.6148  1.0000</r>
       <r>  -1.6148  1.0000</r>
       <r>  -1.5901  1.0000</r>
       <r>  -1.5901  1.0000</r>
       <r>  -1.4698  1.0000</r>
       <r>  -1.4698  1.0000</r>
       <r>  -1.1404  1.0000</r>
       <r>  -1.1404  1.0000</r>
       <r>  -0.9030  1.0000</r>
       <r>  -0.9030  1.0000</r>
       <r>  -0.4769  1.0000</r>
       <r>  -0.4769  1.0000</r>
       <r>  -0.2503  1.0000</r>
       <r>  -0.2503  1.0000</r>
       <r>  -0.0261  1.0000</r>
       <r>  -0.0261  1.0000</r>
       <r>   0.2900  1.0000</r>
       <r>   0.2900  1.0000</r>
       <r>   0.4517  1.0000</r>
       <r>   0.4517  1.0000</r>
       <r>   4.5407  0.0000</r>
       <r>   4.5407  0.0000</r>
       <r>   6.8007  0.0000</r>
       <r>   6.8007  0.0000</r>
       <r>   9.1560  0.0000</r>
       <r>   9.1560  0.0000</r>
      </set>
      <set comment="kpoint 40">
       <r>  -3.5703  1.0000</r>
       <r>  -2.0543  1.0000</r>
       <r>  -2.0246  1.0000</r>
       <r>  -2.0246  1.0000</r>
       <r>  -1.7847  1.0000</r>
       <r>  -1.7847  1.0000</r>
       <r>  -1.6264  1.0000</r>
       <r>  -1.2519  1.0000</r>
       <r>  -0.8623  1.0000</r>
       <r>  -0.8391  1.0000</r>
       <r>  -0.6763  1.0000</r>
       <r>  -0.6763  1.0000</r>
       <r>  -0.5017  1.0000</r>
       <r>  -0.3780  1.0000</r>
       <r>  -0.0851  1.0000</r>
       <r>  -0.0352  1.0000</r>
       <r>   0.0037  1.0000</r>
       <r>   0.0037  1.0000</r>
       <r>   0.4076  1.0000</r>
       <r>   0.4076  1.0000</r>
       <r>   0.4222  1.0000</r>
       <r>   2.3774  0.0000</r>
       <r>   2.3774  0.0000</r>
       <r>   4.7520  0.0000</r>
       <r>   6.2452  0.0000</r>
       <r>   8.5510  0.0000</r>
       <r>   8.5510  0.0000</r>
       <r>   8.8698  0.0000</r>
      </set>
      <set comment="kpoint 41">
       <r>  -3.2260  1.0000</r>
       <r>  -2.0142  1.0000</r>
       <r>  -1.9547  1.0000</r>
       <r>  -1.8620  1.0000</r>
       <r>  -1.6789  1.0000</r>
       <r>  -1.5950  1.0000</r>
       <r>  -1.4658  1.0000</r>
       <r>  -1.3061  1.0000</r>
       <r>  -0.9875  1.0000</r>
       <r>  -0.9076  1.0000</r>
       <r>  -0.8630  1.0000</r>
       <r>  -0.7618  1.0000</r>
       <r>  -0.7246  1.0000</r>
       <r>  -0.3783  1.0000</r>
       <r>  -0.1984  1.0000</r>
       <r>  -0.1603  1.0000</r>
       <r>  -0.0887  1.0000</r>
       <r>   0.1161  1.0000</r>
       <r>   0.2943  1.0000</r>
       <r>   0.3602  1.0000</r>
       <r>   0.3648  1.0000</r>
       <r>   1.5831  1.0000</r>
       <r>   2.8444  0.0000</r>
       <r>   4.6248  0.0000</r>
       <r>   6.2623  0.0000</r>
       <r>   7.9545  0.0000</r>
       <r>   8.9265  0.0000</r>
       <r>   9.3150  0.0000</r>
      </set>
      <set comment="kpoint 42">
       <r>  -2.8275  1.0000</r>
       <r>  -2.1306  1.0000</r>
       <r>  -1.8098  1.0000</r>
       <r>  -1.6768  1.0000</r>
       <r>  -1.5763  1.0000</r>
       <r>  -1.4751  1.0000</r>
       <r>  -1.3889  1.0000</r>
       <r>  -1.3858  1.0000</r>
       <r>  -1.1725  1.0000</r>
       <r>  -1.0399  1.0000</r>
       <r>  -0.9362  1.0000</r>
       <r>  -0.9243  1.0000</r>
       <r>  -0.6528  1.0000</r>
       <r>  -0.3421  1.0000</r>
       <r>  -0.2891  1.0000</r>
       <r>  -0.2709  1.0000</r>
       <r>  -0.2062  1.0000</r>
       <r>   0.1330  1.0000</r>
       <r>   0.3143  1.0000</r>
       <r>   0.3284  1.0000</r>
       <r>   0.3293  1.0000</r>
       <r>   0.9852  1.0000</r>
       <r>   3.3164  0.0000</r>
       <r>   4.2459  0.0000</r>
       <r>   6.5444  0.0000</r>
       <r>   7.4140  0.0000</r>
       <r>   9.2027  0.0000</r>
       <r>  10.0767  0.0000</r>
      </set>
      <set comment="kpoint 43">
       <r>  -2.4300  1.0000</r>
       <r>  -2.4300  1.0000</r>
       <r>  -1.6355  1.0000</r>
       <r>  -1.6355  1.0000</r>
       <r>  -1.4820  1.0000</r>
       <r>  -1.4820  1.0000</r>
       <r>  -1.4694  1.0000</r>
       <r>  -1.4694  1.0000</r>
       <r>  -1.0871  1.0000</r>
       <r>  -1.0871  1.0000</r>
       <r>  -1.0161  1.0000</r>
       <r>  -1.0161  1.0000</r>
       <r>  -0.5117  1.0000</r>
       <r>  -0.5117  1.0000</r>
       <r>  -0.2965  1.0000</r>
       <r>  -0.2965  1.0000</r>
       <r>  -0.0739  1.0000</r>
       <r>  -0.0739  1.0000</r>
       <r>   0.3178  1.0000</r>
       <r>   0.3178  1.0000</r>
       <r>   0.5822  1.0000</r>
       <r>   0.5822  1.0000</r>
       <r>   3.7877  0.0000</r>
       <r>   3.7877  0.0000</r>
       <r>   6.9438  0.0000</r>
       <r>   6.9438  0.0000</r>
       <r>   9.6471  0.0000</r>
       <r>   9.6471  0.0000</r>
      </set>
      <set comment="kpoint 44">
       <r>  -2.9262  1.0000</r>
       <r>  -1.9089  1.0000</r>
       <r>  -1.8709  1.0000</r>
       <r>  -1.8709  1.0000</r>
       <r>  -1.4767  1.0000</r>
       <r>  -1.4767  1.0000</r>
       <r>  -1.3382  1.0000</r>
       <r>  -1.2935  1.0000</r>
       <r>  -1.1565  1.0000</r>
       <r>  -1.1565  1.0000</r>
       <r>  -0.8804  1.0000</r>
       <r>  -0.8229  1.0000</r>
       <r>  -0.7342  1.0000</r>
       <r>  -0.3910  1.0000</r>
       <r>  -0.3091  1.0000</r>
       <r>  -0.2243  1.0000</r>
       <r>  -0.2243  1.0000</r>
       <r>   0.2283  1.0000</r>
       <r>   0.2283  1.0000</r>
       <r>   0.2698  1.0000</r>
       <r>   0.3222  1.0000</r>
       <r>   2.0377  1.0000</r>
       <r>   2.0377  1.0000</r>
       <r>   4.1397  0.0000</r>
       <r>   6.4481  0.0000</r>
       <r>   8.5501  0.0000</r>
       <r>   8.5501  0.0000</r>
       <r>   9.1822  0.0000</r>
      </set>
      <set comment="kpoint 45">
       <r>  -2.5890  1.0000</r>
       <r>  -1.9986  1.0000</r>
       <r>  -1.8301  1.0000</r>
       <r>  -1.7463  1.0000</r>
       <r>  -1.3856  1.0000</r>
       <r>  -1.3728  1.0000</r>
       <r>  -1.3125  1.0000</r>
       <r>  -1.3023  1.0000</r>
       <r>  -1.2093  1.0000</r>
       <r>  -1.1893  1.0000</r>
       <r>  -0.9441  1.0000</r>
       <r>  -0.9189  1.0000</r>
       <r>  -0.6694  1.0000</r>
       <r>  -0.3918  1.0000</r>
       <r>  -0.3915  1.0000</r>
       <r>  -0.3119  1.0000</r>
       <r>  -0.3119  1.0000</r>
       <r>   0.0593  1.0000</r>
       <r>   0.1804  1.0000</r>
       <r>   0.1998  1.0000</r>
       <r>   0.5846  1.0000</r>
       <r>   1.3970  1.0000</r>
       <r>   2.5144  0.0000</r>
       <r>   3.5699  0.0000</r>
       <r>   6.8250  0.0000</r>
       <r>   7.8788  0.0000</r>
       <r>   9.2122  0.0000</r>
       <r>   9.6052  0.0000</r>
      </set>
      <set comment="kpoint 46">
       <r>  -2.2593  1.0000</r>
       <r>  -2.2593  1.0000</r>
       <r>  -1.7417  1.0000</r>
       <r>  -1.7417  1.0000</r>
       <r>  -1.3710  1.0000</r>
       <r>  -1.3710  1.0000</r>
       <r>  -1.3482  1.0000</r>
       <r>  -1.3482  1.0000</r>
       <r>  -1.0708  1.0000</r>
       <r>  -1.0708  1.0000</r>
       <r>  -1.0316  1.0000</r>
       <r>  -1.0316  1.0000</r>
       <r>  -0.5504  1.0000</r>
       <r>  -0.5504  1.0000</r>
       <r>  -0.3909  1.0000</r>
       <r>  -0.3909  1.0000</r>
       <r>  -0.1386  1.0000</r>
       <r>  -0.1386  1.0000</r>
       <r>   0.1688  1.0000</r>
       <r>   0.1688  1.0000</r>
       <r>   0.9260  1.0000</r>
       <r>   0.9260  1.0000</r>
       <r>   3.0222  0.0000</r>
       <r>   3.0222  0.0000</r>
       <r>   7.3057  0.0000</r>
       <r>   7.3057  0.0000</r>
       <r>   9.9472  0.0000</r>
       <r>   9.9472  0.0000</r>
      </set>
      <set comment="kpoint 47">
       <r>  -2.3372  1.0000</r>
       <r>  -1.8993  1.0000</r>
       <r>  -1.8993  1.0000</r>
       <r>  -1.8402  1.0000</r>
       <r>  -1.2870  1.0000</r>
       <r>  -1.2870  1.0000</r>
       <r>  -1.2697  1.0000</r>
       <r>  -1.2647  1.0000</r>
       <r>  -1.1467  1.0000</r>
       <r>  -1.1467  1.0000</r>
       <r>  -0.9475  1.0000</r>
       <r>  -0.9059  1.0000</r>
       <r>  -0.6733  1.0000</r>
       <r>  -0.4897  1.0000</r>
       <r>  -0.4577  1.0000</r>
       <r>  -0.4577  1.0000</r>
       <r>  -0.2877  1.0000</r>
       <r>   0.0106  1.0000</r>
       <r>   0.0106  1.0000</r>
       <r>   0.0863  1.0000</r>
       <r>   0.9117  1.0000</r>
       <r>   1.8440  1.0000</r>
       <r>   1.8440  1.0000</r>
       <r>   2.9191  0.0000</r>
       <r>   7.2589  0.0000</r>
       <r>   8.4533  0.0000</r>
       <r>   8.4533  0.0000</r>
       <r>   9.8943  0.0000</r>
      </set>
      <set comment="kpoint 48">
       <r>  -2.1013  1.0000</r>
       <r>  -2.1013  1.0000</r>
       <r>  -1.8529  1.0000</r>
       <r>  -1.8529  1.0000</r>
       <r>  -1.2864  1.0000</r>
       <r>  -1.2864  1.0000</r>
       <r>  -1.2586  1.0000</r>
       <r>  -1.2586  1.0000</r>
       <r>  -1.0225  1.0000</r>
       <r>  -1.0225  1.0000</r>
       <r>  -0.9695  1.0000</r>
       <r>  -0.9695  1.0000</r>
       <r>  -0.5980  1.0000</r>
       <r>  -0.5980  1.0000</r>
       <r>  -0.5147  1.0000</r>
       <r>  -0.5147  1.0000</r>
       <r>  -0.1642  1.0000</r>
       <r>  -0.1642  1.0000</r>
       <r>   0.0166  1.0000</r>
       <r>   0.0166  1.0000</r>
       <r>   1.3182  1.0000</r>
       <r>   1.3182  1.0000</r>
       <r>   2.3446  0.3300</r>
       <r>   2.3446  0.3300</r>
       <r>   7.8032  0.0000</r>
       <r>   7.8032  0.0000</r>
       <r>   9.1265  0.0000</r>
       <r>   9.1265  0.0000</r>
      </set>
      <set comment="kpoint 49">
       <r>  -1.9686  1.0000</r>
       <r>  -1.9686  1.0000</r>
       <r>  -1.9686  1.0000</r>
       <r>  -1.9686  1.0000</r>
       <r>  -1.2479  1.0000</r>
       <r>  -1.2479  1.0000</r>
       <r>  -1.2479  1.0000</r>
       <r>  -1.2479  1.0000</r>
       <r>  -0.9428  1.0000</r>
       <r>  -0.9428  1.0000</r>
       <r>  -0.9428  1.0000</r>
       <r>  -0.9428  1.0000</r>
       <r>  -0.6085  1.0000</r>
       <r>  -0.6085  1.0000</r>
       <r>  -0.6085  1.0000</r>
       <r>  -0.6085  1.0000</r>
       <r>  -0.1095  1.0000</r>
       <r>  -0.1095  1.0000</r>
       <r>  -0.1095  1.0000</r>
       <r>  -0.1095  1.0000</r>
       <r>   1.7812  1.0000</r>
       <r>   1.7812  1.0000</r>
       <r>   1.7812  1.0000</r>
       <r>   1.7812  1.0000</r>
       <r>   8.4117  0.0000</r>
       <r>   8.4117  0.0000</r>
       <r>   8.4117  0.0000</r>
       <r>   8.4117  0.0000</r>
      </set>
      <set comment="kpoint 50">
       <r>  -3.9472  1.0000</r>
       <r>  -2.1654  1.0000</r>
       <r>  -2.1654  1.0000</r>
       <r>  -2.1654  1.0000</r>
       <r>  -1.8991  1.0000</r>
       <r>  -1.8991  1.0000</r>
       <r>  -1.8991  1.0000</r>
       <r>  -1.1674  1.0000</r>
       <r>  -0.9264  1.0000</r>
       <r>  -0.9264  1.0000</r>
       <r>  -0.2410  1.0000</r>
       <r>  -0.2410  1.0000</r>
       <r>  -0.2201  1.0000</r>
       <r>  -0.2201  1.0000</r>
       <r>  -0.2201  1.0000</r>
       <r>   0.0280  1.0000</r>
       <r>   0.0280  1.0000</r>
       <r>   0.0280  1.0000</r>
       <r>   0.5318  1.0000</r>
       <r>   0.5318  1.0000</r>
       <r>   0.5318  1.0000</r>
       <r>   3.1929  0.0000</r>
       <r>   3.1929  0.0000</r>
       <r>   3.1929  0.0000</r>
       <r>   7.6087  0.0000</r>
       <r>   7.6087  0.0000</r>
       <r>   7.6087  0.0000</r>
       <r>  10.2398  0.0000</r>
      </set>
      <set comment="kpoint 51">
       <r>  -3.6834  1.0000</r>
       <r>  -2.1277  1.0000</r>
       <r>  -2.0819  1.0000</r>
       <r>  -2.0819  1.0000</r>
       <r>  -1.8066  1.0000</r>
       <r>  -1.7310  1.0000</r>
       <r>  -1.7310  1.0000</r>
       <r>  -1.1993  1.0000</r>
       <r>  -0.8872  1.0000</r>
       <r>  -0.8834  1.0000</r>
       <r>  -0.4953  1.0000</r>
       <r>  -0.4953  1.0000</r>
       <r>  -0.4636  1.0000</r>
       <r>  -0.2871  1.0000</r>
       <r>  -0.1420  1.0000</r>
       <r>  -0.1240  1.0000</r>
       <r>  -0.0658  1.0000</r>
       <r>  -0.0658  1.0000</r>
       <r>   0.5019  1.0000</r>
       <r>   0.5019  1.0000</r>
       <r>   0.5056  1.0000</r>
       <r>   2.2199  1.0000</r>
       <r>   3.5776  0.0000</r>
       <r>   3.5776  0.0000</r>
       <r>   7.0980  0.0000</r>
       <r>   7.0980  0.0000</r>
       <r>   8.4581  0.0000</r>
       <r>  10.0864  0.0000</r>
      </set>
      <set comment="kpoint 52">
       <r>  -3.3349  1.0000</r>
       <r>  -2.1282  1.0000</r>
       <r>  -1.9523  1.0000</r>
       <r>  -1.9523  1.0000</r>
       <r>  -1.6910  1.0000</r>
       <r>  -1.5584  1.0000</r>
       <r>  -1.5584  1.0000</r>
       <r>  -1.2725  1.0000</r>
       <r>  -0.8589  1.0000</r>
       <r>  -0.8146  1.0000</r>
       <r>  -0.7795  1.0000</r>
       <r>  -0.7795  1.0000</r>
       <r>  -0.7331  1.0000</r>
       <r>  -0.2880  1.0000</r>
       <r>  -0.2619  1.0000</r>
       <r>  -0.1601  1.0000</r>
       <r>  -0.1601  1.0000</r>
       <r>  -0.0214  1.0000</r>
       <r>   0.4445  1.0000</r>
       <r>   0.4590  1.0000</r>
       <r>   0.4590  1.0000</r>
       <r>   1.3967  1.0000</r>
       <r>   3.9830  0.0000</r>
       <r>   3.9830  0.0000</r>
       <r>   6.5670  0.0000</r>
       <r>   6.5670  0.0000</r>
       <r>   9.2344  0.0000</r>
       <r>  10.0984  0.0000</r>
      </set>
      <set comment="kpoint 53">
       <r>  -2.9325  1.0000</r>
       <r>  -2.2451  1.0000</r>
       <r>  -1.7849  1.0000</r>
       <r>  -1.7849  1.0000</r>
       <r>  -1.5733  1.0000</r>
       <r>  -1.4762  1.0000</r>
       <r>  -1.4762  1.0000</r>
       <r>  -1.3665  1.0000</r>
       <r>  -0.9682  1.0000</r>
       <r>  -0.9682  1.0000</r>
       <r>  -0.9268  1.0000</r>
       <r>  -0.9014  1.0000</r>
       <r>  -0.7179  1.0000</r>
       <r>  -0.4486  1.0000</r>
       <r>  -0.2631  1.0000</r>
       <r>  -0.2631  1.0000</r>
       <r>  -0.0832  1.0000</r>
       <r>   0.1088  1.0000</r>
       <r>   0.3523  1.0000</r>
       <r>   0.4262  1.0000</r>
       <r>   0.4262  1.0000</r>
       <r>   0.7424  1.0000</r>
       <r>   4.3343  0.0000</r>
       <r>   4.3343  0.0000</r>
       <r>   6.1321  0.0000</r>
       <r>   6.1321  0.0000</r>
       <r>  10.0132  0.0000</r>
       <r>  10.1804  0.0000</r>
      </set>
      <set comment="kpoint 54">
       <r>  -2.5359  1.0000</r>
       <r>  -2.5359  1.0000</r>
       <r>  -1.6357  1.0000</r>
       <r>  -1.6357  1.0000</r>
       <r>  -1.5519  1.0000</r>
       <r>  -1.5519  1.0000</r>
       <r>  -1.4670  1.0000</r>
       <r>  -1.4670  1.0000</r>
       <r>  -1.0030  1.0000</r>
       <r>  -1.0030  1.0000</r>
       <r>  -0.9619  1.0000</r>
       <r>  -0.9619  1.0000</r>
       <r>  -0.5945  1.0000</r>
       <r>  -0.5945  1.0000</r>
       <r>  -0.3153  1.0000</r>
       <r>  -0.3153  1.0000</r>
       <r>   0.2370  1.0000</r>
       <r>   0.2370  1.0000</r>
       <r>   0.2534  1.0000</r>
       <r>   0.2534  1.0000</r>
       <r>   0.4145  1.0000</r>
       <r>   0.4145  1.0000</r>
       <r>   4.4933  0.0000</r>
       <r>   4.4933  0.0000</r>
       <r>   5.9446  0.0000</r>
       <r>   5.9446  0.0000</r>
       <r>  10.2282  0.0000</r>
       <r>  10.2282  0.0000</r>
      </set>
      <set comment="kpoint 55">
       <r>  -3.4479  1.0000</r>
       <r>  -2.0635  1.0000</r>
       <r>  -2.0635  1.0000</r>
       <r>  -2.0493  1.0000</r>
       <r>  -1.6312  1.0000</r>
       <r>  -1.6312  1.0000</r>
       <r>  -1.5684  1.0000</r>
       <r>  -1.1682  1.0000</r>
       <r>  -0.8815  1.0000</r>
       <r>  -0.8796  1.0000</r>
       <r>  -0.7030  1.0000</r>
       <r>  -0.7030  1.0000</r>
       <r>  -0.6137  1.0000</r>
       <r>  -0.2598  1.0000</r>
       <r>  -0.2183  1.0000</r>
       <r>  -0.2122  1.0000</r>
       <r>  -0.2122  1.0000</r>
       <r>  -0.0747  1.0000</r>
       <r>   0.4735  1.0000</r>
       <r>   0.4885  1.0000</r>
       <r>   0.4885  1.0000</r>
       <r>   2.6106  0.0000</r>
       <r>   2.6106  0.0000</r>
       <r>   3.9096  0.0000</r>
       <r>   6.3856  0.0000</r>
       <r>   7.6831  0.0000</r>
       <r>   7.6831  0.0000</r>
       <r>  10.1445  0.0000</r>
      </set>
      <set comment="kpoint 56">
       <r>  -3.1426  1.0000</r>
       <r>  -2.0894  1.0000</r>
       <r>  -1.9756  1.0000</r>
       <r>  -1.9622  1.0000</r>
       <r>  -1.5007  1.0000</r>
       <r>  -1.4661  1.0000</r>
       <r>  -1.4324  1.0000</r>
       <r>  -1.1786  1.0000</r>
       <r>  -0.9169  1.0000</r>
       <r>  -0.9111  1.0000</r>
       <r>  -0.8807  1.0000</r>
       <r>  -0.8421  1.0000</r>
       <r>  -0.7660  1.0000</r>
       <r>  -0.3752  1.0000</r>
       <r>  -0.3194  1.0000</r>
       <r>  -0.2802  1.0000</r>
       <r>  -0.2214  1.0000</r>
       <r>   0.0736  1.0000</r>
       <r>   0.4226  1.0000</r>
       <r>   0.4360  1.0000</r>
       <r>   0.4363  1.0000</r>
       <r>   1.7608  1.0000</r>
       <r>   3.0535  0.0000</r>
       <r>   4.2378  0.0000</r>
       <r>   5.7595  0.0000</r>
       <r>   6.9451  0.0000</r>
       <r>   8.3189  0.0000</r>
       <r>  10.3420  0.0000</r>
      </set>
      <set comment="kpoint 57">
       <r>  -2.7991  1.0000</r>
       <r>  -2.2151  1.0000</r>
       <r>  -1.8728  1.0000</r>
       <r>  -1.8452  1.0000</r>
       <r>  -1.4318  1.0000</r>
       <r>  -1.4088  1.0000</r>
       <r>  -1.3650  1.0000</r>
       <r>  -1.2196  1.0000</r>
       <r>  -1.0434  1.0000</r>
       <r>  -0.9603  1.0000</r>
       <r>  -0.9392  1.0000</r>
       <r>  -0.8426  1.0000</r>
       <r>  -0.7712  1.0000</r>
       <r>  -0.5316  1.0000</r>
       <r>  -0.3968  1.0000</r>
       <r>  -0.3581  1.0000</r>
       <r>  -0.0586  1.0000</r>
       <r>   0.2644  1.0000</r>
       <r>   0.3350  1.0000</r>
       <r>   0.3758  1.0000</r>
       <r>   0.3838  1.0000</r>
       <r>   1.0652  1.0000</r>
       <r>   3.5220  0.0000</r>
       <r>   4.3240  0.0000</r>
       <r>   5.4901  0.0000</r>
       <r>   6.2940  0.0000</r>
       <r>   9.0245  0.0000</r>
       <r>  10.6364  0.0000</r>
      </set>
      <set comment="kpoint 58">
       <r>  -2.4672  1.0000</r>
       <r>  -2.4672  1.0000</r>
       <r>  -1.7933  1.0000</r>
       <r>  -1.7933  1.0000</r>
       <r>  -1.4639  1.0000</r>
       <r>  -1.4639  1.0000</r>
       <r>  -1.2724  1.0000</r>
       <r>  -1.2724  1.0000</r>
       <r>  -1.0326  1.0000</r>
       <r>  -1.0326  1.0000</r>
       <r>  -0.8782  1.0000</r>
       <r>  -0.8782  1.0000</r>
       <r>  -0.6665  1.0000</r>
       <r>  -0.6665  1.0000</r>
       <r>  -0.4185  1.0000</r>
       <r>  -0.4185  1.0000</r>
       <r>   0.1691  1.0000</r>
       <r>   0.1691  1.0000</r>
       <r>   0.3596  1.0000</r>
       <r>   0.3596  1.0000</r>
       <r>   0.5614  1.0000</r>
       <r>   0.5614  1.0000</r>
       <r>   3.9882  0.0000</r>
       <r>   3.9882  0.0000</r>
       <r>   5.7653  0.0000</r>
       <r>   5.7653  0.0000</r>
       <r>   9.7971  0.0000</r>
       <r>   9.7971  0.0000</r>
      </set>
      <set comment="kpoint 59">
       <r>  -2.9013  1.0000</r>
       <r>  -2.0284  1.0000</r>
       <r>  -2.0284  1.0000</r>
       <r>  -1.9721  1.0000</r>
       <r>  -1.3486  1.0000</r>
       <r>  -1.3373  1.0000</r>
       <r>  -1.3373  1.0000</r>
       <r>  -1.1071  1.0000</r>
       <r>  -1.0257  1.0000</r>
       <r>  -1.0257  1.0000</r>
       <r>  -0.8745  1.0000</r>
       <r>  -0.8483  1.0000</r>
       <r>  -0.7493  1.0000</r>
       <r>  -0.4491  1.0000</r>
       <r>  -0.4299  1.0000</r>
       <r>  -0.4299  1.0000</r>
       <r>  -0.2142  1.0000</r>
       <r>   0.2716  1.0000</r>
       <r>   0.3632  1.0000</r>
       <r>   0.3776  1.0000</r>
       <r>   0.3776  1.0000</r>
       <r>   2.1922  1.0000</r>
       <r>   2.1922  1.0000</r>
       <r>   4.2631  0.0000</r>
       <r>   5.3304  0.0000</r>
       <r>   7.4756  0.0000</r>
       <r>   7.4756  0.0000</r>
       <r>  10.5611  0.0000</r>
      </set>
      <set comment="kpoint 60">
       <r>  -2.6381  1.0000</r>
       <r>  -2.1720  1.0000</r>
       <r>  -1.9678  1.0000</r>
       <r>  -1.9518  1.0000</r>
       <r>  -1.3401  1.0000</r>
       <r>  -1.3393  1.0000</r>
       <r>  -1.1920  1.0000</r>
       <r>  -1.0948  1.0000</r>
       <r>  -1.0738  1.0000</r>
       <r>  -0.9232  1.0000</r>
       <r>  -0.9069  1.0000</r>
       <r>  -0.8018  1.0000</r>
       <r>  -0.7231  1.0000</r>
       <r>  -0.5800  1.0000</r>
       <r>  -0.5307  1.0000</r>
       <r>  -0.4831  1.0000</r>
       <r>  -0.1087  1.0000</r>
       <r>   0.2631  1.0000</r>
       <r>   0.3025  1.0000</r>
       <r>   0.3118  1.0000</r>
       <r>   0.5372  1.0000</r>
       <r>   1.4658  1.0000</r>
       <r>   2.6738  0.0000</r>
       <r>   3.7856  0.0000</r>
       <r>   5.5729  0.0000</r>
       <r>   6.7293  0.0000</r>
       <r>   8.1186  0.0000</r>
       <r>   9.6689  0.0000</r>
      </set>
      <set comment="kpoint 61">
       <r>  -2.3844  1.0000</r>
       <r>  -2.3844  1.0000</r>
       <r>  -1.9402  1.0000</r>
       <r>  -1.9402  1.0000</r>
       <r>  -1.3612  1.0000</r>
       <r>  -1.3612  1.0000</r>
       <r>  -1.1125  1.0000</r>
       <r>  -1.1125  1.0000</r>
       <r>  -1.0107  1.0000</r>
       <r>  -1.0107  1.0000</r>
       <r>  -0.7706  1.0000</r>
       <r>  -0.7706  1.0000</r>
       <r>  -0.7084  1.0000</r>
       <r>  -0.7084  1.0000</r>
       <r>  -0.5357  1.0000</r>
       <r>  -0.5357  1.0000</r>
       <r>   0.0860  1.0000</r>
       <r>   0.0860  1.0000</r>
       <r>   0.2789  1.0000</r>
       <r>   0.2789  1.0000</r>
       <r>   0.9149  1.0000</r>
[...]
       <r>   1.8357  1.0000</r>
       <r>   1.8357  1.0000</r>
       <r>   1.8357  1.0000</r>
       <r>   7.2547  0.0000</r>
       <r>   7.2547  0.0000</r>
       <r>   7.2547  0.0000</r>
       <r>   7.2547  0.0000</r>
      </set>
      <set comment="kpoint 65">
       <r>  -3.2562  1.0000</r>
       <r>  -2.0661  1.0000</r>
       <r>  -2.0661  1.0000</r>
       <r>  -2.0661  1.0000</r>
       <r>  -1.4703  1.0000</r>
       <r>  -1.4703  1.0000</r>
       <r>  -1.4703  1.0000</r>
       <r>  -1.0512  1.0000</r>
       <r>  -0.9039  1.0000</r>
       <r>  -0.9039  1.0000</r>
       <r>  -0.7597  1.0000</r>
       <r>  -0.7597  1.0000</r>
       <r>  -0.7597  1.0000</r>
       <r>  -0.3751  1.0000</r>
       <r>  -0.3751  1.0000</r>
       <r>  -0.3751  1.0000</r>
       <r>  -0.1113  1.0000</r>
       <r>  -0.1113  1.0000</r>
       <r>   0.4999  1.0000</r>
       <r>   0.4999  1.0000</r>
       <r>   0.4999  1.0000</r>
       <r>   2.9556  0.0000</r>
       <r>   2.9556  0.0000</r>
       <r>   2.9556  0.0000</r>
       <r>   6.7821  0.0000</r>
       <r>   6.7821  0.0000</r>
       <r>   6.7821  0.0000</r>
       <r>  11.4522  0.0000</r>
      </set>
      <set comment="kpoint 66">
       <r>  -3.0145  1.0000</r>
       <r>  -2.1349  1.0000</r>
       <r>  -2.0380  1.0000</r>
       <r>  -2.0380  1.0000</r>
       <r>  -1.3676  1.0000</r>
       <r>  -1.3676  1.0000</r>
       <r>  -1.3374  1.0000</r>
       <r>  -0.9929  1.0000</r>
       <r>  -0.8975  1.0000</r>
       <r>  -0.8929  1.0000</r>
       <r>  -0.8894  1.0000</r>
       <r>  -0.7984  1.0000</r>
       <r>  -0.7984  1.0000</r>
       <r>  -0.5296  1.0000</r>
       <r>  -0.4646  1.0000</r>
       <r>  -0.4646  1.0000</r>
       <r>  -0.0679  1.0000</r>
       <r>   0.0457  1.0000</r>
       <r>   0.4625  1.0000</r>
       <r>   0.4625  1.0000</r>
       <r>   0.4848  1.0000</r>
       <r>   2.0584  1.0000</r>
       <r>   3.3761  0.0000</r>
       <r>   3.3761  0.0000</r>
       <r>   5.9511  0.0000</r>
       <r>   5.9511  0.0000</r>
       <r>   7.3348  0.0000</r>
       <r>  10.4824  0.0000</r>
      </set>
      <set comment="kpoint 67">
       <r>  -2.7491  1.0000</r>
       <r>  -2.2782  1.0000</r>
       <r>  -1.9971  1.0000</r>
       <r>  -1.9971  1.0000</r>
       <r>  -1.3716  1.0000</r>
       <r>  -1.3716  1.0000</r>
       <r>  -1.1859  1.0000</r>
       <r>  -1.0144  1.0000</r>
       <r>  -0.9742  1.0000</r>
       <r>  -0.9010  1.0000</r>
       <r>  -0.8556  1.0000</r>
       <r>  -0.7414  1.0000</r>
       <r>  -0.7414  1.0000</r>
       <r>  -0.6671  1.0000</r>
       <r>  -0.5234  1.0000</r>
       <r>  -0.5234  1.0000</r>
       <r>   0.1737  1.0000</r>
       <r>   0.1958  1.0000</r>
       <r>   0.4098  1.0000</r>
       <r>   0.4098  1.0000</r>
       <r>   0.4254  1.0000</r>
       <r>   1.2747  1.0000</r>
       <r>   3.8405  0.0000</r>
       <r>   3.8405  0.0000</r>
       <r>   5.2366  0.0000</r>
       <r>   5.2366  0.0000</r>
       <r>   7.9995  0.0000</r>
       <r>   9.5820  0.0000</r>
      </set>
      <set comment="kpoint 68">
       <r>  -2.4922  1.0000</r>
       <r>  -2.4922  1.0000</r>
       <r>  -1.9761  1.0000</r>
       <r>  -1.9761  1.0000</r>
       <r>  -1.3949  1.0000</r>
       <r>  -1.3949  1.0000</r>
       <r>  -1.0578  1.0000</r>
       <r>  -1.0578  1.0000</r>
       <r>  -0.9780  1.0000</r>
       <r>  -0.9780  1.0000</r>
       <r>  -0.7777  1.0000</r>
       <r>  -0.7777  1.0000</r>
       <r>  -0.6765  1.0000</r>
       <r>  -0.6765  1.0000</r>
       <r>  -0.5657  1.0000</r>
       <r>  -0.5657  1.0000</r>
       <r>   0.3261  1.0000</r>
       <r>   0.3261  1.0000</r>
       <r>   0.3845  1.0000</r>
       <r>   0.3845  1.0000</r>
       <r>   0.6357  1.0000</r>
       <r>   0.6357  1.0000</r>
       <r>   4.1703  0.0000</r>
       <r>   4.1703  0.0000</r>
       <r>   4.8227  0.0000</r>
       <r>   4.8227  0.0000</r>
       <r>   8.7526  0.0000</r>
       <r>   8.7526  0.0000</r>
      </set>
      <set comment="kpoint 69">
       <r>  -2.8544  1.0000</r>
       <r>  -2.1531  1.0000</r>
       <r>  -2.1531  1.0000</r>
       <r>  -2.0897  1.0000</r>
       <r>  -1.3173  1.0000</r>
       <r>  -1.2754  1.0000</r>
       <r>  -1.2754  1.0000</r>
       <r>  -0.9608  1.0000</r>
       <r>  -0.9306  1.0000</r>
       <r>  -0.7986  1.0000</r>
       <r>  -0.7986  1.0000</r>
       <r>  -0.7140  1.0000</r>
       <r>  -0.6518  1.0000</r>
       <r>  -0.6041  1.0000</r>
       <r>  -0.6041  1.0000</r>
       <r>  -0.6026  1.0000</r>
       <r>  -0.0331  1.0000</r>
       <r>   0.1956  1.0000</r>
       <r>   0.4396  1.0000</r>
       <r>   0.4611  1.0000</r>
       <r>   0.4611  1.0000</r>
       <r>   2.4560  0.0000</r>
       <r>   2.4560  0.0000</r>
       <r>   3.7862  0.0000</r>
       <r>   5.0518  0.0000</r>
       <r>   6.4326  0.0000</r>
       <r>   6.4326  0.0000</r>
       <r>   9.5057  0.0000</r>
      </set>
      <set comment="kpoint 70">
       <r>  -2.6755  1.0000</r>
       <r>  -2.3100  1.0000</r>
       <r>  -2.1524  1.0000</r>
       <r>  -2.1217  1.0000</r>
       <r>  -1.3075  1.0000</r>
       <r>  -1.2914  1.0000</r>
       <r>  -1.1745  1.0000</r>
       <r>  -1.0115  1.0000</r>
       <r>  -0.9137  1.0000</r>
       <r>  -0.7919  1.0000</r>
       <r>  -0.7201  1.0000</r>
       <r>  -0.6882  1.0000</r>
       <r>  -0.6813  1.0000</r>
       <r>  -0.6036  1.0000</r>
       <r>  -0.5622  1.0000</r>
       <r>  -0.5235  1.0000</r>
       <r>   0.1022  1.0000</r>
       <r>   0.3918  1.0000</r>
       <r>   0.4047  1.0000</r>
       <r>   0.4069  1.0000</r>
       <r>   0.4626  1.0000</r>
       <r>   1.6232  1.0000</r>
       <r>   2.9407  0.0000</r>
       <r>   4.0904  0.0000</r>
       <r>   4.4550  0.0000</r>
       <r>   5.6330  0.0000</r>
       <r>   7.0585  0.0000</r>
       <r>   8.6062  0.0000</r>
      </set>
      <set comment="kpoint 71">
       <r>  -2.4896  1.0000</r>
       <r>  -2.4896  1.0000</r>
       <r>  -2.1411  1.0000</r>
       <r>  -2.1411  1.0000</r>
       <r>  -1.3075  1.0000</r>
       <r>  -1.3075  1.0000</r>
       <r>  -1.0841  1.0000</r>
       <r>  -1.0841  1.0000</r>
       <r>  -0.8576  1.0000</r>
       <r>  -0.8576  1.0000</r>
       <r>  -0.7093  1.0000</r>
       <r>  -0.7093  1.0000</r>
       <r>  -0.6428  1.0000</r>
       <r>  -0.6428  1.0000</r>
       <r>  -0.4868  1.0000</r>
       <r>  -0.4868  1.0000</r>
       <r>   0.2900  1.0000</r>
       <r>   0.2900  1.0000</r>
       <r>   0.3693  1.0000</r>
       <r>   0.3693  1.0000</r>
       <r>   0.9355  1.0000</r>
       <r>   0.9355  1.0000</r>
       <r>   3.5129  0.0000</r>
       <r>   3.5129  0.0000</r>
       <r>   4.9442  0.0000</r>
       <r>   4.9442  0.0000</r>
       <r>   7.7883  0.0000</r>
       <r>   7.7883  0.0000</r>
      </set>
      <set comment="kpoint 72">
       <r>  -2.5769  1.0000</r>
       <r>  -2.3098  1.0000</r>
       <r>  -2.3098  1.0000</r>
       <r>  -2.2157  1.0000</r>
       <r>  -1.2545  1.0000</r>
       <r>  -1.1973  1.0000</r>
       <r>  -1.1973  1.0000</r>
       <r>  -1.0428  1.0000</r>
       <r>  -0.9354  1.0000</r>
       <r>  -0.8166  1.0000</r>
       <r>  -0.8166  1.0000</r>
       <r>  -0.7792  1.0000</r>
       <r>  -0.4601  1.0000</r>
       <r>  -0.4601  1.0000</r>
       <r>  -0.3676  1.0000</r>
       <r>  -0.3583  1.0000</r>
       <r>   0.0821  1.0000</r>
       <r>   0.3385  1.0000</r>
       <r>   0.3419  1.0000</r>
       <r>   0.3419  1.0000</r>
       <r>   0.8336  1.0000</r>
       <r>   2.0873  1.0000</r>
       <r>   2.0873  1.0000</r>
       <r>   3.3746  0.0000</r>
       <r>   4.8593  0.0000</r>
       <r>   6.2183  0.0000</r>
       <r>   6.2183  0.0000</r>
       <r>   7.7166  0.0000</r>
      </set>
      <set comment="kpoint 73">
       <r>  -2.4539  1.0000</r>
       <r>  -2.4539  1.0000</r>
       <r>  -2.2784  1.0000</r>
       <r>  -2.2784  1.0000</r>
       <r>  -1.2205  1.0000</r>
       <r>  -1.2205  1.0000</r>
       <r>  -1.1092  1.0000</r>
       <r>  -1.1092  1.0000</r>
       <r>  -0.8980  1.0000</r>
       <r>  -0.8980  1.0000</r>
       <r>  -0.8229  1.0000</r>
       <r>  -0.8229  1.0000</r>
       <r>  -0.3556  1.0000</r>
       <r>  -0.3556  1.0000</r>
       <r>  -0.3257  1.0000</r>
       <r>  -0.3257  1.0000</r>
       <r>   0.2131  1.0000</r>
       <r>   0.2131  1.0000</r>
       <r>   0.3029  1.0000</r>
       <r>   0.3029  1.0000</r>
       <r>   1.3706  1.0000</r>
       <r>   1.3706  1.0000</r>
       <r>   2.6691  0.0000</r>
       <r>   2.6691  0.0000</r>
       <r>   5.4841  0.0000</r>
       <r>   5.4841  0.0000</r>
       <r>   6.9185  0.0000</r>
       <r>   6.9185  0.0000</r>
      </set>
      <set comment="kpoint 74">
       <r>  -2.3833  1.0000</r>
       <r>  -2.3833  1.0000</r>
       <r>  -2.3833  1.0000</r>
       <r>  -2.3833  1.0000</r>
       <r>  -1.1506  1.0000</r>
       <r>  -1.1506  1.0000</r>
       <r>  -1.1506  1.0000</r>
       <r>  -1.1506  1.0000</r>
       <r>  -0.8901  1.0000</r>
       <r>  -0.8901  1.0000</r>
       <r>  -0.8901  1.0000</r>
       <r>  -0.8901  1.0000</r>
       <r>  -0.2402  1.0000</r>
       <r>  -0.2402  1.0000</r>
       <r>  -0.2402  1.0000</r>
       <r>  -0.2402  1.0000</r>
       <r>   0.2131  1.0000</r>
       <r>   0.2131  1.0000</r>
       <r>   0.2131  1.0000</r>
       <r>   0.2131  1.0000</r>
       <r>   1.9453  1.0000</r>
       <r>   1.9453  1.0000</r>
       <r>   1.9453  1.0000</r>
       <r>   1.9453  1.0000</r>
       <r>   6.1488  0.0000</r>
       <r>   6.1488  0.0000</r>
       <r>   6.1488  0.0000</r>
       <r>   6.1488  0.0000</r>
      </set>
      <set comment="kpoint 75">
       <r>  -2.7815  1.0000</r>
       <r>  -2.2421  1.0000</r>
       <r>  -2.2421  1.0000</r>
       <r>  -2.2421  1.0000</r>
       <r>  -1.2487  1.0000</r>
       <r>  -1.2487  1.0000</r>
       <r>  -1.2487  1.0000</r>
       <r>  -0.9742  1.0000</r>
       <r>  -0.9742  1.0000</r>
       <r>  -0.7432  1.0000</r>
       <r>  -0.7432  1.0000</r>
       <r>  -0.7432  1.0000</r>
       <r>  -0.5375  1.0000</r>
       <r>  -0.5375  1.0000</r>
       <r>  -0.5375  1.0000</r>
       <r>  -0.3252  1.0000</r>
       <r>   0.1372  1.0000</r>
       <r>   0.1372  1.0000</r>
       <r>   0.4748  1.0000</r>
       <r>   0.4748  1.0000</r>
       <r>   0.4748  1.0000</r>
       <r>   2.8288  0.0000</r>
       <r>   2.8288  0.0000</r>
       <r>   2.8288  0.0000</r>
       <r>   5.4815  0.0000</r>
       <r>   5.4815  0.0000</r>
       <r>   5.4815  0.0000</r>
       <r>   8.5212  0.0000</r>
      </set>
      <set comment="kpoint 76">
       <r>  -2.6804  1.0000</r>
       <r>  -2.4026  1.0000</r>
       <r>  -2.2953  1.0000</r>
       <r>  -2.2953  1.0000</r>
       <r>  -1.2397  1.0000</r>
       <r>  -1.2397  1.0000</r>
       <r>  -1.1652  1.0000</r>
       <r>  -1.0200  1.0000</r>
       <r>  -0.9763  1.0000</r>
       <r>  -0.8573  1.0000</r>
       <r>  -0.8155  1.0000</r>
       <r>  -0.8155  1.0000</r>
       <r>  -0.4094  1.0000</r>
       <r>  -0.3313  1.0000</r>
       <r>  -0.3313  1.0000</r>
       <r>  -0.1699  1.0000</r>
       <r>   0.2837  1.0000</r>
       <r>   0.4320  1.0000</r>
       <r>   0.4407  1.0000</r>
       <r>   0.4407  1.0000</r>
       <r>   0.4600  1.0000</r>
       <r>   1.9120  1.0000</r>
       <r>   3.3085  0.0000</r>
       <r>   3.3085  0.0000</r>
       <r>   4.6458  0.0000</r>
       <r>   4.6458  0.0000</r>
       <r>   6.0889  0.0000</r>
       <r>   7.6199  0.0000</r>
      </set>
      <set comment="kpoint 77">
       <r>  -2.5524  1.0000</r>
       <r>  -2.5524  1.0000</r>
       <r>  -2.3130  1.0000</r>
       <r>  -2.3130  1.0000</r>
       <r>  -1.2386  1.0000</r>
       <r>  -1.2386  1.0000</r>
       <r>  -1.0854  1.0000</r>
       <r>  -1.0854  1.0000</r>
       <r>  -0.9366  1.0000</r>
       <r>  -0.9366  1.0000</r>
       <r>  -0.8388  1.0000</r>
       <r>  -0.8388  1.0000</r>
       <r>  -0.2759  1.0000</r>
       <r>  -0.2759  1.0000</r>
       <r>  -0.2438  1.0000</r>
       <r>  -0.2438  1.0000</r>
       <r>   0.3945  1.0000</r>
       <r>   0.3945  1.0000</r>
       <r>   0.4139  1.0000</r>
       <r>   0.4139  1.0000</r>
       <r>   1.1004  1.0000</r>
       <r>   1.1004  1.0000</r>
       <r>   3.8056  0.0000</r>
       <r>   3.8056  0.0000</r>
       <r>   4.0281  0.0000</r>
       <r>   4.0281  0.0000</r>
       <r>   6.8070  0.0000</r>
       <r>   6.8070  0.0000</r>
      </set>
      <set comment="kpoint 78">
       <r>  -2.6445  1.0000</r>
       <r>  -2.4477  1.0000</r>
       <r>  -2.4477  1.0000</r>
       <r>  -2.3933  1.0000</r>
       <r>  -1.1958  1.0000</r>
       <r>  -1.1623  1.0000</r>
       <r>  -1.1623  1.0000</r>
       <r>  -1.0362  1.0000</r>
       <r>  -1.0140  1.0000</r>
       <r>  -0.9207  1.0000</r>
       <r>  -0.9207  1.0000</r>
       <r>  -0.9029  1.0000</r>
       <r>  -0.1483  1.0000</r>
       <r>  -0.1483  1.0000</r>
       <r>  -0.1172  1.0000</r>
       <r>   0.1289  1.0000</r>
       <r>   0.2405  1.0000</r>
       <r>   0.4232  1.0000</r>
       <r>   0.4353  1.0000</r>
       <r>   0.4353  1.0000</r>
       <r>   0.8275  1.0000</r>
       <r>   2.3521  0.0658</r>
       <r>   2.3521  0.0658</r>
       <r>   3.5596  0.0000</r>
       <r>   4.0099  0.0000</r>
       <r>   5.2309  0.0000</r>
       <r>   5.2309  0.0000</r>
       <r>   6.7247  0.0000</r>
      </set>
      <set comment="kpoint 79">
       <r>  -2.5662  1.0000</r>
       <r>  -2.5662  1.0000</r>
       <r>  -2.4445  1.0000</r>
       <r>  -2.4445  1.0000</r>
       <r>  -1.1698  1.0000</r>
       <r>  -1.1698  1.0000</r>
       <r>  -1.0908  1.0000</r>
       <r>  -1.0908  1.0000</r>
       <r>  -0.9890  1.0000</r>
       <r>  -0.9890  1.0000</r>
       <r>  -0.9386  1.0000</r>
       <r>  -0.9386  1.0000</r>
       <r>  -0.0284  1.0000</r>
       <r>  -0.0284  1.0000</r>
       <r>   0.0209  1.0000</r>
       <r>   0.0209  1.0000</r>
       <r>   0.3653  1.0000</r>
       <r>   0.3653  1.0000</r>
       <r>   0.4001  1.0000</r>
       <r>   0.4001  1.0000</r>
       <r>   1.5107  1.0000</r>
       <r>   1.5107  1.0000</r>
       <r>   2.9399  0.0000</r>
       <r>   2.9399  0.0000</r>
       <r>   4.5006  0.0000</r>
       <r>   4.5006  0.0000</r>
       <r>   5.9268  0.0000</r>
       <r>   5.9268  0.0000</r>
      </set>
      <set comment="kpoint 80">
       <r>  -2.5299  1.0000</r>
       <r>  -2.5299  1.0000</r>
       <r>  -2.5299  1.0000</r>
       <r>  -2.5299  1.0000</r>
       <r>  -1.1150  1.0000</r>
       <r>  -1.1150  1.0000</r>
       <r>  -1.1150  1.0000</r>
       <r>  -1.1150  1.0000</r>
       <r>  -0.9939  1.0000</r>
       <r>  -0.9939  1.0000</r>
       <r>  -0.9939  1.0000</r>
       <r>  -0.9939  1.0000</r>
       <r>   0.1152  1.0000</r>
       <r>   0.1152  1.0000</r>
       <r>   0.1152  1.0000</r>
       <r>   0.1152  1.0000</r>
       <r>   0.3407  1.0000</r>
       <r>   0.3407  1.0000</r>
       <r>   0.3407  1.0000</r>
       <r>   0.3407  1.0000</r>
       <r>   2.1410  1.0000</r>
       <r>   2.1410  1.0000</r>
       <r>   2.1410  1.0000</r>
       <r>   2.1410  1.0000</r>
       <r>   5.1562  0.0000</r>
       <r>   5.1562  0.0000</r>
       <r>   5.1562  0.0000</r>
       <r>   5.1562  0.0000</r>
      </set>
      <set comment="kpoint 81">
       <r>  -2.6602  1.0000</r>
       <r>  -2.5317  1.0000</r>
       <r>  -2.5317  1.0000</r>
       <r>  -2.5317  1.0000</r>
       <r>  -1.1349  1.0000</r>
       <r>  -1.1349  1.0000</r>
       <r>  -1.1349  1.0000</r>
       <r>  -1.0505  1.0000</r>
       <r>  -1.0505  1.0000</r>
       <r>  -0.9931  1.0000</r>
       <r>  -0.9931  1.0000</r>
       <r>  -0.9931  1.0000</r>
       <r>   0.1025  1.0000</r>
       <r>   0.1025  1.0000</r>
       <r>   0.1025  1.0000</r>
       <r>   0.3625  1.0000</r>
       <r>   0.3625  1.0000</r>
       <r>   0.4578  1.0000</r>
       <r>   0.4578  1.0000</r>
       <r>   0.4578  1.0000</r>
       <r>   1.1513  1.0000</r>
       <r>   2.7221  0.0000</r>
       <r>   2.7221  0.0000</r>
       <r>   2.7221  0.0000</r>
       <r>   4.4053  0.0000</r>
       <r>   4.4053  0.0000</r>
       <r>   4.4053  0.0000</r>
       <r>   5.8345  0.0000</r>
      </set>
      <set comment="kpoint 82">
       <r>  -2.6221  1.0000</r>
       <r>  -2.6221  1.0000</r>
       <r>  -2.5599  1.0000</r>
       <r>  -2.5599  1.0000</r>
       <r>  -1.1233  1.0000</r>
       <r>  -1.1233  1.0000</r>
       <r>  -1.0842  1.0000</r>
       <r>  -1.0842  1.0000</r>
       <r>  -1.0433  1.0000</r>
       <r>  -1.0433  1.0000</r>
       <r>  -1.0196  1.0000</r>
       <r>  -1.0196  1.0000</r>
       <r>   0.2140  1.0000</r>
       <r>   0.2140  1.0000</r>
       <r>   0.2782  1.0000</r>
       <r>   0.2782  1.0000</r>
       <r>   0.4372  1.0000</r>
       <r>   0.4372  1.0000</r>
       <r>   0.4417  1.0000</r>
       <r>   0.4417  1.0000</r>
       <r>   1.8612  1.0000</r>
       <r>   1.8612  1.0000</r>
       <r>   2.9943  0.0000</r>
       <r>   2.9943  0.0000</r>
       <r>   3.9779  0.0000</r>
       <r>   3.9779  0.0000</r>
       <r>   5.0571  0.0000</r>
       <r>   5.0571  0.0000</r>
      </set>
      <set comment="kpoint 83">
       <r>  -2.6199  1.0000</r>
       <r>  -2.6199  1.0000</r>
       <r>  -2.6199  1.0000</r>
       <r>  -2.6199  1.0000</r>
       <r>  -1.0899  1.0000</r>
       <r>  -1.0899  1.0000</r>
       <r>  -1.0899  1.0000</r>
       <r>  -1.0899  1.0000</r>
       <r>  -1.0588  1.0000</r>
       <r>  -1.0588  1.0000</r>
       <r>  -1.0588  1.0000</r>
       <r>  -1.0588  1.0000</r>
       <r>   0.3641  1.0000</r>
       <r>   0.3641  1.0000</r>
       <r>   0.3641  1.0000</r>
       <r>   0.3641  1.0000</r>
       <r>   0.4233  1.0000</r>
       <r>   0.4233  1.0000</r>
       <r>   0.4233  1.0000</r>
       <r>   0.4233  1.0000</r>
       <r>   2.4338  0.0000</r>
       <r>   2.4338  0.0000</r>
       <r>   2.4338  0.0000</r>
       <r>   2.4338  0.0000</r>
       <r>   4.3480  0.0000</r>
       <r>   4.3480  0.0000</r>
       <r>   4.3480  0.0000</r>
       <r>   4.3480  0.0000</r>
      </set>
      <set comment="kpoint 84">
       <r>  -2.6501  1.0000</r>
       <r>  -2.6501  1.0000</r>
       <r>  -2.6501  1.0000</r>
       <r>  -2.6501  1.0000</r>
       <r>  -1.0809  1.0000</r>
       <r>  -1.0809  1.0000</r>
       <r>  -1.0809  1.0000</r>
       <r>  -1.0809  1.0000</r>
       <r>  -1.0809  1.0000</r>
       <r>  -1.0809  1.0000</r>
       <r>  -1.0809  1.0000</r>
       <r>  -1.0809  1.0000</r>
       <r>   0.4518  1.0000</r>
       <r>   0.4518  1.0000</r>
       <r>   0.4518  1.0000</r>
       <r>   0.4518  1.0000</r>
       <r>   0.4518  1.0000</r>
       <r>   0.4518  1.0000</r>
       <r>   0.4518  1.0000</r>
       <r>   0.4518  1.0000</r>
       <r>   2.6383  0.0000</r>
       <r>   2.6383  0.0000</r>
       <r>   2.6383  0.0000</r>
       <r>   2.6383  0.0000</r>
       <r>   3.9666  0.0000</r>
       <r>   3.9666  0.0000</r>
       <r>   3.9666  0.0000</r>
       <r>   3.9666  0.0000</r>
      </set>
     </set>
    </set>
   </array>
  </eigenvalues>
 </calculation>
 <structure name="finalpos" >
  <crystal>
   <varray name="basis" >
    <v>       4.54840857      0.00000000      0.00000000</v>
    <v>       0.00000000      4.54840857      0.00000000</v>
    <v>       0.00000000      0.00000000      4.54840857</v>
   </varray>
   <i name="volume">     94.09757005</i>
   <varray name="rec_basis" >
    <v>       0.21985712      0.00000000      0.00000000</v>
    <v>       0.00000000      0.21985712      0.00000000</v>
    <v>       0.00000000      0.00000000      0.21985712</v>
   </varray>
  </crystal>
  <varray name="positions" >
   <v>       0.00000000      0.00000000      0.00000000</v>
   <v>       0.50000000      0.50000000      0.00000000</v>
   <v>       0.50000000      0.00000000      0.50000000</v>
   <v>       0.00000000      0.50000000      0.50000000</v>
  </varray>
 </structure>
</modeling>
