 vasp.4.6.28 25Jul05 complex 
 executed on             LinuxIFC date 2016.08.29  18:36:26
 running on    4 nodes
 distr:  one band on    1 nodes,    4 groups


--------------------------------------------------------------------------------------------------------


 INCAR:
 POTCAR:   PAW_PBE Cu 05Jan2001                   
 POTCAR:   PAW_PBE Cu 05Jan2001                   
   VRHFIN =Cu: d10 p1                                                           
   LEXCH  = PE                                                                  
   EATOM  =  1390.9800 eV,  102.2341 Ry                                         
                                                                                
   TITEL  = PAW_PBE Cu 05Jan2001                                                
   LULTRA =        F    use ultrasoft PP ?                                      
   IUNSCR =        1    unscreen: 0-lin 1-nonlin 2-no                           
   RPACOR =    2.000    partial core radius                                     
   POMASS =   63.546; ZVAL   =   11.000    mass and valenz                      
   RCORE  =    2.300    outmost cutoff radius                                   
   RWIGS  =    2.480; RWIGS  =    1.312    wigner-seitz radius (au A)           
   ENMAX  =  273.214; ENMIN  =  204.910 eV                                      
   RCLOC  =    1.712    cutoff for local pot                                    
   LCOR   =        T    correct aug charges                                     
   LPAW   =        T    paw PP                                                  
   EAUG   =  516.456                                                            
   DEXC   =    -.008                                                            
   RMAX   =    2.789    core radius for proj-oper                               
   RAUG   =    1.300    factor for augmentation sphere                          
   RDEP   =    2.302    radius for radial grids                                 
   QCUT   =   -4.481; QGAM   =    8.962    optimization parameters              
                                                                                
   Description                                                                  
     l     E      TYP  RCUT    TYP  RCUT                                        
     2   .000     23  2.300                                                     
     2   .000     23  2.300                                                     
     0   .000     23  2.300                                                     
     0   .000     23  2.300                                                     
     1  -.200     23  2.300                                                     
     1   .000     23  2.300                                                     
     3   .000      7   .000                                                     
  local pseudopotential read in
  partial core-charges read in
  atomic valenz-charges read in
  non local Contribution for L=           2  read in
    real space projection operators read in
  non local Contribution for L=           2  read in
    real space projection operators read in
  non local Contribution for L=           0  read in
    real space projection operators read in
  non local Contribution for L=           0  read in
    real space projection operators read in
  non local Contribution for L=           1  read in
    real space projection operators read in
  non local Contribution for L=           1  read in
    real space projection operators read in
    PAW grid and wavefunctions read in
 
   number of l-projection  operators is LMAX  =           6
   number of lm-projection operators is LMMAX =          18
 

 ----------------------------------------------------------------------------- 
|                                                                             |
|  ADVICE TO THIS USER RUNNING 'VASP/VAMP'   (HEAR YOUR MASTER'S VOICE ...):  |
|                                                                             |
|      You have a (more or less) 'large supercell' and for larger cells       |
|      it might be more efficient to use real space projection operators      |
|      So try LREAL= Auto  in the INCAR   file.                               |
|      Mind: If you want to do an extremely accurate calculations keep the    |
|      reciprocal projection scheme          (i.e. LREAL=.FALSE.)             |
|                                                                             |
 ----------------------------------------------------------------------------- 

 PAW_PBE Cu 05Jan2001                   :
 energy of atom  1       EATOM=-1390.9800
 kinetic energy error for atom=    0.0395 (will be added to EATOM!!)
 
 EXHCAR: internal setup
 exchange correlation table for  LEXCH =        8
   RHO(1)=    0.500       N(1)  =     2000
   RHO(2)=  100.500       N(2)  =     4000
 
 POSCAR: No title                                
  positions in direct lattice
  No initial velocities read in
 


--------------------------------------------------------------------------------------------------------


 ion  position               nearest neighbor table
   1  0.667  0.667  0.333-   5 2.60   8 2.60   9 2.60  43 2.60  60 2.60  59 2.60   3 2.60  38 2.60
                             2 2.60  19 2.60  34 2.60 101 2.60
   2  0.667  0.833  0.500-   3 2.60  14 2.60   9 2.60  10 2.60  34 2.60  39 2.60   1 2.60   6 2.60
                            61 2.60  97 2.60  60 2.60  35 2.60
   3  0.833  0.667  0.500-   2 2.60   9 2.60  14 2.60  19 2.60   1 2.60  12 2.60  39 2.60  11 2.60
                            49 2.60  87 2.60  44 2.60  43 2.60
   4  0.667  0.667  0.000-  21 2.60  15 2.60  66 2.60  83 2.60  20 2.60   8 2.60   5 2.60  38 2.60
                            59 2.60 107 2.60  82 2.60  63 2.60
   5  0.667  0.833  0.167-   1 2.60   8 2.60   9 2.60  21 2.60  60 2.60  22 2.60  59 2.60   4 2.60
                             6 2.60  16 2.60  84 2.60  83 2.60
   6  0.667  0.000  0.333-  22 2.60  17 2.60   9 2.60  23 2.60  10 2.60  84 2.60   5 2.60  61 2.60
                             2 2.60  85 2.60  60 2.60   7 2.60
   7  0.667  0.167  0.500-  24 2.60  18 2.60  10 2.60  86 2.60  23 2.60  64 2.60  62 2.60  35 2.60
                           105 2.60  61 2.60  85 2.60   6 2.60
   8  0.833  0.667  0.167-   1 2.60   5 2.60   9 2.60  21 2.60  43 2.60  38 2.60  26 2.60  11 2.60
                             4 2.60  25 2.60  70 2.60  66 2.60
   9  0.833  0.833  0.333-   1 2.60   5 2.60   8 2.60   6 2.60   3 2.60  11 2.60  22 2.60   2 2.60
                            26 2.60  27 2.60  12 2.60  10 2.60
  10  0.833  0.000  0.500-   7 2.60  35 2.60   2 2.60   6 2.60  23 2.60  27 2.60  12 2.60  39 2.60
                            28 2.60  67 2.60  64 2.60   9 2.60
  11  0.000  0.667  0.333-  26 2.60   9 2.60  29 2.60   8 2.60  30 2.60  12 2.60  70 2.60  49 2.60
                             3 2.60  75 2.60  43 2.60  13 2.60
  12  0.000  0.833  0.500-  13 2.60  44 2.60   3 2.60  11 2.60  27 2.60  30 2.60  39 2.60  10 2.60
                            31 2.60   9 2.60  71 2.60  67 2.60
  13  0.167  0.667  0.500-  33 2.60  30 2.60  12 2.60  81 2.60  32 2.60  76 2.60  71 2.60  44 2.60
                           102 2.60  49 2.60  11 2.60  75 2.60
  14  0.667  0.667  0.667-  20 2.60  39 2.60  15 2.60   2 2.60  63 2.60  87 2.60  97 2.60   3 2.60
                            82 2.60 108 2.60  34 2.60  19 2.60
  15  0.667  0.833  0.833-  20 2.60  39 2.60  14 2.60  35 2.60   4 2.60  40 2.60  21 2.60  82 2.60
                            97 2.60  83 2.60  98 2.60  16 2.60
  16  0.667  0.000  0.000-  21 2.60  40 2.60  41 2.60  22 2.60   5 2.60  36 2.60  84 2.60  99 2.60
                            83 2.60  98 2.60  17 2.60  15 2.60
  17  0.667  0.167  0.167-  23 2.60  42 2.60  18 2.60   6 2.60  37 2.60  22 2.60 100 2.60  85 2.60
                            41 2.60  84 2.60  99 2.60  16 2.60
  18  0.667  0.333  0.333-  23 2.60  42 2.60  17 2.60  38 2.60   7 2.60  43 2.60  24 2.60  85 2.60
                           100 2.60  86 2.60 101 2.60  19 2.60
  19  0.667  0.500  0.500-  24 2.60  43 2.60   3 2.60  87 2.60   1 2.60  62 2.60  34 2.60 108 2.60
                            86 2.60 101 2.60  14 2.60  18 2.60
  20  0.833  0.667  0.833-  15 2.60  39 2.60  14 2.60   4 2.60  44 2.60  63 2.60  45 2.60  21 2.60
                            87 2.60  66 2.60  89 2.60  25 2.60
  21  0.833  0.833  0.000-   4 2.60   8 2.60  16 2.60  25 2.60   5 2.60  15 2.60  20 2.60  40 2.60
                            45 2.60  46 2.60  26 2.60  22 2.60
  22  0.833  0.000  0.167-   6 2.60   9 2.60  17 2.60   5 2.60  16 2.60  27 2.60  23 2.60  26 2.60
                            41 2.60  46 2.60  47 2.60  21 2.60
  23  0.833  0.167  0.333-  18 2.60  42 2.60  17 2.60   7 2.60  47 2.60   6 2.60  48 2.60  24 2.60
                            22 2.60  27 2.60  10 2.60  28 2.60
  24  0.833  0.333  0.500-   7 2.60  19 2.60  28 2.60  64 2.60  62 2.60  18 2.60  23 2.60  43 2.60
                            48 2.60  49 2.60  88 2.60  87 2.60
  25  0.000  0.667  0.000-  21 2.60  45 2.60  51 2.60  26 2.60  50 2.60   8 2.60  70 2.60  92 2.60
                            66 2.60  20 2.60  29 2.60  89 2.60
  26  0.000  0.833  0.167-  11 2.60  29 2.60   9 2.60   8 2.60  30 2.60  25 2.60  27 2.60  22 2.60
                            46 2.60  51 2.60  52 2.60  21 2.60
  27  0.000  0.000  0.333-  47 2.60  52 2.60  22 2.60  26 2.60  12 2.60  30 2.60  10 2.60  23 2.60
                             9 2.60  53 2.60  31 2.60  28 2.60
  28  0.000  0.167  0.500-  24 2.60  48 2.60  54 2.60  88 2.60  31 2.60  64 2.60  67 2.60  53 2.60
                            10 2.60  23 2.60  90 2.60  27 2.60
  29  0.167  0.667  0.167-  32 2.60  56 2.60  30 2.60  51 2.60  26 2.60  75 2.60  96 2.60  55 2.60
                            11 2.60  70 2.60  25 2.60  92 2.60
  30  0.167  0.833  0.333-  32 2.60  56 2.60  29 2.60  52 2.60  13 2.60  57 2.60  11 2.60  26 2.60
                            33 2.60  12 2.60  27 2.60  31 2.60
  31  0.167  0.000  0.500-  33 2.60  57 2.60  58 2.60  93 2.60  53 2.60  67 2.60  71 2.60  28 2.60
                            12 2.60  27 2.60  90 2.60  30 2.60
  32  0.333  0.667  0.333-  30 2.60  56 2.60  29 2.60  13 2.60  59 2.60  75 2.60  60 2.60  33 2.60
                            96 2.60  81 2.60 101 2.60  34 2.60
  33  0.333  0.833  0.500-  13 2.60  31 2.60  34 2.60  76 2.60  71 2.60  30 2.60  32 2.60  57 2.60
                            60 2.60  61 2.60  97 2.60  93 2.60
  34  0.500  0.667  0.500-  33 2.60  60 2.60   2 2.60  97 2.60  19 2.60  76 2.60   1 2.60 108 2.60
                            81 2.60  14 2.60  32 2.60 101 2.60
  35  0.667  0.000  0.667-  40 2.60  39 2.60  15 2.60  10 2.60  98 2.60  64 2.60  36 2.60   7 2.60
                           105 2.60  97 2.60  61 2.60   2 2.60
  36  0.667  0.167  0.833-  62 2.60  64 2.60  65 2.60  40 2.60 106 2.60 105 2.60  41 2.60  37 2.60
                            35 2.60  16 2.60  99 2.60  98 2.60
  37  0.667  0.333  0.000-  41 2.60  17 2.60  65 2.60  66 2.60  42 2.60  99 2.60  36 2.60  63 2.60
                           100 2.60 107 2.60 106 2.60  38 2.60
  38  0.667  0.500  0.167-  43 2.60  42 2.60  18 2.60  66 2.60 101 2.60   8 2.60   1 2.60   4 2.60
                            59 2.60 100 2.60 107 2.60  37 2.60
  39  0.833  0.833  0.667-  15 2.60  20 2.60  14 2.60  35 2.60  44 2.60   2 2.60  45 2.60   3 2.60
                            40 2.60  12 2.60  10 2.60  67 2.60
  40  0.833  0.000  0.833-  35 2.60  36 2.60  64 2.60  16 2.60  67 2.60  15 2.60  39 2.60  21 2.60
                            45 2.60  68 2.60  46 2.60  41 2.60
  41  0.833  0.167  0.000-  37 2.60  65 2.60  17 2.60  16 2.60  36 2.60  69 2.60  42 2.60  22 2.60
                            68 2.60  46 2.60  47 2.60  40 2.60
  42  0.833  0.333  0.167-  18 2.60  23 2.60  17 2.60  38 2.60  47 2.60  37 2.60  48 2.60  41 2.60
                            43 2.60  66 2.60  69 2.60  70 2.60
  43  0.833  0.500  0.333-  38 2.60   8 2.60   1 2.60  19 2.60  70 2.60  18 2.60  42 2.60  48 2.60
                            24 2.60  11 2.60  49 2.60   3 2.60
  44  0.000  0.667  0.667-  45 2.60  39 2.60  12 2.60  89 2.60  20 2.60  71 2.60  50 2.60  13 2.60
                           102 2.60  87 2.60   3 2.60  49 2.60
  45  0.000  0.833  0.833-  44 2.60  25 2.60  50 2.60  67 2.60  71 2.60  20 2.60  39 2.60  21 2.60
                            40 2.60  72 2.60  51 2.60  46 2.60
  46  0.000  0.000  0.000-  22 2.60  26 2.60  41 2.60  51 2.60  68 2.60  72 2.60  21 2.60  73 2.60
                            52 2.60  40 2.60  47 2.60  45 2.60
  47  0.000  0.167  0.167-  48 2.60  42 2.60  27 2.60  69 2.60  23 2.60  53 2.60  74 2.60  73 2.60
                            52 2.60  22 2.60  41 2.60  46 2.60
  48  0.000  0.333  0.333-  47 2.60  28 2.60  53 2.60  70 2.60  74 2.60  23 2.60  42 2.60  24 2.60
                            43 2.60  75 2.60  54 2.60  49 2.60
  49  0.000  0.500  0.500-   3 2.60  11 2.60  54 2.60  75 2.60  87 2.60  88 2.60  13 2.60  24 2.60
                            43 2.60 102 2.60  48 2.60  44 2.60
  50  0.167  0.667  0.833-  71 2.60  76 2.60  77 2.60  45 2.60 104 2.60  44 2.60  55 2.60 102 2.60
                            51 2.60  25 2.60  92 2.60  89 2.60
  51  0.167  0.833  0.000-  55 2.60  29 2.60  77 2.60  78 2.60  25 2.60  56 2.60  50 2.60  72 2.60
                            46 2.60  26 2.60  45 2.60  52 2.60
  52  0.167  0.000  0.167-  57 2.60  56 2.60  30 2.60  27 2.60  78 2.60  79 2.60  53 2.60  47 2.60
                            73 2.60  26 2.60  46 2.60  51 2.60
  53  0.167  0.167  0.333-  74 2.60  79 2.60  80 2.60  57 2.60  48 2.60  58 2.60  47 2.60  54 2.60
                            52 2.60  31 2.60  28 2.60  27 2.60
  54  0.167  0.333  0.500-  58 2.60  90 2.60  80 2.60  81 2.60  28 2.60 103 2.60  53 2.60  88 2.60
                            49 2.60  75 2.60  48 2.60 102 2.60
  55  0.333  0.667  0.000-  51 2.60  77 2.60  29 2.60  92 2.60  83 2.60  50 2.60  56 2.60  82 2.60
                            96 2.60 107 2.60  59 2.60 104 2.60
  56  0.333  0.833  0.167-  30 2.60  32 2.60  29 2.60  52 2.60  59 2.60  51 2.60  60 2.60  55 2.60
                            57 2.60  78 2.60  83 2.60  84 2.60
  57  0.333  0.000  0.333-  52 2.60  53 2.60  79 2.60  31 2.60  84 2.60  30 2.60  56 2.60  33 2.60
                            60 2.60  85 2.60  61 2.60  58 2.60
  58  0.333  0.167  0.500-  54 2.60  80 2.60  90 2.60  31 2.60  86 2.60  53 2.60 103 2.60  85 2.60
                            93 2.60  61 2.60 105 2.60  57 2.60
  59  0.500  0.667  0.167-  60 2.60  56 2.60  83 2.60 101 2.60  32 2.60   5 2.60   1 2.60   4 2.60
                            38 2.60  96 2.60  55 2.60 107 2.60
  60  0.500  0.833  0.333-  59 2.60  34 2.60   1 2.60  84 2.60   5 2.60  32 2.60  56 2.60  33 2.60
                            57 2.60   6 2.60   2 2.60  61 2.60
  61  0.500  0.000  0.500-   2 2.60   6 2.60  58 2.60  85 2.60  93 2.60  97 2.60   7 2.60  33 2.60
                            35 2.60  57 2.60  60 2.60 105 2.60
  62  0.667  0.333  0.667-  36 2.60  64 2.60  65 2.60  24 2.60 106 2.60  87 2.60 105 2.60  63 2.60
                             7 2.60  19 2.60 108 2.60  86 2.60
  63  0.667  0.500  0.833-  87 2.60  65 2.60  14 2.60  20 2.60  66 2.60 108 2.60  62 2.60  37 2.60
                           107 2.60  82 2.60 106 2.60   4 2.60
  64  0.833  0.167  0.667-  36 2.60  62 2.60  65 2.60  24 2.60  40 2.60  35 2.60   7 2.60  68 2.60
                            88 2.60  28 2.60  67 2.60  10 2.60
  65  0.833  0.333  0.833-  36 2.60  62 2.60  64 2.60  63 2.60  41 2.60  68 2.60  87 2.60  37 2.60
                            88 2.60  89 2.60  69 2.60  66 2.60
  66  0.833  0.500  0.000-   4 2.60  38 2.60  37 2.60  63 2.60  42 2.60  20 2.60  69 2.60  89 2.60
                            25 2.60  70 2.60  65 2.60   8 2.60
  67  0.000  0.000  0.667-  45 2.60  40 2.60  72 2.60  68 2.60  64 2.60  28 2.60  71 2.60  31 2.60
                            39 2.60  90 2.60  10 2.60  12 2.60
  68  0.000  0.167  0.833-  88 2.60  65 2.60  90 2.60  64 2.60  91 2.60  69 2.60  67 2.60  41 2.60
                            46 2.60  72 2.60  40 2.60  73 2.60
  69  0.000  0.333  0.000-  47 2.60  73 2.60  41 2.60  68 2.60  42 2.60  66 2.60  89 2.60  91 2.60
                            92 2.60  74 2.60  65 2.60  70 2.60
  70  0.000  0.500  0.167-  48 2.60  43 2.60  75 2.60  11 2.60  25 2.60  74 2.60   8 2.60  92 2.60
                            42 2.60  29 2.60  66 2.60  69 2.60
  71  0.167  0.833  0.667-  50 2.60  76 2.60  77 2.60  45 2.60  33 2.60  93 2.60  44 2.60  72 2.60
                            13 2.60  31 2.60  67 2.60  12 2.60
  72  0.167  0.000  0.833-  93 2.60  90 2.60  77 2.60  94 2.60  78 2.60  67 2.60  71 2.60  51 2.60
                            46 2.60  68 2.60  45 2.60  73 2.60
  73  0.167  0.167  0.000-  95 2.60  78 2.60  91 2.60  69 2.60  94 2.60  79 2.60  74 2.60  52 2.60
                            47 2.60  46 2.60  68 2.60  72 2.60
  74  0.167  0.333  0.167-  53 2.60  79 2.60  80 2.60  48 2.60  95 2.60  96 2.60  47 2.60  73 2.60
                            75 2.60  70 2.60  92 2.60  69 2.60
  75  0.167  0.500  0.333-  96 2.60  80 2.60  29 2.60  32 2.60  81 2.60  70 2.60  74 2.60  54 2.60
                            11 2.60  49 2.60  48 2.60  13 2.60
  76  0.333  0.667  0.667-  50 2.60  71 2.60  77 2.60  33 2.60 104 2.60 102 2.60  97 2.60  13 2.60
                            82 2.60  34 2.60 108 2.60  81 2.60
  77  0.333  0.833  0.833-  50 2.60  71 2.60  76 2.60  72 2.60  55 2.60  82 2.60  93 2.60  51 2.60
                            97 2.60  98 2.60  83 2.60  78 2.60
  78  0.333  0.000  0.000-  73 2.60  52 2.60  51 2.60  72 2.60  56 2.60  83 2.60  94 2.60  98 2.60
                            99 2.60  84 2.60  79 2.60  77 2.60
  79  0.333  0.167  0.167-  53 2.60  74 2.60  80 2.60  57 2.60  95 2.60  52 2.60  85 2.60  73 2.60
                           100 2.60  99 2.60  84 2.60  78 2.60
  80  0.333  0.333  0.333-  53 2.60  74 2.60  79 2.60  75 2.60  58 2.60  85 2.60  96 2.60  54 2.60
                           100 2.60 101 2.60  86 2.60  81 2.60
  81  0.333  0.500  0.500-  13 2.60 102 2.60  54 2.60  75 2.60  86 2.60 101 2.60  32 2.60 103 2.60
                            34 2.60 108 2.60  80 2.60  76 2.60
  82  0.500  0.667  0.833-  97 2.60  77 2.60  14 2.60  15 2.60  76 2.60  83 2.60 108 2.60  63 2.60
                           107 2.60  55 2.60 104 2.60   4 2.60
  83  0.500  0.833  0.000-   4 2.60  59 2.60  55 2.60  82 2.60  15 2.60  78 2.60  56 2.60  98 2.60
                            16 2.60  77 2.60   5 2.60  84 2.60
  84  0.500  0.000  0.167-  60 2.60  57 2.60   6 2.60  85 2.60  16 2.60  79 2.60   5 2.60  99 2.60
                            56 2.60  17 2.60  78 2.60  83 2.60
  85  0.500  0.167  0.333- 100 2.60  80 2.60  17 2.60  18 2.60  79 2.60  86 2.60  84 2.60  61 2.60
                             6 2.60  58 2.60  57 2.60   7 2.60
  86  0.500  0.333  0.500-   7 2.60 105 2.60  58 2.60  85 2.60  18 2.60 101 2.60 103 2.60  81 2.60
                            19 2.60  80 2.60  62 2.60 108 2.60
  87  0.833  0.500  0.667-  63 2.60  14 2.60  65 2.60  62 2.60  19 2.60  89 2.60  20 2.60   3 2.60
                            88 2.60  49 2.60  44 2.60  24 2.60
  88  0.000  0.333  0.667-  68 2.60  90 2.60  65 2.60  64 2.60  91 2.60  28 2.60  89 2.60  54 2.60
                            49 2.60  87 2.60 102 2.60  24 2.60
  89  0.000  0.500  0.833-  44 2.60 102 2.60  87 2.60  88 2.60  20 2.60  66 2.60  91 2.60  69 2.60
                            50 2.60  65 2.60  92 2.60  25 2.60
  90  0.167  0.167  0.667-  94 2.60 103 2.60  91 2.60  54 2.60  93 2.60  72 2.60  88 2.60  58 2.60
                            68 2.60  67 2.60  28 2.60  31 2.60
  91  0.167  0.333  0.833-  94 2.60 103 2.60  90 2.60 102 2.60  73 2.60 104 2.60  68 2.60  88 2.60
                            95 2.60  69 2.60  89 2.60  92 2.60
  92  0.167  0.500  0.000-  95 2.60 104 2.60  55 2.60  96 2.60  74 2.60  50 2.60  25 2.60  70 2.60
                            69 2.60  89 2.60  91 2.60  29 2.60
  93  0.333  0.000  0.667-  72 2.60  77 2.60  90 2.60  71 2.60  31 2.60  98 2.60  94 2.60  58 2.60
                            97 2.60  61 2.60 105 2.60  33 2.60
  94  0.333  0.167  0.833-  91 2.60 103 2.60  90 2.60  73 2.60 105 2.60  72 2.60 106 2.60  95 2.60
                            93 2.60  98 2.60  78 2.60  99 2.60
  95  0.333  0.333  0.000-  73 2.60  79 2.60  92 2.60  99 2.60  74 2.60  91 2.60  94 2.60 104 2.60
                           106 2.60 107 2.60 100 2.60  96 2.60
  96  0.333  0.500  0.167-  75 2.60  29 2.60  80 2.60  74 2.60  92 2.60 101 2.60  32 2.60 100 2.60
                            55 2.60 107 2.60  59 2.60  95 2.60
  97  0.500  0.833  0.667-  82 2.60  14 2.60  77 2.60  15 2.60  76 2.60  34 2.60  98 2.60   2 2.60
                            93 2.60  61 2.60  35 2.60  33 2.60
  98  0.500  0.000  0.833- 105 2.60  35 2.60  93 2.60  97 2.60  15 2.60  94 2.60  78 2.60  83 2.60
                            36 2.60  77 2.60  16 2.60  99 2.60
  99  0.500  0.167  0.000-  95 2.60 106 2.60  37 2.60 100 2.60  84 2.60  36 2.60  16 2.60  79 2.60
                            78 2.60  94 2.60  17 2.60  98 2.60
 100  0.500  0.333  0.167-  85 2.60  17 2.60  80 2.60  18 2.60  79 2.60  99 2.60 101 2.60  37 2.60
                            96 2.60 107 2.60  38 2.60  95 2.60
 101  0.500  0.500  0.333-  59 2.60  38 2.60  96 2.60 100 2.60  81 2.60  86 2.60  18 2.60  32 2.60
                             1 2.60  80 2.60  19 2.60  34 2.60
 102  0.167  0.500  0.667- 104 2.60 103 2.60  91 2.60  89 2.60  81 2.60  76 2.60  50 2.60  44 2.60
                            13 2.60  88 2.60  49 2.60  54 2.60
 103  0.333  0.333  0.667-  91 2.60  94 2.60  90 2.60 102 2.60 105 2.60  54 2.60 106 2.60  58 2.60
                           104 2.60  86 2.60  81 2.60 108 2.60
 104  0.333  0.500  0.833- 102 2.60  76 2.60  50 2.60  92 2.60 108 2.60  91 2.60 103 2.60 106 2.60
                            95 2.60  82 2.60 107 2.60  55 2.60
 105  0.500  0.167  0.667- 106 2.60  98 2.60 103 2.60  86 2.60  94 2.60  62 2.60  36 2.60  35 2.60
                             7 2.60  93 2.60  58 2.60  61 2.60
 106  0.500  0.333  0.833- 105 2.60  99 2.60  36 2.60 108 2.60  62 2.60  94 2.60 103 2.60  95 2.60
                           104 2.60  63 2.60  37 2.60 107 2.60
 107  0.500  0.500  0.000-  37 2.60  55 2.60  63 2.60  82 2.60  96 2.60 100 2.60   4 2.60  95 2.60
                            38 2.60 104 2.60  59 2.60 106 2.60
 108  0.500  0.500  0.667- 106 2.60 104 2.60  63 2.60  82 2.60  76 2.60  34 2.60  62 2.60  19 2.60
                            14 2.60 103 2.60  81 2.60  86 2.60
 
  LATTYP: Found a simple cubic cell.
 ALAT       =    11.0233738900
  
  Lattice vectors:
  
 A1 = (  11.0233738900,   0.0000000000,   0.0000000000)
 A2 = (   0.0000002000,  11.0233738900,   0.0000000000)
 A3 = (   0.0000002000,   0.0000002000,  11.0233738900)
 Subroutine PRICEL returns following result:
 
  LATTYP: Found a face centered cubic cell.
 ALAT       =     3.6744580702
  
  Lattice vectors:
  
 A1 = (   1.8372290517,   1.8372290184,  -0.0000001102)
 A2 = (   1.8372289851,  -0.0000000333,  -1.8372290184)
 A3 = (   0.0000000000,   1.8372289851,  -1.8372290184)
 
 108 primitive cells build up your supercell.
 

Analysis of symmetry for initial positions (statically):

 Routine SETGRP: Setting up the symmetry group for a 
 simple cubic supercell.


 Subroutine GETGRP returns: Found 48 space group operations
 (whereof 48 operations were pure point group operations)
 out of a pool of 48 trial point group operations.


The static configuration has the point symmetry O_h .

Analysis of symmetry for dynamics (positions and initial velocities):

 Subroutine DYNSYM returns: Found 48 space group operations
 (whereof 48 operations were pure point group operations)
 out of a pool of 48 trial space group operations
 (whereof 48 operations were pure point group operations)
 and found also   108 'primitive' translations


The dynamic configuration has the point symmetry O_h .
 
 
 KPOINTS: Automatic mesh                          

Automatic generation of k-mesh.
 
 Subroutine IBZKPT returns following result:
 ===========================================
 
 Found      1 irreducible k-points:
 
 Following reciprocal coordinates:
            Coordinates               Weight
  0.250000  0.250000  0.250000      8.000000
 
 Following cartesian coordinates:
            Coordinates               Weight
  0.022679  0.022679  0.022679      8.000000
 


--------------------------------------------------------------------------------------------------------




 Dimension of arrays:
   k-Points           NKPTS =      1   number of bands    NBANDS=    712
   number of dos      NEDOS =    301   number of ions     NIONS =    108
   non local maximal  LDIM  =      6   non local SUM 2l+1 LMDIM =     18
   total plane-waves  NPLWV = 110592
   max r-space proj   IRMAX =      1   max aug-charges    IRDMAX=   3097
   dimension x,y,z NGX =    48 NGY =   48 NGZ =   48
   dimension x,y,z NGXF=    96 NGYF=   96 NGZF=   96
   support grid    NGXF=    96 NGYF=   96 NGZF=   96
   ions per type =             108
 NGX,Y,Z   is equivalent  to a cutoff of   7.24,  7.24,  7.24 a.u.
 NGXF,Y,Z  is equivalent  to a cutoff of  14.48, 14.48, 14.48 a.u.


 I would recommend the setting:
   dimension x,y,z NGX =    45 NGY =   45 NGZ =   45
 SYSTEM =  No title                                
 POSCAR =  No title                                

 Startparameter for this run:
   NWRITE =      2    write-flag & timer
   PREC   = normal    medium, high low
   ISTART =      0    job   : 0-new  1-cont  2-samecut
   ICHARG =      2    charge: 1-file 2-atom 10-const
   ISPIN  =      1    spin polarized calculation?
   LNONCOLLINEAR =      F non collinear calculations
   LSORBIT =      F    spin-orbit coupling
   INIWAV =      1    electr: 0-lowe 1-rand  2-diag
   LASPH  =      F    aspherical Exc in radial PAW
   METAGGA=      F    non-selfconsistent MetaGGA calc.

 Electronic Relaxation 1
   ENCUT  =  273.2 eV  20.08 Ry    4.48 a.u.  14.86 14.86 14.86*2*pi/ulx,y,z
   ENINI  =  273.2     initial cutoff
   ENAUG  =  516.5 eV  augmentation charge cutoff
   NELM   =     60;   NELMIN=  2; NELMDL= -5     # of ELM steps 
   EDIFF  = 0.1E-04   stopping-criterion for ELM
   LREAL  =      F    real-space projection
   LCOMPAT=      F    compatible to vasp.4.4
   LREAL_COMPAT= F    compatible to vasp.4.5.1-3
   GGA_COMPAT  = T    GGA compatible to vasp.4.4-vasp.4.6
   LMAXPAW     = -100 max onsite density
   LMAXMIX     =    2 max onsite mixed and CHGCAR
   VOSKOWN=      1    Vosko Wilk Nusair interpolation
   ROPT   =    0.00000
 Ionic relaxation
   EDIFFG = -.2E-01   stopping-criterion for IOM
   NSW    =    100    number of steps for IOM
   NBLOCK =      1;   KBLOCK =    100    inner block; outer block 
   IBRION =      2    ionic relax: 0-MD 1-quasi-New 2-CG
   NFREE  =      1    steps in history (QN), initial steepest desc. (CG)
   ISIF   =      2    stress and relaxation
   IWAVPR =     11    prediction:  0-non 1-charg 2-wave 3-comb
   ISYM   =      2    0-nonsym 1-usesym 2-fastsym
   LCORR  =      T    Harris-Foulkes like correction to forces

   POTIM  =   0.50    time-step for ionic-motion
   TEIN   =    0.0    initial temperature
   TEBEG  =    0.0;   TEEND  =   0.0 temperature during run
   SMASS  =  -3.00    Nose mass-parameter (am)
   estimated Nose-frequenzy (Omega)   =  0.10E-29 period in steps =****** mass=  -0.278E-26a.u.
   NPACO  =    256;   APACO  = 16.0  distance and # of slots for P.C.
   PSTRESS=    0.0 pullay stress

  Mass of Ions in am
   POMASS =  63.55
  Ionic Valenz
   ZVAL   =  11.00
  Atomic Wigner-Seitz radii
   RWIGS  =   1.17
   NELECT =    1188.0000    total number of electrons
   NUPDOWN=      -1.0000    fix difference up-down

 DOS related values:
   EMIN   =  10.00;   EMAX   =-10.00  energy-range for DOS
   ISMEAR =     1;   SIGMA  =   0.20  broadening in eV -4-tet -1-fermi 0-gaus

 Electronic relaxation 2 (details)
   IALGO  =     38    algorithm
   LDIAG  =      T    sub-space diagonalisation
   IMIX   =      4    mixing-type and parameters
     AMIX     =   0.40;   BMIX     =  1.00
     AMIX_MAG =   1.60;   BMIX_MAG =  1.00
     AMIN     =   0.10
     WC   =   100.;   INIMIX=   1;  MIXPRE=   1

 Intra band minimization:
   WEIMIN = 0.0010     energy-eigenvalue tresh-hold
   EBREAK =  0.35E-08  absolut break condition
   DEPER  =   0.30     relativ break condition  

   TIME   =   0.10     timestep for ELM

  volume/ion in A,a.u.               =      12.40        83.70
  Fermi-wavevector in a.u.,eV,Ry     =   1.572893 33.660699  2.473992

 Second variation
   LSECVAR=     F    do a second variation
 
 Write flags
   LWAVE  =      T    write WAVECAR
   LCHARG =      F    write CHGCAR
   LVTOT  =      F    write LOCPOT, local potential
   LELF   =      F    write electronic localiz. function (ELF)
   LORBIT =      0    0 simple, 1 ext, 2 COOP (PROOUT)


 Dipole corrections
   IDIPOL =      0    1-x, 2-y, 3-z
   LDIPOL =      F    correct potential



--------------------------------------------------------------------------------------------------------


 conjugate gradient relaxation of ions
 charge density will be updated during run
 non-spin polarized calculation
 Variant of blocked Davidson
 Davidson routine will perform the subspace rotation
 performe sub-space diagonalisation
    after iterative eigenvector-optimisation
 modified Broyden-mixing scheme, WC =      100.0
 initial mixing is a Kerker type mixing with AMIX =  0.4000 and BMIX =      1.0000
 Hartree-type preconditioning will be used
 using additional bands          118
 reciprocal scheme for non local part
 use partial core corrections
 calculate Harris-corrections to forces 
   (improved forces if not selfconsistent)
 use gradient corrections 
 use of overlap-Matrix (Vanderbilt PP)
 Methfessel and Paxton  Order N= 1 SIGMA  =   0.20


--------------------------------------------------------------------------------------------------------


  energy-cutoff  :      273.21
  volume of cell :     1339.50
      direct lattice vectors                 reciprocal lattice vectors
    11.023373890  0.000000000  0.000000000     0.090716328 -0.000000002 -0.000000002
     0.000000200 11.023373890  0.000000000     0.000000000  0.090716328 -0.000000002
     0.000000200  0.000000200 11.023373890     0.000000000  0.000000000  0.090716328

  length of vectors
    11.023373890 11.023373890 11.023373890     0.090716328  0.090716328  0.090716328


 
 k-points in units of 2pi/SCALE and weight: Automatic mesh                          
   0.02267908  0.02267908  0.02267908       1.000
 
 k-points in reciprocal lattice and weights: Automatic mesh                          
   0.25000000  0.25000000  0.25000000       1.000
 
 position of ions in fractional coordinates (direct lattice) 
   0.66666667  0.66666667  0.33333333
   0.66666667  0.83333333  0.50000000
   0.83333333  0.66666667  0.50000000
   0.66666667  0.66666667  0.00000000
   0.66666667  0.83333333  0.16666667
   0.66666667  0.00000000  0.33333333
   0.66666667  0.16666667  0.50000000
   0.83333333  0.66666667  0.16666667
   0.83333333  0.83333333  0.33333333
   0.83333333  0.00000000  0.50000000
   0.00000000  0.66666667  0.33333333
   0.00000000  0.83333333  0.50000000
   0.16666667  0.66666667  0.50000000
   0.66666667  0.66666667  0.66666667
   0.66666667  0.83333333  0.83333333
   0.66666667  0.00000000  0.00000000
   0.66666667  0.16666667  0.16666667
   0.66666667  0.33333333  0.33333333
   0.66666667  0.50000000  0.50000000
   0.83333333  0.66666667  0.83333333
   0.83333333  0.83333333  0.00000000
   0.83333333  0.00000000  0.16666667
   0.83333333  0.16666667  0.33333333
   0.83333333  0.33333333  0.50000000
   0.00000000  0.66666667  0.00000000
   0.00000000  0.83333333  0.16666667
   0.00000000  0.00000000  0.33333333
   0.00000000  0.16666667  0.50000000
   0.16666667  0.66666667  0.16666667
   0.16666667  0.83333333  0.33333333
   0.16666667  0.00000000  0.50000000
   0.33333333  0.66666667  0.33333333
   0.33333333  0.83333333  0.50000000
   0.50000000  0.66666667  0.50000000
   0.66666667  0.00000000  0.66666667
   0.66666667  0.16666667  0.83333333
   0.66666667  0.33333333  0.00000000
   0.66666667  0.50000000  0.16666667
   0.83333333  0.83333333  0.66666667
   0.83333333  0.00000000  0.83333333
   0.83333333  0.16666667  0.00000000
   0.83333333  0.33333333  0.16666667
   0.83333333  0.50000000  0.33333333
   0.00000000  0.66666667  0.66666667
   0.00000000  0.83333333  0.83333333
   0.00000000  0.00000000  0.00000000
   0.00000000  0.16666667  0.16666667
   0.00000000  0.33333333  0.33333333
   0.00000000  0.50000000  0.50000000
   0.16666667  0.66666667  0.83333333
   0.16666667  0.83333333  0.00000000
   0.16666667  0.00000000  0.16666667
   0.16666667  0.16666667  0.33333333
   0.16666667  0.33333333  0.50000000
   0.33333333  0.66666667  0.00000000
   0.33333333  0.83333333  0.16666667
   0.33333333  0.00000000  0.33333333
   0.33333333  0.16666667  0.50000000
   0.50000000  0.66666667  0.16666667
   0.50000000  0.83333333  0.33333333
   0.50000000  0.00000000  0.50000000
   0.66666667  0.33333333  0.66666667
   0.66666667  0.50000000  0.83333333
   0.83333333  0.16666667  0.66666667
   0.83333333  0.33333333  0.83333333
   0.83333333  0.50000000  0.00000000
   0.00000000  0.00000000  0.66666667
   0.00000000  0.16666667  0.83333333
   0.00000000  0.33333333  0.00000000
   0.00000000  0.50000000  0.16666667
   0.16666667  0.83333333  0.66666667
   0.16666667  0.00000000  0.83333333
   0.16666667  0.16666667  0.00000000
   0.16666667  0.33333333  0.16666667
   0.16666667  0.50000000  0.33333333
   0.33333333  0.66666667  0.66666667
   0.33333333  0.83333333  0.83333333
   0.33333333  0.00000000  0.00000000
   0.33333333  0.16666667  0.16666667
   0.33333333  0.33333333  0.33333333
   0.33333333  0.50000000  0.50000000
   0.50000000  0.66666667  0.83333333
   0.50000000  0.83333333  0.00000000
   0.50000000  0.00000000  0.16666667
   0.50000000  0.16666667  0.33333333
   0.50000000  0.33333333  0.50000000
   0.83333333  0.50000000  0.66666667
   0.00000000  0.33333333  0.66666667
   0.00000000  0.50000000  0.83333333
   0.16666667  0.16666667  0.66666667
   0.16666667  0.33333333  0.83333333
   0.16666667  0.50000000  0.00000000
   0.33333333  0.00000000  0.66666667
   0.33333333  0.16666667  0.83333333
   0.33333333  0.33333333  0.00000000
   0.33333333  0.50000000  0.16666667
   0.50000000  0.83333333  0.66666667
   0.50000000  0.00000000  0.83333333
   0.50000000  0.16666667  0.00000000
   0.50000000  0.33333333  0.16666667
   0.50000000  0.50000000  0.33333333
   0.16666667  0.50000000  0.66666667
   0.33333333  0.33333333  0.66666667
   0.33333333  0.50000000  0.83333333
   0.50000000  0.16666667  0.66666667
   0.50000000  0.33333333  0.83333333
   0.50000000  0.50000000  0.00000000
   0.50000000  0.50000000  0.66666667
 
 position of ions in cartesian coordinates  (Angst):
   7.34891616  7.34891603  3.67445793
   7.34891623  9.18614497  5.51168695
   9.18614510  7.34891606  5.51168695
   7.34891610  7.34891596  0.00000000
   7.34891616  9.18614490  1.83722902
   7.34891603  0.00000007  3.67445793
   7.34891610  1.83722912  5.51168695
   9.18614504  7.34891600  1.83722902
   9.18614510  9.18614494  3.67445793
   9.18614497  0.00000010  5.51168695
   0.00000020  7.34891603  3.67445793
   0.00000027  9.18614497  5.51168695
   1.83722925  7.34891606  5.51168695
   7.34891623  7.34891610  7.34891596
   7.34891630  9.18614504  9.18614487
   7.34891596  0.00000000  0.00000000
   7.34891603  1.83722905  1.83722902
   7.34891610  3.67445799  3.67445793
   7.34891616  5.51168705  5.51168695
   9.18614517  7.34891613  9.18614487
   9.18614504  9.18614487  0.00000000
   9.18614490  0.00000003  1.83722902
   9.18614497  1.83722909  3.67445793
   9.18614504  3.67445803  5.51168695
   0.00000013  7.34891596  0.00000000
   0.00000020  9.18614490  1.83722902
   0.00000007  0.00000007  3.67445793
   0.00000013  1.83722912  5.51168695
   1.83722919  7.34891600  1.83722902
   1.83722925  9.18614494  3.67445793
   1.83722912  0.00000010  5.51168695
   3.67445813  7.34891603  3.67445793
   3.67445819  9.18614497  5.51168695
   5.51168718  7.34891606  5.51168695
   7.34891610  0.00000013  7.34891596
   7.34891616  1.83722919  9.18614487
   7.34891603  3.67445793  0.00000000
   7.34891610  5.51168698  1.83722902
   9.18614517  9.18614500  7.34891596
   9.18614504  0.00000017  9.18614487
   9.18614490  1.83722902  0.00000000
   9.18614497  3.67445796  1.83722902
   9.18614504  5.51168701  3.67445793
   0.00000027  7.34891610  7.34891596
   0.00000033  9.18614504  9.18614487
   0.00000000  0.00000000  0.00000000
   0.00000007  1.83722905  1.83722902
   0.00000013  3.67445799  3.67445793
   0.00000020  5.51168705  5.51168695
   1.83722932  7.34891613  9.18614487
   1.83722919  9.18614487  0.00000000
   1.83722905  0.00000003  1.83722902
   1.83722912  1.83722909  3.67445793
   1.83722919  3.67445803  5.51168695
   3.67445806  7.34891596  0.00000000
   3.67445813  9.18614490  1.83722902
   3.67445799  0.00000007  3.67445793
   3.67445806  1.83722912  5.51168695
   5.51168711  7.34891600  1.83722902
   5.51168718  9.18614494  3.67445793
   5.51168705  0.00000010  5.51168695
   7.34891616  3.67445806  7.34891596
   7.34891623  5.51168711  9.18614487
   9.18614504  1.83722915  7.34891596
   9.18614510  3.67445809  9.18614487
   9.18614497  5.51168695  0.00000000
   0.00000013  0.00000013  7.34891596
   0.00000020  1.83722919  9.18614487
   0.00000007  3.67445793  0.00000000
   0.00000013  5.51168698  1.83722902
   1.83722932  9.18614500  7.34891596
   1.83722919  0.00000017  9.18614487
   1.83722905  1.83722902  0.00000000
   1.83722912  3.67445796  1.83722902
   1.83722919  5.51168701  3.67445793
   3.67445819  7.34891610  7.34891596
   3.67445826  9.18614504  9.18614487
   3.67445793  0.00000000  0.00000000
   3.67445799  1.83722905  1.83722902
   3.67445806  3.67445799  3.67445793
   3.67445813  5.51168705  5.51168695
   5.51168725  7.34891613  9.18614487
   5.51168711  9.18614487  0.00000000
   5.51168698  0.00000003  1.83722902
   5.51168705  1.83722909  3.67445793
   5.51168711  3.67445803  5.51168695
   9.18614510  5.51168708  7.34891596
   0.00000020  3.67445806  7.34891596
   0.00000027  5.51168711  9.18614487
   1.83722919  1.83722915  7.34891596
   1.83722925  3.67445809  9.18614487
   1.83722912  5.51168695  0.00000000
   3.67445806  0.00000013  7.34891596
   3.67445813  1.83722919  9.18614487
   3.67445799  3.67445793  0.00000000
   3.67445806  5.51168698  1.83722902
   5.51168725  9.18614500  7.34891596
   5.51168711  0.00000017  9.18614487
   5.51168698  1.83722902  0.00000000
   5.51168705  3.67445796  1.83722902
   5.51168711  5.51168701  3.67445793
   1.83722925  5.51168708  7.34891596
   3.67445813  3.67445806  7.34891596
   3.67445819  5.51168711  9.18614487
   5.51168711  1.83722915  7.34891596
   5.51168718  3.67445809  9.18614487
   5.51168705  5.51168695  0.00000000
   5.51168718  5.51168708  7.34891596
 


--------------------------------------------------------------------------------------------------------


 k-point  1 :  0.25000.25000.2500  plane waves:  13727

 maximum and minimum number of plane-waves per node :  13727 13727

 maximum number of plane-waves:  13727
 maximal index in each direction: 
   IXMAX= 14   IYMAX= 14   IZMAX= 14
   IXMIN=-15   IYMIN=-15   IZMIN=-15

 WARNING: wrap around error must be expected set NGX to  60
 WARNING: wrap around error must be expected set NGY to  60
 WARNING: wrap around error must be expected set NGZ to  60

 parallel 3dFFT wavefunction:
    minimum data exchange during FFTs selected (reduces bandwidth)
 parallel 3dFFT charge:
    minimum data exchange during FFTs selected (reduces bandwidth)

 For storing wavefunctions  156.38 MBYTES are necessary
 For predicting wavefunctions  359.89 MBYTES are necessary
Broyden mixing: mesh for mixing (old mesh)
   NGX = 29   NGY = 29   NGZ = 29
  (NGX  = 96   NGY  = 96   NGZ  = 96)
 gives a total of  24389 points
 initial charge density was supplied:
 charge density of overlapping atoms calculated
 number of electron 1188.0000000 magnetization 
 keeping initial charge density in first step


--------------------------------------------------------------------------------------------------------


 Maximum index for augmentation-charges          685 (set IRDMAX)


--------------------------------------------------------------------------------------------------------


 First call to EWALD:  gamma=   0.161
 Maximum number of real-space cells 3x 3x 3
 Maximum number of reciprocal cells 3x 3x 3

    FEWALD:  VPU time    0.02: CPU time    0.03


----------------------------------------- Iteration    1(   1)  ---------------------------------------


    POTLOK:  VPU time    0.10: CPU time    0.10
    SETDIJ:  VPU time    0.04: CPU time    0.04
    EDDAV :  VPU time   22.62: CPU time   22.66
    DOS   :  VPU time    0.00: CPU time   -0.00
    ------------------------------------------
      LOOP:  VPU time   22.77: CPU time   22.82

 eigenvalue-minimisations  :  1424
 total energy-change (2. order) : 0.7875212E+04  (-0.3345958E+05)
 number of electron 1188.0000000 magnetization 
 augmentation part  1188.0000000 magnetization 

 Free energy of the ion-electron system (eV)
  ---------------------------------------------------
  alpha Z        PSCENC =     11125.18671124
  Ewald energy   TEWEN  =   -117400.05208670
  -1/2 Hartree   DENC   =    -36252.46112134
  -V(xc)+E(xc)   XCENC  =      4726.94182343
  PAW double counting   =    116861.64757509  -132416.31672913
  entropy T*S    EENTRO =         0.01712683
  eigenvalues    EBANDS =     11008.67323026
  atomic energy  EATOM  =    150221.57506482
  ---------------------------------------------------
  free energy    TOTEN  =      7875.21159449 eV

  energy without entropy =     7875.19446766  energy(sigma->0) =     7875.20588554


--------------------------------------------------------------------------------------------------------




----------------------------------------- Iteration    1(   2)  ---------------------------------------


    EDDAV :  VPU time   22.71: CPU time   22.74
    DOS   :  VPU time    0.00: CPU time   -0.00
    ------------------------------------------
      LOOP:  VPU time   22.72: CPU time   22.75

 eigenvalue-minimisations  :  1424
 total energy-change (2. order) :-0.7465737E+04  (-0.7167898E+04)
 number of electron 1188.0000000 magnetization 
 augmentation part  1188.0000000 magnetization 

 Free energy of the ion-electron system (eV)
  ---------------------------------------------------
  alpha Z        PSCENC =     11125.18671124
  Ewald energy   TEWEN  =   -117400.05208670
  -1/2 Hartree   DENC   =    -36252.46112134
  -V(xc)+E(xc)   XCENC  =      4726.94182343
  PAW double counting   =    116861.64757509  -132416.31672913
  entropy T*S    EENTRO =         0.01654088
  eigenvalues    EBANDS =      3542.93730418
  atomic energy  EATOM  =    150221.57506482
  ---------------------------------------------------
  free energy    TOTEN  =       409.47508246 eV

  energy without entropy =      409.45854158  energy(sigma->0) =      409.46956883


--------------------------------------------------------------------------------------------------------




----------------------------------------- Iteration    1(   3)  ---------------------------------------


    EDDAV :  VPU time   22.19: CPU time   22.22
    DOS   :  VPU time    0.00: CPU time   -0.00
    ------------------------------------------
      LOOP:  VPU time   22.20: CPU time   22.24

 eigenvalue-minimisations  :  1424
 total energy-change (2. order) :-0.8685167E+03  (-0.7725284E+03)
 number of electron 1188.0000000 magnetization 
 augmentation part  1188.0000000 magnetization 

 Free energy of the ion-electron system (eV)
  ---------------------------------------------------
  alpha Z        PSCENC =     11125.18671124
  Ewald energy   TEWEN  =   -117400.05208670
  -1/2 Hartree   DENC   =    -36252.46112134
  -V(xc)+E(xc)   XCENC  =      4726.94182343
  PAW double counting   =    116861.64757509  -132416.31672913
  entropy T*S    EENTRO =        -0.14062214
  eigenvalues    EBANDS =      2674.57774153
  atomic energy  EATOM  =    150221.57506482
  ---------------------------------------------------
  free energy    TOTEN  =      -459.04164322 eV

  energy without entropy =     -458.90102107  energy(sigma->0) =     -458.99476917


--------------------------------------------------------------------------------------------------------




----------------------------------------- Iteration    1(   4)  ---------------------------------------


    EDDAV :  VPU time   23.42: CPU time   23.45
    DOS   :  VPU time    0.00: CPU time   -0.00
    ------------------------------------------
      LOOP:  VPU time   23.43: CPU time   23.47

 eigenvalue-minimisations  :  1512
 total energy-change (2. order) :-0.3354868E+02  (-0.3305757E+02)
 number of electron 1188.0000000 magnetization 
 augmentation part  1188.0000000 magnetization 

 Free energy of the ion-electron system (eV)
  ---------------------------------------------------
  alpha Z        PSCENC =     11125.18671124
  Ewald energy   TEWEN  =   -117400.05208670
  -1/2 Hartree   DENC   =    -36252.46112134
  -V(xc)+E(xc)   XCENC  =      4726.94182343
  PAW double counting   =    116861.64757509  -132416.31672913
  entropy T*S    EENTRO =        -0.14161477
  eigenvalues    EBANDS =      2641.03005827
  atomic energy  EATOM  =    150221.57506482
  ---------------------------------------------------
  free energy    TOTEN  =      -492.59031909 eV

  energy without entropy =     -492.44870433  energy(sigma->0) =     -492.54311417


--------------------------------------------------------------------------------------------------------




----------------------------------------- Iteration    1(   5)  ---------------------------------------


    EDDAV :  VPU time   23.32: CPU time   23.35
    DOS   :  VPU time    0.00: CPU time   -0.00
    CHARGE:  VPU time    0.44: CPU time    0.44
    MIXING:  VPU time    0.00: CPU time    0.00
    ------------------------------------------
      LOOP:  VPU time   23.77: CPU time   23.81

 eigenvalue-minimisations  :  1504
 total energy-change (2. order) :-0.2028431E+00  (-0.2024375E+00)
 number of electron 1187.9974472 magnetization 
 augmentation part   723.8546524 magnetization 

 Broyden mixing:
  rms(total) = 0.71597E+01    rms(broyden)= 0.71586E+01
  rms(prec ) = 0.88367E+01
  weight for this iteration     100.00

 Free energy of the ion-electron system (eV)
  ---------------------------------------------------
  alpha Z        PSCENC =     11125.18671124
  Ewald energy   TEWEN  =   -117400.05208670
  -1/2 Hartree   DENC   =    -36252.46112134
  -V(xc)+E(xc)   XCENC  =      4726.94182343
  PAW double counting   =    116861.64757509  -132416.31672913
  entropy T*S    EENTRO =        -0.14173170
  eigenvalues    EBANDS =      2640.82733211
  atomic energy  EATOM  =    150221.57506482
  ---------------------------------------------------
  free energy    TOTEN  =      -492.79316219 eV

  energy without entropy =     -492.65143049  energy(sigma->0) =     -492.74591829


--------------------------------------------------------------------------------------------------------




----------------------------------------- Iteration    1(   6)  ---------------------------------------


    POTLOK:  VPU time    0.11: CPU time    0.11
    SETDIJ:  VPU time    0.04: CPU time    0.04
    EDDAV :  VPU time   23.46: CPU time   23.50
    DOS   :  VPU time    0.00: CPU time   -0.00
    CHARGE:  VPU time    0.41: CPU time    0.42
    MIXING:  VPU time    0.00: CPU time    0.00
    ------------------------------------------
      LOOP:  VPU time   24.04: CPU time   24.09

 eigenvalue-minimisations  :  1512
 total energy-change (2. order) : 0.5764966E+02  (-0.9400535E+02)
 number of electron 1187.9972705 magnetization 
 augmentation part   806.8646391 magnetization 

 Broyden mixing:
  rms(total) = 0.33731E+01    rms(broyden)= 0.33699E+01
  rms(prec ) = 0.40151E+01
  weight for this iteration     100.00

 eigenvalues of (default mixing * dielectric matrix)
  average eigenvalue GAMMA=   0.6813
  0.6813

 Free energy of the ion-electron system (eV)
  ---------------------------------------------------
  alpha Z        PSCENC =     11125.18671124
  Ewald energy   TEWEN  =   -117400.05208670
  -1/2 Hartree   DENC   =    -33552.39147192
  -V(xc)+E(xc)   XCENC  =      4590.71903457
  PAW double counting   =    113913.97119562  -128593.30120489
  entropy T*S    EENTRO =         0.23134227
  eigenvalues    EBANDS =      -741.08208610
  atomic energy  EATOM  =    150221.57506482
  ---------------------------------------------------
  free energy    TOTEN  =      -435.14350109 eV

  energy without entropy =     -435.37484336  energy(sigma->0) =     -435.22061518


--------------------------------------------------------------------------------------------------------




----------------------------------------- Iteration    1(   7)  ---------------------------------------


    POTLOK:  VPU time    0.10: CPU time    0.10
    SETDIJ:  VPU time    0.04: CPU time    0.04
    EDDAV :  VPU time   24.15: CPU time   24.19
    DOS   :  VPU time    0.00: CPU time   -0.00
    CHARGE:  VPU time    0.41: CPU time    0.41
    MIXING:  VPU time    0.00: CPU time    0.00
    ------------------------------------------
      LOOP:  VPU time   24.72: CPU time   24.76

 eigenvalue-minimisations  :  1576
 total energy-change (2. order) : 0.3459321E+02  (-0.1600764E+02)
 number of electron 1187.9973409 magnetization 
 augmentation part   776.2676620 magnetization 

 Broyden mixing:
  rms(total) = 0.52184E+00    rms(broyden)= 0.52052E+00
  rms(prec ) = 0.65688E+00
  weight for this iteration     100.00

 eigenvalues of (default mixing * dielectric matrix)
  average eigenvalue GAMMA=   1.3183
  1.9903  0.6464

 Free energy of the ion-electron system (eV)
  ---------------------------------------------------
  alpha Z        PSCENC =     11125.18671124
  Ewald energy   TEWEN  =   -117400.05208670
  -1/2 Hartree   DENC   =    -34320.29678771
  -V(xc)+E(xc)   XCENC  =      4631.27723000
  PAW double counting   =    116158.76990946  -131462.41998730
  entropy T*S    EENTRO =        -0.49075515
  eigenvalues    EBANDS =       645.90041413
  atomic energy  EATOM  =    150221.57506482
  ---------------------------------------------------
  free energy    TOTEN  =      -400.55028721 eV

  energy without entropy =     -400.05953206  energy(sigma->0) =     -400.38670216


--------------------------------------------------------------------------------------------------------




----------------------------------------- Iteration    1(   8)  ---------------------------------------


    POTLOK:  VPU time    0.10: CPU time    0.10
    SETDIJ:  VPU time    0.04: CPU time    0.04
    EDDAV :  VPU time   22.84: CPU time   22.87
    DOS   :  VPU time   -0.00: CPU time   -0.00
    CHARGE:  VPU time    0.42: CPU time    0.42
    MIXING:  VPU time    0.00: CPU time    0.00
    ------------------------------------------
      LOOP:  VPU time   23.41: CPU time   23.44

 eigenvalue-minimisations  :  1472
 total energy-change (2. order) : 0.8138264E+00  (-0.1864115E+00)
 number of electron 1187.9973445 magnetization 
 augmentation part   775.1591406 magnetization 

 Broyden mixing:
  rms(total) = 0.33975E+00    rms(broyden)= 0.33963E+00
  rms(prec ) = 0.42309E+00
  weight for this iteration     100.00

 eigenvalues of (default mixing * dielectric matrix)
  average eigenvalue GAMMA=   1.4058
  0.6705  0.9889  2.5580

 Free energy of the ion-electron system (eV)
  ---------------------------------------------------
  alpha Z        PSCENC =     11125.18671124
  Ewald energy   TEWEN  =   -117400.05208670
  -1/2 Hartree   DENC   =    -34048.88426480
  -V(xc)+E(xc)   XCENC  =      4618.86281723
  PAW double counting   =    117527.10094559  -133090.42859766
  entropy T*S    EENTRO =        -0.49148660
  eigenvalues    EBANDS =       647.39443607
  atomic energy  EATOM  =    150221.57506482
  ---------------------------------------------------
  free energy    TOTEN  =      -399.73646081 eV

  energy without entropy =     -399.24497421  energy(sigma->0) =     -399.57263194


--------------------------------------------------------------------------------------------------------




----------------------------------------- Iteration    1(   9)  ---------------------------------------


    POTLOK:  VPU time    0.10: CPU time    0.10
    SETDIJ:  VPU time    0.04: CPU time    0.04
    EDDAV :  VPU time   23.56: CPU time   23.60
    DOS   :  VPU time    0.00: CPU time   -0.00
    CHARGE:  VPU time    0.41: CPU time    0.41
    MIXING:  VPU time    0.00: CPU time    0.00
    ------------------------------------------
      LOOP:  VPU time   24.13: CPU time   24.16

 eigenvalue-minimisations  :  1536
 total energy-change (2. order) : 0.2236630E+00  (-0.6237006E-01)
 number of electron 1187.9973391 magnetization 
 augmentation part   777.5863841 magnetization 

 Broyden mixing:
  rms(total) = 0.26521E-01    rms(broyden)= 0.26399E-01
  rms(prec ) = 0.32029E-01
  weight for this iteration     100.00

 eigenvalues of (default mixing * dielectric matrix)
  average eigenvalue GAMMA=   1.6616
  0.6750  0.9152  2.6888  2.3675

 Free energy of the ion-electron system (eV)
  ---------------------------------------------------
  alpha Z        PSCENC =     11125.18671124
  Ewald energy   TEWEN  =   -117400.05208670
  -1/2 Hartree   DENC   =    -33897.13438223
  -V(xc)+E(xc)   XCENC  =      4611.54545298
  PAW double counting   =    117812.85136472  -133414.22273203
  entropy T*S    EENTRO =        -0.47071604
  eigenvalues    EBANDS =       541.20852544
  atomic energy  EATOM  =    150221.57506482
  ---------------------------------------------------
  free energy    TOTEN  =      -399.51279780 eV

  energy without entropy =     -399.04208176  energy(sigma->0) =     -399.35589245


--------------------------------------------------------------------------------------------------------




----------------------------------------- Iteration    1(  10)  ---------------------------------------


    POTLOK:  VPU time    0.11: CPU time    0.11
    SETDIJ:  VPU time    0.04: CPU time    0.04
    EDDAV :  VPU time   23.14: CPU time   23.17
    DOS   :  VPU time    0.00: CPU time   -0.00
    CHARGE:  VPU time    0.41: CPU time    0.41
    MIXING:  VPU time    0.00: CPU time    0.00
    ------------------------------------------
      LOOP:  VPU time   23.72: CPU time   23.75

 eigenvalue-minimisations  :  1496
 total energy-change (2. order) :-0.1207180E-02  (-0.2457969E-02)
 number of electron 1187.9973395 magnetization 
 augmentation part   777.3763911 magnetization 

 Broyden mixing:
  rms(total) = 0.73610E-02    rms(broyden)= 0.73554E-02
  rms(prec ) = 0.88075E-02
  weight for this iteration     100.00

 eigenvalues of (default mixing * dielectric matrix)
  average eigenvalue GAMMA=   1.5811
  2.5843  2.5843  0.6745  1.1235  0.9390

 Free energy of the ion-electron system (eV)
  ---------------------------------------------------
  alpha Z        PSCENC =     11125.18671124
  Ewald energy   TEWEN  =   -117400.05208670
  -1/2 Hartree   DENC   =    -33909.04275564
  -V(xc)+E(xc)   XCENC  =      4612.13037416
  PAW double counting   =    117839.13276622  -133438.45941665
  entropy T*S    EENTRO =        -0.47346485
  eigenvalues    EBANDS =       550.48880243
  atomic energy  EATOM  =    150221.57506482
  ---------------------------------------------------
  free energy    TOTEN  =      -399.51400498 eV

  energy without entropy =     -399.04054012  energy(sigma->0) =     -399.35618336


--------------------------------------------------------------------------------------------------------




----------------------------------------- Iteration    1(  11)  ---------------------------------------


    POTLOK:  VPU time    0.10: CPU time    0.10
    SETDIJ:  VPU time    0.04: CPU time    0.04
    EDDAV :  VPU time   22.83: CPU time   22.86
    DOS   :  VPU time    0.00: CPU time   -0.00
    CHARGE:  VPU time    0.42: CPU time    0.42
    MIXING:  VPU time    0.00: CPU time    0.01
    ------------------------------------------
      LOOP:  VPU time   23.41: CPU time   23.44

 eigenvalue-minimisations  :  1472
 total energy-change (2. order) : 0.6255036E-04  (-0.5302859E-04)
 number of electron 1187.9973394 magnetization 
 augmentation part   777.4353573 magnetization 

 Broyden mixing:
  rms(total) = 0.10996E-02    rms(broyden)= 0.10954E-02
  rms(prec ) = 0.13165E-02
  weight for this iteration     100.00

 eigenvalues of (default mixing * dielectric matrix)
  average eigenvalue GAMMA=   1.5766
  2.5702  2.5702  0.6746  0.9398  1.0706  1.6340

 Free energy of the ion-electron system (eV)
  ---------------------------------------------------
  alpha Z        PSCENC =     11125.18671124
  Ewald energy   TEWEN  =   -117400.05208670
  -1/2 Hartree   DENC   =    -33907.30526393
  -V(xc)+E(xc)   XCENC  =      4612.03980381
  PAW double counting   =    117862.17974710  -133460.58115427
  entropy T*S    EENTRO =        -0.47269629
  eigenvalues    EBANDS =       547.91593179
  atomic energy  EATOM  =    150221.57506482
  ---------------------------------------------------
  free energy    TOTEN  =      -399.51394243 eV

  energy without entropy =     -399.04124613  energy(sigma->0) =     -399.35637699


--------------------------------------------------------------------------------------------------------




----------------------------------------- Iteration    1(  12)  ---------------------------------------


    POTLOK:  VPU time    0.10: CPU time    0.10
    SETDIJ:  VPU time    0.04: CPU time    0.04
    EDDAV :  VPU time   20.69: CPU time   20.72
    DOS   :  VPU time    0.00: CPU time   -0.00
    CHARGE:  VPU time    0.42: CPU time    0.42
    MIXING:  VPU time    0.00: CPU time    0.01
    ------------------------------------------
      LOOP:  VPU time   21.26: CPU time   21.30

 eigenvalue-minimisations  :  1296
 total energy-change (2. order) :-0.5274563E-04  (-0.6781729E-05)
 number of electron 1187.9973394 magnetization 
 augmentation part   777.4180394 magnetization 

 Broyden mixing:
  rms(total) = 0.85652E-03    rms(broyden)= 0.85581E-03
  rms(prec ) = 0.10257E-02
  weight for this iteration     100.00

 eigenvalues of (default mixing * dielectric matrix)
  average eigenvalue GAMMA=   1.6177
  2.7231  2.5115  2.5115  0.6747  0.9271  0.9881  0.9881

 Free energy of the ion-electron system (eV)
  ---------------------------------------------------
  alpha Z        PSCENC =     11125.18671124
  Ewald energy   TEWEN  =   -117400.05208670
  -1/2 Hartree   DENC   =    -33907.50679074
  -V(xc)+E(xc)   XCENC  =      4612.05037369
  PAW double counting   =    117865.49821254  -133464.40624124
  entropy T*S    EENTRO =        -0.47289916
  eigenvalues    EBANDS =       548.61366037
  atomic energy  EATOM  =    150221.57506482
  ---------------------------------------------------
  free energy    TOTEN  =      -399.51399517 eV

  energy without entropy =     -399.04109601  energy(sigma->0) =     -399.35636212


--------------------------------------------------------------------------------------------------------




----------------------------------------- Iteration    1(  13)  ---------------------------------------


    POTLOK:  VPU time    0.10: CPU time    0.10
    SETDIJ:  VPU time    0.04: CPU time    0.04
    EDDAV :  VPU time   14.13: CPU time   14.15
    DOS   :  VPU time    0.00: CPU time   -0.00
    CHARGE:  VPU time    0.42: CPU time    0.42
    MIXING:  VPU time    0.01: CPU time    0.01
    ------------------------------------------
      LOOP:  VPU time   14.70: CPU time   14.73

 eigenvalue-minimisations  :   760
 total energy-change (2. order) :-0.3422910E-04  (-0.6577652E-06)
 number of electron 1187.9973394 magnetization 
 augmentation part   777.4246131 magnetization 

 Broyden mixing:
  rms(total) = 0.92282E-04    rms(broyden)= 0.91903E-04
  rms(prec ) = 0.11372E-03
  weight for this iteration     100.00

 eigenvalues of (default mixing * dielectric matrix)
  average eigenvalue GAMMA=   1.6033
  2.7795  2.5644  2.5644  0.6747  1.3625  1.0013  0.9600  0.9193

 Free energy of the ion-electron system (eV)
  ---------------------------------------------------
  alpha Z        PSCENC =     11125.18671124
  Ewald energy   TEWEN  =   -117400.05208670
  -1/2 Hartree   DENC   =    -33907.24354458
  -V(xc)+E(xc)   XCENC  =      4612.03608010
  PAW double counting   =    117867.42023294  -133466.31723872
  entropy T*S    EENTRO =        -0.47282020
  eigenvalues    EBANDS =       548.35357169
  atomic energy  EATOM  =    150221.57506482
  ---------------------------------------------------
  free energy    TOTEN  =      -399.51402940 eV

  energy without entropy =     -399.04120920  energy(sigma->0) =     -399.35642267


--------------------------------------------------------------------------------------------------------




----------------------------------------- Iteration    1(  14)  ---------------------------------------


    POTLOK:  VPU time    0.10: CPU time    0.10
    SETDIJ:  VPU time    0.04: CPU time    0.04
    EDDAV :  VPU time   14.12: CPU time   14.14
    DOS   :  VPU time    0.00: CPU time   -0.00
    ------------------------------------------
      LOOP:  VPU time   14.27: CPU time   14.29

 eigenvalue-minimisations  :   760
 total energy-change (2. order) : 0.2466259E-06  (-0.3867782E-07)
 number of electron 1187.9973394 magnetization 
 augmentation part   777.4246131 magnetization 

 Free energy of the ion-electron system (eV)
  ---------------------------------------------------
  alpha Z        PSCENC =     11125.18671124
  Ewald energy   TEWEN  =   -117400.05208670
  -1/2 Hartree   DENC   =    -33907.27227131
  -V(xc)+E(xc)   XCENC  =      4612.03744536
  PAW double counting   =    117867.40074602  -133466.29501680
  entropy T*S    EENTRO =        -0.47282733
  eigenvalues    EBANDS =       548.37820555
  atomic energy  EATOM  =    150221.57506482
  ---------------------------------------------------
  free energy    TOTEN  =      -399.51402915 eV

  energy without entropy =     -399.04120182  energy(sigma->0) =     -399.35642004


--------------------------------------------------------------------------------------------------------




 average (electrostatic) potential at core
  the test charge radii are     1.0053
  (the norm of the test charge is              1.0000)
       1 -40.2446       2 -40.2446       3 -40.2446       4 -40.2446       5 -40.2446
       6 -40.2446       7 -40.2446       8 -40.2446       9 -40.2446      10 -40.2446
      11 -40.2446      12 -40.2446      13 -40.2446      14 -40.2446      15 -40.2446
      16 -40.2446      17 -40.2446      18 -40.2446      19 -40.2446      20 -40.2446
      21 -40.2446      22 -40.2446      23 -40.2446      24 -40.2446      25 -40.2446
      26 -40.2446      27 -40.2446      28 -40.2446      29 -40.2446      30 -40.2446
      31 -40.2446      32 -40.2446      33 -40.2446      34 -40.2446      35 -40.2446
      36 -40.2446      37 -40.2446      38 -40.2446      39 -40.2446      40 -40.2446
      41 -40.2446      42 -40.2446      43 -40.2446      44 -40.2446      45 -40.2446
      46 -40.2446      47 -40.2446      48 -40.2446      49 -40.2446      50 -40.2446
      51 -40.2446      52 -40.2446      53 -40.2446      54 -40.2446      55 -40.2446
      56 -40.2446      57 -40.2446      58 -40.2446      59 -40.2446      60 -40.2446
      61 -40.2446      62 -40.2446      63 -40.2446      64 -40.2446      65 -40.2446
      66 -40.2446      67 -40.2446      68 -40.2446      69 -40.2446      70 -40.2446
      71 -40.2446      72 -40.2446      73 -40.2446      74 -40.2446      75 -40.2446
      76 -40.2446      77 -40.2446      78 -40.2446      79 -40.2446      80 -40.2446
      81 -40.2446      82 -40.2446      83 -40.2446      84 -40.2446      85 -40.2446
      86 -40.2446      87 -40.2446      88 -40.2446      89 -40.2446      90 -40.2446
      91 -40.2446      92 -40.2446      93 -40.2446      94 -40.2446      95 -40.2446
      96 -40.2446      97 -40.2446      98 -40.2446      99 -40.2446     100 -40.2446
     101 -40.2446     102 -40.2446     103 -40.2446     104 -40.2446     105 -40.2446
     106 -40.2446     107 -40.2446     108 -40.2446
 
 
 
 E-fermi :   3.1856     XC(G=0): -12.5160     alpha+bet : -9.1707
   add alpha+bet to get absolut eigen values

 k-point   1 :       0.2500    0.2500    0.2500
  band No.  band energies     occupation 
      1      -5.3571      2.00000
      2      -4.7208      2.00000
      3      -4.7208      2.00000
      4      -4.7208      2.00000
      5      -4.1108      2.00000
      6      -4.1108      2.00000
      7      -4.1108      2.00000
      8      -3.5465      2.00000
      9      -3.5240      2.00000
     10      -3.5240      2.00000
     11      -3.5240      2.00000
     12      -2.9801      2.00000
     13      -2.9801      2.00000
     14      -2.9801      2.00000
     15      -2.9801      2.00000
     16      -2.9801      2.00000
     17      -2.9801      2.00000
     18      -2.5387      2.00000
     19      -2.5387      2.00000
     20      -2.5387      2.00000
     21      -2.0773      2.00000
     22      -2.0773      2.00000
     23      -2.0773      2.00000
     24      -2.0307      2.00000
     25      -2.0307      2.00000
     26      -2.0307      2.00000
     27      -1.8503      2.00000
     28      -1.8503      2.00000
     29      -1.8503      2.00000
     30      -1.6581      2.00000
     31      -1.6581      2.00000
     32      -1.6581      2.00000
     33      -1.6581      2.00000
     34      -1.6581      2.00000
     35      -1.6581      2.00000
     36      -1.6118      2.00000
     37      -1.4509      2.00000
     38      -1.4509      2.00000
     39      -1.4509      2.00000
     40      -1.3369      2.00000
     41      -1.3369      2.00000
     42      -1.3369      2.00000
     43      -1.2703      2.00000
     44      -1.2703      2.00000
     45      -1.2703      2.00000
     46      -1.2148      2.00000
     47      -1.2148      2.00000
     48      -1.2148      2.00000
     49      -1.2148      2.00000
     50      -1.2148      2.00000
     51      -1.2148      2.00000
     52      -1.1686      2.00000
     53      -1.1686      2.00000
     54      -1.1686      2.00000
     55      -1.0542      2.00000
     56      -1.0542      2.00000
     57      -1.0542      2.00000
     58      -1.0542      2.00000
     59      -1.0542      2.00000
     60      -1.0542      2.00000
     61      -0.9936      2.00000
     62      -0.9936      2.00000
     63      -0.9936      2.00000
     64      -0.9578      2.00000
     65      -0.9578      2.00000
     66      -0.9578      2.00000
     67      -0.9578      2.00000
     68      -0.9578      2.00000
     69      -0.9578      2.00000
     70      -0.9046      2.00000
     71      -0.9046      2.00000
     72      -0.9046      2.00000
     73      -0.9046      2.00000
     74      -0.9046      2.00000
     75      -0.9046      2.00000
     76      -0.8336      2.00000
     77      -0.8336      2.00000
     78      -0.8336      2.00000
     79      -0.7592      2.00000
     80      -0.7592      2.00000
     81      -0.7592      2.00000
     82      -0.7394      2.00000
     83      -0.7394      2.00000
     84      -0.7394      2.00000
     85      -0.7394      2.00000
     86      -0.7394      2.00000
     87      -0.7394      2.00000
     88      -0.7052      2.00000
     89      -0.7052      2.00000
     90      -0.7052      2.00000
     91      -0.6363      2.00000
     92      -0.6363      2.00000
     93      -0.6363      2.00000
     94      -0.6052      2.00000
     95      -0.6052      2.00000
     96      -0.6052      2.00000
     97      -0.5902      2.00000
     98      -0.5902      2.00000
     99      -0.5902      2.00000
    100      -0.5902      2.00000
    101      -0.5902      2.00000
    102      -0.5902      2.00000
    103      -0.5594      2.00000
    104      -0.5594      2.00000
    105      -0.5594      2.00000
    106      -0.5594      2.00000
    107      -0.5594      2.00000
    108      -0.5594      2.00000
    109      -0.5325      2.00000
    110      -0.5325      2.00000
    111      -0.5325      2.00000
    112      -0.5325      2.00000
    113      -0.5325      2.00000
    114      -0.5325      2.00000
    115      -0.4689      2.00000
    116      -0.4689      2.00000
    117      -0.4689      2.00000
    118      -0.4564      2.00000
    119      -0.4564      2.00000
    120      -0.4564      2.00000
    121      -0.4564      2.00000
    122      -0.4564      2.00000
    123      -0.4564      2.00000
    124      -0.4322      2.00000
    125      -0.4322      2.00000
    126      -0.4322      2.00000
    127      -0.4322      2.00000
    128      -0.4322      2.00000
    129      -0.4322      2.00000
    130      -0.3342      2.00000
    131      -0.3342      2.00000
    132      -0.3342      2.00000
    133      -0.3067      2.00000
    134      -0.3067      2.00000
    135      -0.3067      2.00000
    136      -0.3067      2.00000
    137      -0.3067      2.00000
    138      -0.3067      2.00000
    139      -0.2948      2.00000
    140      -0.2948      2.00000
    141      -0.2948      2.00000
    142      -0.2628      2.00000
    143      -0.2628      2.00000
    144      -0.2628      2.00000
    145      -0.2628      2.00000
    146      -0.2628      2.00000
    147      -0.2628      2.00000
    148      -0.2240      2.00000
    149      -0.2240      2.00000
    150      -0.2240      2.00000
    151      -0.2240      2.00000
    152      -0.2240      2.00000
    153      -0.2240      2.00000
    154      -0.2085      2.00000
    155      -0.2085      2.00000
    156      -0.2085      2.00000
    157      -0.2085      2.00000
    158      -0.2085      2.00000
    159      -0.2085      2.00000
    160      -0.0867      2.00000
    161      -0.0867      2.00000
    162      -0.0867      2.00000
    163      -0.0867      2.00000
    164      -0.0867      2.00000
    165      -0.0867      2.00000
    166      -0.0291      2.00000
    167      -0.0291      2.00000
    168      -0.0291      2.00000
    169      -0.0150      2.00000
    170      -0.0150      2.00000
    171      -0.0150      2.00000
    172      -0.0072      2.00000
    173      -0.0072      2.00000
    174      -0.0072      2.00000
    175      -0.0072      2.00000
    176      -0.0072      2.00000
    177      -0.0072      2.00000
    178      -0.0004      2.00000
    179      -0.0004      2.00000
    180      -0.0004      2.00000
    181       0.0253      2.00000
    182       0.0253      2.00000
    183       0.0253      2.00000
    184       0.0253      2.00000
    185       0.0253      2.00000
    186       0.0253      2.00000
    187       0.0519      2.00000
    188       0.0519      2.00000
    189       0.0519      2.00000
    190       0.1160      2.00000
    191       0.1160      2.00000
    192       0.1160      2.00000
    193       0.1160      2.00000
    194       0.1160      2.00000
    195       0.1160      2.00000
    196       0.1520      2.00000
    197       0.1520      2.00000
    198       0.1520      2.00000
    199       0.1782      2.00000
    200       0.1782      2.00000
    201       0.1782      2.00000
    202       0.1782      2.00000
    203       0.1782      2.00000
    204       0.1782      2.00000
    205       0.1981      2.00000
    206       0.1981      2.00000
    207       0.1981      2.00000
    208       0.2093      2.00000
    209       0.2093      2.00000
    210       0.2093      2.00000
    211       0.2099      2.00000
    212       0.2099      2.00000
    213       0.2099      2.00000
    214       0.2388      2.00000
    215       0.2433      2.00000
    216       0.2433      2.00000
    217       0.2433      2.00000
    218       0.2433      2.00000
    219       0.2433      2.00000
    220       0.2433      2.00000
    221       0.2653      2.00000
    222       0.2653      2.00000
    223       0.2653      2.00000
    224       0.2734      2.00000
    225       0.2734      2.00000
    226       0.2734      2.00000
    227       0.2734      2.00000
    228       0.2734      2.00000
    229       0.2734      2.00000
    230       0.2797      2.00000
    231       0.2797      2.00000
    232       0.2797      2.00000
    233       0.2797      2.00000
    234       0.2797      2.00000
    235       0.2797      2.00000
    236       0.3607      2.00000
    237       0.3607      2.00000
    238       0.3607      2.00000
    239       0.3971      2.00000
    240       0.3971      2.00000
    241       0.3971      2.00000
    242       0.4046      2.00000
    243       0.4046      2.00000
    244       0.4046      2.00000
    245       0.4046      2.00000
    246       0.4046      2.00000
    247       0.4046      2.00000
    248       0.4091      2.00000
    249       0.4091      2.00000
    250       0.4091      2.00000
    251       0.4091      2.00000
    252       0.4091      2.00000
    253       0.4091      2.00000
    254       0.4174      2.00000
    255       0.4275      2.00000
    256       0.4275      2.00000
    257       0.4275      2.00000
    258       0.4648      2.00000
    259       0.4648      2.00000
    260       0.4648      2.00000
    261       0.4684      2.00000
    262       0.4684      2.00000
    263       0.4990      2.00000
    264       0.4990      2.00000
    265       0.4990      2.00000
    266       0.5084      2.00000
    267       0.5084      2.00000
    268       0.5121      2.00000
    269       0.5121      2.00000
    270       0.5121      2.00000
    271       0.5168      2.00000
    272       0.5168      2.00000
    273       0.5168      2.00000
    274       0.5272      2.00000
    275       0.5272      2.00000
    276       0.5272      2.00000
    277       0.5303      2.00000
    278       0.5303      2.00000
    279       0.5303      2.00000
    280       0.5303      2.00000
    281       0.5303      2.00000
    282       0.5303      2.00000
    283       0.5532      2.00000
    284       0.5532      2.00000
    285       0.5532      2.00000
    286       0.5532      2.00000
    287       0.5532      2.00000
    288       0.5532      2.00000
    289       0.5777      2.00000
    290       0.5777      2.00000
    291       0.5777      2.00000
    292       0.6119      2.00000
    293       0.6119      2.00000
    294       0.6119      2.00000
    295       0.6119      2.00000
    296       0.6119      2.00000
    297       0.6119      2.00000
    298       0.6121      2.00000
    299       0.6121      2.00000
    300       0.6261      2.00000
    301       0.6261      2.00000
    302       0.6261      2.00000
    303       0.6266      2.00000
    304       0.6266      2.00000
    305       0.6266      2.00000
    306       0.6318      2.00000
    307       0.6318      2.00000
    308       0.6318      2.00000
    309       0.6440      2.00000
    310       0.6440      2.00000
    311       0.6440      2.00000
    312       0.6483      2.00000
    313       0.6483      2.00000
    314       0.6483      2.00000
    315       0.6767      2.00000
    316       0.6767      2.00000
    317       0.6767      2.00000
    318       0.6896      2.00000
    319       0.6896      2.00000
    320       0.6896      2.00000
    321       0.6976      2.00000
    322       0.6976      2.00000
    323       0.6976      2.00000
    324       0.6976      2.00000
    325       0.6976      2.00000
    326       0.6976      2.00000
    327       0.7063      2.00000
    328       0.7063      2.00000
    329       0.7063      2.00000
    330       0.7070      2.00000
    331       0.7070      2.00000
    332       0.7070      2.00000
    333       0.7252      2.00000
    334       0.7252      2.00000
    335       0.7252      2.00000
    336       0.8081      2.00000
    337       0.8081      2.00000
    338       0.8081      2.00000
    339       0.8111      2.00000
    340       0.8111      2.00000
    341       0.8111      2.00000
    342       0.8273      2.00000
    343       0.8273      2.00000
    344       0.8273      2.00000
    345       0.8273      2.00000
    346       0.8273      2.00000
    347       0.8273      2.00000
    348       0.8660      2.00000
    349       0.8660      2.00000
    350       0.8660      2.00000
    351       0.9114      2.00000
    352       0.9114      2.00000
    353       0.9114      2.00000
    354       0.9114      2.00000
    355       0.9114      2.00000
    356       0.9114      2.00000
    357       0.9550      2.00000
    358       0.9550      2.00000
    359       0.9550      2.00000
    360       0.9550      2.00000
    361       0.9550      2.00000
    362       0.9550      2.00000
    363       0.9585      2.00000
    364       0.9585      2.00000
    365       0.9585      2.00000
    366       0.9629      2.00000
    367       0.9629      2.00000
    368       0.9629      2.00000
    369       0.9629      2.00000
    370       0.9629      2.00000
    371       0.9629      2.00000
    372       1.0607      2.00000
    373       1.0607      2.00000
    374       1.0607      2.00000
    375       1.0794      2.00000
    376       1.0794      2.00000
    377       1.0794      2.00000
    378       1.0794      2.00000
    379       1.0794      2.00000
    380       1.0794      2.00000
    381       1.0802      2.00000
    382       1.0802      2.00000
    383       1.0802      2.00000
    384       1.0847      2.00000
    385       1.0847      2.00000
    386       1.0847      2.00000
    387       1.0849      2.00000
    388       1.0849      2.00000
[...]
   0.402E-12 -.295E-04 -.295E-04   -.295E-12 0.495E-04 0.495E-04   -.179E-23 0.122E-22 0.533E-22   0.104E-12 -.219E-06 -.219E-06
   -.620E-13 0.145E-11 0.155E-11   0.770E-13 0.140E-12 -.853E-13   -.142E-22 -.107E-22 -.395E-22   0.187E-12 -.213E-12 -.157E-14
   0.295E-04 0.295E-04 -.295E-04   -.495E-04 -.495E-04 0.495E-04   -.399E-23 -.746E-24 0.469E-22   0.219E-06 0.219E-06 -.219E-06
   0.295E-04 -.295E-04 0.454E-11   -.495E-04 0.495E-04 -.158E-12   -.104E-22 0.597E-23 -.248E-22   0.219E-06 -.219E-06 -.688E-12
   0.295E-04 -.125E-11 0.295E-04   -.495E-04 0.182E-11 -.495E-04   -.955E-27 -.639E-24 -.293E-22   0.219E-06 0.193E-12 0.219E-06
   0.295E-04 0.295E-04 -.295E-04   -.495E-04 -.495E-04 0.495E-04   -.442E-23 0.395E-24 -.264E-22   0.219E-06 0.219E-06 -.219E-06
   0.295E-04 -.295E-04 0.598E-11   -.495E-04 0.495E-04 -.647E-12   -.448E-23 -.206E-22 0.271E-22   0.219E-06 -.219E-06 0.277E-12
   -.295E-04 0.295E-04 -.129E-11   0.495E-04 -.495E-04 0.782E-13   -.119E-23 -.867E-23 -.533E-22   -.219E-06 0.219E-06 -.342E-12
   -.295E-04 -.295E-04 0.295E-04   0.495E-04 0.495E-04 -.495E-04   -.107E-23 -.377E-23 0.100E-22   -.219E-06 -.219E-06 0.219E-06
   -.295E-04 0.841E-12 -.295E-04   0.495E-04 -.180E-11 0.495E-04   -.145E-23 -.744E-24 -.661E-22   -.219E-06 0.215E-12 -.219E-06
   -.295E-04 0.295E-04 0.497E-11   0.495E-04 -.495E-04 0.103E-12   -.899E-23 0.642E-23 0.712E-22   -.219E-06 0.219E-06 0.691E-12
   0.919E-12 0.295E-04 0.295E-04   0.203E-12 -.495E-04 -.495E-04   0.308E-23 -.486E-23 -.455E-22   -.366E-14 0.219E-06 0.219E-06
   0.209E-11 -.295E-04 -.295E-04   -.374E-12 0.495E-04 0.495E-04   -.281E-23 0.667E-23 -.267E-22   -.498E-13 -.219E-06 -.219E-06
   0.162E-11 -.386E-12 -.141E-10   -.933E-13 0.938E-13 -.107E-12   -.148E-22 0.249E-23 0.569E-22   -.694E-13 0.488E-12 0.832E-12
   0.295E-04 -.295E-04 0.295E-04   -.495E-04 0.495E-04 -.495E-04   -.324E-24 0.830E-23 0.107E-23   0.219E-06 -.219E-06 0.219E-06
   0.295E-04 0.648E-11 -.295E-04   -.495E-04 0.644E-12 0.495E-04   0.505E-23 -.108E-23 0.312E-22   0.219E-06 -.297E-12 -.219E-06
   -.295E-04 0.295E-04 0.295E-04   0.495E-04 -.495E-04 -.495E-04   -.364E-23 0.718E-23 -.213E-22   -.219E-06 0.219E-06 0.219E-06
   -.295E-04 -.295E-04 -.295E-04   0.495E-04 0.495E-04 0.495E-04   -.113E-22 -.980E-23 0.242E-22   -.219E-06 -.219E-06 -.219E-06
   -.295E-04 0.285E-11 -.909E-10   0.495E-04 -.139E-11 -.136E-11   -.238E-23 0.392E-23 -.192E-22   -.219E-06 -.431E-12 -.405E-12
   -.543E-12 -.523E-12 0.295E-04   0.235E-12 0.411E-12 -.495E-04   -.414E-23 -.939E-23 0.333E-23   -.195E-12 0.369E-12 0.219E-06
   -.234E-12 0.295E-04 -.295E-04   0.730E-12 -.495E-04 0.495E-04   0.246E-24 -.439E-23 -.277E-22   -.619E-12 0.219E-06 -.219E-06
   0.281E-13 -.295E-04 -.956E-10   -.169E-12 0.495E-04 -.149E-11   0.513E-24 -.412E-23 0.237E-22   -.464E-12 -.219E-06 -.466E-12
   -.509E-12 0.788E-12 0.295E-04   0.326E-12 0.484E-13 -.495E-04   0.364E-23 0.698E-23 0.357E-23   0.296E-13 -.315E-12 0.219E-06
   0.295E-04 -.295E-04 0.295E-04   -.495E-04 0.495E-04 -.495E-04   0.117E-23 0.575E-23 0.236E-22   0.219E-06 -.219E-06 0.219E-06
   0.295E-04 -.870E-12 -.295E-04   -.495E-04 0.100E-11 0.495E-04   0.554E-23 0.749E-24 -.435E-22   0.219E-06 0.426E-12 -.219E-06
   0.295E-04 0.295E-04 0.196E-09   -.495E-04 -.495E-04 0.277E-11   -.412E-23 0.130E-23 0.459E-22   0.219E-06 0.219E-06 -.841E-12
   0.295E-04 -.295E-04 0.295E-04   -.495E-04 0.495E-04 -.495E-04   0.499E-23 0.582E-24 0.475E-23   0.219E-06 -.219E-06 0.219E-06
   0.295E-04 0.148E-11 -.295E-04   -.495E-04 0.110E-11 0.495E-04   0.574E-25 -.597E-23 0.395E-22   0.219E-06 -.204E-12 -.219E-06
   -.295E-04 0.295E-04 0.295E-04   0.495E-04 -.495E-04 -.495E-04   0.144E-23 0.439E-23 0.230E-22   -.219E-06 0.219E-06 0.219E-06
   -.295E-04 -.295E-04 -.295E-04   0.495E-04 0.495E-04 0.495E-04   -.107E-22 0.447E-24 -.257E-22   -.219E-06 -.219E-06 -.219E-06
   -.295E-04 0.621E-12 -.103E-09   0.495E-04 -.139E-11 -.130E-11   0.466E-23 -.315E-23 0.271E-22   -.219E-06 0.565E-13 -.104E-11
   -.295E-04 0.295E-04 0.295E-04   0.495E-04 -.495E-04 -.495E-04   0.985E-23 -.534E-24 -.105E-22   -.219E-06 0.219E-06 0.219E-06
   -.295E-04 -.295E-04 -.295E-04   0.495E-04 0.495E-04 0.495E-04   -.480E-23 -.104E-22 0.481E-22   -.219E-06 -.219E-06 -.219E-06
   -.295E-04 0.543E-11 -.962E-10   0.495E-04 -.119E-11 -.159E-11   0.332E-23 0.646E-23 -.633E-23   -.219E-06 -.437E-12 0.139E-12
   0.139E-11 0.295E-04 -.295E-04   0.114E-12 -.495E-04 0.495E-04   -.469E-24 -.361E-23 0.290E-22   0.258E-12 0.219E-06 -.219E-06
   0.164E-11 -.295E-04 -.833E-10   -.631E-12 0.495E-04 -.163E-11   0.911E-23 -.736E-23 -.148E-22   0.530E-12 -.219E-06 -.838E-12
   0.116E-11 -.482E-12 0.295E-04   -.103E-12 0.407E-12 -.495E-04   0.130E-23 -.712E-23 -.208E-23   0.691E-12 0.159E-12 0.219E-06
   0.145E-11 0.295E-04 -.295E-04   0.721E-12 -.495E-04 0.495E-04   -.618E-23 0.698E-24 -.218E-22   0.197E-12 0.219E-06 -.219E-06
   0.169E-11 -.295E-04 -.970E-10   -.637E-12 0.495E-04 -.168E-11   -.104E-22 0.810E-23 0.198E-22   -.204E-12 -.219E-06 0.394E-12
   -.295E-04 -.794E-11 0.295E-04   0.495E-04 -.114E-11 -.495E-04   0.147E-23 -.717E-23 -.209E-22   -.219E-06 -.195E-12 0.219E-06
   -.284E-12 -.295E-04 0.295E-04   0.317E-13 0.495E-04 -.495E-04   -.685E-23 -.115E-22 -.493E-23   0.119E-12 -.219E-06 0.219E-06
   0.398E-13 0.145E-11 -.295E-04   -.690E-12 -.720E-12 0.495E-04   0.514E-23 -.583E-23 0.690E-22   -.127E-12 -.383E-12 -.219E-06
   0.295E-04 0.295E-04 0.295E-04   -.495E-04 -.495E-04 -.495E-04   -.341E-23 -.170E-23 0.174E-23   0.219E-06 0.219E-06 0.219E-06
   0.295E-04 -.295E-04 -.295E-04   -.495E-04 0.495E-04 0.495E-04   0.302E-23 0.113E-23 0.347E-22   0.219E-06 -.219E-06 -.219E-06
   0.295E-04 0.179E-11 0.966E-10   -.495E-04 0.166E-11 0.104E-11   -.266E-23 0.285E-23 -.220E-22   0.219E-06 -.231E-12 -.231E-12
   -.295E-04 0.139E-12 0.295E-04   0.495E-04 -.870E-12 -.495E-04   -.620E-23 0.212E-24 0.368E-22   -.219E-06 0.518E-12 0.219E-06
   -.295E-04 0.295E-04 -.295E-04   0.495E-04 -.495E-04 0.495E-04   0.321E-23 -.109E-22 0.819E-23   -.219E-06 0.219E-06 -.219E-06
   -.295E-04 -.295E-04 -.192E-09   0.495E-04 0.495E-04 -.290E-11   0.679E-23 0.141E-23 0.586E-23   -.219E-06 -.219E-06 -.627E-12
   -.295E-04 0.456E-11 0.295E-04   0.495E-04 -.993E-12 -.495E-04   -.143E-24 -.790E-23 -.107E-22   -.219E-06 -.211E-13 0.219E-06
   0.140E-11 -.295E-04 0.295E-04   0.385E-12 0.495E-04 -.495E-04   -.902E-23 0.780E-23 -.134E-22   0.202E-12 -.219E-06 0.219E-06
   0.167E-11 0.106E-12 -.295E-04   -.202E-12 -.278E-12 0.495E-04   0.145E-22 0.104E-23 -.347E-22   0.652E-12 0.327E-12 -.219E-06
   0.112E-11 0.295E-04 0.945E-10   0.807E-12 -.495E-04 0.124E-11   0.116E-23 0.639E-23 0.591E-22   0.907E-12 0.219E-06 -.103E-11
   0.137E-11 -.295E-04 0.295E-04   -.441E-12 0.495E-04 -.495E-04   -.736E-24 -.136E-22 -.105E-22   0.389E-12 -.219E-06 0.219E-06
   0.157E-11 0.307E-11 -.295E-04   -.371E-12 -.350E-12 0.495E-04   -.866E-24 0.980E-23 0.445E-22   -.941E-13 -.300E-12 -.219E-06
   0.295E-04 -.254E-12 0.295E-04   -.495E-04 0.140E-11 -.495E-04   0.705E-23 -.106E-23 0.385E-22   0.219E-06 -.454E-12 0.219E-06
   -.295E-04 -.295E-04 0.295E-04   0.495E-04 0.495E-04 -.495E-04   0.303E-23 0.125E-23 0.460E-23   -.219E-06 -.219E-06 0.219E-06
   -.295E-04 -.270E-12 -.295E-04   0.495E-04 -.192E-11 0.495E-04   -.876E-25 0.394E-23 0.520E-22   -.219E-06 -.320E-12 -.219E-06
   0.103E-11 0.295E-04 0.295E-04   0.136E-13 -.495E-04 -.495E-04   0.107E-22 -.503E-23 0.455E-22   0.247E-13 0.219E-06 0.219E-06
   0.206E-11 -.295E-04 -.295E-04   -.219E-12 0.495E-04 0.495E-04   0.661E-24 0.581E-23 0.498E-22   0.244E-12 -.219E-06 -.219E-06
   0.147E-11 -.995E-11 -.617E-12   -.677E-12 -.188E-12 -.497E-12   0.369E-23 -.808E-24 -.443E-22   0.178E-12 -.159E-12 -.426E-12
   0.109E-11 0.224E-11 0.295E-04   0.126E-12 0.672E-12 -.495E-04   -.634E-23 0.388E-23 0.207E-23   -.184E-13 -.449E-12 0.219E-06
 -----------------------------------------------------------------------------------------------
   0.128E-09 0.165E-09 0.143E-09   0.542E-11 -.109E-11 -.789E-12   -.294E-22 -.125E-21 0.414E-21   -.101E-11 -.250E-12 -.418E-11
 
 
 POSITION                                       TOTAL-FORCE (eV/Angst)
 -----------------------------------------------------------------------------------
      7.34892      7.34892      3.67446         0.000000      0.000000     -0.000000
      7.34892      9.18614      5.51169         0.000000      0.000000      0.000000
      9.18615      7.34892      5.51169         0.000000      0.000000      0.000000
      7.34892      7.34892      0.00000        -0.000000     -0.000000     -0.000000
      7.34892      9.18614      1.83723         0.000000     -0.000000     -0.000000
      7.34892      0.00000      3.67446         0.000000      0.000000      0.000000
      7.34892      1.83723      5.51169        -0.000000     -0.000000     -0.000000
      9.18615      7.34892      1.83723         0.000000      0.000000     -0.000000
      9.18615      9.18614      3.67446         0.000000      0.000000      0.000000
      9.18614      0.00000      5.51169        -0.000000     -0.000000     -0.000000
      0.00000      7.34892      3.67446         0.000000      0.000000      0.000000
      0.00000      9.18614      5.51169        -0.000000     -0.000000     -0.000000
      1.83723      7.34892      5.51169        -0.000000     -0.000000     -0.000000
      7.34892      7.34892      7.34892         0.000000      0.000000      0.000000
      7.34892      9.18615      9.18614        -0.000000     -0.000000     -0.000000
      7.34892      0.00000      0.00000         0.000000     -0.000000     -0.000000
      7.34892      1.83723      1.83723         0.000000      0.000000      0.000000
      7.34892      3.67446      3.67446        -0.000000     -0.000000     -0.000000
      7.34892      5.51169      5.51169         0.000000      0.000000     -0.000000
      9.18615      7.34892      9.18614        -0.000000     -0.000000      0.000000
      9.18615      9.18614      0.00000         0.000000     -0.000000     -0.000000
      9.18614      0.00000      1.83723         0.000000      0.000000      0.000000
      9.18614      1.83723      3.67446        -0.000000     -0.000000     -0.000000
      9.18615      3.67446      5.51169         0.000000      0.000000     -0.000000
      0.00000      7.34892      0.00000         0.000000      0.000000      0.000000
      0.00000      9.18614      1.83723         0.000000      0.000000      0.000000
      0.00000      0.00000      3.67446        -0.000000     -0.000000      0.000000
      0.00000      1.83723      5.51169         0.000000      0.000000     -0.000000
      1.83723      7.34892      1.83723         0.000000      0.000000      0.000000
      1.83723      9.18614      3.67446        -0.000000     -0.000000     -0.000000
      1.83723      0.00000      5.51169         0.000000     -0.000000     -0.000000
      3.67446      7.34892      3.67446        -0.000000     -0.000000     -0.000000
      3.67446      9.18614      5.51169         0.000000     -0.000000     -0.000000
      5.51169      7.34892      5.51169         0.000000      0.000000     -0.000000
      7.34892      0.00000      7.34892        -0.000000     -0.000000     -0.000000
      7.34892      1.83723      9.18614         0.000000      0.000000     -0.000000
      7.34892      3.67446      0.00000         0.000000      0.000000      0.000000
      7.34892      5.51169      1.83723        -0.000000     -0.000000     -0.000000
      9.18615      9.18615      7.34892        -0.000000     -0.000000     -0.000000
      9.18615      0.00000      9.18614         0.000000     -0.000000     -0.000000
      9.18614      1.83723      0.00000         0.000000      0.000000      0.000000
      9.18614      3.67446      1.83723        -0.000000     -0.000000     -0.000000
      9.18615      5.51169      3.67446         0.000000      0.000000     -0.000000
      0.00000      7.34892      7.34892        -0.000000     -0.000000     -0.000000
      0.00000      9.18615      9.18614         0.000000      0.000000     -0.000000
      0.00000      0.00000      0.00000         0.000000      0.000000      0.000000
      0.00000      1.83723      1.83723        -0.000000     -0.000000     -0.000000
      0.00000      3.67446      3.67446         0.000000      0.000000     -0.000000
      0.00000      5.51169      5.51169         0.000000      0.000000      0.000000
      1.83723      7.34892      9.18614         0.000000      0.000000     -0.000000
      1.83723      9.18614      0.00000         0.000000      0.000000      0.000000
      1.83723      0.00000      1.83723        -0.000000     -0.000000     -0.000000
      1.83723      1.83723      3.67446         0.000000      0.000000     -0.000000
      1.83723      3.67446      5.51169         0.000000      0.000000      0.000000
      3.67446      7.34892      0.00000         0.000000      0.000000      0.000000
      3.67446      9.18614      1.83723        -0.000000     -0.000000     -0.000000
      3.67446      0.00000      3.67446         0.000000     -0.000000     -0.000000
      3.67446      1.83723      5.51169         0.000000      0.000000      0.000000
      5.51169      7.34892      1.83723        -0.000000     -0.000000     -0.000000
      5.51169      9.18614      3.67446         0.000000      0.000000     -0.000000
      5.51169      0.00000      5.51169         0.000000      0.000000      0.000000
      7.34892      3.67446      7.34892         0.000000      0.000000     -0.000000
      7.34892      5.51169      9.18614         0.000000      0.000000      0.000000
      9.18615      1.83723      7.34892         0.000000     -0.000000     -0.000000
      9.18615      3.67446      9.18614         0.000000      0.000000      0.000000
      9.18614      5.51169      0.00000        -0.000000     -0.000000     -0.000000
      0.00000      0.00000      7.34892         0.000000     -0.000000     -0.000000
      0.00000      1.83723      9.18614         0.000000      0.000000      0.000000
      0.00000      3.67446      0.00000        -0.000000     -0.000000     -0.000000
      0.00000      5.51169      1.83723         0.000000      0.000000      0.000000
      1.83723      9.18615      7.34892         0.000000      0.000000     -0.000000
      1.83723      0.00000      9.18614         0.000000      0.000000      0.000000
      1.83723      1.83723      0.00000        -0.000000     -0.000000     -0.000000
      1.83723      3.67446      1.83723         0.000000      0.000000     -0.000000
      1.83723      5.51169      3.67446         0.000000      0.000000      0.000000
      3.67446      7.34892      7.34892         0.000000      0.000000     -0.000000
      3.67446      9.18615      9.18614         0.000000      0.000000      0.000000
      3.67446      0.00000      0.00000        -0.000000     -0.000000     -0.000000
      3.67446      1.83723      1.83723         0.000000      0.000000      0.000000
      3.67446      3.67446      3.67446         0.000000      0.000000      0.000000
      3.67446      5.51169      5.51169        -0.000000     -0.000000     -0.000000
      5.51169      7.34892      9.18614         0.000000      0.000000      0.000000
      5.51169      9.18614      0.00000        -0.000000     -0.000000     -0.000000
      5.51169      0.00000      1.83723         0.000000     -0.000000     -0.000000
      5.51169      1.83723      3.67446         0.000000      0.000000      0.000000
      5.51169      3.67446      5.51169        -0.000000     -0.000000     -0.000000
      9.18615      5.51169      7.34892         0.000000      0.000000      0.000000
      0.00000      3.67446      7.34892         0.000000      0.000000      0.000000
      0.00000      5.51169      9.18614        -0.000000     -0.000000     -0.000000
      1.83723      1.83723      7.34892         0.000000      0.000000      0.000000
      1.83723      3.67446      9.18614        -0.000000     -0.000000     -0.000000
      1.83723      5.51169      0.00000         0.000000      0.000000     -0.000000
      3.67446      0.00000      7.34892         0.000000      0.000000      0.000000
      3.67446      1.83723      9.18614        -0.000000     -0.000000     -0.000000
      3.67446      3.67446      0.00000         0.000000      0.000000     -0.000000
      3.67446      5.51169      1.83723         0.000000      0.000000      0.000000
      5.51169      9.18615      7.34892         0.000000      0.000000      0.000000
      5.51169      0.00000      9.18614        -0.000000     -0.000000     -0.000000
      5.51169      1.83723      0.00000        -0.000000      0.000000     -0.000000
      5.51169      3.67446      1.83723         0.000000      0.000000      0.000000
      5.51169      5.51169      3.67446        -0.000000     -0.000000     -0.000000
      1.83723      5.51169      7.34892        -0.000000     -0.000000     -0.000000
      3.67446      3.67446      7.34892        -0.000000     -0.000000     -0.000000
      3.67446      5.51169      9.18614         0.000000      0.000000     -0.000000
      5.51169      1.83723      7.34892        -0.000000     -0.000000     -0.000000
      5.51169      3.67446      9.18614         0.000000      0.000000      0.000000
      5.51169      5.51169      0.00000         0.000000      0.000000      0.000000
      5.51169      5.51169      7.34892         0.000000      0.000000     -0.000000
 -----------------------------------------------------------------------------------
    total drift:                                0.000000      0.000000      0.000000


--------------------------------------------------------------------------------------------------------




--------------------------------------------------------------------------------------------------------


  
 reached required accuracy - stopping structural energy minimisation
 writing wavefunctions
     LOOP+:  VPU time  356.59: CPU time  357.80

 ----------------------------------------------------------------------------- 
|                                                                             |
|           W    W    AA    RRRRR   N    N  II  N    N   GGGG   !!!           |
|           W    W   A  A   R    R  NN   N  II  NN   N  G    G  !!!           |
|           W    W  A    A  R    R  N N  N  II  N N  N  G       !!!           |
|           W WW W  AAAAAA  RRRRR   N  N N  II  N  N N  G  GGG   !            |
|           WW  WW  A    A  R   R   N   NN  II  N   NN  G    G                |
|           W    W  A    A  R    R  N    N  II  N    N   GGGG   !!!           |
|                                                                             |
|      The partial DOS and the PROCAR file are not evaluated for NPAR/=1      |
|      please rerun with NPAR=1                                               |
|                                                                             |
 ----------------------------------------------------------------------------- 

  
  
 General timing and accounting informations for this job:
 ========================================================
  
                  Total CPU time used (sec):      361.379
                            User time (sec):      355.847
                          System time (sec):        5.532
                         Elapsed time (sec):      362.601
  
                   Maximum memory used (kb):      353604.
                   Average memory used (kb):           0.
  
                          Minor page faults:        70642
                          Major page faults:            0
                 Voluntary context switches:         4731
