   4   4   0   0
  0.1871557E+02  0.4214580E-09  0.4214580E-09  0.4214580E-09  0.5000000E-15
  1.000000000000000E-004
  CAR 
 unknown system                          
     16.20977926     -5.27725315  301      4.60483566      1.00000000
     -5.277  0.0000E+00  0.0000E+00
     -5.206  0.0000E+00  0.0000E+00
     -5.134  0.0000E+00  0.0000E+00
     -5.062  0.0000E+00  0.0000E+00
     -4.991  0.0000E+00  0.0000E+00
     -4.919  0.0000E+00  0.0000E+00
     -4.848  0.0000E+00  0.0000E+00
     -4.776  0.0000E+00  0.0000E+00
     -4.704  0.0000E+00  0.0000E+00
     -4.633  0.0000E+00  0.0000E+00
     -4.561  0.0000E+00  0.0000E+00
     -4.489  0.0000E+00  0.0000E+00
     -4.418  0.0000E+00  0.0000E+00
     -4.346  0.9292E-12  0.6655E-13
     -4.275  0.1616E-01  0.1157E-02
     -4.203  0.9690E-01  0.8098E-02
     -4.131  0.1936E+00  0.2197E-01
     -4.060  0.1288E+00  0.3122E-01
     -3.988  0.9585E-01  0.3811E-01
     -3.916  0.3833E+00  0.6565E-01
     -3.845  0.3850E+00  0.9355E-01
     -3.773  0.5974E-14  0.9375E-01
     -3.702  0.1931E+00  0.1076E+00
     -3.630  0.4824E+00  0.1422E+00
     -3.558  0.3856E+00  0.1700E+00
     -3.487  0.3877E+00  0.1979E+00
     -3.415  0.1293E+00  0.2072E+00
     -3.343  0.3879E+00  0.2350E+00
     -3.272  0.7756E+00  0.2905E+00
     -3.200  0.1802E-07  0.2905E+00
     -3.129  0.4635E+00  0.3237E+00
     -3.057  0.4365E+00  0.3565E+00
     -2.985  0.9176E+00  0.4222E+00
     -2.914  0.2673E+00  0.4416E+00
     -2.842  0.1281E+01  0.5333E+00
     -2.770  0.1629E-11  0.5336E+00
     -2.699  0.3876E+00  0.5613E+00
     -2.627  0.1866E+00  0.5747E+00
     -2.556  0.1258E+01  0.6648E+00
     -2.484  0.1429E+01  0.7671E+00
     -2.412  0.2145E-05  0.7720E+00
     -2.341  0.1271E+01  0.8630E+00
     -2.269  0.2805E+00  0.8831E+00
     -2.197  0.1319E+01  0.9775E+00
     -2.126  0.4612E+00  0.1013E+01
     -2.054  0.2034E+01  0.1159E+01
     -1.983  0.8291E+00  0.1218E+01
     -1.911  0.2039E+01  0.1365E+01
     -1.839  0.1938E+01  0.1504E+01
     -1.768  0.4708E+01  0.1841E+01
     -1.696  0.1576E+01  0.1954E+01
     -1.624  0.4541E+01  0.2281E+01
     -1.553  0.4250E+01  0.2586E+01
     -1.481  0.2567E+01  0.2770E+01
     -1.410  0.8578E+01  0.3385E+01
     -1.338  0.4880E+01  0.3736E+01
     -1.266  0.7641E+01  0.4283E+01
     -1.195  0.1031E+02  0.5022E+01
     -1.123  0.7032E+01  0.5526E+01
     -1.051  0.6850E+01  0.6017E+01
     -0.980  0.1283E+02  0.6936E+01
     -0.908  0.4992E+01  0.7298E+01
     -0.837  0.5938E+01  0.7724E+01
     -0.765  0.1063E+02  0.8486E+01
     -0.693  0.6506E+01  0.8959E+01
     -0.622  0.6032E+01  0.9391E+01
     -0.550  0.5848E+01  0.9820E+01
     -0.478  0.4589E+01  0.1015E+02
     -0.407  0.5429E+01  0.1054E+02
     -0.335  0.9394E+01  0.1121E+02
     -0.264  0.6254E+01  0.1167E+02
     -0.192  0.6905E+01  0.1216E+02
     -0.120  0.1099E+02  0.1295E+02
     -0.049  0.8804E+01  0.1359E+02
      0.023  0.9129E+01  0.1424E+02
      0.095  0.9974E+01  0.1496E+02
      0.166  0.9169E+01  0.1562E+02
      0.238  0.7934E+01  0.1619E+02
      0.309  0.9896E+01  0.1690E+02
      0.381  0.1180E+02  0.1775E+02
      0.453  0.1155E+02  0.1858E+02
      0.524  0.1345E+02  0.1955E+02
      0.596  0.1200E+02  0.2041E+02
      0.667  0.1856E+02  0.2174E+02
      0.739  0.1097E+02  0.2253E+02
      0.811  0.1152E+02  0.2336E+02
      0.882  0.8147E+01  0.2394E+02
      0.954  0.7066E+01  0.2445E+02
      1.026  0.8212E+01  0.2504E+02
      1.097  0.6386E+01  0.2550E+02
      1.169  0.9003E+01  0.2615E+02
      1.240  0.6049E+01  0.2659E+02
      1.312  0.9314E+01  0.2726E+02
      1.384  0.1091E+02  0.2804E+02
      1.455  0.8893E+01  0.2868E+02
      1.527  0.1109E+02  0.2948E+02
      1.599  0.1062E+02  0.3024E+02
      1.670  0.7159E+01  0.3076E+02
      1.742  0.8796E+01  0.3140E+02
      1.813  0.1128E+02  0.3221E+02
      1.885  0.7426E+01  0.3274E+02
      1.957  0.6668E+01  0.3323E+02
      2.028  0.7149E+01  0.3374E+02
      2.100  0.7725E+01  0.3430E+02
      2.172  0.9306E+01  0.3497E+02
      2.243  0.8228E+01  0.3556E+02
      2.315  0.5372E+01  0.3594E+02
      2.386  0.1021E+02  0.3668E+02
      2.458  0.1257E+02  0.3758E+02
      2.530  0.9967E+01  0.3830E+02
      2.601  0.1098E+02  0.3909E+02
      2.673  0.1889E+02  0.4045E+02
      2.745  0.8570E+01  0.4108E+02
      2.816  0.6883E+01  0.4157E+02
      2.888  0.5044E+01  0.4194E+02
      2.959  0.1267E+01  0.4203E+02
      3.031  0.3807E+00  0.4205E+02
      3.103  0.1075E+01  0.4213E+02
      3.174  0.1821E+01  0.4226E+02
      3.246  0.3366E+01  0.4250E+02
      3.318  0.9052E+00  0.4257E+02
      3.389  0.3746E+00  0.4260E+02
      3.461  0.3844E+00  0.4262E+02
      3.532  0.7749E+00  0.4268E+02
      3.604  0.1157E+01  0.4276E+02
      3.676  0.2370E+01  0.4293E+02
      3.747  0.1551E+01  0.4305E+02
      3.819  0.7329E+00  0.4310E+02
      3.891  0.1835E+01  0.4323E+02
      3.962  0.0000E+00  0.4323E+02
      4.034  0.3694E+00  0.4326E+02
      4.105  0.1475E+01  0.4337E+02
      4.177  0.1323E+01  0.4346E+02
      4.249  0.1364E+01  0.4357E+02
      4.320  0.1858E+01  0.4370E+02
      4.392  0.7621E+00  0.4376E+02
      4.464  0.1581E+01  0.4388E+02
      4.535  0.1116E+01  0.4396E+02
      4.607  0.7063E+00  0.4401E+02
      4.678  0.1245E+01  0.4409E+02
      4.750  0.7597E+00  0.4415E+02
      4.822  0.7958E+00  0.4421E+02
      4.893  0.1919E+01  0.4434E+02
      4.965  0.7757E+00  0.4440E+02
      5.037  0.1987E+01  0.4454E+02
      5.108  0.1863E+01  0.4468E+02
      5.180  0.6205E-01  0.4468E+02
      5.251  0.1877E+01  0.4482E+02
      5.323  0.4792E+00  0.4485E+02
      5.395  0.3754E+00  0.4488E+02
      5.466  0.1289E+01  0.4497E+02
      5.538  0.1215E+01  0.4506E+02
      5.610  0.7932E+00  0.4512E+02
      5.681  0.3083E+01  0.4534E+02
      5.753  0.3869E+00  0.4536E+02
      5.824  0.1447E+01  0.4547E+02
      5.896  0.1370E+01  0.4557E+02
      5.968  0.3316E+00  0.4559E+02
      6.039  0.2144E+01  0.4574E+02
      6.111  0.1680E+00  0.4576E+02
      6.182  0.5214E+00  0.4579E+02
      6.254  0.1997E+01  0.4594E+02
      6.326  0.7755E+00  0.4599E+02
      6.397  0.1160E+01  0.4608E+02
      6.469  0.3767E+00  0.4610E+02
      6.541  0.2142E+01  0.4626E+02
      6.612  0.1518E+01  0.4637E+02
      6.684  0.7757E+00  0.4642E+02
      6.755  0.3738E+00  0.4645E+02
      6.827  0.1038E+01  0.4653E+02
      6.899  0.1437E+01  0.4663E+02
      6.970  0.6191E+00  0.4667E+02
      7.042  0.1241E+01  0.4676E+02
      7.114  0.1462E+01  0.4687E+02
      7.185  0.1148E+01  0.4695E+02
      7.257  0.2005E+01  0.4709E+02
      7.328  0.2140E+01  0.4725E+02
      7.400  0.7437E+00  0.4730E+02
      7.472  0.1317E+01  0.4740E+02
      7.543  0.1280E+01  0.4749E+02
      7.615  0.3021E+01  0.4770E+02
      7.687  0.1515E+01  0.4781E+02
      7.758  0.4448E+00  0.4784E+02
      7.830  0.1881E+01  0.4798E+02
      7.901  0.2261E+01  0.4815E+02
      7.973  0.1052E+01  0.4823E+02
      8.045  0.8537E+00  0.4829E+02
      8.116  0.6958E+00  0.4834E+02
      8.188  0.8492E+00  0.4840E+02
      8.260  0.1305E+01  0.4849E+02
      8.331  0.4512E+00  0.4853E+02
      8.403  0.1744E+01  0.4865E+02
      8.474  0.1436E+01  0.4875E+02
      8.546  0.1326E+01  0.4885E+02
      8.618  0.1301E+01  0.4894E+02
      8.689  0.5816E+00  0.4898E+02
      8.761  0.6607E-01  0.4899E+02
      8.833  0.1492E+01  0.4910E+02
      8.904  0.1080E+01  0.4917E+02
      8.976  0.1593E+01  0.4929E+02
      9.047  0.1192E+01  0.4937E+02
      9.119  0.1197E+01  0.4946E+02
      9.191  0.1930E+01  0.4960E+02
      9.262  0.1730E+01  0.4972E+02
      9.334  0.1748E+01  0.4985E+02
      9.406  0.6875E+00  0.4990E+02
      9.477  0.3192E+01  0.5013E+02
      9.549  0.1897E+00  0.5014E+02
      9.620  0.2117E+00  0.5015E+02
      9.692  0.1119E+01  0.5023E+02
      9.764  0.1229E+01  0.5032E+02
      9.835  0.2715E+01  0.5052E+02
      9.907  0.1893E+01  0.5066E+02
      9.979  0.2546E+01  0.5084E+02
     10.050  0.5567E+00  0.5088E+02
     10.122  0.2220E+01  0.5104E+02
     10.193  0.2042E+01  0.5118E+02
     10.265  0.1144E+01  0.5127E+02
     10.337  0.7683E+00  0.5132E+02
     10.408  0.3879E+00  0.5135E+02
     10.480  0.1917E+01  0.5149E+02
     10.552  0.2404E+01  0.5166E+02
     10.623  0.1109E+00  0.5167E+02
     10.695  0.1053E+01  0.5175E+02
     10.766  0.3358E+00  0.5177E+02
     10.838  0.1762E+01  0.5190E+02
     10.910  0.2284E+00  0.5191E+02
     10.981  0.1085E+01  0.5199E+02
     11.053  0.1094E+01  0.5207E+02
     11.125  0.2267E+01  0.5224E+02
     11.196  0.1605E+01  0.5236E+02
     11.268  0.9541E+00  0.5243E+02
     11.339  0.1620E+01  0.5254E+02
     11.411  0.1481E+01  0.5265E+02
     11.483  0.1548E+01  0.5276E+02
     11.554  0.1236E+01  0.5285E+02
     11.626  0.1081E+01  0.5293E+02
     11.698  0.9691E+00  0.5300E+02
     11.769  0.1137E+01  0.5308E+02
     11.841  0.1921E+01  0.5322E+02
     11.912  0.1843E+01  0.5335E+02
     11.984  0.1241E+01  0.5344E+02
     12.056  0.1468E+01  0.5355E+02
     12.127  0.1485E+01  0.5365E+02
     12.199  0.2844E+00  0.5367E+02
     12.270  0.7050E+00  0.5372E+02
     12.342  0.2501E+01  0.5390E+02
     12.414  0.1724E+01  0.5403E+02
     12.485  0.2137E+01  0.5418E+02
     12.557  0.1222E+01  0.5427E+02
     12.629  0.1493E+01  0.5437E+02
     12.700  0.3783E+01  0.5465E+02
     12.772  0.1074E+01  0.5472E+02
     12.843  0.9470E+00  0.5479E+02
     12.915  0.7757E+00  0.5485E+02
     12.987  0.7766E+00  0.5490E+02
     13.058  0.3928E+00  0.5493E+02
     13.130  0.1694E+01  0.5505E+02
     13.202  0.1402E+01  0.5515E+02
     13.273  0.7758E+00  0.5521E+02
     13.345  0.6106E+00  0.5525E+02
     13.416  0.2267E+01  0.5541E+02
     13.488  0.6190E+00  0.5546E+02
     13.560  0.1308E+01  0.5555E+02
     13.631  0.3878E+00  0.5558E+02
     13.703  0.1170E+01  0.5567E+02
     13.775  0.5297E+00  0.5570E+02
     13.846  0.1072E+01  0.5578E+02
     13.918  0.2669E+00  0.5580E+02
     13.989  0.2530E+00  0.5582E+02
     14.061  0.7478E+00  0.5587E+02
     14.133  0.9734E-06  0.5587E+02
     14.204  0.3878E+00  0.5590E+02
     14.276  0.3876E+00  0.5593E+02
     14.348  0.7968E+00  0.5598E+02
     14.419  0.7542E-01  0.5599E+02
     14.491  0.1653E-02  0.5599E+02
     14.562  0.1451E-01  0.5599E+02
     14.634  0.0000E+00  0.5599E+02
     14.706  0.0000E+00  0.5599E+02
     14.777  0.0000E+00  0.5599E+02
     14.849  0.0000E+00  0.5599E+02
     14.921  0.0000E+00  0.5599E+02
     14.992  0.0000E+00  0.5599E+02
     15.064  0.0000E+00  0.5599E+02
     15.135  0.0000E+00  0.5599E+02
     15.207  0.1488E-04  0.5599E+02
     15.279  0.1293E+00  0.5600E+02
     15.350  0.0000E+00  0.5600E+02
     15.422  0.0000E+00  0.5600E+02
     15.494  0.0000E+00  0.5600E+02
     15.565  0.0000E+00  0.5600E+02
     15.637  0.0000E+00  0.5600E+02
     15.708  0.0000E+00  0.5600E+02
     15.780  0.0000E+00  0.5600E+02
     15.852  0.0000E+00  0.5600E+02
     15.923  0.0000E+00  0.5600E+02
     15.995  0.0000E+00  0.5600E+02
     16.067  0.0000E+00  0.5600E+02
     16.138  0.0000E+00  0.5600E+02
     16.210  0.0000E+00  0.5600E+02
