    4    4    1    1
  0.1871557E+02  0.4214580E-09  0.4214580E-09  0.4214580E-09  0.5000000E-15
  1.000000000000000E-004
  CAR 
 unknown system                          
   44   84   28
 
  0.0000000E+00  0.0000000E+00  0.0000000E+00  0.5787037E-03
   1       -4.3006
   2       -1.6841
   3       -1.6841
   4       -1.6841
   5       -1.4237
   6       -1.4237
   7       -1.4237
   8        0.3362
   9        0.3362
  10        0.3362
  11        1.6225
  12        1.6225
  13        2.6009
  14        2.6009
  15        2.6009
  16        2.9114
  17        2.9114
  18        2.9114
  19        2.9114
  20        2.9114
  21        2.9114
  22        5.8849
  23        5.8849
  24        5.8849
  25        9.7014
  26        9.7014
  27        9.7014
  28       14.4998
 
  0.8333333E-01  0.0000000E+00  0.0000000E+00  0.3472222E-02
   1       -4.2258
   2       -1.6600
   3       -1.6360
   4       -1.6360
   5       -1.3979
   6       -1.3845
   7       -1.3845
   8        0.3009
   9        0.3679
  10        0.3679
  11        1.5852
  12        1.6380
  13        2.5482
  14        2.5482
  15        2.5830
  16        2.6882
  17        2.6882
  18        2.8466
  19        2.8466
  20        2.9115
  21        2.9115
  22        5.2834
  23        6.1629
  24        6.1629
  25        9.6443
  26        9.6443
  27       10.4343
  28       14.3530
 
  0.1666667E+00  0.0000000E+00  0.0000000E+00  0.3472222E-02
   1       -4.0041
   2       -1.5961
   3       -1.4969
   4       -1.4969
   5       -1.3214
   6       -1.2670
   7       -1.2670
   8        0.1990
   9        0.4623
  10        0.4623
  11        1.4784
  12        1.6837
  13        2.1797
  14        2.1797
  15        2.3948
  16        2.3948
  17        2.5306
  18        2.6641
  19        2.6641
  20        2.9118
  21        2.9118
  22        4.1224
  23        6.8342
  24        6.8342
  25        9.4915
  26        9.4915
  27       11.9954
  28       13.9340
 
  0.2500000E+00  0.0000000E+00  0.0000000E+00  0.3472222E-02
   1       -3.6440
   2       -1.5219
   3       -1.2839
   4       -1.2839
   5       -1.1976
   6       -1.0717
   7       -1.0717
   8        0.0407
   9        0.6174
  10        0.6174
  11        1.3182
  12        1.5866
  13        1.5866
  14        1.7570
  15        2.1581
  16        2.1581
  17        2.3935
  18        2.3935
  19        2.4481
  20        2.9121
  21        2.9121
  22        2.9418
  23        7.6934
  24        7.6934
  25        9.2910
  26        9.2910
  27       13.2954
  28       13.2954
 
  0.3333333E+00  0.0000000E+00  0.0000000E+00  0.3472222E-02
   1       -3.1642
   2       -1.5031
   3       -1.0325
   4       -1.0325
   5       -1.0322
   6       -0.7996
   7       -0.7996
   8       -0.1588
   9        0.8296
  10        0.8296
  11        0.9990
  12        0.9990
  13        1.1353
  14        1.8537
  15        1.8784
  16        1.8784
  17        1.9371
  18        2.0710
  19        2.0710
  20        2.3422
  21        2.9125
  22        2.9125
  23        8.6416
  24        8.6416
  25        9.1011
  26        9.1011
  27       12.4968
  28       12.4968
 
  0.4166667E+00  0.0000000E+00  0.0000000E+00  0.3472222E-02
   1       -2.6050
   2       -1.6541
   3       -0.8335
   4       -0.8094
   5       -0.8094
   6       -0.4525
   7       -0.4525
   8       -0.3822
   9        0.4536
  10        0.4536
  11        0.9851
  12        1.0927
  13        1.0927
  14        1.2533
  15        1.6316
  16        1.6316
  17        1.7301
  18        1.7301
  19        1.9683
  20        2.2210
  21        2.9128
  22        2.9128
  23        8.9693
  24        8.9693
  25        9.6298
  26        9.6298
  27       11.5917
  28       11.5917
 
  0.5000000E+00  0.0000000E+00  0.0000000E+00  0.1736111E-02
   1       -2.0525
   2       -2.0525
   3       -0.7148
   4       -0.7148
   5       -0.6124
   6       -0.6124
   7       -0.0331
   8       -0.0331
   9       -0.0331
  10       -0.0331
  11        0.9704
  12        0.9704
  13        1.3974
  14        1.3974
  15        1.3974
  16        1.3974
  17        1.5277
  18        1.5277
  19        2.0934
  20        2.0934
  21        2.9129
  22        2.9129
  23        8.9226
  24        8.9226
  25       10.6240
  26       10.6240
  27       10.6240
  28       10.6240
 
  0.8333333E-01  0.8333333E-01  0.0000000E+00  0.6944444E-02
   1       -4.1519
   2       -1.6114
   3       -1.6114
   4       -1.5945
   5       -1.3591
   6       -1.3591
   7       -1.3407
   8        0.2865
   9        0.3797
  10        0.3968
  11        1.5753
  12        1.6295
  13        2.4903
  14        2.4903
  15        2.4985
  16        2.5356
  17        2.6516
  18        2.6516
  19        2.8466
  20        2.8466
  21        2.8685
  22        5.5566
  23        5.5566
  24        6.4137
  25        9.5789
  26       10.3827
  27       10.3827
  28       13.7891
 
  0.1666667E+00  0.8333333E-01  0.0000000E+00  0.1388889E-01
   1       -3.9325
   2       -1.5461
   3       -1.4739
   4       -1.4709
   5       -1.2841
   6       -1.2432
   7       -1.2108
   8        0.1972
   9        0.4642
  10        0.4823
  11        1.4832
  12        1.6714
  13        2.0447
  14        2.0942
  15        2.2939
  16        2.3532
  17        2.4298
  18        2.5682
  19        2.6636
  20        2.8461
  21        2.8463
  22        4.4352
  23        6.1764
  24        7.0417
  25        9.4001
  26       10.2535
  27       11.9080
  28       13.1776
 
  0.2500000E+00  0.8333333E-01  0.0000000E+00  0.1388889E-01
   1       -3.5762
   2       -1.4696
   3       -1.2845
   4       -1.2551
   5       -1.1628
   6       -1.0505
   7       -1.0024
   8        0.0455
   9        0.6170
  10        0.6176
  11        1.3369
  12        1.4637
  13        1.5398
  14        1.7535
  15        1.9461
  16        2.1279
  17        2.1921
  18        2.3924
  19        2.4477
  20        2.8412
  21        2.8458
  22        3.3763
  23        6.9009
  24        7.8692
  25        9.1550
  26       10.1215
  27       12.5874
  28       13.4303
 
  0.3333333E+00  0.8333333E-01  0.0000000E+00  0.1388889E-01
   1       -3.1016
   2       -1.4485
   3       -1.0443
   4       -1.0009
   5       -0.9995
   6       -0.7824
   7       -0.7350
   8       -0.1481
   9        0.7715
  10        0.8283
  11        0.8932
  12        0.9762
  13        1.2014
  14        1.4624
  15        1.8608
  16        1.8639
  17        1.9141
  18        2.0695
  19        2.2418
  20        2.6419
  21        2.8407
  22        2.8450
  23        7.5830
  24        8.7969
  25        8.8986
  26       10.1028
  27       12.0022
  28       12.6283
 
  0.4166667E+00  0.8333333E-01  0.0000000E+00  0.1388889E-01
   1       -2.5479
   2       -1.5996
   3       -0.8065
   4       -0.8020
   5       -0.7717
   6       -0.4409
   7       -0.4307
   8       -0.3657
   9        0.3734
  10        0.4465
  11        0.8184
  12        1.0113
  13        1.0910
  14        1.2504
  15        1.6282
  16        1.6617
  17        1.7283
  18        1.8747
  19        1.9968
  20        2.3254
  21        2.8415
  22        2.8440
  23        8.1012
  24        8.6626
  25        9.7722
  26       10.3214
  27       11.3948
  28       11.7230
 
  0.5000000E+00  0.8333333E-01  0.0000000E+00  0.6944444E-02
   1       -1.9987
   2       -1.9987
   3       -0.6810
   4       -0.6810
   5       -0.5904
   6       -0.5904
   7       -0.0718
   8       -0.0718
   9       -0.0293
  10       -0.0293
  11        0.8139
  12        0.8139
  13        1.3956
  14        1.3956
  15        1.5159
  16        1.5159
  17        1.5422
  18        1.5422
  19        2.1479
  20        2.1479
  21        2.8427
  22        2.8427
  23        8.4270
  24        8.4270
  25       10.7587
  26       10.7587
  27       10.7952
  28       10.7952
 
  0.1666667E+00  0.1666667E+00  0.0000000E+00  0.6944444E-02
   1       -3.7201
   2       -1.4010
   3       -1.4010
   4       -1.3957
   5       -1.1727
   6       -1.1727
   7       -1.0568
   8        0.1568
   9        0.5077
  10        0.5403
  11        1.4513
  12        1.6862
  13        1.7533
  14        1.7533
  15        1.8169
  16        2.2304
  17        2.4262
  18        2.4262
  19        2.6620
  20        2.6620
  21        2.7424
  22        5.0558
  23        5.0558
  24        7.5901
  25        9.1419
  26       11.6732
  27       11.6732
  28       12.4702
 
  0.2500000E+00  0.1666667E+00  0.0000000E+00  0.1388889E-01
   1       -3.3756
   2       -1.3170
   3       -1.2524
   4       -1.1768
   5       -1.0590
   6       -0.9881
   7       -0.8335
   8        0.0431
   9        0.6241
  10        0.6343
  11        1.1786
  12        1.3495
  13        1.3699
  14        1.3875
  15        1.7832
  16        2.0361
  17        2.2159
  18        2.3367
  19        2.3894
  20        2.6594
  21        2.6846
  22        4.0220
  23        5.7328
  24        8.3507
  25        8.7677
  26       11.3751
  27       11.9259
  28       13.1505
 
  0.3333333E+00  0.1666667E+00  0.0000000E+00  0.1388889E-01
   1       -2.9172
   2       -1.2890
   3       -1.0442
   4       -0.9077
   5       -0.9075
   6       -0.7320
   7       -0.5803
   8       -0.1242
   9        0.6409
  10        0.6862
  11        0.8338
  12        0.9017
  13        0.9556
  14        1.2709
  15        1.8030
  16        1.9369
  17        1.9574
  18        2.0655
  19        2.1515
  20        2.6564
  21        2.6608
  22        3.2269
  23        6.3819
  24        8.3451
  25        9.2314
  26       11.1243
  27       11.5197
  28       13.0066
 
  0.4166667E+00  0.1666667E+00  0.0000000E+00  0.1388889E-01
   1       -2.3812
   2       -1.4417
   3       -0.7888
   4       -0.7267
   5       -0.6624
   6       -0.4075
   7       -0.3556
   8       -0.3204
   9        0.1735
  10        0.4221
  11        0.6473
  12        0.6526
  13        1.0908
  14        1.3475
  15        1.6071
  16        1.7066
  17        1.7242
  18        1.8764
  19        2.1324
  20        2.6526
  21        2.6533
  22        2.7055
  23        6.9624
  24        7.9139
  25       10.1756
  26       11.0036
  27       11.2239
  28       12.0995
 
  0.5000000E+00  0.1666667E+00  0.0000000E+00  0.6944444E-02
   1       -1.8435
   2       -1.8435
   3       -0.5895
   4       -0.5895
   5       -0.5265
   6       -0.5265
   7       -0.1639
   8       -0.1639
   9       -0.0198
  10       -0.0198
  11        0.5782
  12        0.5782
  13        1.3927
  14        1.3927
  15        1.5611
  16        1.5611
  17        1.5778
  18        1.5778
  19        2.3746
  20        2.3746
  21        2.6514
  22        2.6514
  23        7.4649
  24        7.4649
  25       11.0424
  26       11.0424
  27       11.1434
  28       11.1434
 
  0.2500000E+00  0.2500000E+00  0.0000000E+00  0.6944444E-02
   1       -3.0513
   2       -1.1604
   3       -1.0790
   4       -1.0790
   5       -0.8877
   6       -0.8877
   7       -0.6106
   8       -0.0035
   9        0.6395
  10        0.7120
  11        0.8267
  12        0.8267
  13        1.1186
  14        1.2950
  15        1.8846
  16        1.9131
  17        2.1558
  18        2.1558
  19        2.3851
  20        2.3851
  21        2.5401
  22        4.6763
  23        4.6763
  24        8.2147
  25        9.0462
  26       11.5150
  27       12.5268
  28       12.5268
 
  0.3333333E+00  0.2500000E+00  0.0000000E+00  0.1388889E-01
   1       -2.6213
   2       -1.0393
   3       -1.0020
   4       -0.7852
   5       -0.7551
   6       -0.6518
   7       -0.3800
   8       -0.1102
   9        0.3384
  10        0.4978
  11        0.6297
  12        0.7620
  13        0.8732
  14        1.2373
  15        1.6965
  16        1.9263
  17        1.9929
  18        2.0610
  19        2.1309
  20        2.3810
  21        2.4500
  22        3.8252
  23        5.3075
  24        7.6136
  25        9.8762
  26       11.2960
  27       11.9656
  28       13.5378
 
  0.4166667E+00  0.2500000E+00  0.0000000E+00  0.1388889E-01
   1       -2.1188
   2       -1.2010
   3       -0.7775
   4       -0.5984
   5       -0.4980
   6       -0.3565
   7       -0.2595
   8       -0.2210
   9       -0.0773
  10        0.3354
  11        0.3713
  12        0.5331
  13        1.1078
  14        1.2974
  15        1.5431
  16        1.6919
  17        1.7223
  18        1.7488
  19        2.3797
  20        2.4044
  21        2.4093
  22        3.2000
  23        5.9034
  24        7.0309
  25       10.7848
  26       11.2271
  27       11.5503
  28       12.6782
 
  0.5000000E+00  0.2500000E+00  0.0000000E+00  0.6944444E-02
   1       -1.6063
   2       -1.6063
   3       -0.5023
   4       -0.5023
   5       -0.4284
   6       -0.4284
   7       -0.2234
   8       -0.2234
   9       -0.0104
  10       -0.0104
  11        0.3903
  12        0.3903
  13        1.3972
  14        1.3972
  15        1.4899
  16        1.4899
  17        1.5341
  18        1.5341
  19        2.3851
  20        2.3851
  21        2.7519
  22        2.7519
  23        6.4699
  24        6.4699
  25       11.3064
  26       11.3064
  27       11.7307
  28       11.7307
 
  0.3333333E+00  0.3333333E+00  0.0000000E+00  0.6944444E-02
   1       -2.2337
   2       -0.9082
   3       -0.7298
   4       -0.7298
   5       -0.5481
   6       -0.5481
   7       -0.1780
   8       -0.1338
   9        0.1014
  10        0.1014
  11        0.5501
  12        0.5833
  13        0.9793
  14        1.1605
  15        1.5495
  16        1.7893
  17        1.7893
  18        2.0600
  19        2.0600
  20        2.2745
  21        2.4209
  22        4.4163
  23        4.4163
  24        6.8725
  25       10.6635
  26       11.2578
  27       12.7319
  28       12.7319
 
  0.4166667E+00  0.3333333E+00  0.0000000E+00  0.1388889E-01
   1       -1.7860
   2       -0.9257
   3       -0.7588
   4       -0.4461
   5       -0.4299
   6       -0.2954
   7       -0.2046
   8       -0.1940
   9       -0.0539
  10        0.1048
  11        0.2814
  12        0.4729
  13        1.1663
  14        1.1743
  15        1.4228
  16        1.5671
  17        1.5769
  18        1.7306
  19        2.0685
  20        2.1594
  21        2.7745
  22        3.7239
  23        4.9967
  24        6.1947
  25       11.3728
  26       11.5405
  27       12.0978
  28       13.4077
 
  0.5000000E+00  0.3333333E+00  0.0000000E+00  0.6944444E-02
   1       -1.3252
   2       -1.3252
   3       -0.5570
   4       -0.5570
   5       -0.3099
   6       -0.3099
   7       -0.1077
   8       -0.1077
   9       -0.0112
  10       -0.0112
  11        0.2828
  12        0.2828
  13        1.3315
  14        1.3315
  15        1.4240
  16        1.4240
  17        1.4257
  18        1.4257
  19        2.0967
  20        2.0967
  21        3.1959
  22        3.1959
  23        5.5798
  24        5.5798
  25       11.6473
  26       11.6473
  27       12.4666
  28       12.4666
 
  0.4166667E+00  0.4166667E+00  0.0000000E+00  0.6944444E-02
   1       -1.4188
   2       -0.7230
   3       -0.7225
   4       -0.7225
   5       -0.2353
   6       -0.2353
   7       -0.1785
   8        0.0220
   9        0.0220
  10        0.0779
  11        0.1438
  12        0.4102
  13        1.0958
  14        1.2879
  15        1.2916
  16        1.3777
  17        1.3777
  18        1.7617
  19        1.7617
  20        1.9631
  21        3.1956
  22        4.2638
  23        4.2638
  24        5.4648
  25       11.6600
  26       12.3931
  27       12.7194
  28       12.7194
 
  0.5000000E+00  0.4166667E+00  0.0000000E+00  0.6944444E-02
   1       -1.0560
   2       -1.0560
   3       -0.6844
   4       -0.6844
   5       -0.1912
   6       -0.1912
   7       -0.0355
   8       -0.0355
   9        0.0823
  10        0.0823
  11        0.2535
  12        0.2535
  13        1.1768
  14        1.1768
  15        1.2562
  16        1.2562
  17        1.4939
  18        1.4939
  19        1.8330
  20        1.8330
  21        3.6796
  22        3.6796
  23        4.8332
  24        4.8332
  25       12.1041
  26       12.1041
  27       13.3031
  28       13.3033
 
  0.5000000E+00  0.5000000E+00  0.0000000E+00  0.1736111E-02
   1       -0.8434
   2       -0.8434
   3       -0.8434
   4       -0.8434
   5       -0.0951
   6       -0.0951
   7       -0.0951
   8       -0.0951
   9        0.2196
  10        0.2196
  11        0.2196
  12        0.2196
  13        1.1338
  14        1.1338
  15        1.1338
  16        1.1338
  17        1.6275
  18        1.6275
  19        1.6275
  20        1.6275
  21        4.2136
  22        4.2136
  23        4.2136
  24        4.2136
  25       12.6990
  26       12.6990
  27       12.6990
  28       12.6990
 
  0.8333333E-01  0.8333333E-01  0.8333333E-01  0.4629630E-02
   1       -4.0788
   2       -1.5700
   3       -1.5700
   4       -1.5700
   5       -1.3154
   6       -1.3154
   7       -1.3154
   8        0.2747
   9        0.4065
  10        0.4065
  11        1.5950
  12        1.5950
  13        2.4480
  14        2.4480
  15        2.4480
  16        2.4539
  17        2.4539
  18        2.4539
  19        2.8366
  20        2.8366
  21        2.8366
  22        5.7945
  23        5.7945
  24        5.7945
  25       10.3175
  26       10.3175
  27       10.3175
  28       13.9547
 
  0.1666667E+00  0.8333333E-01  0.8333333E-01  0.1388889E-01
   1       -3.8620
   2       -1.5047
   3       -1.4495
   4       -1.4495
   5       -1.2407
   6       -1.1858
   7       -1.1858
   8        0.1971
   9        0.4789
  10        0.4865
  11        1.4979
  12        1.6528
  13        1.9800
  14        1.9800
  15        2.1920
  16        2.3211
  17        2.3341
  18        2.3341
  19        2.7510
  20        2.8163
  21        2.8163
  22        4.6797
  23        6.3613
  24        6.3613
  25       10.1452
  26       10.1452
  27       11.7825
  28       13.3860
 
  0.2500000E+00  0.8333333E-01  0.8333333E-01  0.1388889E-01
   1       -3.5104
   2       -1.4280
   3       -1.2604
   4       -1.2604
   5       -1.1201
   6       -0.9779
   7       -0.9779
   8        0.0535
   9        0.6118
  10        0.6182
  11        1.3638
  12        1.4270
  13        1.4270
  14        1.7454
  15        1.7863
  16        2.1109
  17        2.1324
  18        2.1324
  19        2.6302
  20        2.7997
  21        2.7997
  22        3.6243
  23        7.0446
  24        7.0446
  25        9.9356
  26        9.9356
  27       12.8711
  28       12.8711
 
  0.3333333E+00  0.8333333E-01  0.8333333E-01  0.1388889E-01
   1       -3.0422
   2       -1.4060
   3       -1.0190
   4       -1.0190
   5       -0.9605
   6       -0.7136
   7       -0.7136
   8       -0.1328
   9        0.7445
  10        0.7987
  11        0.8797
  12        0.8797
  13        1.2706
  14        1.2924
  15        1.8485
  16        1.8673
  17        1.8785
  18        1.8785
  19        2.4871
  20        2.7859
  21        2.7902
  22        2.7902
  23        7.6842
  24        7.6842
  25        9.7953
  26        9.7953
  27       12.4002
  28       12.4002
 
  0.4166667E+00  0.8333333E-01  0.8333333E-01  0.1388889E-01
   1       -2.4959
   2       -1.5561
   3       -0.7707
   4       -0.7700
   5       -0.7700
   6       -0.4254
   7       -0.4254
   8       -0.3433
   9        0.3839
  10        0.3839
  11        0.7529
  12        0.8844
  13        1.0228
  14        1.3871
  15        1.5637
  16        1.6449
  17        1.6449
  18        2.0113
  19        2.1691
  20        2.3305
  21        2.7856
  22        2.7856
  23        8.1180
  24        8.1180
  25        9.8142
  26        9.8142
  27       11.9875
  28       11.9875
 
  0.5000000E+00  0.8333333E-01  0.8333333E-01  0.6944444E-02
   1       -1.9529
   2       -1.9529
   3       -0.6474
   4       -0.6474
   5       -0.5609
   6       -0.5609
   7       -0.1845
   8       -0.1845
   9        0.0548
  10        0.0548
  11        0.7272
  12        0.7272
  13        1.2822
  14        1.2822
  15        1.5440
  16        1.5440
  17        1.7108
  18        1.7108
  19        2.1688
  20        2.1688
  21        2.7842
  22        2.7842
  23        8.2573
  24        8.2573
  25        9.8839
  26        9.8839
  27       11.7949
  28       11.7949
 
  0.1666667E+00  0.1666667E+00  0.8333333E-01  0.1388889E-01
   1       -3.6535
   2       -1.3850
   3       -1.3850
   4       -1.3751
   5       -1.1114
   6       -1.1114
   7       -1.0297
   8        0.1644
   9        0.5170
  10        0.5370
  11        1.4862
  12        1.6585
  13        1.6992
  14        1.6992
  15        1.7250
  16        2.1555
  17        2.2224
  18        2.2224
  19        2.7413
  20        2.7413
  21        2.7564
  22        5.2270
  23        5.2270
  24        6.8295
  25        9.8437
  26       11.4368
  27       11.4368
  28       12.7968
 
  0.2500000E+00  0.1666667E+00  0.8333333E-01  0.2777778E-01
   1       -3.3158
   2       -1.3090
   3       -1.2360
   4       -1.1974
   5       -0.9918
   6       -0.9041
   7       -0.8058
   8        0.0620
   9        0.6155
  10        0.6248
  11        1.1555
  12        1.2995
  13        1.3143
  14        1.3985
  15        1.7637
  16        1.9782
  17        2.0093
  18        2.0792
  19        2.6296
  20        2.6965
  21        2.6979
  22        4.1653
  23        5.8642
  24        7.4120
  25        9.4452
  26       10.9723
  27       12.4344
  28       12.6758
 
  0.3333333E+00  0.1666667E+00  0.8333333E-01  0.2777778E-01
   1       -2.8673
   2       -1.2861
   3       -1.0319
   4       -0.9553
   5       -0.8375
   6       -0.6460
   7       -0.5574
   8       -0.0943
   9        0.6475
  10        0.6734
  11        0.7822
  12        0.8322
  13        0.9015
  14        1.3616
  15        1.7430
  16        1.7736
  17        1.8723
  18        1.9232
  19        2.4644
  20        2.6564
  21        2.6587
  22        3.3003
  23        6.4926
  24        7.8830
  25        9.1565
  26       10.5046
  27       12.2747
  28       13.3574
 
  0.4166667E+00  0.1666667E+00  0.8333333E-01  0.2777778E-01
   1       -2.3448
   2       -1.4343
   3       -0.7762
   4       -0.6875
   5       -0.6619
   6       -0.4084
   7       -0.3642
   8       -0.2791
   9        0.2376
  10        0.4071
  11        0.6097
  12        0.6253
  13        0.9765
  14        1.4665
  15        1.5145
  16        1.5870
  17        1.6541
  18        2.1174
  19        2.2029
  20        2.6347
  21        2.6369
  22        2.6959
  23        7.0611
  24        7.8924
  25        9.2901
  26       10.0823
  27       12.3103
  28       12.9427
 
  0.5000000E+00  0.1666667E+00  0.8333333E-01  0.1388889E-01
   1       -1.8228
   2       -1.8228
   3       -0.5572
   4       -0.5572
   5       -0.4730
   6       -0.4730
   7       -0.3311
   8       -0.3311
   9        0.1336
  10        0.1336
  11        0.5477
  12        0.5477
  13        1.2063
  14        1.2063
  15        1.5296
  16        1.5296
  17        1.8362
  18        1.8362
  19        2.3509
  20        2.3509
  21        2.6291
  22        2.6291
  23        7.5426
  24        7.5426
  25        9.6799
  26        9.6799
  27       12.5500
  28       12.5500
 
  0.2500000E+00  0.2500000E+00  0.8333333E-01  0.1388889E-01
   1       -3.0023
   2       -1.1528
   3       -1.1259
   4       -1.1259
   5       -0.7833
   6       -0.7833
   7       -0.5838
   8        0.0321
   9        0.6306
  10        0.6775
  11        0.8146
  12        0.8146
  13        1.0565
  14        1.3694
  15        1.7947
  16        1.8898
  17        1.9125
  18        1.9125
  19        2.5587
  20        2.5587
  21        2.5893
  22        4.7797
  23        4.7797
  24        7.7987
  25        8.9198
  26       11.8936
  27       11.8936
  28       12.2891
 
  0.3333333E+00  0.2500000E+00  0.8333333E-01  0.2777778E-01
   1       -2.5888
   2       -1.1093
   3       -1.0054
   4       -0.8934
   5       -0.6313
   6       -0.5239
   7       -0.3646
   8       -0.0558
   9        0.3704
  10        0.4942
  11        0.6215
  12        0.7350
  13        0.7901
  14        1.3597
  15        1.6178
  16        1.6654
  17        1.7665
  18        2.1075
  19        2.3706
  20        2.4838
  21        2.4986
  22        3.8783
  23        5.3952
  24        7.6669
  25        8.9581
  26       11.1675
  27       12.3682
  28       12.7760
 
  0.4166667E+00  0.2500000E+00  0.8333333E-01  0.2777778E-01
   1       -2.1103
   2       -1.2605
   3       -0.7966
   4       -0.6314
   5       -0.4772
   6       -0.3463
   7       -0.2511
   8       -0.1847
   9        0.0930
  10        0.3319
  11        0.4272
  12        0.5253
  13        0.9472
  14        1.3974
  15        1.4767
  16        1.5029
  17        1.5884
  18        2.1050
  19        2.3836
  20        2.4353
  21        2.4409
  22        3.2006
  23        5.9893
  24        7.1337
  25        9.4387
  26       10.5349
  27       12.6521
  28       13.6731
 
  0.5000000E+00  0.2500000E+00  0.8333333E-01  0.1388889E-01
   1       -1.6302
   2       -1.6302
   3       -0.5497
   4       -0.5497
   5       -0.3540
   6       -0.3540
   7       -0.3297
   8       -0.3297
   9        0.1996
  10        0.1996
  11        0.3837
  12        0.3837
  13        1.1508
  14        1.1508
  15        1.4592
  16        1.4592
  17        1.7853
  18        1.7853
  19        2.4205
  20        2.4205
  21        2.7282
  22        2.7282
  23        6.5641
  24        6.5641
  25        9.9730
  26        9.9730
  27       13.1265
  28       13.1265
 
  0.3333333E+00  0.3333333E+00  0.8333333E-01  0.1388889E-01
   1       -2.2281
   2       -0.9325
   3       -0.9045
   4       -0.9045
   5       -0.3590
   6       -0.3590
   7       -0.1889
   8       -0.0488
   9        0.1456
  10        0.1456
  11        0.5809
  12        0.5884
  13        0.8303
  14        1.3430
  15        1.4511
  16        1.5614
  17        1.5614
  18        2.2705
  19        2.2705
  20        2.3521
  21        2.3947
  22        4.4624
  23        4.4624
  24        6.9791
  25        9.3511
  26       11.8872
  27       11.8872
  28       12.6451
 
  0.4166667E+00  0.3333333E+00  0.8333333E-01  0.2777778E-01
   1       -1.8188
   2       -1.0769
   3       -0.8177
   4       -0.7234
   5       -0.2235
   6       -0.1811
   7       -0.1251
   8       -0.0856
   9        0.0249
  10        0.1176
  11        0.4356
  12        0.4755
  13        0.9206
  14        1.3151
  15        1.3246
  16        1.4270
  17        1.4537
  18        2.0013
  19        2.2027
  20        2.2425
  21        2.7478
  22        3.7282
  23        5.0457
  24        6.2794
  25        9.8807
  26       11.1214
  27       12.6801
  28       13.1017
 
  0.5000000E+00  0.3333333E+00  0.8333333E-01  0.1388889E-01
   1       -1.4107
   2       -1.4107
   3       -0.6993
   4       -0.6993
   5       -0.1937
   6       -0.1937
   7       -0.1488
   8       -0.1488
   9        0.2618
  10        0.2618
  11        0.2872
  12        0.2872
  13        1.0875
  14        1.0875
  15        1.3162
  16        1.3162
  17        1.7023
  18        1.7023
  19        2.1908
  20        2.1908
  21        3.1760
  22        3.1760
  23        5.6418
  24        5.6418
  25       10.4638
  26       10.4638
  27       13.5401
  28       13.5401
 
  0.4166667E+00  0.4166667E+00  0.8333333E-01  0.1388889E-01
   1       -1.5047
   2       -0.9320
   3       -0.9320
   4       -0.8321
   5       -0.0527
   6       -0.0296
   7       -0.0296
   8       -0.0191
   9        0.0938
  10        0.0938
  11        0.4270
  12        0.4318
  13        0.9143
  14        1.1795
  15        1.2120
  16        1.2120
  17        1.4977
  18        1.9396
  19        1.9396
  20        2.0687
  21        3.1714
  22        4.2750
  23        4.2750
  24        5.5165
  25       10.4328
  26       11.8152
  27       11.8152
  28       13.4859
 
  0.5000000E+00  0.4166667E+00  0.8333333E-01  0.1388889E-01
   1       -1.2012
   2       -1.2012
   3       -0.8568
   4       -0.8568
   5       -0.0467
   6       -0.0467
   7       -0.0031
   8       -0.0031
   9        0.2954
  10        0.2954
  11        0.3266
  12        0.3266
  13        1.0145
  14        1.0145
  15        1.1351
  16        1.1351
  17        1.6790
  18        1.6790
  19        1.9589
  20        1.9589
  21        3.6660
  22        3.6660
  23        4.8593
  24        4.8593
  25       11.0723
  26       11.0723
  27       12.6044
  28       12.6044
 
  0.5000000E+00  0.5000000E+00  0.8333333E-01  0.3472222E-02
   1       -1.0190
   2       -1.0190
   3       -1.0190
   4       -1.0190
   5        0.0235
   6        0.0235
   7        0.0235
   8        0.0235
   9        0.3568
  10        0.3568
  11        0.3568
  12        0.3568
  13        1.0049
  14        1.0049
  15        1.0049
  16        1.0049
  17        1.7688
  18        1.7688
  19        1.7688
  20        1.7688
  21        4.2139
  22        4.2139
  23        4.2139
  24        4.2139
  25       11.7842
  26       11.7842
  27       11.7842
  28       11.7842
 
  0.1666667E+00  0.1666667E+00  0.1666667E+00  0.4629630E-02
   1       -3.4569
   2       -1.3219
   3       -1.3219
   4       -1.3219
   5       -0.9487
   6       -0.9487
   7       -0.9487
   8        0.1629
   9        0.5485
  10        0.5485
  11        1.4690
  12        1.4690
  13        1.4690
  14        1.5853
  15        1.5853
  16        1.9728
  17        1.9728
  18        1.9728
  19        2.7635
  20        2.7635
  21        2.7635
  22        5.6594
  23        5.6594
  24        5.6594
  25       10.8396
  26       10.8396
  27       10.8396
  28       13.7547
 
  0.2500000E+00  0.1666667E+00  0.1666667E+00  0.1388889E-01