 vasp.4.6.28 25Jul05 complex 
 executed on             LinuxIFC date 2017.01.06  05:34:30
 running on    4 nodes
 distr:  one band on    1 nodes,    4 groups


--------------------------------------------------------------------------------------------------------


 INCAR:
 POTCAR:   PAW_PBE Au 06Sep2000                   
 POTCAR:   PAW_PBE Au 06Sep2000                   
   VRHFIN =Au: s1d10                                                            
   LEXCH  = PE                                                                  
   EATOM  =   926.0567 eV,   68.0632 Ry                                         
                                                                                
   TITEL  = PAW_PBE Au 06Sep2000                                                
   LULTRA =        F    use ultrasoft PP ?                                      
   IUNSCR =        1    unscreen: 0-lin 1-nonlin 2-no                           
   RPACOR =    2.330    partial core radius                                     
   POMASS =  196.966; ZVAL   =   11.000    mass and valenz                      
   RCORE  =    2.500    outmost cutoff radius                                   
   RWIGS  =    2.840; RWIGS  =    1.503    wigner-seitz radius (au A)           
   ENMAX  =  229.948; ENMIN  =  172.461 eV                                      
   RCLOC  =    1.964    cutoff for local pot                                    
   LCOR   =        T    correct aug charges                                     
   LPAW   =        T    paw PP                                                  
   EAUG   =  356.670                                                            
   DEXC   =    -.025                                                            
   RMAX   =    3.041    core radius for proj-oper                               
   RAUG   =    1.300    factor for augmentation sphere                          
   RDEP   =    2.598    radius for radial grids                                 
   QCUT   =   -4.111; QGAM   =    8.222    optimization parameters              
                                                                                
   Description                                                                  
     l     E      TYP  RCUT    TYP  RCUT                                        
     2   .000     23  2.500                                                     
     2   .000     23  2.500                                                     
     0   .000     23  2.500                                                     
     0   .000     23  2.500                                                     
     1  -.200     23  2.500                                                     
     1   .000     23  2.500                                                     
     3   .000      7   .000                                                     
  local pseudopotential read in
  partial core-charges read in
  atomic valenz-charges read in
  non local Contribution for L=           2  read in
    real space projection operators read in
  non local Contribution for L=           2  read in
    real space projection operators read in
  non local Contribution for L=           0  read in
    real space projection operators read in
  non local Contribution for L=           0  read in
    real space projection operators read in
  non local Contribution for L=           1  read in
    real space projection operators read in
  non local Contribution for L=           1  read in
    real space projection operators read in
    PAW grid and wavefunctions read in
 
   number of l-projection  operators is LMAX  =           6
   number of lm-projection operators is LMMAX =          18
 
 PAW_PBE Au 06Sep2000                   :
 energy of atom  1       EATOM= -926.0567
 kinetic energy error for atom=    0.0008 (will be added to EATOM!!)
 
 EXHCAR: internal setup
 exchange correlation table for  LEXCH =        8
   RHO(1)=    0.500       N(1)  =     2000
   RHO(2)=  100.500       N(2)  =     4000
 
 POSCAR: Au                                      
  positions in direct lattice
  velocities in cartesian coordinates
 


--------------------------------------------------------------------------------------------------------


 ion  position               nearest neighbor table
   1  0.000  0.000  0.000-   2 2.98   3 2.98   4 2.98   3 2.98   4 2.98   2 2.98   4 2.98   4 2.98
                             2 2.98   3 2.98   3 2.98   2 2.98
   2  0.500  0.500  0.000-   1 2.98   3 2.98   4 2.98   3 2.98   4 2.98   1 2.98   3 2.98   3 2.98
                             1 2.98   4 2.98   4 2.98   1 2.98
   3  0.500  0.000  0.500-   1 2.98   2 2.98   4 2.98   1 2.98   2 2.98   2 2.98   4 2.98   2 2.98
                             1 2.98   4 2.98   1 2.98   4 2.98
   4  0.000  0.500  0.500-   1 2.98   2 2.98   3 2.98   1 2.98   2 2.98   1 2.98   3 2.98   1 2.98
                             2 2.98   3 2.98   2 2.98   3 2.98
 
  LATTYP: Found a simple cubic cell.
 ALAT       =     4.2145804213
  
  Lattice vectors:
  
 A1 = (   4.2145804213,   0.0000000000,   0.0000000000)
 A2 = (   0.0000000000,   4.2145804213,   0.0000000000)
 A3 = (   0.0000000000,   0.0000000000,   4.2145804213)
 Subroutine PRICEL returns following result:
 
  LATTYP: Found a face centered cubic cell.
 ALAT       =     4.2145804213
  
  Lattice vectors:
  
 A1 = (   2.1072902107,   2.1072902107,   0.0000000000)
 A2 = (   2.1072902107,   0.0000000000,  -2.1072902107)
 A3 = (   0.0000000000,   2.1072902107,  -2.1072902107)
 
   4 primitive cells build up your supercell.
 

Analysis of symmetry for initial positions (statically):

 Routine SETGRP: Setting up the symmetry group for a 
 simple cubic supercell.


 Subroutine GETGRP returns: Found 48 space group operations
 (whereof 48 operations were pure point group operations)
 out of a pool of 48 trial point group operations.


The static configuration has the point symmetry O_h .

Analysis of symmetry for dynamics (positions and initial velocities):

 Subroutine DYNSYM returns: Found 48 space group operations
 (whereof 48 operations were pure point group operations)
 out of a pool of 48 trial space group operations
 (whereof 48 operations were pure point group operations)
 and found also     4 'primitive' translations


The dynamic configuration has the point symmetry O_h .
 
 
 KPOINTS: Automatic mesh                          

Automatic generation of k-mesh.
 
 Subroutine IBZKPT returns following result:
 ===========================================
 
 Found     84 irreducible k-points:
 
 Following reciprocal coordinates:
            Coordinates               Weight
  0.000000  0.000000  0.000000      1.000000
  0.083333  0.000000  0.000000      6.000000
  0.166667  0.000000  0.000000      6.000000
  0.250000  0.000000  0.000000      6.000000
  0.333333  0.000000  0.000000      6.000000
  0.416667  0.000000  0.000000      6.000000
  0.500000  0.000000  0.000000      3.000000
  0.083333  0.083333  0.000000     12.000000
  0.166667  0.083333  0.000000     24.000000
  0.250000  0.083333  0.000000     24.000000
  0.333333  0.083333  0.000000     24.000000
  0.416667  0.083333  0.000000     24.000000
  0.500000  0.083333  0.000000     12.000000
  0.166667  0.166667  0.000000     12.000000
  0.250000  0.166667  0.000000     24.000000
  0.333333  0.166667  0.000000     24.000000
  0.416667  0.166667  0.000000     24.000000
  0.500000  0.166667  0.000000     12.000000
  0.250000  0.250000  0.000000     12.000000
  0.333333  0.250000  0.000000     24.000000
  0.416667  0.250000  0.000000     24.000000
  0.500000  0.250000  0.000000     12.000000
  0.333333  0.333333  0.000000     12.000000
  0.416667  0.333333  0.000000     24.000000
  0.500000  0.333333  0.000000     12.000000
  0.416667  0.416667  0.000000     12.000000
  0.500000  0.416667  0.000000     12.000000
  0.500000  0.500000  0.000000      3.000000
  0.083333  0.083333  0.083333      8.000000
  0.166667  0.083333  0.083333     24.000000
  0.250000  0.083333  0.083333     24.000000
  0.333333  0.083333  0.083333     24.000000
  0.416667  0.083333  0.083333     24.000000
  0.500000  0.083333  0.083333     12.000000
  0.166667  0.166667  0.083333     24.000000
  0.250000  0.166667  0.083333     48.000000
  0.333333  0.166667  0.083333     48.000000
  0.416667  0.166667  0.083333     48.000000
  0.500000  0.166667  0.083333     24.000000
  0.250000  0.250000  0.083333     24.000000
  0.333333  0.250000  0.083333     48.000000
  0.416667  0.250000  0.083333     48.000000
  0.500000  0.250000  0.083333     24.000000
  0.333333  0.333333  0.083333     24.000000
  0.416667  0.333333  0.083333     48.000000
  0.500000  0.333333  0.083333     24.000000
  0.416667  0.416667  0.083333     24.000000
  0.500000  0.416667  0.083333     24.000000
  0.500000  0.500000  0.083333      6.000000
  0.166667  0.166667  0.166667      8.000000
  0.250000  0.166667  0.166667     24.000000
  0.333333  0.166667  0.166667     24.000000
  0.416667  0.166667  0.166667     24.000000
  0.500000  0.166667  0.166667     12.000000
  0.250000  0.250000  0.166667     24.000000
  0.333333  0.250000  0.166667     48.000000
  0.416667  0.250000  0.166667     48.000000
  0.500000  0.250000  0.166667     24.000000
  0.333333  0.333333  0.166667     24.000000
  0.416667  0.333333  0.166667     48.000000
  0.500000  0.333333  0.166667     24.000000
  0.416667  0.416667  0.166667     24.000000
  0.500000  0.416667  0.166667     24.000000
  0.500000  0.500000  0.166667      6.000000
  0.250000  0.250000  0.250000      8.000000
  0.333333  0.250000  0.250000     24.000000
  0.416667  0.250000  0.250000     24.000000
  0.500000  0.250000  0.250000     12.000000
  0.333333  0.333333  0.250000     24.000000
  0.416667  0.333333  0.250000     48.000000
  0.500000  0.333333  0.250000     24.000000
  0.416667  0.416667  0.250000     24.000000
  0.500000  0.416667  0.250000     24.000000
  0.500000  0.500000  0.250000      6.000000
  0.333333  0.333333  0.333333      8.000000
  0.416667  0.333333  0.333333     24.000000
  0.500000  0.333333  0.333333     12.000000
  0.416667  0.416667  0.333333     24.000000
  0.500000  0.416667  0.333333     24.000000
  0.500000  0.500000  0.333333      6.000000
  0.416667  0.416667  0.416667      8.000000
  0.500000  0.416667  0.416667     12.000000
  0.500000  0.500000  0.416667      6.000000
  0.500000  0.500000  0.500000      1.000000
 
 Following cartesian coordinates:
            Coordinates               Weight
  0.000000  0.000000  0.000000      1.000000
  0.019970  0.000000  0.000000      6.000000
  0.039941  0.000000  0.000000      6.000000
  0.059911  0.000000  0.000000      6.000000
  0.079881  0.000000  0.000000      6.000000
  0.099852  0.000000  0.000000      6.000000
  0.119822  0.000000  0.000000      3.000000
  0.019970  0.019970  0.000000     12.000000
  0.039941  0.019970  0.000000     24.000000
  0.059911  0.019970  0.000000     24.000000
  0.079881  0.019970  0.000000     24.000000
  0.099852  0.019970  0.000000     24.000000
  0.119822  0.019970  0.000000     12.000000
  0.039941  0.039941  0.000000     12.000000
  0.059911  0.039941  0.000000     24.000000
  0.079881  0.039941  0.000000     24.000000
  0.099852  0.039941  0.000000     24.000000
  0.119822  0.039941  0.000000     12.000000
  0.059911  0.059911  0.000000     12.000000
  0.079881  0.059911  0.000000     24.000000
  0.099852  0.059911  0.000000     24.000000
  0.119822  0.059911  0.000000     12.000000
  0.079881  0.079881  0.000000     12.000000
  0.099852  0.079881  0.000000     24.000000
  0.119822  0.079881  0.000000     12.000000
  0.099852  0.099852  0.000000     12.000000
  0.119822  0.099852  0.000000     12.000000
  0.119822  0.119822  0.000000      3.000000
  0.019970  0.019970  0.019970      8.000000
  0.039941  0.019970  0.019970     24.000000
  0.059911  0.019970  0.019970     24.000000
  0.079881  0.019970  0.019970     24.000000
  0.099852  0.019970  0.019970     24.000000
  0.119822  0.019970  0.019970     12.000000
  0.039941  0.039941  0.019970     24.000000
  0.059911  0.039941  0.019970     48.000000
  0.079881  0.039941  0.019970     48.000000
  0.099852  0.039941  0.019970     48.000000
  0.119822  0.039941  0.019970     24.000000
  0.059911  0.059911  0.019970     24.000000
  0.079881  0.059911  0.019970     48.000000
  0.099852  0.059911  0.019970     48.000000
  0.119822  0.059911  0.019970     24.000000
  0.079881  0.079881  0.019970     24.000000
  0.099852  0.079881  0.019970     48.000000
  0.119822  0.079881  0.019970     24.000000
  0.099852  0.099852  0.019970     24.000000
  0.119822  0.099852  0.019970     24.000000
  0.119822  0.119822  0.019970      6.000000
  0.039941  0.039941  0.039941      8.000000
  0.059911  0.039941  0.039941     24.000000
  0.079881  0.039941  0.039941     24.000000
  0.099852  0.039941  0.039941     24.000000
  0.119822  0.039941  0.039941     12.000000
  0.059911  0.059911  0.039941     24.000000
  0.079881  0.059911  0.039941     48.000000
  0.099852  0.059911  0.039941     48.000000
  0.119822  0.059911  0.039941     24.000000
  0.079881  0.079881  0.039941     24.000000
  0.099852  0.079881  0.039941     48.000000
  0.119822  0.079881  0.039941     24.000000
  0.099852  0.099852  0.039941     24.000000
  0.119822  0.099852  0.039941     24.000000
  0.119822  0.119822  0.039941      6.000000
  0.059911  0.059911  0.059911      8.000000
  0.079881  0.059911  0.059911     24.000000
  0.099852  0.059911  0.059911     24.000000
  0.119822  0.059911  0.059911     12.000000
  0.079881  0.079881  0.059911     24.000000
  0.099852  0.079881  0.059911     48.000000
  0.119822  0.079881  0.059911     24.000000
  0.099852  0.099852  0.059911     24.000000
  0.119822  0.099852  0.059911     24.000000
  0.119822  0.119822  0.059911      6.000000
  0.079881  0.079881  0.079881      8.000000
  0.099852  0.079881  0.079881     24.000000
  0.119822  0.079881  0.079881     12.000000
  0.099852  0.099852  0.079881     24.000000
  0.119822  0.099852  0.079881     24.000000
  0.119822  0.119822  0.079881      6.000000
  0.099852  0.099852  0.099852      8.000000
  0.119822  0.099852  0.099852     12.000000
  0.119822  0.119822  0.099852      6.000000
  0.119822  0.119822  0.119822      1.000000
 


--------------------------------------------------------------------------------------------------------




 Dimension of arrays:
   k-Points           NKPTS =     84   number of bands    NBANDS=     28
   number of dos      NEDOS =    301   number of ions     NIONS =      4
   non local maximal  LDIM  =      6   non local SUM 2l+1 LMDIM =     18
   total plane-waves  NPLWV =  64000
   max r-space proj   IRMAX =      1   max aug-charges    IRDMAX= 418391
   dimension x,y,z NGX =    40 NGY =   40 NGZ =   40
   dimension x,y,z NGXF=    80 NGYF=   80 NGZF=   80
   support grid    NGXF=   160 NGYF=  160 NGZF=  160
   ions per type =               4
 NGX,Y,Z   is equivalent  to a cutoff of  15.78, 15.78, 15.78 a.u.
 NGXF,Y,Z  is equivalent  to a cutoff of  31.56, 31.56, 31.56 a.u.


 I would recommend the setting:
   dimension x,y,z NGX =    38 NGY =   38 NGZ =   38
 SYSTEM =  unknown system                          
 POSCAR =  Au                                      

 Startparameter for this run:
   NWRITE =      2    write-flag & timer
   PREC   = accura    medium, high low
   ISTART =      0    job   : 0-new  1-cont  2-samecut
   ICHARG =      2    charge: 1-file 2-atom 10-const
   ISPIN  =      1    spin polarized calculation?
   LNONCOLLINEAR =      F non collinear calculations
   LSORBIT =      F    spin-orbit coupling
   INIWAV =      1    electr: 0-lowe 1-rand  2-diag
   LASPH  =      F    aspherical Exc in radial PAW
   METAGGA=      F    non-selfconsistent MetaGGA calc.

 Electronic Relaxation 1
   ENCUT  =  750.0 eV  55.12 Ry    7.42 a.u.   9.41  9.41  9.41*2*pi/ulx,y,z
   ENINI  =  750.0     initial cutoff
   ENAUG  =  356.7 eV  augmentation charge cutoff
   NELM   =     60;   NELMIN=  2; NELMDL= -5     # of ELM steps 
   EDIFF  = 0.1E-07   stopping-criterion for ELM
   LREAL  =      F    real-space projection
   LCOMPAT=      F    compatible to vasp.4.4
   LREAL_COMPAT= F    compatible to vasp.4.5.1-3
   GGA_COMPAT  = T    GGA compatible to vasp.4.4-vasp.4.6
   LMAXPAW     = -100 max onsite density
   LMAXMIX     =    2 max onsite mixed and CHGCAR
   VOSKOWN=      0    Vosko Wilk Nusair interpolation
   ROPT   =    0.00000
 Ionic relaxation
   EDIFFG = 0.1E-06   stopping-criterion for IOM
   NSW    =      0    number of steps for IOM
   NBLOCK =      1;   KBLOCK =      1    inner block; outer block 
   IBRION =     -1    ionic relax: 0-MD 1-quasi-New 2-CG
   NFREE  =      0    steps in history (QN), initial steepest desc. (CG)
   ISIF   =      2    stress and relaxation
   IWAVPR =     10    prediction:  0-non 1-charg 2-wave 3-comb
   ISYM   =      2    0-nonsym 1-usesym 2-fastsym
   LCORR  =      T    Harris-Foulkes like correction to forces

   POTIM  =   0.50    time-step for ionic-motion
   TEIN   =    0.0    initial temperature
   TEBEG  =    0.0;   TEEND  =   0.0 temperature during run
   SMASS  =  -3.00    Nose mass-parameter (am)
   estimated Nose-frequenzy (Omega)   =  0.10E-29 period in steps =****** mass=  -0.406E-27a.u.
   NPACO  =    256;   APACO  = 16.0  distance and # of slots for P.C.
   PSTRESS=    0.0 pullay stress

  Mass of Ions in am
   POMASS = 196.97
  Ionic Valenz
   ZVAL   =  11.00
  Atomic Wigner-Seitz radii
   RWIGS  =  -1.00
   NELECT =      44.0000    total number of electrons
   NUPDOWN=      -1.0000    fix difference up-down

 DOS related values:
   EMIN   =  10.00;   EMAX   =-10.00  energy-range for DOS
   ISMEAR =     0;   SIGMA  =   0.01  broadening in eV -4-tet -1-fermi 0-gaus

 Electronic relaxation 2 (details)
   IALGO  =     38    algorithm
   LDIAG  =      T    sub-space diagonalisation
   IMIX   =      4    mixing-type and parameters
     AMIX     =   0.40;   BMIX     =  1.00
     AMIX_MAG =   1.60;   BMIX_MAG =  1.00
     AMIN     =   0.10
     WC   =   100.;   INIMIX=   1;  MIXPRE=   1

 Intra band minimization:
   WEIMIN = 0.0000     energy-eigenvalue tresh-hold
   EBREAK =  0.96E-10  absolut break condition
   DEPER  =   0.30     relativ break condition  

   TIME   =   0.10     timestep for ELM

  volume/ion in A,a.u.               =      18.72       126.30
  Fermi-wavevector in a.u.,eV,Ry     =   1.371318 25.585918  1.880512

 Second variation
   LSECVAR=     F    do a second variation
 
 Write flags
   LWAVE  =      F    write WAVECAR
   LCHARG =      F    write CHGCAR
   LVTOT  =      F    write LOCPOT, local potential
   LELF   =      F    write electronic localiz. function (ELF)
   LORBIT =      0    0 simple, 1 ext, 2 COOP (PROOUT)


 Dipole corrections
   IDIPOL =      0    1-x, 2-y, 3-z
   LDIPOL =      F    correct potential



--------------------------------------------------------------------------------------------------------


 Static calculation
 charge density will be updated during run
 non-spin polarized calculation
 Variant of blocked Davidson
 Davidson routine will perform the subspace rotation
 performe sub-space diagonalisation
    after iterative eigenvector-optimisation
 modified Broyden-mixing scheme, WC =      100.0
 initial mixing is a Kerker type mixing with AMIX =  0.4000 and BMIX =      1.0000
 Hartree-type preconditioning will be used
 using additional bands            6
 reciprocal scheme for non local part
 use partial core corrections
 calculate Harris-corrections to forces 
   (improved forces if not selfconsistent)
 use gradient corrections 
 use of overlap-Matrix (Vanderbilt PP)
 Gauss-broadening in eV      SIGMA  =   0.01


--------------------------------------------------------------------------------------------------------


  energy-cutoff  :      750.00
  volume of cell :       74.86
      direct lattice vectors                 reciprocal lattice vectors
     4.214580421  0.000000000  0.000000000     0.237271543  0.000000000  0.000000000
     0.000000000  4.214580421  0.000000000     0.000000000  0.237271543  0.000000000
     0.000000000  0.000000000  4.214580421     0.000000000  0.000000000  0.237271543

  length of vectors
     4.214580421  4.214580421  4.214580421     0.237271543  0.237271543  0.237271543


 
 k-points in units of 2pi/SCALE and weight: Automatic mesh                          
   0.00000000  0.00000000  0.00000000       0.001
   0.01997035  0.00000000  0.00000000       0.003
   0.03994071  0.00000000  0.00000000       0.003
   0.05991106  0.00000000  0.00000000       0.003
   0.07988142  0.00000000  0.00000000       0.003
   0.09985177  0.00000000  0.00000000       0.003
   0.11982213  0.00000000  0.00000000       0.002
   0.01997035  0.01997035  0.00000000       0.007
   0.03994071  0.01997035  0.00000000       0.014
   0.05991106  0.01997035  0.00000000       0.014
   0.07988142  0.01997035  0.00000000       0.014
   0.09985177  0.01997035  0.00000000       0.014
   0.11982213  0.01997035  0.00000000       0.007
   0.03994071  0.03994071  0.00000000       0.007
   0.05991106  0.03994071  0.00000000       0.014
   0.07988142  0.03994071  0.00000000       0.014
   0.09985177  0.03994071  0.00000000       0.014
   0.11982213  0.03994071  0.00000000       0.007
   0.05991106  0.05991106  0.00000000       0.007
   0.07988142  0.05991106  0.00000000       0.014
   0.09985177  0.05991106  0.00000000       0.014
   0.11982213  0.05991106  0.00000000       0.007
   0.07988142  0.07988142  0.00000000       0.007
   0.09985177  0.07988142  0.00000000       0.014
   0.11982213  0.07988142  0.00000000       0.007
   0.09985177  0.09985177  0.00000000       0.007
   0.11982213  0.09985177  0.00000000       0.007
   0.11982213  0.11982213  0.00000000       0.002
   0.01997035  0.01997035  0.01997035       0.005
   0.03994071  0.01997035  0.01997035       0.014
   0.05991106  0.01997035  0.01997035       0.014
   0.07988142  0.01997035  0.01997035       0.014
   0.09985177  0.01997035  0.01997035       0.014
   0.11982213  0.01997035  0.01997035       0.007
   0.03994071  0.03994071  0.01997035       0.014
   0.05991106  0.03994071  0.01997035       0.028
   0.07988142  0.03994071  0.01997035       0.028
   0.09985177  0.03994071  0.01997035       0.028
   0.11982213  0.03994071  0.01997035       0.014
   0.05991106  0.05991106  0.01997035       0.014
   0.07988142  0.05991106  0.01997035       0.028
   0.09985177  0.05991106  0.01997035       0.028
   0.11982213  0.05991106  0.01997035       0.014
   0.07988142  0.07988142  0.01997035       0.014
   0.09985177  0.07988142  0.01997035       0.028
   0.11982213  0.07988142  0.01997035       0.014
   0.09985177  0.09985177  0.01997035       0.014
   0.11982213  0.09985177  0.01997035       0.014
   0.11982213  0.11982213  0.01997035       0.003
   0.03994071  0.03994071  0.03994071       0.005
   0.05991106  0.03994071  0.03994071       0.014
   0.07988142  0.03994071  0.03994071       0.014
   0.09985177  0.03994071  0.03994071       0.014
   0.11982213  0.03994071  0.03994071       0.007
   0.05991106  0.05991106  0.03994071       0.014
   0.07988142  0.05991106  0.03994071       0.028
   0.09985177  0.05991106  0.03994071       0.028
   0.11982213  0.05991106  0.03994071       0.014
   0.07988142  0.07988142  0.03994071       0.014
   0.09985177  0.07988142  0.03994071       0.028
   0.11982213  0.07988142  0.03994071       0.014
   0.09985177  0.09985177  0.03994071       0.014
   0.11982213  0.09985177  0.03994071       0.014
   0.11982213  0.11982213  0.03994071       0.003
   0.05991106  0.05991106  0.05991106       0.005
   0.07988142  0.05991106  0.05991106       0.014
   0.09985177  0.05991106  0.05991106       0.014
   0.11982213  0.05991106  0.05991106       0.007
   0.07988142  0.07988142  0.05991106       0.014
   0.09985177  0.07988142  0.05991106       0.028
   0.11982213  0.07988142  0.05991106       0.014
   0.09985177  0.09985177  0.05991106       0.014
   0.11982213  0.09985177  0.05991106       0.014
   0.11982213  0.11982213  0.05991106       0.003
   0.07988142  0.07988142  0.07988142       0.005
   0.09985177  0.07988142  0.07988142       0.014
   0.11982213  0.07988142  0.07988142       0.007
   0.09985177  0.09985177  0.07988142       0.014
   0.11982213  0.09985177  0.07988142       0.014
   0.11982213  0.11982213  0.07988142       0.003
   0.09985177  0.09985177  0.09985177       0.005
   0.11982213  0.09985177  0.09985177       0.007
   0.11982213  0.11982213  0.09985177       0.003
   0.11982213  0.11982213  0.11982213       0.001
 
 k-points in reciprocal lattice and weights: Automatic mesh                          
   0.00000000  0.00000000  0.00000000       0.001
   0.08333333  0.00000000  0.00000000       0.003
   0.16666667  0.00000000  0.00000000       0.003
   0.25000000  0.00000000  0.00000000       0.003
   0.33333333  0.00000000  0.00000000       0.003
   0.41666667  0.00000000  0.00000000       0.003
   0.50000000  0.00000000  0.00000000       0.002
   0.08333333  0.08333333  0.00000000       0.007
   0.16666667  0.08333333  0.00000000       0.014
   0.25000000  0.08333333  0.00000000       0.014
   0.33333333  0.08333333  0.00000000       0.014
   0.41666667  0.08333333  0.00000000       0.014
   0.50000000  0.08333333  0.00000000       0.007
   0.16666667  0.16666667  0.00000000       0.007
   0.25000000  0.16666667  0.00000000       0.014
   0.33333333  0.16666667  0.00000000       0.014
   0.41666667  0.16666667  0.00000000       0.014
   0.50000000  0.16666667  0.00000000       0.007
   0.25000000  0.25000000  0.00000000       0.007
   0.33333333  0.25000000  0.00000000       0.014
   0.41666667  0.25000000  0.00000000       0.014
   0.50000000  0.25000000  0.00000000       0.007
   0.33333333  0.33333333  0.00000000       0.007
   0.41666667  0.33333333  0.00000000       0.014
   0.50000000  0.33333333  0.00000000       0.007
   0.41666667  0.41666667  0.00000000       0.007
   0.50000000  0.41666667  0.00000000       0.007
   0.50000000  0.50000000  0.00000000       0.002
   0.08333333  0.08333333  0.08333333       0.005
   0.16666667  0.08333333  0.08333333       0.014
   0.25000000  0.08333333  0.08333333       0.014
   0.33333333  0.08333333  0.08333333       0.014
   0.41666667  0.08333333  0.08333333       0.014
   0.50000000  0.08333333  0.08333333       0.007
   0.16666667  0.16666667  0.08333333       0.014
   0.25000000  0.16666667  0.08333333       0.028
   0.33333333  0.16666667  0.08333333       0.028
   0.41666667  0.16666667  0.08333333       0.028
   0.50000000  0.16666667  0.08333333       0.014
   0.25000000  0.25000000  0.08333333       0.014
   0.33333333  0.25000000  0.08333333       0.028
   0.41666667  0.25000000  0.08333333       0.028
   0.50000000  0.25000000  0.08333333       0.014
   0.33333333  0.33333333  0.08333333       0.014
   0.41666667  0.33333333  0.08333333       0.028
   0.50000000  0.33333333  0.08333333       0.014
   0.41666667  0.41666667  0.08333333       0.014
   0.50000000  0.41666667  0.08333333       0.014
   0.50000000  0.50000000  0.08333333       0.003
   0.16666667  0.16666667  0.16666667       0.005
   0.25000000  0.16666667  0.16666667       0.014
   0.33333333  0.16666667  0.16666667       0.014
   0.41666667  0.16666667  0.16666667       0.014
   0.50000000  0.16666667  0.16666667       0.007
   0.25000000  0.25000000  0.16666667       0.014
   0.33333333  0.25000000  0.16666667       0.028
   0.41666667  0.25000000  0.16666667       0.028
   0.50000000  0.25000000  0.16666667       0.014
   0.33333333  0.33333333  0.16666667       0.014
   0.41666667  0.33333333  0.16666667       0.028
   0.50000000  0.33333333  0.16666667       0.014
   0.41666667  0.41666667  0.16666667       0.014
   0.50000000  0.41666667  0.16666667       0.014
   0.50000000  0.50000000  0.16666667       0.003
   0.25000000  0.25000000  0.25000000       0.005
   0.33333333  0.25000000  0.25000000       0.014
   0.41666667  0.25000000  0.25000000       0.014
   0.50000000  0.25000000  0.25000000       0.007
   0.33333333  0.33333333  0.25000000       0.014
   0.41666667  0.33333333  0.25000000       0.028
   0.50000000  0.33333333  0.25000000       0.014
   0.41666667  0.41666667  0.25000000       0.014
   0.50000000  0.41666667  0.25000000       0.014
   0.50000000  0.50000000  0.25000000       0.003
   0.33333333  0.33333333  0.33333333       0.005
   0.41666667  0.33333333  0.33333333       0.014
   0.50000000  0.33333333  0.33333333       0.007
   0.41666667  0.41666667  0.33333333       0.014
   0.50000000  0.41666667  0.33333333       0.014
   0.50000000  0.50000000  0.33333333       0.003
   0.41666667  0.41666667  0.41666667       0.005
   0.50000000  0.41666667  0.41666667       0.007
   0.50000000  0.50000000  0.41666667       0.003
   0.50000000  0.50000000  0.50000000       0.001
 
 position of ions in fractional coordinates (direct lattice) 
   0.00000000  0.00000000  0.00000000
   0.50000000  0.50000000  0.00000000
   0.50000000  0.00000000  0.50000000
   0.00000000  0.50000000  0.50000000
 
 position of ions in cartesian coordinates  (Angst):
   0.00000000  0.00000000  0.00000000
   2.10729021  2.10729021  0.00000000
   2.10729021  0.00000000  2.10729021
   0.00000000  2.10729021  2.10729021
 


--------------------------------------------------------------------------------------------------------


 k-point  1 :  0.00000.00000.0000  plane waves:   3431
 k-point  2 :  0.08330.00000.0000  plane waves:   3475
 k-point  3 :  0.16670.00000.0000  plane waves:   3523
 k-point  4 :  0.25000.00000.0000  plane waves:   3511
 k-point  5 :  0.33330.00000.0000  plane waves:   3499
 k-point  6 :  0.41670.00000.0000  plane waves:   3490
 k-point  7 :  0.50000.00000.0000  plane waves:   3514
 k-point  8 :  0.08330.08330.0000  plane waves:   3513
 k-point  9 :  0.16670.08330.0000  plane waves:   3515
 k-point 10 :  0.25000.08330.0000  plane waves:   3494
 k-point 11 :  0.33330.08330.0000  plane waves:   3497
 k-point 12 :  0.41670.08330.0000  plane waves:   3499
 k-point 13 :  0.50000.08330.0000  plane waves:   3490
 k-point 14 :  0.16670.16670.0000  plane waves:   3501
 k-point 15 :  0.25000.16670.0000  plane waves:   3498
 k-point 16 :  0.33330.16670.0000  plane waves:   3501
 k-point 17 :  0.41670.16670.0000  plane waves:   3500
 k-point 18 :  0.50000.16670.0000  plane waves:   3478
 k-point 19 :  0.25000.25000.0000  plane waves:   3487
 k-point 20 :  0.33330.25000.0000  plane waves:   3493
 k-point 21 :  0.41670.25000.0000  plane waves:   3478
 k-point 22 :  0.50000.25000.0000  plane waves:   3476
 k-point 23 :  0.33330.33330.0000  plane waves:   3509
 k-point 24 :  0.41670.33330.0000  plane waves:   3486
 k-point 25 :  0.50000.33330.0000  plane waves:   3496
 k-point 26 :  0.41670.41670.0000  plane waves:   3492
 k-point 27 :  0.50000.41670.0000  plane waves:   3484
 k-point 28 :  0.50000.50000.0000  plane waves:   3532
 k-point 29 :  0.08330.08330.0833  plane waves:   3500
 k-point 30 :  0.16670.08330.0833  plane waves:   3518
 k-point 31 :  0.25000.08330.0833  plane waves:   3503
 k-point 32 :  0.33330.08330.0833  plane waves:   3498
 k-point 33 :  0.41670.08330.0833  plane waves:   3486
 k-point 34 :  0.50000.08330.0833  plane waves:   3480
 k-point 35 :  0.16670.16670.0833  plane waves:   3511
 k-point 36 :  0.25000.16670.0833  plane waves:   3501
 k-point 37 :  0.33330.16670.0833  plane waves:   3496
 k-point 38 :  0.41670.16670.0833  plane waves:   3493
 k-point 39 :  0.50000.16670.0833  plane waves:   3484
 k-point 40 :  0.25000.25000.0833  plane waves:   3514
 k-point 41 :  0.33330.25000.0833  plane waves:   3498
 k-point 42 :  0.41670.25000.0833  plane waves:   3481
 k-point 43 :  0.50000.25000.0833  plane waves:   3480
 k-point 44 :  0.33330.33330.0833  plane waves:   3496
 k-point 45 :  0.41670.33330.0833  plane waves:   3484
 k-point 46 :  0.50000.33330.0833  plane waves:   3496
 k-point 47 :  0.41670.41670.0833  plane waves:   3487
 k-point 48 :  0.50000.41670.0833  plane waves:   3490
 k-point 49 :  0.50000.50000.0833  plane waves:   3504
 k-point 50 :  0.16670.16670.1667  plane waves:   3488
 k-point 51 :  0.25000.16670.1667  plane waves:   3494
 k-point 52 :  0.33330.16670.1667  plane waves:   3507
 k-point 53 :  0.41670.16670.1667  plane waves:   3492
 k-point 54 :  0.50000.16670.1667  plane waves:   3496
 k-point 55 :  0.25000.25000.1667  plane waves:   3499
 k-point 56 :  0.33330.25000.1667  plane waves:   3499
 k-point 57 :  0.41670.25000.1667  plane waves:   3480
 k-point 58 :  0.50000.25000.1667  plane waves:   3484
 k-point 59 :  0.33330.33330.1667  plane waves:   3477
 k-point 60 :  0.41670.33330.1667  plane waves:   3485
 k-point 61 :  0.50000.33330.1667  plane waves:   3478
 k-point 62 :  0.41670.41670.1667  plane waves:   3493
 k-point 63 :  0.50000.41670.1667  plane waves:   3488
 k-point 64 :  0.50000.50000.1667  plane waves:   3496
 k-point 65 :  0.25000.25000.2500  plane waves:   3479
 k-point 66 :  0.33330.25000.2500  plane waves:   3484
 k-point 67 :  0.41670.25000.2500  plane waves:   3485
 k-point 68 :  0.50000.25000.2500  plane waves:   3492
 k-point 69 :  0.33330.33330.2500  plane waves:   3483
 k-point 70 :  0.41670.33330.2500  plane waves:   3487
 k-point 71 :  0.50000.33330.2500  plane waves:   3480
 k-point 72 :  0.41670.41670.2500  plane waves:   3484
 k-point 73 :  0.50000.41670.2500  plane waves:   3478
 k-point 74 :  0.50000.50000.2500  plane waves:   3492
 k-point 75 :  0.33330.33330.3333  plane waves:   3476
 k-point 76 :  0.41670.33330.3333  plane waves:   3488
 k-point 77 :  0.50000.33330.3333  plane waves:   3484
 k-point 78 :  0.41670.41670.3333  plane waves:   3483
 k-point 79 :  0.50000.41670.3333  plane waves:   3488
 k-point 80 :  0.50000.50000.3333  plane waves:   3476
 k-point 81 :  0.41670.41670.4167  plane waves:   3470
 k-point 82 :  0.50000.41670.4167  plane waves:   3482
 k-point 83 :  0.50000.50000.4167  plane waves:   3496
 k-point 84 :  0.50000.50000.5000  plane waves:   3448

 maximum and minimum number of plane-waves per node :   3532  3431

 maximum number of plane-waves:   3532
 maximal index in each direction: 
   IXMAX=  9   IYMAX=  9   IZMAX=  9
   IXMIN= -9   IYMIN= -9   IZMIN= -9

 NGX is ok and might be reduce to  38
 NGY is ok and might be reduce to  38
 NGZ is ok and might be reduce to  38

 parallel 3dFFT wavefunction:
    minimum data exchange during FFTs selected (reduces bandwidth)
 parallel 3dFFT charge:
    minimum data exchange during FFTs selected (reduces bandwidth)

 For storing wavefunctions  131.38 MBYTES are necessary
 For predicting wavefunctions    4.51 MBYTES are necessary
Broyden mixing: mesh for mixing (old mesh)
   NGX = 19   NGY = 19   NGZ = 19
  (NGX  = 80   NGY  = 80   NGZ  = 80)
 gives a total of   6859 points
 initial charge density was supplied:
 charge density of overlapping atoms calculated
 number of electron   44.0000000 magnetization 
 keeping initial charge density in first step


--------------------------------------------------------------------------------------------------------


 Maximum index for augmentation-charges       101675 (set IRDMAX)


--------------------------------------------------------------------------------------------------------


 First call to EWALD:  gamma=   0.421
 Maximum number of real-space cells 3x 3x 3
 Maximum number of reciprocal cells 3x 3x 3

    FEWALD:  VPU time    0.00: CPU time    0.00


----------------------------------------- Iteration    1(   1)  ---------------------------------------


    POTLOK:  VPU time    0.14: CPU time    0.14
    SETDIJ:  VPU time    0.39: CPU time    0.39
    EDDAV :  VPU time   12.54: CPU time   12.61
    DOS   :  VPU time    0.00: CPU time   -0.00
    ------------------------------------------
      LOOP:  VPU time   13.07: CPU time   13.15

 eigenvalue-minimisations  :  4704
 total energy-change (2. order) : 0.5345766E+03  (-0.2698524E+04)
 number of electron   44.0000000 magnetization 
 augmentation part    44.0000000 magnetization 

 Free energy of the ion-electron system (eV)
  ---------------------------------------------------
  alpha Z        PSCENC =       400.27003392
  Ewald energy   TEWEN  =     -3790.90912546
  -1/2 Hartree   DENC   =      -544.62571654
  -V(xc)+E(xc)   XCENC  =        60.19449499
  PAW double counting   =      2990.04966927    -2896.51663641
  entropy T*S    EENTRO =        -0.00028664
  eigenvalues    EBANDS =       611.89043119
  atomic energy  EATOM  =      3704.22372399
  ---------------------------------------------------
  free energy    TOTEN  =       534.57658831 eV

  energy without entropy =      534.57687495  energy(sigma->0) =      534.57673163


--------------------------------------------------------------------------------------------------------




----------------------------------------- Iteration    1(   2)  ---------------------------------------


    EDDAV :  VPU time   12.41: CPU time   12.44
    DOS   :  VPU time    0.00: CPU time   -0.00
    ------------------------------------------
      LOOP:  VPU time   12.41: CPU time   12.44

 eigenvalue-minimisations  :  4736
 total energy-change (2. order) :-0.5250961E+03  (-0.4990265E+03)
 number of electron   44.0000000 magnetization 
 augmentation part    44.0000000 magnetization 

 Free energy of the ion-electron system (eV)
  ---------------------------------------------------
  alpha Z        PSCENC =       400.27003392
  Ewald energy   TEWEN  =     -3790.90912546
  -1/2 Hartree   DENC   =      -544.62571654
  -V(xc)+E(xc)   XCENC  =        60.19449499
  PAW double counting   =      2990.04966927    -2896.51663641
  entropy T*S    EENTRO =        -0.00003954
  eigenvalues    EBANDS =        86.79410713
  atomic energy  EATOM  =      3704.22372399
  ---------------------------------------------------
  free energy    TOTEN  =         9.48051135 eV

  energy without entropy =        9.48055089  energy(sigma->0) =        9.48053112


--------------------------------------------------------------------------------------------------------




----------------------------------------- Iteration    1(   3)  ---------------------------------------


    EDDAV :  VPU time   11.80: CPU time   11.82
    DOS   :  VPU time    0.00: CPU time   -0.00
    ------------------------------------------
      LOOP:  VPU time   11.80: CPU time   11.83

 eigenvalue-minimisations  :  5328
 total energy-change (2. order) :-0.2311848E+02  (-0.2224816E+02)
 number of electron   44.0000000 magnetization 
 augmentation part    44.0000000 magnetization 

 Free energy of the ion-electron system (eV)
  ---------------------------------------------------
  alpha Z        PSCENC =       400.27003392
  Ewald energy   TEWEN  =     -3790.90912546
  -1/2 Hartree   DENC   =      -544.62571654
  -V(xc)+E(xc)   XCENC  =        60.19449499
  PAW double counting   =      2990.04966927    -2896.51663641
  entropy T*S    EENTRO =        -0.00009452
  eigenvalues    EBANDS =        63.67568489
  atomic energy  EATOM  =      3704.22372399
  ---------------------------------------------------
  free energy    TOTEN  =       -13.63796587 eV

  energy without entropy =      -13.63787135  energy(sigma->0) =      -13.63791861


--------------------------------------------------------------------------------------------------------




----------------------------------------- Iteration    1(   4)  ---------------------------------------


    EDDAV :  VPU time    7.14: CPU time    7.15
    DOS   :  VPU time    0.00: CPU time   -0.00
    ------------------------------------------
      LOOP:  VPU time    7.15: CPU time    7.16

 eigenvalue-minimisations  :  4972
 total energy-change (2. order) :-0.3926152E+00  (-0.3917848E+00)
 number of electron   44.0000000 magnetization 
 augmentation part    44.0000000 magnetization 

 Free energy of the ion-electron system (eV)
  ---------------------------------------------------
  alpha Z        PSCENC =       400.27003392
  Ewald energy   TEWEN  =     -3790.90912546
  -1/2 Hartree   DENC   =      -544.62571654
  -V(xc)+E(xc)   XCENC  =        60.19449499
  PAW double counting   =      2990.04966927    -2896.51663641
  entropy T*S    EENTRO =        -0.00016363
  eigenvalues    EBANDS =        63.28313875
  atomic energy  EATOM  =      3704.22372399
  ---------------------------------------------------
  free energy    TOTEN  =       -14.03058112 eV

  energy without entropy =      -14.03041749  energy(sigma->0) =      -14.03049930


--------------------------------------------------------------------------------------------------------




----------------------------------------- Iteration    1(   5)  ---------------------------------------


    EDDAV :  VPU time    8.63: CPU time    8.63
    DOS   :  VPU time    0.00: CPU time   -0.00
    CHARGE:  VPU time    0.87: CPU time    0.87
    MIXING:  VPU time    0.00: CPU time    0.00
    ------------------------------------------
      LOOP:  VPU time    9.51: CPU time    9.52

 eigenvalue-minimisations  :  5028
 total energy-change (2. order) :-0.3868393E-02  (-0.3867763E-02)
 number of electron   44.0000001 magnetization 
 augmentation part    15.5372305 magnetization 

 Broyden mixing:
  rms(total) = 0.56526E+00    rms(broyden)= 0.56526E+00
  rms(prec ) = 0.14273E+01
  weight for this iteration     100.00

 Free energy of the ion-electron system (eV)
  ---------------------------------------------------
  alpha Z        PSCENC =       400.27003392
  Ewald energy   TEWEN  =     -3790.90912546
  -1/2 Hartree   DENC   =      -544.62571654
  -V(xc)+E(xc)   XCENC  =        60.19449499
  PAW double counting   =      2990.04966927    -2896.51663641
  entropy T*S    EENTRO =        -0.00016366
  eigenvalues    EBANDS =        63.27927039
  atomic energy  EATOM  =      3704.22372399
  ---------------------------------------------------
  free energy    TOTEN  =       -14.03444951 eV

  energy without entropy =      -14.03428585  energy(sigma->0) =      -14.03436768


--------------------------------------------------------------------------------------------------------




----------------------------------------- Iteration    1(   6)  ---------------------------------------


    POTLOK:  VPU time    0.12: CPU time    0.12
    SETDIJ:  VPU time    0.30: CPU time    0.31
    EDDAV :  VPU time    8.55: CPU time    8.56
    DOS   :  VPU time    0.00: CPU time   -0.00
    CHARGE:  VPU time    0.87: CPU time    0.87
    MIXING:  VPU time    0.00: CPU time    0.00
    ------------------------------------------
      LOOP:  VPU time    9.86: CPU time    9.87

 eigenvalue-minimisations  :  4980
 total energy-change (2. order) : 0.9123449E+00  (-0.2441379E+00)
 number of electron   44.0000001 magnetization 
 augmentation part    16.0818468 magnetization 

 Broyden mixing:
  rms(total) = 0.14315E+00    rms(broyden)= 0.14315E+00
  rms(prec ) = 0.33912E+00
  weight for this iteration     100.00

 eigenvalues of (default mixing * dielectric matrix)
  average eigenvalue GAMMA=   1.1954
  1.1954

 Free energy of the ion-electron system (eV)
  ---------------------------------------------------
  alpha Z        PSCENC =       400.27003392
  Ewald energy   TEWEN  =     -3790.90912546
  -1/2 Hartree   DENC   =      -513.66626914
  -V(xc)+E(xc)   XCENC  =        58.82617835
  PAW double counting   =      2953.51309101    -2864.28965165
  entropy T*S    EENTRO =        -0.00007461
  eigenvalues    EBANDS =        38.90998894
  atomic energy  EATOM  =      3704.22372399
  ---------------------------------------------------
  free energy    TOTEN  =       -13.12210464 eV

  energy without entropy =      -13.12203004  energy(sigma->0) =      -13.12206734


--------------------------------------------------------------------------------------------------------




----------------------------------------- Iteration    1(   7)  ---------------------------------------


    POTLOK:  VPU time    0.12: CPU time    0.12
    SETDIJ:  VPU time    0.30: CPU time    0.30
    EDDAV :  VPU time    8.64: CPU time    8.65
    DOS   :  VPU time    0.00: CPU time   -0.00
    CHARGE:  VPU time    0.88: CPU time    0.88
    MIXING:  VPU time    0.00: CPU time    0.00
    ------------------------------------------
      LOOP:  VPU time    9.95: CPU time    9.96

 eigenvalue-minimisations  :  5104
 total energy-change (2. order) : 0.4966187E-01  (-0.1351622E-01)
 number of electron   44.0000001 magnetization 
 augmentation part    16.2014393 magnetization 

 Broyden mixing:
  rms(total) = 0.60964E-01    rms(broyden)= 0.60964E-01
  rms(prec ) = 0.96154E-01
  weight for this iteration     100.00

 eigenvalues of (default mixing * dielectric matrix)
  average eigenvalue GAMMA=   1.8112
  1.1890  2.4334

 Free energy of the ion-electron system (eV)
  ---------------------------------------------------
  alpha Z        PSCENC =       400.27003392
  Ewald energy   TEWEN  =     -3790.90912546
  -1/2 Hartree   DENC   =      -505.01155495
  -V(xc)+E(xc)   XCENC  =        58.42927027
  PAW double counting   =      2957.38404276    -2870.75852439
  entropy T*S    EENTRO =        -0.00013979
  eigenvalues    EBANDS =        33.29983088
  atomic energy  EATOM  =      3704.22372399
  ---------------------------------------------------
  free energy    TOTEN  =       -13.07244278 eV

  energy without entropy =      -13.07230298  energy(sigma->0) =      -13.07237288


--------------------------------------------------------------------------------------------------------




----------------------------------------- Iteration    1(   8)  ---------------------------------------


    POTLOK:  VPU time    0.11: CPU time    0.12
    SETDIJ:  VPU time    0.30: CPU time    0.30
    EDDAV :  VPU time    9.98: CPU time   10.00
    DOS   :  VPU time    0.00: CPU time   -0.00
    CHARGE:  VPU time    1.36: CPU time    1.37
    MIXING:  VPU time    0.01: CPU time    0.01
    ------------------------------------------
      LOOP:  VPU time   11.77: CPU time   11.80

 eigenvalue-minimisations  :  4840
 total energy-change (2. order) : 0.9537610E-02  (-0.7398920E-03)
 number of electron   44.0000001 magnetization 
 augmentation part    16.1973845 magnetization 

 Broyden mixing:
  rms(total) = 0.47963E-02    rms(broyden)= 0.47962E-02
  rms(prec ) = 0.97890E-02
  weight for this iteration     100.00

 eigenvalues of (default mixing * dielectric matrix)
  average eigenvalue GAMMA=   1.7812
  1.2266  1.4834  2.6336

 Free energy of the ion-electron system (eV)
  ---------------------------------------------------
  alpha Z        PSCENC =       400.27003392
  Ewald energy   TEWEN  =     -3790.90912546
  -1/2 Hartree   DENC   =      -502.08382218
  -V(xc)+E(xc)   XCENC  =        58.27690896
  PAW double counting   =      2976.46054270    -2892.05589629
  entropy T*S    EENTRO =        -0.00013972
  eigenvalues    EBANDS =        32.75486891
  atomic energy  EATOM  =      3704.22372399
  ---------------------------------------------------
  free energy    TOTEN  =       -13.06290517 eV

  energy without entropy =      -13.06276544  energy(sigma->0) =      -13.06283531


--------------------------------------------------------------------------------------------------------




----------------------------------------- Iteration    1(   9)  ---------------------------------------


    POTLOK:  VPU time    0.15: CPU time    0.15
    SETDIJ:  VPU time    0.45: CPU time    0.45
    EDDAV :  VPU time   13.23: CPU time   13.26
    DOS   :  VPU time    0.00: CPU time   -0.00
    CHARGE:  VPU time    1.37: CPU time    1.37
    MIXING:  VPU time    0.00: CPU time    0.00
    ------------------------------------------
      LOOP:  VPU time   15.20: CPU time   15.24

 eigenvalue-minimisations  :  5128
 total energy-change (2. order) :-0.4850631E-04  (-0.4840243E-04)
 number of electron   44.0000001 magnetization 
 augmentation part    16.2047661 magnetization 

 Broyden mixing:
  rms(total) = 0.27945E-02    rms(broyden)= 0.27945E-02
  rms(prec ) = 0.60298E-02
  weight for this iteration     100.00

 eigenvalues of (default mixing * dielectric matrix)
  average eigenvalue GAMMA=   1.7929
  0.9946  1.1419  2.5730  2.4621

 Free energy of the ion-electron system (eV)
  ---------------------------------------------------
  alpha Z        PSCENC =       400.27003392
  Ewald energy   TEWEN  =     -3790.90912546
  -1/2 Hartree   DENC   =      -501.70844114
  -V(xc)+E(xc)   XCENC  =        58.25895068
  PAW double counting   =      2977.80444202    -2893.40018757
  entropy T*S    EENTRO =        -0.00013926
  eigenvalues    EBANDS =        32.39778916
  atomic energy  EATOM  =      3704.22372399
  ---------------------------------------------------
  free energy    TOTEN  =       -13.06295367 eV

  energy without entropy =      -13.06281441  energy(sigma->0) =      -13.06288404


--------------------------------------------------------------------------------------------------------




----------------------------------------- Iteration    1(  10)  ---------------------------------------


    POTLOK:  VPU time    0.15: CPU time    0.15
    SETDIJ:  VPU time    0.44: CPU time    0.44
    EDDAV :  VPU time   12.73: CPU time   12.74
    DOS   :  VPU time    0.00: CPU time   -0.00
    CHARGE:  VPU time    1.37: CPU time    1.37
    MIXING:  VPU time    0.01: CPU time    0.01
    ------------------------------------------
      LOOP:  VPU time   14.70: CPU time   14.71

 eigenvalue-minimisations  :  4836
 total energy-change (2. order) :-0.3904379E-06  (-0.4247317E-05)
 number of electron   44.0000001 magnetization 
 augmentation part    16.2034792 magnetization 

 Broyden mixing:
  rms(total) = 0.29277E-03    rms(broyden)= 0.29277E-03
  rms(prec ) = 0.56402E-03
  weight for this iteration     100.00

 eigenvalues of (default mixing * dielectric matrix)
  average eigenvalue GAMMA=   1.7699
  2.8934  2.4282  1.0433  1.1260  1.3588

 Free energy of the ion-electron system (eV)
  ---------------------------------------------------
  alpha Z        PSCENC =       400.27003392
  Ewald energy   TEWEN  =     -3790.90912546
  -1/2 Hartree   DENC   =      -501.90822707
  -V(xc)+E(xc)   XCENC  =        58.26699178
  PAW double counting   =      2978.90269455    -2894.38242779
  entropy T*S    EENTRO =        -0.00013937
  eigenvalues    EBANDS =        32.47352140
  atomic energy  EATOM  =      3704.22372399
  ---------------------------------------------------
  free energy    TOTEN  =       -13.06295406 eV

  energy without entropy =      -13.06281469  energy(sigma->0) =      -13.06288438


--------------------------------------------------------------------------------------------------------




----------------------------------------- Iteration    1(  11)  ---------------------------------------


    POTLOK:  VPU time    0.15: CPU time    0.15
    SETDIJ:  VPU time    0.44: CPU time    0.44
    EDDAV :  VPU time   13.01: CPU time   13.01
    DOS   :  VPU time    0.00: CPU time   -0.00
    CHARGE:  VPU time    1.36: CPU time    1.36
    MIXING:  VPU time    0.00: CPU time    0.01
    ------------------------------------------
      LOOP:  VPU time   14.97: CPU time   14.98

 eigenvalue-minimisations  :  4996
 total energy-change (2. order) :-0.1187176E-05  (-0.1264715E-06)
 number of electron   44.0000001 magnetization 
 augmentation part    16.2032359 magnetization 

 Broyden mixing:
  rms(total) = 0.82631E-04    rms(broyden)= 0.82631E-04
  rms(prec ) = 0.14300E-03
  weight for this iteration     100.00

 eigenvalues of (default mixing * dielectric matrix)
  average eigenvalue GAMMA=   1.8234
  2.9122  2.4567  2.4567  1.1240  1.0138  0.9771

 Free energy of the ion-electron system (eV)
  ---------------------------------------------------
  alpha Z        PSCENC =       400.27003392
  Ewald energy   TEWEN  =     -3790.90912546
  -1/2 Hartree   DENC   =      -501.91822416
  -V(xc)+E(xc)   XCENC  =        58.26722589
  PAW double counting   =      2979.04650523    -2894.52325881
  entropy T*S    EENTRO =        -0.00013939
  eigenvalues    EBANDS =        32.48030354
  atomic energy  EATOM  =      3704.22372399
  ---------------------------------------------------
  free energy    TOTEN  =       -13.06295525 eV

  energy without entropy =      -13.06281586  energy(sigma->0) =      -13.06288555


--------------------------------------------------------------------------------------------------------




----------------------------------------- Iteration    1(  12)  ---------------------------------------


    POTLOK:  VPU time    0.15: CPU time    0.15
    SETDIJ:  VPU time    0.44: CPU time    0.45
    EDDAV :  VPU time   12.81: CPU time   12.84
    DOS   :  VPU time    0.00: CPU time   -0.00
    CHARGE:  VPU time    1.36: CPU time    1.36
    MIXING:  VPU time    0.00: CPU time    0.00
    ------------------------------------------
      LOOP:  VPU time   14.77: CPU time   14.81

 eigenvalue-minimisations  :  4912
 total energy-change (2. order) : 0.4483331E-06  (-0.8148804E-08)
 number of electron   44.0000001 magnetization 
 augmentation part    16.2032727 magnetization 

 Broyden mixing:
  rms(total) = 0.87138E-05    rms(broyden)= 0.87138E-05
  rms(prec ) = 0.19889E-04
  weight for this iteration     100.00

 eigenvalues of (default mixing * dielectric matrix)
  average eigenvalue GAMMA=   1.7506
  2.9077  2.5790  2.5242  1.1419  0.9962  1.0525  1.0525

 Free energy of the ion-electron system (eV)
  ---------------------------------------------------
  alpha Z        PSCENC =       400.27003392
  Ewald energy   TEWEN  =     -3790.90912546
  -1/2 Hartree   DENC   =      -501.91623390
  -V(xc)+E(xc)   XCENC  =        58.26717140
  PAW double counting   =      2978.92008696    -2894.39769054
  entropy T*S    EENTRO =        -0.00013939
  eigenvalues    EBANDS =        32.47921822
  atomic energy  EATOM  =      3704.22372399
  ---------------------------------------------------
  free energy    TOTEN  =       -13.06295480 eV

  energy without entropy =      -13.06281541  energy(sigma->0) =      -13.06288511


--------------------------------------------------------------------------------------------------------




----------------------------------------- Iteration    1(  13)  ---------------------------------------


    POTLOK:  VPU time    0.15: CPU time    0.15
    SETDIJ:  VPU time    0.44: CPU time    0.44
    EDDAV :  VPU time    8.60: CPU time    8.62
    DOS   :  VPU time    0.00: CPU time   -0.00
    CHARGE:  VPU time    1.35: CPU time    1.35
    MIXING:  VPU time    0.00: CPU time    0.00
    ------------------------------------------
      LOOP:  VPU time   10.56: CPU time   10.58

 eigenvalue-minimisations  :  2592
 total energy-change (2. order) : 0.1341959E-07  (-0.9018067E-10)
 number of electron   44.0000001 magnetization 
 augmentation part    16.2032626 magnetization 

 Broyden mixing:
  rms(total) = 0.23206E-05    rms(broyden)= 0.23206E-05
  rms(prec ) = 0.30132E-05
  weight for this iteration     100.00

 eigenvalues of (default mixing * dielectric matrix)
  average eigenvalue GAMMA=   1.8640
  2.8691  2.8691  2.5123  2.5123  1.1233  0.9812  1.0223  1.0223

 Free energy of the ion-electron system (eV)
  ---------------------------------------------------
  alpha Z        PSCENC =       400.27003392
  Ewald energy   TEWEN  =     -3790.90912546
  -1/2 Hartree   DENC   =      -501.91673749
  -V(xc)+E(xc)   XCENC  =        58.26719331
  PAW double counting   =      2978.91634803    -2894.39393604
  entropy T*S    EENTRO =        -0.00013939
  eigenvalues    EBANDS =        32.47968435
  atomic energy  EATOM  =      3704.22372399
  ---------------------------------------------------
  free energy    TOTEN  =       -13.06295479 eV

  energy without entropy =      -13.06281540  energy(sigma->0) =      -13.06288509


--------------------------------------------------------------------------------------------------------




----------------------------------------- Iteration    1(  14)  ---------------------------------------


    POTLOK:  VPU time    0.15: CPU time    0.15
    SETDIJ:  VPU time    0.45: CPU time    0.45
    EDDAV :  VPU time    8.52: CPU time    8.54
    DOS   :  VPU time    0.00: CPU time   -0.00
    ------------------------------------------
      LOOP:  VPU time    9.12: CPU time    9.15

 eigenvalue-minimisations  :  2540
 total energy-change (2. order) : 0.4174581E-09  (-0.8885585E-11)
 number of electron   44.0000001 magnetization 
 augmentation part    16.2032626 magnetization 

 Free energy of the ion-electron system (eV)
  ---------------------------------------------------
  alpha Z        PSCENC =       400.27003392
  Ewald energy   TEWEN  =     -3790.90912546
  -1/2 Hartree   DENC   =      -501.91681180
  -V(xc)+E(xc)   XCENC  =        58.26719731
  PAW double counting   =      2978.92201819    -2894.39950823
  entropy T*S    EENTRO =        -0.00013939
  eigenvalues    EBANDS =        32.47965669
  atomic energy  EATOM  =      3704.22372399
  ---------------------------------------------------
  free energy    TOTEN  =       -13.06295479 eV

  energy without entropy =      -13.06281540  energy(sigma->0) =      -13.06288509


--------------------------------------------------------------------------------------------------------




 average (electrostatic) potential at core
  the test charge radii are     1.2098
  (the norm of the test charge is              1.0000)
       1 -46.3939       2 -46.3939       3 -46.3939       4 -46.3939
 
 
 
 E-fermi :   4.6048     XC(G=0): -12.1639     alpha+bet : -9.2726
   add alpha+bet to get absolut eigen values

 k-point   1 :       0.0000    0.0000    0.0000
  band No.  band energies     occupation 
      1      -4.3006      2.00000
      2      -1.6841      2.00000
      3      -1.6841      2.00000
      4      -1.6841      2.00000
      5      -1.4237      2.00000
      6      -1.4237      2.00000
      7      -1.4237      2.00000
      8       0.3362      2.00000
      9       0.3362      2.00000
     10       0.3362      2.00000
     11       1.6225      2.00000
     12       1.6225      2.00000
     13       2.6009      2.00000
     14       2.6009      2.00000
     15       2.6009      2.00000
     16       2.9114      2.00000
     17       2.9114      2.00000
     18       2.9114      2.00000
     19       2.9114      2.00000
     20       2.9114      2.00000
     21       2.9114      2.00000
     22       5.8849      0.00000
     23       5.8849      0.00000
     24       5.8849      0.00000
     25       9.7014      0.00000
     26       9.7014      0.00000
     27       9.7014      0.00000
     28      14.4998      0.00000

 k-point   2 :       0.0833    0.0000    0.0000
  band No.  band energies     occupation 
      1      -4.2258      2.00000
      2      -1.6600      2.00000
      3      -1.6360      2.00000
      4      -1.6360      2.00000
      5      -1.3979      2.00000
      6      -1.3845      2.00000
      7      -1.3845      2.00000
      8       0.3009      2.00000
      9       0.3679      2.00000
     10       0.3679      2.00000
     11       1.5852      2.00000
     12       1.6380      2.00000
     13       2.5482      2.00000
     14       2.5482      2.00000
     15       2.5830      2.00000
     16       2.6882      2.00000
     17       2.6882      2.00000
     18       2.8466      2.00000
     19       2.8466      2.00000
     20       2.9115      2.00000
     21       2.9115      2.00000
     22       5.2834      0.00000
     23       6.1629      0.00000
     24       6.1629      0.00000
     25       9.6443      0.00000
     26       9.6443      0.00000
     27      10.4343      0.00000
     28      14.3530      0.00000

 k-point   3 :       0.1667    0.0000    0.0000
  band No.  band energies     occupation 
      1      -4.0041      2.00000
      2      -1.5961      2.00000
      3      -1.4969      2.00000
      4      -1.4969      2.00000
      5      -1.3214      2.00000
      6      -1.2670      2.00000
      7      -1.2670      2.00000
      8       0.1990      2.00000
      9       0.4623      2.00000
     10       0.4623      2.00000
     11       1.4784      2.00000
     12       1.6837      2.00000
     13       2.1797      2.00000
     14       2.1797      2.00000
     15       2.3948      2.00000
     16       2.3948      2.00000
     17       2.5306      2.00000
     18       2.6641      2.00000
     19       2.6641      2.00000
     20       2.9118      2.00000
     21       2.9118      2.00000
     22       4.1224      2.00000
     23       6.8342      0.00000
     24       6.8342      0.00000
     25       9.4915      0.00000
     26       9.4915      0.00000
     27      11.9954      0.00000
     28      13.9340      0.00000

 k-point   4 :       0.2500    0.0000    0.0000
  band No.  band energies     occupation 
      1      -3.6440      2.00000
      2      -1.5219      2.00000
      3      -1.2839      2.00000
      4      -1.2839      2.00000
      5      -1.1976      2.00000
      6      -1.0717      2.00000
      7      -1.0717      2.00000
      8       0.0407      2.00000
      9       0.6174      2.00000
     10       0.6174      2.00000
     11       1.3182      2.00000
     12       1.5866      2.00000
     13       1.5866      2.00000
     14       1.7570      2.00000
     15       2.1581      2.00000
     16       2.1581      2.00000
     17       2.3935      2.00000
     18       2.3935      2.00000
     19       2.4481      2.00000
     20       2.9121      2.00000
     21       2.9121      2.00000
     22       2.9418      2.00000
     23       7.6934      0.00000
     24       7.6934      0.00000
     25       9.2910      0.00000
     26       9.2910      0.00000
     27      13.2954      0.00000
     28      13.2954      0.00000

 k-point   5 :       0.3333    0.0000    0.0000
  band No.  band energies     occupation 
      1      -3.1642      2.00000
      2      -1.5031      2.00000
      3      -1.0325      2.00000
      4      -1.0325      2.00000
      5      -1.0322      2.00000
      6      -0.7996      2.00000
      7      -0.7996      2.00000
      8      -0.1588      2.00000
      9       0.8296      2.00000
     10       0.8296      2.00000
     11       0.9990      2.00000
     12       0.9990      2.00000
     13       1.1353      2.00000
     14       1.8537      2.00000
     15       1.8784      2.00000
     16       1.8784      2.00000
     17       1.9371      2.00000
     18       2.0710      2.00000
     19       2.0710      2.00000
     20       2.3422      2.00000
     21       2.9125      2.00000
     22       2.9125      2.00000
     23       8.6416      0.00000
     24       8.6416      0.00000
     25       9.1011      0.00000
     26       9.1011      0.00000
     27      12.4968      0.00000
     28      12.4968      0.00000

 k-point   6 :       0.4167    0.0000    0.0000
  band No.  band energies     occupation 
      1      -2.6050      2.00000
      2      -1.6541      2.00000
      3      -0.8335      2.00000
      4      -0.8094      2.00000
      5      -0.8094      2.00000
      6      -0.4525      2.00000
      7      -0.4525      2.00000
      8      -0.3822      2.00000
      9       0.4536      2.00000
     10       0.4536      2.00000
     11       0.9851      2.00000
     12       1.0927      2.00000
     13       1.0927      2.00000
     14       1.2533      2.00000
     15       1.6316      2.00000
     16       1.6316      2.00000
     17       1.7301      2.00000
     18       1.7301      2.00000
     19       1.9683      2.00000
     20       2.2210      2.00000
     21       2.9128      2.00000
     22       2.9128      2.00000
     23       8.9693      0.00000
     24       8.9693      0.00000
     25       9.6298      0.00000
     26       9.6298      0.00000
     27      11.5917      0.00000
     28      11.5917      0.00000

 k-point   7 :       0.5000    0.0000    0.0000
  band No.  band energies     occupation 
      1      -2.0525      2.00000
      2      -2.0525      2.00000
      3      -0.7148      2.00000
      4      -0.7148      2.00000
      5      -0.6124      2.00000
      6      -0.6124      2.00000
      7      -0.0331      2.00000
      8      -0.0331      2.00000
      9      -0.0331      2.00000
     10      -0.0331      2.00000
     11       0.9704      2.00000
     12       0.9704      2.00000
     13       1.3974      2.00000
     14       1.3974      2.00000
     15       1.3974      2.00000
     16       1.3974      2.00000
     17       1.5277      2.00000
     18       1.5277      2.00000
     19       2.0934      2.00000
     20       2.0934      2.00000
     21       2.9129      2.00000
     22       2.9129      2.00000
     23       8.9226      0.00000
     24       8.9226      0.00000
     25      10.6240      0.00000
     26      10.6240      0.00000
     27      10.6240      0.00000
     28      10.6240      0.00000

 k-point   8 :       0.0833    0.0833    0.0000
  band No.  band energies     occupation 
      1      -4.1519      2.00000
      2      -1.6114      2.00000
      3      -1.6114      2.00000
      4      -1.5945      2.00000
      5      -1.3591      2.00000
      6      -1.3591      2.00000
      7      -1.3407      2.00000
      8       0.2865      2.00000
      9       0.3797      2.00000
     10       0.3968      2.00000
     11       1.5753      2.00000
     12       1.6295      2.00000
     13       2.4903      2.00000
     14       2.4903      2.00000
     15       2.4985      2.00000
     16       2.5356      2.00000
     17       2.6516      2.00000
     18       2.6516      2.00000
     19       2.8466      2.00000
     20       2.8466      2.00000
     21       2.8685      2.00000
     22       5.5566      0.00000
     23       5.5566      0.00000
     24       6.4137      0.00000
     25       9.5789      0.00000
     26      10.3827      0.00000
     27      10.3827      0.00000
     28      13.7891      0.00000

 k-point   9 :       0.1667    0.0833    0.0000
  band No.  band energies     occupation 
      1      -3.9325      2.00000
      2      -1.5461      2.00000
      3      -1.4739      2.00000
      4      -1.4709      2.00000
      5      -1.2841      2.00000
      6      -1.2432      2.00000
      7      -1.2108      2.00000
      8       0.1972      2.00000
      9       0.4642      2.00000
     10       0.4823      2.00000
     11       1.4832      2.00000
     12       1.6714      2.00000
     13       2.0447      2.00000
     14       2.0942      2.00000
     15       2.2939      2.00000
     16       2.3532      2.00000
     17       2.4298      2.00000
     18       2.5682      2.00000
     19       2.6636      2.00000
     20       2.8461      2.00000
     21       2.8463      2.00000
     22       4.4352      2.00000
     23       6.1764      0.00000
     24       7.0417      0.00000
     25       9.4001      0.00000
     26      10.2535      0.00000
     27      11.9080      0.00000
     28      13.1776      0.00000

 k-point  10 :       0.2500    0.0833    0.0000
  band No.  band energies     occupation 
      1      -3.5762      2.00000
      2      -1.4696      2.00000
      3      -1.2845      2.00000
      4      -1.2551      2.00000
      5      -1.1628      2.00000
      6      -1.0505      2.00000
      7      -1.0024      2.00000
      8       0.0455      2.00000
      9       0.6170      2.00000
     10       0.6176      2.00000
     11       1.3369      2.00000
     12       1.4637      2.00000
     13       1.5398      2.00000
     14       1.7535      2.00000
     15       1.9461      2.00000
     16       2.1279      2.00000
     17       2.1921      2.00000
     18       2.3924      2.00000
     19       2.4477      2.00000
     20       2.8412      2.00000
     21       2.8458      2.00000
     22       3.3763      2.00000
     23       6.9009      0.00000
     24       7.8692      0.00000
     25       9.1550      0.00000
     26      10.1215      0.00000
     27      12.5874      0.00000
     28      13.4303      0.00000

 k-point  11 :       0.3333    0.0833    0.0000
  band No.  band energies     occupation 
      1      -3.1016      2.00000
      2      -1.4485      2.00000
      3      -1.0443      2.00000
      4      -1.0009      2.00000
      5      -0.9995      2.00000
      6      -0.7824      2.00000
      7      -0.7350      2.00000
      8      -0.1481      2.00000
      9       0.7715      2.00000
     10       0.8283      2.00000
     11       0.8932      2.00000
     12       0.9762      2.00000
     13       1.2014      2.00000
     14       1.4624      2.00000
     15       1.8608      2.00000
     16       1.8639      2.00000
     17       1.9141      2.00000
     18       2.0695      2.00000
     19       2.2418      2.00000
     20       2.6419      2.00000
     21       2.8407      2.00000
     22       2.8450      2.00000
     23       7.5830      0.00000
     24       8.7969      0.00000
     25       8.8986      0.00000
     26      10.1028      0.00000
     27      12.0022      0.00000
     28      12.6283      0.00000

 k-point  12 :       0.4167    0.0833    0.0000
  band No.  band energies     occupation 
      1      -2.5479      2.00000
      2      -1.5996      2.00000
      3      -0.8065      2.00000
      4      -0.8020      2.00000
      5      -0.7717      2.00000
      6      -0.4409      2.00000
      7      -0.4307      2.00000
      8      -0.3657      2.00000
      9       0.3734      2.00000
     10       0.4465      2.00000
     11       0.8184      2.00000
     12       1.0113      2.00000
     13       1.0910      2.00000
     14       1.2504      2.00000
     15       1.6282      2.00000
     16       1.6617      2.00000
     17       1.7283      2.00000
     18       1.8747      2.00000
     19       1.9968      2.00000
     20       2.3254      2.00000
     21       2.8415      2.00000
     22       2.8440      2.00000
     23       8.1012      0.00000
     24       8.6626      0.00000
     25       9.7722      0.00000
     26      10.3214      0.00000
     27      11.3948      0.00000
     28      11.7230      0.00000

 k-point  13 :       0.5000    0.0833    0.0000
  band No.  band energies     occupation 
      1      -1.9987      2.00000
      2      -1.9987      2.00000
      3      -0.6810      2.00000
      4      -0.6810      2.00000
      5      -0.5904      2.00000
      6      -0.5904      2.00000
      7      -0.0718      2.00000
      8      -0.0718      2.00000
      9      -0.0293      2.00000
     10      -0.0293      2.00000
     11       0.8139      2.00000
     12       0.8139      2.00000
     13       1.3956      2.00000
     14       1.3956      2.00000
     15       1.5159      2.00000
     16       1.5159      2.00000
     17       1.5422      2.00000
     18       1.5422      2.00000
     19       2.1479      2.00000
     20       2.1479      2.00000
     21       2.8427      2.00000
     22       2.8427      2.00000
     23       8.4270      0.00000
     24       8.4270      0.00000
     25      10.7587      0.00000
     26      10.7587      0.00000
     27      10.7952      0.00000
     28      10.7952      0.00000

 k-point  14 :       0.1667    0.1667    0.0000
  band No.  band energies     occupation 
      1      -3.7201      2.00000
      2      -1.4010      2.00000
      3      -1.4010      2.00000
      4      -1.3957      2.00000
      5      -1.1727      2.00000
      6      -1.1727      2.00000
      7      -1.0568      2.00000
      8       0.1568      2.00000
      9       0.5077      2.00000
     10       0.5403      2.00000
     11       1.4513      2.00000
     12       1.6862      2.00000
     13       1.7533      2.00000
     14       1.7533      2.00000
     15       1.8169      2.00000
     16       2.2304      2.00000
     17       2.4262      2.00000
     18       2.4262      2.00000
     19       2.6620      2.00000
     20       2.6620      2.00000
     21       2.7424      2.00000
     22       5.0558      0.00000
     23       5.0558      0.00000
     24       7.5901      0.00000
     25       9.1419      0.00000
     26      11.6732      0.00000
     27      11.6732      0.00000
     28      12.4702      0.00000

 k-point  15 :       0.2500    0.1667    0.0000
  band No.  band energies     occupation 
      1      -3.3756      2.00000
      2      -1.3170      2.00000
      3      -1.2524      2.00000
      4      -1.1768      2.00000
      5      -1.0590      2.00000
      6      -0.9881      2.00000
      7      -0.8335      2.00000
      8       0.0431      2.00000
      9       0.6241      2.00000
     10       0.6343      2.00000
     11       1.1786      2.00000
     12       1.3495      2.00000
     13       1.3699      2.00000
     14       1.3875      2.00000
     15       1.7832      2.00000
     16       2.0361      2.00000
     17       2.2159      2.00000
     18       2.3367      2.00000
     19       2.3894      2.00000
     20       2.6594      2.00000
     21       2.6846      2.00000
     22       4.0220      2.00000
     23       5.7328      0.00000
     24       8.3507      0.00000
     25       8.7677      0.00000
     26      11.3751      0.00000
     27      11.9259      0.00000
     28      13.1505      0.00000

 k-point  16 :       0.3333    0.1667    0.0000
  band No.  band energies     occupation 
      1      -2.9172      2.00000
      2      -1.2890      2.00000
      3      -1.0442      2.00000
      4      -0.9077      2.00000
      5      -0.9075      2.00000
      6      -0.7320      2.00000
      7      -0.5803      2.00000
      8      -0.1242      2.00000
      9       0.6409      2.00000
     10       0.6862      2.00000
     11       0.8338      2.00000
     12       0.9017      2.00000
     13       0.9556      2.00000
     14       1.2709      2.00000
     15       1.8030      2.00000
     16       1.9369      2.00000
     17       1.9574      2.00000
     18       2.0655      2.00000
     19       2.1515      2.00000
     20       2.6564      2.00000
     21       2.6608      2.00000
     22       3.2269      2.00000
     23       6.3819      0.00000
     24       8.3451      0.00000
     25       9.2314      0.00000
     26      11.1243      0.00000
     27      11.5197      0.00000
     28      13.0066      0.00000

 k-point  17 :       0.4167    0.1667    0.0000
  band No.  band energies     occupation 
      1      -2.3812      2.00000
      2      -1.4417      2.00000
      3      -0.7888      2.00000
      4      -0.7267      2.00000
      5      -0.6624      2.00000
      6      -0.4075      2.00000
      7      -0.3556      2.00000
      8      -0.3204      2.00000
      9       0.1735      2.00000
     10       0.4221      2.00000
     11       0.6473      2.00000
     12       0.6526      2.00000
     13       1.0908      2.00000
     14       1.3475      2.00000
     15       1.6071      2.00000
     16       1.7066      2.00000
     17       1.7242      2.00000
     18       1.8764      2.00000
     19       2.1324      2.00000
     20       2.6526      2.00000
     21       2.6533      2.00000
     22       2.7055      2.00000
     23       6.9624      0.00000
     24       7.9139      0.00000
     25      10.1756      0.00000
     26      11.0036      0.00000
     27      11.2239      0.00000
     28      12.0995      0.00000

 k-point  18 :       0.5000    0.1667    0.0000
  band No.  band energies     occupation 
      1      -1.8435      2.00000
      2      -1.8435      2.00000
      3      -0.5895      2.00000
      4      -0.5895      2.00000
      5      -0.5265      2.00000
      6      -0.5265      2.00000
      7      -0.1639      2.00000
      8      -0.1639      2.00000
      9      -0.0198      2.00000
     10      -0.0198      2.00000
     11       0.5782      2.00000
     12       0.5782      2.00000
     13       1.3927      2.00000
     14       1.3927      2.00000
     15       1.5611      2.00000
     16       1.5611      2.00000
     17       1.5778      2.00000
     18       1.5778      2.00000
     19       2.3746      2.00000
     20       2.3746      2.00000
     21       2.6514      2.00000
     22       2.6514      2.00000
     23       7.4649      0.00000
     24       7.4649      0.00000
     25      11.0424      0.00000
     26      11.0424      0.00000
     27      11.1434      0.00000
     28      11.1434      0.00000

 k-point  19 :       0.2500    0.2500    0.0000
  band No.  band energies     occupation 
      1      -3.0513      2.00000
      2      -1.1604      2.00000
      3      -1.0790      2.00000
      4      -1.0790      2.00000
      5      -0.8877      2.00000
      6      -0.8877      2.00000
      7      -0.6106      2.00000
      8      -0.0035      2.00000
      9       0.6395      2.00000
     10       0.7120      2.00000
     11       0.8267      2.00000
     12       0.8267      2.00000
     13       1.1186      2.00000
     14       1.2950      2.00000
     15       1.8846      2.00000
     16       1.9131      2.00000
     17       2.1558      2.00000
     18       2.1558      2.00000
     19       2.3851      2.00000
     20       2.3851      2.00000
     21       2.5401      2.00000
     22       4.6763      0.00000
     23       4.6763      0.00000
     24       8.2147      0.00000
     25       9.0462      0.00000
     26      11.5150      0.00000
     27      12.5268      0.00000
     28      12.5268      0.00000

 k-point  20 :       0.3333    0.2500    0.0000
  band No.  band energies     occupation 
      1      -2.6213      2.00000
      2      -1.0393      2.00000
      3      -1.0020      2.00000
      4      -0.7852      2.00000
      5      -0.7551      2.00000
      6      -0.6518      2.00000
      7      -0.3800      2.00000
      8      -0.1102      2.00000
      9       0.3384      2.00000
     10       0.4978      2.00000
     11       0.6297      2.00000
     12       0.7620      2.00000
     13       0.8732      2.00000
     14       1.2373      2.00000
     15       1.6965      2.00000
     16       1.9263      2.00000
     17       1.9929      2.00000
     18       2.0610      2.00000
     19       2.1309      2.00000
     20       2.3810      2.00000
     21       2.4500      2.00000
     22       3.8252      2.00000
     23       5.3075      0.00000
     24       7.6136      0.00000
     25       9.8762      0.00000
     26      11.2960      0.00000
     27      11.9656      0.00000
     28      13.5378      0.00000

 k-point  21 :       0.4167    0.2500    0.0000
  band No.  band energies     occupation 
      1      -2.1188      2.00000
      2      -1.2010      2.00000
      3      -0.7775      2.00000
      4      -0.5984      2.00000
      5      -0.4980      2.00000
      6      -0.3565      2.00000
      7      -0.2595      2.00000
      8      -0.2210      2.00000
      9      -0.0773      2.00000
     10       0.3354      2.00000
     11       0.3713      2.00000
     12       0.5331      2.00000
     13       1.1078      2.00000
     14       1.2974      2.00000
     15       1.5431      2.00000
     16       1.6919      2.00000
     17       1.7223      2.00000
     18       1.7488      2.00000
     19       2.3797      2.00000
     20       2.4044      2.00000
     21       2.4093      2.00000
     22       3.2000      2.00000
     23       5.9034      0.00000
     24       7.0309      0.00000
     25      10.7848      0.00000
     26      11.2271      0.00000
     27      11.5503      0.00000
     28      12.6782      0.00000

 k-point  22 :       0.5000    0.2500    0.0000
  band No.  band energies     occupation 
      1      -1.6063      2.00000
      2      -1.6063      2.00000
      3      -0.5023      2.00000
      4      -0.5023      2.00000
      5      -0.4284      2.00000
      6      -0.4284      2.00000
      7      -0.2234      2.00000
      8      -0.2234      2.00000
[...]
     14       1.3432      2.00000
     15       1.3432      2.00000
     16       1.3432      2.00000
     17       2.2650      2.00000
     18       2.2650      2.00000
     19       2.2650      2.00000
     20       2.2650      2.00000
     21       4.2013      2.00000
     22       4.2013      2.00000
     23       4.2013      2.00000
     24       4.2013      2.00000
     25       9.2514      0.00000
     26       9.2514      0.00000
     27       9.2514      0.00000
     28       9.2514      0.00000

 k-point  75 :       0.3333    0.3333    0.3333
  band No.  band energies     occupation 
      1      -2.0775      2.00000
      2      -1.3906      2.00000
      3      -1.3906      2.00000
      4      -1.3906      2.00000
      5       0.0181      2.00000
      6       0.0181      2.00000
      7       0.0181      2.00000
      8       0.4717      2.00000
      9       0.4717      2.00000
     10       0.8066      2.00000
     11       0.8066      2.00000
     12       0.8066      2.00000
     13       0.9663      2.00000
     14       0.9663      2.00000
     15       0.9663      2.00000
     16       1.0884      2.00000
     17       2.1508      2.00000
     18       2.1508      2.00000
     19       2.6762      2.00000
     20       2.6762      2.00000
     21       2.6762      2.00000
     22       5.2203      0.00000
     23       5.2203      0.00000
     24       5.2203      0.00000
     25       8.4158      0.00000
     26       8.4158      0.00000
     27       8.4158      0.00000
     28      11.9687      0.00000

 k-point  76 :       0.4167    0.3333    0.3333
  band No.  band energies     occupation 
      1      -1.9562      2.00000
      2      -1.6026      2.00000
      3      -1.4609      2.00000
      4      -1.4609      2.00000
      5       0.0432      2.00000
      6       0.0432      2.00000
      7       0.1625      2.00000
      8       0.4008      2.00000
      9       0.4673      2.00000
     10       0.6395      2.00000
     11       0.6983      2.00000
     12       0.6983      2.00000
     13       1.1354      2.00000
     14       1.2642      2.00000
     15       1.2642      2.00000
     16       1.3629      2.00000
     17       2.3784      2.00000
     18       2.3961      2.00000
     19       2.6211      2.00000
     20       2.6211      2.00000
     21       2.6538      2.00000
     22       4.0889      2.00000
     23       5.6234      0.00000
     24       5.6234      0.00000
     25       7.5974      0.00000
     26       7.5974      0.00000
     27       9.1649      0.00000
     28      10.9477      0.00000

 k-point  77 :       0.5000    0.3333    0.3333
  band No.  band energies     occupation 
      1      -1.7958      2.00000
      2      -1.7958      2.00000
      3      -1.4842      2.00000
      4      -1.4842      2.00000
      5       0.0493      2.00000
      6       0.0493      2.00000
      7       0.2957      2.00000
      8       0.2957      2.00000
      9       0.5242      2.00000
     10       0.5242      2.00000
     11       0.6634      2.00000
     12       0.6634      2.00000
     13       1.2995      2.00000
     14       1.2995      2.00000
     15       1.3915      2.00000
     16       1.3915      2.00000
     17       2.5514      2.00000
     18       2.5514      2.00000
     19       2.5789      2.00000
     20       2.5789      2.00000
     21       3.1174      2.00000
     22       3.1174      2.00000
     23       5.8611      0.00000
     24       5.8611      0.00000
     25       7.2198      0.00000
     26       7.2198      0.00000
     27      10.0121      0.00000
     28      10.0121      0.00000

 k-point  78 :       0.4167    0.4167    0.3333
  band No.  band energies     occupation 
      1      -1.9156      2.00000
      2      -1.6630      2.00000
      3      -1.6630      2.00000
      4      -1.5917      2.00000
      5       0.1178      2.00000
      6       0.1729      2.00000
      7       0.1729      2.00000
      8       0.3760      2.00000
      9       0.4104      2.00000
     10       0.5449      2.00000
     11       0.5449      2.00000
     12       0.5705      2.00000
     13       1.5305      2.00000
     14       1.5305      2.00000
     15       1.5842      2.00000
     16       1.8254      2.00000
     17       2.3091      2.00000
     18       2.5943      2.00000
     19       2.6107      2.00000
     20       2.6107      2.00000
     21       2.7996      2.00000
     22       4.4908      2.00000
     23       4.4908      2.00000
     24       5.5279      0.00000
     25       7.2146      0.00000
     26       8.2574      0.00000
     27       8.2574      0.00000
     28       9.9430      0.00000

 k-point  79 :       0.5000    0.4167    0.3333
  band No.  band energies     occupation 
      1      -1.8171      2.00000
      2      -1.8171      2.00000
      3      -1.6594      2.00000
      4      -1.6594      2.00000
      5       0.1621      2.00000
      6       0.1621      2.00000
      7       0.2896      2.00000
      8       0.2896      2.00000
      9       0.4458      2.00000
     10       0.4458      2.00000
     11       0.5179      2.00000
     12       0.5179      2.00000
     13       1.7158      2.00000
     14       1.7158      2.00000
     15       1.7668      2.00000
     16       1.7668      2.00000
     17       2.4919      2.00000
     18       2.4919      2.00000
     19       2.5569      2.00000
     20       2.5569      2.00000
     21       3.5105      2.00000
     22       3.5105      2.00000
     23       5.0214      0.00000
     24       5.0214      0.00000
     25       7.5567      0.00000
     26       7.5567      0.00000
     27       9.0448      0.00000
     28       9.0448      0.00000

 k-point  80 :       0.5000    0.5000    0.3333
  band No.  band energies     occupation 
      1      -1.7715      2.00000
      2      -1.7715      2.00000
      3      -1.7715      2.00000
      4      -1.7715      2.00000
      5       0.2509      2.00000
      6       0.2509      2.00000
      7       0.2509      2.00000
      8       0.2509      2.00000
      9       0.4377      2.00000
     10       0.4377      2.00000
     11       0.4377      2.00000
     12       0.4377      2.00000
     13       1.9223      2.00000
     14       1.9223      2.00000
     15       1.9223      2.00000
     16       1.9223      2.00000
     17       2.4649      2.00000
     18       2.4649      2.00000
     19       2.4649      2.00000
     20       2.4649      2.00000
     21       4.1678      2.00000
     22       4.1678      2.00000
     23       4.1678      2.00000
     24       4.1678      2.00000
     25       8.2176      0.00000
     26       8.2176      0.00000
     27       8.2176      0.00000
     28       8.2176      0.00000

 k-point  81 :       0.4167    0.4167    0.4167
  band No.  band energies     occupation 
      1      -1.9406      2.00000
      2      -1.7756      2.00000
      3      -1.7756      2.00000
      4      -1.7756      2.00000
      5       0.2201      2.00000
      6       0.2201      2.00000
      7       0.2201      2.00000
      8       0.3562      2.00000
      9       0.3562      2.00000
     10       0.4388      2.00000
     11       0.4388      2.00000
     12       0.4388      2.00000
     13       1.9433      2.00000
     14       1.9433      2.00000
     15       1.9433      2.00000
     16       2.5003      2.00000
     17       2.5003      2.00000
     18       2.6498      2.00000
     19       2.6498      2.00000
     20       2.6498      2.00000
     21       2.7311      2.00000
     22       4.6280      0.00106
     23       4.6280      0.00106
     24       4.6280      0.00106
     25       7.5045      0.00000
     26       7.5045      0.00000
     27       7.5045      0.00000
     28       8.9704      0.00000

 k-point  82 :       0.5000    0.4167    0.4167
  band No.  band energies     occupation 
      1      -1.8936      2.00000
      2      -1.8936      2.00000
      3      -1.8134      2.00000
      4      -1.8134      2.00000
      5       0.2399      2.00000
      6       0.2399      2.00000
      7       0.3032      2.00000
      8       0.3032      2.00000
      9       0.3660      2.00000
     10       0.3660      2.00000
     11       0.3997      2.00000
     12       0.3997      2.00000
     13       2.1338      2.00000
     14       2.1338      2.00000
     15       2.2660      2.00000
     16       2.2660      2.00000
     17       2.6177      2.00000
     18       2.6177      2.00000
     19       2.6242      2.00000
     20       2.6242      2.00000
     21       3.6245      2.00000
     22       3.6245      2.00000
     23       4.7017      0.00000
     24       4.7017      0.00000
     25       7.2131      0.00000
     26       7.2131      0.00000
     27       8.1453      0.00000
     28       8.1453      0.00000

 k-point  83 :       0.5000    0.5000    0.4167
  band No.  band energies     occupation 
      1      -1.8924      2.00000
      2      -1.8924      2.00000
      3      -1.8924      2.00000
      4      -1.8924      2.00000
      5       0.2946      2.00000
      6       0.2946      2.00000
      7       0.2946      2.00000
      8       0.2946      2.00000
      9       0.3427      2.00000
     10       0.3427      2.00000
     11       0.3427      2.00000
     12       0.3427      2.00000
     13       2.4211      2.00000
     14       2.4211      2.00000
     15       2.4211      2.00000
     16       2.4211      2.00000
     17       2.5952      2.00000
     18       2.5952      2.00000
     19       2.5952      2.00000
     20       2.5952      2.00000
     21       4.1028      2.00000
     22       4.1028      2.00000
     23       4.1028      2.00000
     24       4.1028      2.00000
     25       7.4892      0.00000
     26       7.4892      0.00000
     27       7.4892      0.00000
     28       7.4892      0.00000

 k-point  84 :       0.5000    0.5000    0.5000
  band No.  band energies     occupation 
      1      -1.9331      2.00000
      2      -1.9331      2.00000
      3      -1.9331      2.00000
      4      -1.9331      2.00000
      5       0.3105      2.00000
      6       0.3105      2.00000
      7       0.3105      2.00000
      8       0.3105      2.00000
      9       0.3105      2.00000
     10       0.3105      2.00000
     11       0.3105      2.00000
     12       0.3105      2.00000
     13       2.6405      2.00000
     14       2.6405      2.00000
     15       2.6405      2.00000
     16       2.6405      2.00000
     17       2.6405      2.00000
     18       2.6405      2.00000
     19       2.6405      2.00000
     20       2.6405      2.00000
     21       4.0558      2.00000
     22       4.0558      2.00000
     23       4.0558      2.00000
     24       4.0558      2.00000
     25       7.2182      0.00000
     26       7.2182      0.00000
     27       7.2182      0.00000
     28       7.2182      0.00000


--------------------------------------------------------------------------------------------------------


 soft charge-density along one line, spin component           1
         0         1         2         3         4         5         6         7         8         9
 total charge-density along one line
 
 pseudopotential strength for first ion, spin component:           1
-10.164  -0.000  -0.000  -0.000   0.000  -0.052   0.000   0.000
 -0.000 -10.164   0.000  -0.000   0.000   0.000  -0.052  -0.000
 -0.000   0.000 -10.150   0.000   0.000   0.000  -0.000  -0.053
 -0.000  -0.000   0.000 -10.164  -0.000   0.000   0.000  -0.000
  0.000   0.000   0.000  -0.000 -10.150  -0.000  -0.000  -0.000
 -0.052   0.000   0.000   0.000  -0.000   0.277  -0.000  -0.000
  0.000  -0.052  -0.000   0.000  -0.000  -0.000   0.277   0.000
  0.000  -0.000  -0.053  -0.000  -0.000  -0.000   0.000   0.278
  0.000   0.000  -0.000  -0.052   0.000  -0.000   0.000   0.000
 -0.000  -0.000  -0.000   0.000  -0.053   0.000   0.000   0.000
 -0.000   0.000  -0.000   0.000   0.000  -0.000   0.000  -0.000
  0.000  -0.000   0.000  -0.000  -0.000  -0.000   0.000  -0.000
  0.000  -0.000   0.000   0.000   0.000  -0.000   0.000  -0.000
  0.000  -0.000  -0.000   0.000  -0.000  -0.000   0.000   0.000
 -0.000   0.000  -0.000  -0.000   0.000   0.000  -0.000   0.000
 -0.000   0.000  -0.000  -0.000  -0.000   0.000  -0.000   0.000
 -0.000   0.000   0.000  -0.000   0.000   0.000  -0.000  -0.000
  0.000  -0.000   0.000   0.000  -0.000  -0.000   0.000  -0.000
 total augmentation occupancy for first ion, spin component:           1
  1.848  -0.014  -0.008  -0.004  -0.017  -0.031   0.013  -0.018   0.004   0.016   0.024  -0.017  -0.000   0.000   0.000   0.000
 -0.014   1.958  -0.002  -0.017  -0.002   0.013  -0.099   0.008   0.019  -0.013   0.067   0.007  -0.000  -0.000  -0.000   0.000
 -0.008  -0.002   1.921   0.006  -0.025  -0.018   0.008  -0.066  -0.002   0.025  -0.070  -0.065   0.000   0.000  -0.000   0.000
 -0.004  -0.017   0.006   1.923  -0.003   0.004   0.019  -0.002  -0.041   0.014   0.027  -0.003  -0.000  -0.000  -0.000  -0.000
 -0.017  -0.002  -0.025  -0.003   1.987   0.016  -0.013   0.025   0.014  -0.124   0.103   0.043  -0.000  -0.000   0.000  -0.000
 -0.031   0.013  -0.018   0.004   0.016   0.194  -0.008   0.040  -0.002  -0.013   0.030   0.038   0.000   0.000   0.000   0.000
  0.013  -0.099   0.008   0.019  -0.013  -0.008   0.178  -0.012  -0.013   0.024  -0.023   0.020  -0.000  -0.000   0.000   0.000
 -0.018   0.008  -0.066  -0.002   0.025   0.040  -0.012   0.151  -0.003  -0.001   0.120   0.003   0.000   0.000  -0.000   0.000
  0.004   0.019  -0.002  -0.041   0.014  -0.002  -0.013  -0.003   0.125  -0.022   0.003   0.018  -0.000  -0.000   0.000   0.000
  0.016  -0.013   0.025   0.014  -0.124  -0.013   0.024  -0.001  -0.022   0.110  -0.090   0.015  -0.000  -0.000  -0.000   0.000
  0.024   0.067  -0.070   0.027   0.103   0.030  -0.023   0.120   0.003  -0.090   1.035  -0.331  -0.000   0.000  -0.000  -0.000
 -0.017   0.007  -0.065  -0.003   0.043   0.038   0.020   0.003   0.018   0.015  -0.331   0.201   0.000  -0.000   0.000   0.000
 -0.000  -0.000   0.000  -0.000  -0.000   0.000  -0.000   0.000  -0.000  -0.000  -0.000   0.000   0.122   0.016  -0.006  -0.009
  0.000  -0.000   0.000  -0.000  -0.000   0.000  -0.000   0.000  -0.000  -0.000   0.000  -0.000   0.016   0.100   0.000  -0.001
  0.000  -0.000  -0.000  -0.000   0.000   0.000   0.000  -0.000   0.000  -0.000  -0.000   0.000  -0.006   0.000   0.177  -0.001
  0.000   0.000   0.000  -0.000  -0.000   0.000   0.000   0.000   0.000   0.000  -0.000   0.000  -0.009  -0.001  -0.001   0.001
  0.000  -0.000   0.000  -0.000  -0.000   0.000   0.000   0.000  -0.000  -0.000   0.000  -0.000  -0.001  -0.007  -0.000   0.000
  0.000  -0.000  -0.000  -0.000   0.000   0.000   0.000   0.000   0.000  -0.000  -0.000   0.000  -0.001  -0.000  -0.013   0.000


------------------------ aborting loop because EDIFF is reached ----------------------------------------




--------------------------------------------------------------------------------------------------------


    CHARGE:  VPU time    1.36: CPU time    1.36
    FORLOC:  VPU time    0.00: CPU time    0.00
    FORNL :  VPU time    3.56: CPU time    3.57
    STRESS:  VPU time    8.57: CPU time    8.58
    FORCOR:  VPU time    0.17: CPU time    0.17
    FORHAR:  VPU time    0.04: CPU time    0.04
    MIXING:  VPU time    0.01: CPU time    0.01


--------------------------------------------------------------------------------------------------------



  FREE ENERGIE OF THE ION-ELECTRON SYSTEM (eV)
  ---------------------------------------------------
  free  energy   TOTEN  =       -13.062955 eV

  energy  without entropy=      -13.062815  energy(sigma->0) =      -13.062885
 

  FORCE on cell =-STRESS in cart. coord.  units (eV/reduce length):
  Direction    X        Y        Z        XY       YZ       ZX
  --------------------------------------------------------------------------------------
  Alpha Z    400.27    400.27    400.27
  Ewald    -1263.64  -1263.64  -1263.64      0.00     -0.00     -0.00
  Hartree    167.31    167.31    167.31     -0.00     -0.00     -0.00
  E(xc)     -197.90   -197.90   -197.90      0.00      0.00      0.00
  Local      312.20    312.20    312.20      0.00      0.00     -0.00
  n-local   -190.57   -207.27   -211.43      1.31      5.27      2.03
  augment    171.96    171.96    171.96     -0.00     -0.00     -0.00
  Kinetic    615.39    611.36    606.87     -4.06     -1.79     -2.51
  -------------------------------------------------------------------------------------
  Total       -1.69     -1.69     -1.69      0.00     -0.00      0.00
  in kB      -36.21    -36.21    -36.21      0.00     -0.00      0.00
  external pressure =      -36.21 kB  Pullay stress =        0.00 kB


 VOLUME and BASIS-vectors are now :
 -----------------------------------------------------------------------------
  energy-cutoff  :      750.00
  volume of cell :       74.86
      direct lattice vectors                 reciprocal lattice vectors
     4.214580421  0.000000000  0.000000000     0.237271543  0.000000000  0.000000000
     0.000000000  4.214580421  0.000000000     0.000000000  0.237271543  0.000000000
     0.000000000  0.000000000  4.214580421     0.000000000  0.000000000  0.237271543

  length of vectors
     4.214580421  4.214580421  4.214580421     0.237271543  0.237271543  0.237271543


 FORCES acting on ions
    electron-ion (+dipol)            ewald-force                    non-local-force                 convergence-correction
 -----------------------------------------------------------------------------------------------
   0.152E-13 0.125E-13 0.422E-14   -.396E-13 -.101E-13 -.698E-15   0.000E+00 -.258E-24 -.775E-25   -.421E-13 -.647E-13 -.523E-13
   -.447E-13 -.735E-12 -.195E-11   0.298E-14 0.636E-14 -.944E-15   -.310E-24 0.517E-25 0.000E+00   0.908E-14 0.277E-13 -.515E-13
   -.457E-13 0.125E-13 -.268E-11   0.589E-14 -.739E-14 0.290E-14   0.103E-24 0.517E-25 0.646E-25   0.657E-14 -.660E-13 0.290E-13
   0.153E-13 -.460E-13 -.537E-13   0.319E-13 0.903E-14 0.265E-14   0.258E-25 -.194E-25 0.323E-24   -.426E-13 0.226E-13 0.269E-13
 -----------------------------------------------------------------------------------------------
   -.599E-13 -.756E-12 -.468E-11   0.118E-14 -.206E-14 0.390E-14   -.181E-24 -.174E-24 0.310E-24   -.691E-13 -.805E-13 -.480E-13
 
 
 POSITION                                       TOTAL-FORCE (eV/Angst)
 -----------------------------------------------------------------------------------
      0.00000      0.00000      0.00000         0.000000      0.000000      0.000000
      2.10729      2.10729      0.00000         0.000000      0.000000     -0.000000
      2.10729      0.00000      2.10729        -0.000000      0.000000      0.000000
      0.00000      2.10729      2.10729        -0.000000     -0.000000     -0.000000
 -----------------------------------------------------------------------------------
    total drift:                               -0.000000     -0.000000     -0.000000


--------------------------------------------------------------------------------------------------------



 mean value of Nose-termostat <S>:     1.000 mean value of <T> :     0.000
 mean temperature <T/S>/<1/S>  :     0.000

     LOOP+:  VPU time  178.60: CPU time  178.98
  
  
 General timing and accounting informations for this job:
 ========================================================
  
                  Total CPU time used (sec):      181.534
                            User time (sec):      165.681
                          System time (sec):       15.854
                         Elapsed time (sec):      181.966
  
                   Maximum memory used (kb):      500376.
                   Average memory used (kb):           0.
  
                          Minor page faults:       185661
                          Major page faults:            0
                 Voluntary context switches:          852
