   4   4   0   0
  0.1131459E+02  0.3563688E-09  0.3563688E-09  0.3563688E-09  0.5000000E-15
  1.000000000000000E-004
  CAR 
 unknown system                          
     27.57757468     -7.08687205  301      4.18439130      1.00000000
     -7.087  0.0000E+00  0.0000E+00
     -6.971  0.0000E+00  0.0000E+00
     -6.856  0.0000E+00  0.0000E+00
     -6.740  0.0000E+00  0.0000E+00
     -6.625  0.0000E+00  0.0000E+00
     -6.509  0.0000E+00  0.0000E+00
     -6.394  0.0000E+00  0.0000E+00
     -6.278  0.0000E+00  0.0000E+00
     -6.162  0.0000E+00  0.0000E+00
     -6.047  0.0000E+00  0.0000E+00
     -5.931  0.0000E+00  0.0000E+00
     -5.816  0.0000E+00  0.0000E+00
     -5.700  0.0000E+00  0.0000E+00
     -5.585  0.0000E+00  0.0000E+00
     -5.469  0.6343E-02  0.7329E-03
     -5.354  0.7569E-01  0.1385E-01
     -5.238  0.3764E-01  0.2403E-01
     -5.123  0.2798E+00  0.5638E-01
     -5.007  0.2628E-01  0.6207E-01
     -4.891  0.1953E+00  0.9035E-01
     -4.776  0.1516E+00  0.1247E+00
     -4.660  0.1514E+00  0.1480E+00
     -4.545  0.8622E-08  0.1829E+00
     -4.429  0.3400E+00  0.2222E+00
     -4.314  0.3770E+00  0.2659E+00
     -4.198  0.4380E+00  0.3167E+00
     -4.083  0.1514E+00  0.3360E+00
     -3.967  0.2973E+00  0.3704E+00
     -3.852  0.6098E+00  0.4458E+00
     -3.736  0.3960E+00  0.4969E+00
     -3.620  0.3028E+00  0.5386E+00
     -3.505  0.3649E+00  0.5808E+00
     -3.389  0.4470E+00  0.6515E+00
     -3.274  0.1886E+00  0.6916E+00
     -3.158  0.1514E+00  0.7442E+00
     -3.043  0.6068E+00  0.8318E+00
     -2.927  0.1875E+00  0.8883E+00
     -2.812  0.6398E+00  0.9755E+00
     -2.696  0.5083E-01  0.9949E+00
     -2.580  0.5565E+00  0.1099E+01
     -2.465  0.3961E+00  0.1176E+01
     -2.349  0.5458E+00  0.1298E+01
     -2.234  0.3214E+00  0.1360E+01
     -2.118  0.6056E+00  0.1445E+01
     -2.003  0.9462E+00  0.1555E+01
     -1.887  0.8080E+00  0.1666E+01
     -1.772  0.1098E+01  0.1839E+01
     -1.656  0.6277E+00  0.1913E+01
     -1.541  0.8177E+00  0.2022E+01
     -1.425  0.1105E+01  0.2239E+01
     -1.309  0.1097E+01  0.2418E+01
     -1.194  0.9164E+00  0.2595E+01
     -1.078  0.2181E+01  0.2958E+01
     -0.963  0.3271E+01  0.3399E+01
     -0.847  0.3219E+01  0.3872E+01
     -0.732  0.2801E+01  0.4401E+01
     -0.616  0.2954E+01  0.4970E+01
     -0.501  0.3784E+01  0.5573E+01
     -0.385  0.4036E+01  0.6256E+01
     -0.270  0.5340E+01  0.7229E+01
     -0.154  0.7201E+01  0.8261E+01
     -0.038  0.5561E+01  0.9222E+01
      0.077  0.5241E+01  0.1020E+02
      0.193  0.5853E+01  0.1113E+02
      0.308  0.5433E+01  0.1203E+02
      0.424  0.5492E+01  0.1286E+02
      0.539  0.6275E+01  0.1402E+02
      0.655  0.5904E+01  0.1520E+02
      0.770  0.8933E+01  0.1677E+02
      0.886  0.8032E+01  0.1806E+02
      1.001  0.1000E+02  0.1976E+02
      1.117  0.9711E+01  0.2155E+02
      1.233  0.1115E+02  0.2358E+02
      1.348  0.7815E+01  0.2494E+02
      1.464  0.6318E+01  0.2612E+02
      1.579  0.6442E+01  0.2716E+02
      1.695  0.8570E+01  0.2860E+02
      1.810  0.1055E+02  0.3027E+02
      1.926  0.9794E+01  0.3180E+02
      2.041  0.7718E+01  0.3310E+02
      2.157  0.8398E+01  0.3461E+02
      2.273  0.8776E+01  0.3609E+02
      2.388  0.9809E+01  0.3775E+02
      2.504  0.1615E+02  0.4061E+02
      2.619  0.5300E+01  0.4177E+02
      2.735  0.2024E+01  0.4209E+02
      2.850  0.5336E+00  0.4225E+02
      2.966  0.6664E+00  0.4237E+02
      3.081  0.1763E+01  0.4264E+02
      3.197  0.7566E+00  0.4276E+02
      3.312  0.7570E+00  0.4288E+02
      3.428  0.8168E+00  0.4301E+02
      3.544  0.6115E+00  0.4320E+02
      3.659  0.6322E+00  0.4336E+02
      3.775  0.7656E+00  0.4348E+02
      3.890  0.1127E+01  0.4368E+02
      4.006  0.3867E+00  0.4380E+02
      4.121  0.9080E+00  0.4394E+02
      4.237  0.3028E+00  0.4401E+02
      4.352  0.1180E+01  0.4417E+02
      4.468  0.1520E+01  0.4435E+02
      4.583  0.6231E+00  0.4444E+02
      4.699  0.1520E+01  0.4468E+02
      4.815  0.4266E-01  0.4471E+02
      4.930  0.6035E+00  0.4481E+02
      5.046  0.7702E+00  0.4491E+02
      5.161  0.9874E+00  0.4504E+02
      5.277  0.1472E+01  0.4523E+02
      5.392  0.8112E-01  0.4532E+02
      5.508  0.1059E+01  0.4545E+02
      5.623  0.1084E+01  0.4557E+02
      5.739  0.7458E+00  0.4568E+02
      5.855  0.5350E+00  0.4574E+02
      5.970  0.5768E+00  0.4586E+02
      6.086  0.7549E+00  0.4601E+02
      6.201  0.5256E+00  0.4611E+02
      6.317  0.4858E+00  0.4624E+02
      6.432  0.7108E+00  0.4633E+02
      6.548  0.5638E+00  0.4643E+02
      6.663  0.5984E+00  0.4654E+02
      6.779  0.1514E+00  0.4660E+02
      6.894  0.7237E+00  0.4668E+02
      7.010  0.1388E+01  0.4686E+02
      7.126  0.1514E+00  0.4688E+02
      7.241  0.4266E+00  0.4693E+02
      7.357  0.1060E+01  0.4708E+02
      7.472  0.6056E+00  0.4718E+02
      7.588  0.5721E-05  0.4718E+02
      7.703  0.4223E+00  0.4727E+02
      7.819  0.3030E+00  0.4731E+02
      7.934  0.1514E+00  0.4742E+02
      8.050  0.5222E+00  0.4748E+02
      8.165  0.9184E+00  0.4759E+02
      8.281  0.3790E+00  0.4765E+02
      8.397  0.7397E+00  0.4776E+02
      8.512  0.5113E+00  0.4787E+02
      8.628  0.8273E+00  0.4803E+02
      8.743  0.8547E+00  0.4815E+02
      8.859  0.6070E+00  0.4824E+02
      8.974  0.9846E+00  0.4841E+02
      9.090  0.6096E+00  0.4857E+02
      9.205  0.5575E+00  0.4870E+02
      9.321  0.3347E+00  0.4876E+02
      9.437  0.9523E+00  0.4891E+02
      9.552  0.6973E+00  0.4908E+02
      9.668  0.9080E+00  0.4920E+02
      9.783  0.6824E+00  0.4935E+02
      9.899  0.8316E+00  0.4946E+02
     10.014  0.3028E+00  0.4957E+02
     10.130  0.9067E+00  0.4967E+02
     10.245  0.1060E+01  0.4980E+02
     10.361  0.7397E+00  0.4992E+02
     10.476  0.6056E+00  0.5002E+02
     10.592  0.9840E+00  0.5017E+02
     10.708  0.6090E+00  0.5024E+02
     10.823  0.3825E+00  0.5034E+02
     10.939  0.7477E+00  0.5050E+02
     11.054  0.2373E+00  0.5056E+02
     11.170  0.7569E+00  0.5069E+02
     11.285  0.5700E+00  0.5076E+02
     11.401  0.3320E+00  0.5084E+02
     11.516  0.8460E+00  0.5097E+02
     11.632  0.9310E+00  0.5109E+02
     11.747  0.6815E+00  0.5124E+02
     11.863  0.1248E+01  0.5140E+02
     11.979  0.9437E+00  0.5151E+02
     12.094  0.4696E+00  0.5160E+02
     12.210  0.1113E+01  0.5174E+02
     12.325  0.4877E+00  0.5184E+02
     12.441  0.1410E+01  0.5211E+02
     12.556  0.6380E+00  0.5224E+02
     12.672  0.8086E+00  0.5237E+02
     12.787  0.6404E+00  0.5249E+02
     12.903  0.9610E+00  0.5264E+02
     13.019  0.4659E+00  0.5279E+02
     13.134  0.4317E+00  0.5296E+02
     13.250  0.4851E+00  0.5309E+02
     13.365  0.1078E+01  0.5331E+02
     13.481  0.7965E+00  0.5344E+02
     13.596  0.1466E+01  0.5366E+02
     13.712  0.7422E+00  0.5377E+02
     13.827  0.6159E+00  0.5392E+02
     13.943  0.4550E+00  0.5402E+02
     14.058  0.1060E+01  0.5423E+02
     14.174  0.1063E+01  0.5442E+02
     14.290  0.1460E+01  0.5465E+02
     14.405  0.7062E+00  0.5477E+02
     14.521  0.7734E+00  0.5494E+02
     14.636  0.1136E+01  0.5509E+02
     14.752  0.8585E+00  0.5528E+02
     14.867  0.7571E+00  0.5541E+02
     14.983  0.2256E+00  0.5547E+02
     15.098  0.7310E+00  0.5558E+02
     15.214  0.2072E+01  0.5588E+02
     15.329  0.6585E+00  0.5607E+02
     15.445  0.1429E+01  0.5629E+02
     15.561  0.1091E+01  0.5646E+02
     15.676  0.9171E+00  0.5664E+02
     15.792  0.8023E+00  0.5680E+02
     15.907  0.8771E+00  0.5697E+02
     16.023  0.1369E+01  0.5715E+02
     16.138  0.2273E+00  0.5725E+02
     16.254  0.8383E+00  0.5738E+02
     16.369  0.1286E+01  0.5765E+02
     16.485  0.1125E+01  0.5783E+02
     16.600  0.7518E+00  0.5800E+02
     16.716  0.1514E+01  0.5821E+02
     16.832  0.2623E+00  0.5825E+02
     16.947  0.9553E+00  0.5845E+02
     17.063  0.1321E+01  0.5868E+02
     17.178  0.9540E+00  0.5890E+02
     17.294  0.9074E+00  0.5907E+02
     17.409  0.1339E+01  0.5927E+02
     17.525  0.8636E+00  0.5944E+02
     17.640  0.1831E+01  0.5965E+02
     17.756  0.1156E+01  0.5989E+02
     17.872  0.1132E+01  0.6009E+02
     17.987  0.4923E+00  0.6024E+02
     18.103  0.1475E+01  0.6042E+02
     18.218  0.1046E+01  0.6058E+02
     18.334  0.9193E+00  0.6080E+02
     18.449  0.4399E+00  0.6094E+02
     18.565  0.8952E+00  0.6110E+02
     18.680  0.7762E+00  0.6128E+02
     18.796  0.8220E+00  0.6143E+02
     18.911  0.6560E+00  0.6156E+02
     19.027  0.1323E+01  0.6174E+02
     19.143  0.1072E+01  0.6187E+02
     19.258  0.8220E+00  0.6199E+02
     19.374  0.2640E+00  0.6205E+02
     19.489  0.1514E+00  0.6224E+02
     19.605  0.2117E+00  0.6237E+02
     19.720  0.0000E+00  0.6238E+02
     19.836  0.1514E+00  0.6240E+02
     19.951  0.9143E+00  0.6251E+02
     20.067  0.8073E+00  0.6262E+02
     20.182  0.6412E+00  0.6269E+02
     20.298  0.3029E+00  0.6281E+02
     20.414  0.0000E+00  0.6283E+02
     20.529  0.1862E+00  0.6285E+02
     20.645  0.4570E+00  0.6295E+02
     20.760  0.0000E+00  0.6299E+02
     20.876  0.2274E+00  0.6301E+02
     20.991  0.8706E+00  0.6313E+02
     21.107  0.1514E+00  0.6322E+02
     21.222  0.2720E+00  0.6325E+02
     21.338  0.5956E+00  0.6333E+02
     21.454  0.3402E-01  0.6333E+02
     21.569  0.0000E+00  0.6335E+02
     21.685  0.1864E+00  0.6337E+02
     21.800  0.1578E+00  0.6339E+02
     21.916  0.3406E+00  0.6346E+02
     22.031  0.7097E+00  0.6354E+02
     22.147  0.0000E+00  0.6355E+02
     22.262  0.2194E-01  0.6355E+02
     22.378  0.4524E+00  0.6362E+02
     22.493  0.0000E+00  0.6362E+02
     22.609  0.1514E+00  0.6364E+02
     22.725  0.3028E+00  0.6367E+02
     22.840  0.3028E+00  0.6371E+02
     22.956  0.0000E+00  0.6371E+02
     23.071  0.1199E-03  0.6371E+02
     23.187  0.1285E+00  0.6374E+02
     23.302  0.0000E+00  0.6376E+02
     23.418  0.2421E-07  0.6376E+02
     23.533  0.3028E+00  0.6379E+02
     23.649  0.2019E+00  0.6382E+02
     23.764  0.0000E+00  0.6385E+02
     23.880  0.1251E+00  0.6387E+02
     23.996  0.0000E+00  0.6387E+02
     24.111  0.0000E+00  0.6387E+02
     24.227  0.0000E+00  0.6387E+02
     24.342  0.0000E+00  0.6387E+02
     24.458  0.2992E+00  0.6390E+02
     24.573  0.2896E-01  0.6391E+02
     24.689  0.0000E+00  0.6394E+02
     24.804  0.1514E+00  0.6396E+02
     24.920  0.0000E+00  0.6396E+02
     25.036  0.0000E+00  0.6396E+02
     25.151  0.0000E+00  0.6396E+02
     25.267  0.0000E+00  0.6396E+02
     25.382  0.0000E+00  0.6396E+02
     25.498  0.7710E-01  0.6397E+02
     25.613  0.7098E-01  0.6398E+02
     25.729  0.5046E-01  0.6400E+02
     25.844  0.0000E+00  0.6400E+02
     25.960  0.3548E-10  0.6400E+02
     26.075  0.2523E-01  0.6400E+02
     26.191  0.0000E+00  0.6400E+02
     26.307  0.0000E+00  0.6400E+02
     26.422  0.0000E+00  0.6400E+02
     26.538  0.0000E+00  0.6400E+02
     26.653  0.0000E+00  0.6400E+02
     26.769  0.0000E+00  0.6400E+02
     26.884  0.0000E+00  0.6400E+02
     27.000  0.0000E+00  0.6400E+02
     27.115  0.0000E+00  0.6400E+02
     27.231  0.0000E+00  0.6400E+02
     27.346  0.0000E+00  0.6400E+02
     27.462  0.0000E+00  0.6400E+02
     27.578  0.0000E+00  0.6400E+02
