    4    4    1    1
  0.1131459E+02  0.3563687E-09  0.3563687E-09  0.3563687E-09  0.5000000E-15
  1.000000000000000E-004
  CAR 
 unknown system                          
   44  120   32
 
  0.0000000E+00  0.0000000E+00  0.0000000E+00  0.3644315E-03
   1       -5.5112
   2       -0.9854
   3       -0.9854
   4       -0.9854
   5       -0.5043
   6       -0.5043
   7       -0.5043
   8        0.9833
   9        0.9833
  10        0.9833
  11        1.8683
  12        1.8683
  13        2.4555
  14        2.4555
  15        2.4555
  16        2.6205
  17        2.6205
  18        2.6205
  19        2.6205
  20        2.6205
  21        2.6205
  22        5.6505
  23        5.6505
  24        5.6505
  25       11.5953
  26       11.5953
  27       11.5953
  28       17.6897
  29       17.6897
  30       17.6897
  31       17.6897
  32       17.6897
 
  0.7142857E-01  0.0000000E+00  0.0000000E+00  0.2186589E-02
   1       -5.4472
   2       -0.9848
   3       -0.9547
   4       -0.9547
   5       -0.4867
   6       -0.4857
   7       -0.4857
   8        0.9635
   9        0.9990
  10        0.9990
  11        1.8503
  12        1.8755
  13        2.4323
  14        2.4323
  15        2.4480
  16        2.4995
  17        2.4995
  18        2.5932
  19        2.5932
  20        2.6205
  21        2.6205
  22        5.2578
  23        5.8280
  24        5.8280
  25       11.6174
  26       11.6174
  27       12.1128
  28       17.2441
  29       17.2441
  30       17.4164
  31       17.4164
  32       17.7845
 
  0.1428571E+00  0.0000000E+00  0.0000000E+00  0.2186589E-02
   1       -5.2560
   2       -0.9919
   3       -0.8659
   4       -0.8659
   5       -0.4346
   6       -0.4296
   7       -0.4296
   8        0.9054
   9        1.0458
  10        1.0458
  11        1.7980
  12        1.8967
  13        2.2008
  14        2.2008
  15        2.3643
  16        2.3643
  17        2.4258
  18        2.5139
  19        2.5139
  20        2.6207
  21        2.6207
  22        4.3637
  23        6.2962
  24        6.2962
  25       11.6854
  26       11.6854
  27       13.3883
  28       16.2522
  29       16.2522
  30       16.7438
  31       16.7438
  32       18.0658
 
  0.2142857E+00  0.0000000E+00  0.0000000E+00  0.2186589E-02
   1       -4.9412
   2       -1.0368
   3       -0.7287
   4       -0.7287
   5       -0.3502
   6       -0.3354
   7       -0.3354
   8        0.8124
   9        1.1229
  10        1.1229
  11        1.7161
  12        1.8271
  13        1.8271
  14        1.9311
  15        2.2570
  16        2.2570
  17        2.3902
  18        2.3906
  19        2.3906
  20        2.6208
  21        2.6208
  22        3.3550
  23        6.9515
  24        6.9515
  25       11.8036
  26       11.8036
  27       15.0583
  28       15.0918
  29       15.0918
  30       15.9150
  31       15.9150
  32       18.5245
 
  0.2857143E+00  0.0000000E+00  0.0000000E+00  0.2186589E-02
   1       -4.5091
   2       -1.1794
   3       -0.5609
   4       -0.5609
   5       -0.2372
   6       -0.2021
   7       -0.2021
   8        0.6898
   9        1.2288
  10        1.2288
  11        1.4415
  12        1.4415
  13        1.6133
  14        1.9768
  15        2.1220
  16        2.1220
  17        2.2343
  18        2.2343
  19        2.3429
  20        2.4577
  21        2.6210
  22        2.6210
  23        7.7297
  24        7.7297
  25       11.9786
  26       11.9786
  27       13.9052
  28       13.9052
  29       15.0870
  30       15.0870
  31       16.9443
  32       19.1478
 
  0.3571429E+00  0.0000000E+00  0.0000000E+00  0.2186589E-02
   1       -3.9713
   2       -1.5000
   3       -0.3906
   4       -0.3906
   5       -0.1005
   6       -0.0286
   7       -0.0286
   8        0.5445
   9        1.0741
  10        1.0741
  11        1.3611
  12        1.3611
  13        1.5045
  14        1.8162
  15        1.9809
  16        1.9809
  17        2.0318
  18        2.0573
  19        2.0573
  20        2.2866
  21        2.6212
  22        2.6212
  23        8.5988
  24        8.5988
  25       12.2159
  26       12.2159
  27       12.7415
  28       12.7415
  29       14.3408
  30       14.3408
  31       18.9602
  32       19.9205
 
  0.4285714E+00  0.0000000E+00  0.0000000E+00  0.2186589E-02
   1       -3.3479
   2       -2.0254
   3       -0.2578
   4       -0.2578
   5        0.0536
   6        0.1858
   7        0.1858
   8        0.3844
   9        0.7388
  10        0.7388
  11        1.4135
  12        1.4814
  13        1.5160
  14        1.5160
  15        1.8682
  16        1.8682
  17        1.8719
  18        1.8719
  19        2.0934
  20        2.2241
  21        2.6213
  22        2.6213
  23        9.5427
  24        9.5427
  25       11.6206
  26       11.6206
  27       12.5051
  28       12.5051
  29       13.7317
  30       13.7317
  31       20.8274
  32       20.8274
 
  0.5000000E+00  0.0000000E+00  0.0000000E+00  0.1093294E-02
   1       -2.6762
   2       -2.6762
   3       -0.2065
   4       -0.2065
   5        0.2179
   6        0.2179
   7        0.4418
   8        0.4418
   9        0.4418
  10        0.4418
  11        1.3819
  12        1.3819
  13        1.6885
  14        1.6885
  15        1.6885
  16        1.6885
  17        1.8240
  18        1.8240
  19        2.1586
  20        2.1586
  21        2.6213
  22        2.6213
  23       10.5521
  24       10.5521
  25       10.5521
  26       10.5521
  27       12.7036
  28       12.7036
  29       13.4244
  30       13.4244
  31       21.8535
  32       21.8535
 
  0.7142857E-01  0.7142857E-01  0.0000000E+00  0.4373178E-02
   1       -5.3833
   2       -0.9537
   3       -0.9537
   4       -0.9246
   5       -0.4683
   6       -0.4683
   7       -0.4675
   8        0.9523
   9        1.0065
  10        1.0135
  11        1.8453
  12        1.8710
  13        2.4072
  14        2.4090
  15        2.4090
  16        2.4099
  17        2.4832
  18        2.4832
  19        2.5931
  20        2.5931
  21        2.6031
  22        5.4338
  23        5.4338
  24        5.9945
  25       11.6395
  26       12.1415
  27       12.1415
  28       16.3238
  29       17.3338
  30       17.3338
  31       17.5077
  32       17.5077
 
  0.1428571E+00  0.7142857E-01  0.0000000E+00  0.8746356E-02
   1       -5.1928
   2       -0.9592
   3       -0.8633
   4       -0.8373
   5       -0.4170
   6       -0.4130
   7       -0.4129
   8        0.8995
   9        1.0489
  10        1.0567
  11        1.7993
  12        1.8895
  13        2.1400
  14        2.1470
  15        2.3262
  16        2.3440
  17        2.3726
  18        2.4470
  19        2.5138
  20        2.5931
  21        2.5936
  22        4.5482
  23        5.8883
  24        6.4410
  25       11.7066
  26       12.2292
  27       13.4261
  28       15.1706
  29       16.3355
  30       16.8276
  31       17.5992
  32       17.7005
 
  0.2142857E+00  0.7142857E-01  0.0000000E+00  0.8746356E-02
   1       -4.8791
   2       -1.0013
   3       -0.7235
   4       -0.7024
   5       -0.3339
   6       -0.3214
   7       -0.3201
   8        0.8093
   9        1.1247
  10        1.1268
  11        1.7217
  12        1.7748
  13        1.7886
  14        1.9266
  15        2.1705
  16        2.2398
  17        2.2633
  18        2.3903
  19        2.3990
  20        2.5913
  21        2.5930
  22        3.5787
  23        6.5102
  24        7.0769
  25       11.8198
  26       12.3815
  27       14.0095
  28       15.1008
  29       15.1721
  30       15.9915
  31       17.0337
  32       18.0299
 
  0.2857143E+00  0.7142857E-01  0.0000000E+00  0.8746356E-02
   1       -4.4486
   2       -1.1402
   3       -0.5521
   4       -0.5365
   5       -0.2225
   6       -0.1931
   7       -0.1887
   8        0.6892
   9        1.2185
  10        1.2299
  11        1.3930
  12        1.4186
  13        1.6288
  14        1.9223
  15        1.9768
  16        2.1085
  17        2.1283
  18        2.2338
  19        2.3301
  20        2.5908
  21        2.5929
  22        2.7919
  23        7.2347
  24        7.8405
  25       11.9611
  26       12.6054
  27       12.9214
  28       13.9848
  29       15.1577
  30       16.2013
  31       16.9845
  32       18.6106
 
  0.3571429E+00  0.7142857E-01  0.0000000E+00  0.8746356E-02
   1       -3.9130
   2       -1.4567
   3       -0.3770
   4       -0.3664
   5       -0.0879
   6       -0.0286
   7       -0.0179
   8        0.5465
   9        1.0316
  10        1.0624
  11        1.3083
  12        1.3616
  13        1.5567
  14        1.5980
  15        1.9716
  16        1.9868
  17        2.0375
  18        2.0569
  19        2.1838
  20        2.3862
  21        2.5910
  22        2.5926
  23        8.0306
  24        8.6990
  25       11.6690
  26       12.3948
  27       12.8222
  28       12.9031
  29       14.4123
  30       15.3734
  31       18.9519
  32       19.3224
 
  0.4285714E+00  0.7142857E-01  0.0000000E+00  0.8746356E-02
   1       -3.2925
   2       -1.9777
   3       -0.2387
   4       -0.2324
   5        0.0638
   6        0.1732
   7        0.1930
   8        0.3892
   9        0.7039
  10        0.7353
  11        1.3212
  12        1.3689
  13        1.5162
  14        1.6009
  15        1.8634
  16        1.8716
  17        1.8720
  18        1.9527
  19        2.1062
  20        2.2625
  21        2.5914
  22        2.5923
  23        8.8825
  24        9.6353
  25       10.7266
  26       11.7037
  27       12.6559
  28       13.2058
  29       13.8694
  30       14.6291
  31       20.1443
  32       20.3202
 
  0.5000000E+00  0.7142857E-01  0.0000000E+00  0.4373178E-02
   1       -2.6245
   2       -2.6245
   3       -0.1825
   4       -0.1825
   5        0.2255
   6        0.2255
   7        0.4167
   8        0.4167
   9        0.4444
  10        0.4444
  11        1.3008
  12        1.3008
  13        1.6884
  14        1.6884
  15        1.7534
  16        1.7534
  17        1.8239
  18        1.8239
  19        2.1807
  20        2.1807
  21        2.5919
  22        2.5919
  23        9.7830
  24        9.7830
  25       10.6392
  26       10.6392
  27       13.0356
  28       13.0356
  29       14.0277
  30       14.0277
  31       21.0539
  32       21.0539
 
  0.1428571E+00  0.1428571E+00  0.0000000E+00  0.4373178E-02
   1       -5.0042
   2       -0.8641
   3       -0.8641
   4       -0.7545
   5       -0.3639
   6       -0.3639
   7       -0.3626
   8        0.8661
   9        1.0746
  10        1.0888
  11        1.7820
  12        1.8907
  13        1.9522
  14        2.0109
  15        2.0109
  16        2.2840
  17        2.3710
  18        2.3710
  19        2.5133
  20        2.5133
  21        2.5512
  22        4.9946
  23        4.9946
  24        6.8416
  25       11.7667
  26       13.5407
  27       13.5407
  28       13.8980
  29       16.5819
  30       16.5819
  31       17.0770
  32       17.0770
 
  0.2142857E+00  0.1428571E+00  0.0000000E+00  0.8746356E-02
   1       -4.6938
   2       -0.8981
   3       -0.7164
   4       -0.6262
   5       -0.2846
   6       -0.2791
   7       -0.2750
   8        0.7916
   9        1.1389
  10        1.1389
  11        1.6350
  12        1.6696
  13        1.7239
  14        1.8093
  15        1.9283
  16        2.1887
  17        2.2660
  18        2.3401
  19        2.3894
  20        2.5126
  21        2.5264
  22        4.0380
  23        5.5724
  24        7.4323
  25       11.8229
  26       12.7405
  27       13.7351
  28       15.2276
  29       15.4094
  30       16.2209
  31       16.9811
  32       17.4885
 
  0.2857143E+00  0.1428571E+00  0.0000000E+00  0.8746356E-02
   1       -4.2684
   2       -1.0260
   3       -0.5337
   4       -0.4668
   5       -0.1784
   6       -0.1650
   7       -0.1494
   8        0.6830
   9        1.1967
  10        1.2381
  11        1.2630
  12        1.3483
  13        1.5551
  14        1.6523
  15        1.9912
  16        2.0680
  17        2.1343
  18        2.2327
  19        2.2728
  20        2.5117
  21        2.5151
  22        3.2471
  23        6.2255
  24        8.1596
  25       11.3383
  26       12.2711
  27       14.0067
  28       14.2201
  29       15.3780
  30       17.0861
  31       17.5182
  32       17.7938
 
  0.3571429E+00  0.1428571E+00  0.0000000E+00  0.8746356E-02
   1       -3.7396
   2       -1.3301
   3       -0.3439
   4       -0.2975
   5       -0.0501
   6       -0.0265
   7        0.0135
   8        0.5503
   9        0.9178
  10        1.0263
  11        1.2305
  12        1.3122
  13        1.3662
  14        1.6171
  15        1.9424
  16        1.9938
  17        2.0559
  18        2.0713
  19        2.1571
  20        2.5104
  21        2.5106
  22        2.7244
  23        6.9347
  24        8.9906
  25       10.3524
  26       12.4690
  27       13.0605
  28       14.2380
  29       14.7486
  30       17.0303
  31       18.1761
  32       18.5380
 
  0.4285714E+00  0.1428571E+00  0.0000000E+00  0.8746356E-02
   1       -3.1282
   2       -1.8380
   3       -0.1875
   4       -0.1585
   5        0.0942
   6        0.1368
   7        0.2140
   8        0.4024
   9        0.6097
  10        0.7240
  11        1.1773
  12        1.2053
  13        1.5184
  14        1.6742
  15        1.8460
  16        1.8711
  17        1.8755
  18        1.9889
  19        2.1664
  20        2.4403
  21        2.5088
  22        2.5096
  23        7.6964
  24        9.3988
  25        9.9064
  26       11.9489
  27       12.8095
  28       13.7989
  29       15.0002
  30       16.2670
  31       18.9376
  32       19.3986
 
  0.5000000E+00  0.1428571E+00  0.0000000E+00  0.4373178E-02
   1       -2.4716
   2       -2.4716
   3       -0.1141
   4       -0.1141
   5        0.2476
   6        0.2476
   7        0.3464
   8        0.3464
   9        0.4515
  10        0.4515
  11        1.1620
  12        1.1620
  13        1.6890
  14        1.6890
  15        1.8116
  16        1.8116
  17        1.8184
  18        1.8184
  19        2.2809
  20        2.2809
  21        2.5088
  22        2.5088
  23        8.5150
  24        8.5150
  25       10.8951
  26       10.8951
  27       13.2563
  28       13.2563
  29       15.5764
  30       15.5764
  31       19.7869
  32       19.7869
 
  0.2142857E+00  0.2142857E+00  0.0000000E+00  0.4373178E-02
   1       -4.3893
   2       -0.7369
   3       -0.7369
   4       -0.5088
   5       -0.2089
   6       -0.2021
   7       -0.2021
   8        0.7436
   9        1.1583
  10        1.1833
  11        1.4361
  12        1.4361
  13        1.4744
  14        1.6939
  15        1.9687
  16        2.1064
  17        2.2427
  18        2.2427
  19        2.3881
  20        2.3881
  21        2.4660
  22        4.5807
  23        4.5807
  24        7.9729
  25       11.2130
  26       12.2235
  27       15.4284
  28       15.4284
  29       15.7941
  30       15.7941
  31       16.6163
  32       16.6163
 
  0.2857143E+00  0.2142857E+00  0.0000000E+00  0.8746356E-02
   1       -3.9726
   2       -0.8469
   3       -0.5354
   4       -0.3622
   5       -0.1154
   6       -0.1047
   7       -0.0860
   8        0.6604
   9        1.0858
  10        1.1759
  11        1.2173
  12        1.2282
  13        1.2658
  14        1.6430
  15        2.0011
  16        2.0515
  17        2.1172
  18        2.1805
  19        2.2312
  20        2.3866
  21        2.4260
  22        3.7361
  23        5.1744
  24        8.6561
  25       10.1126
  26       12.3698
  27       14.6016
  28       15.4767
  29       15.9959
  30       16.3125
  31       16.9034
  32       17.5629
 
  0.3571429E+00  0.2142857E+00  0.0000000E+00  0.8746356E-02
   1       -3.4561
   2       -1.1309
   3       -0.3207
   4       -0.1982
   5       -0.0142
   6        0.0124
   7        0.0638
   8        0.5493
   9        0.7688
  10        0.9630
  11        1.0504
  12        1.1661
  13        1.3827
  14        1.6207
  15        1.8911
  16        1.9807
  17        2.0551
  18        2.0740
  19        2.1637
  20        2.3853
  21        2.4034
  22        3.1214
  23        5.8160
  24        9.0704
  25        9.4515
  26       12.6473
  27       13.4463
  28       14.7982
  29       16.2791
  30       16.9496
  31       17.6168
  32       18.8072
 
  0.4285714E+00  0.2142857E+00  0.0000000E+00  0.8746356E-02
   1       -2.8612
   2       -1.6160
   3       -0.1323
   4       -0.0437
   5        0.0809
   6        0.1435
   7        0.2468
   8        0.4200
   9        0.4888
  10        0.7024
  11        0.9948
  12        1.1089
  13        1.5275
  14        1.6695
  15        1.8099
  16        1.8611
  17        1.8720
  18        1.9313
  19        2.3018
  20        2.3849
  21        2.3917
  22        2.7265
  23        6.5129
  24        8.1265
  25       10.3393
  26       12.3448
  27       13.0254
  28       14.1018
  29       16.7884
  30       17.6909
  31       18.0999
  32       18.3576
 
  0.5000000E+00  0.2142857E+00  0.0000000E+00  0.4373178E-02
   1       -2.2257
   2       -2.2257
   3       -0.0195
   4       -0.0195
   5        0.2498
   6        0.2498
   7        0.2820
   8        0.2820
   9        0.4610
  10        0.4610
  11        1.0331
  12        1.0331
  13        1.6931
  14        1.6931
  15        1.7836
  16        1.7836
  17        1.7957
  18        1.7957
  19        2.3865
  20        2.3865
  21        2.4771
  22        2.4771
  23        7.2781
  24        7.2781
  25       11.3066
  26       11.3066
  27       13.5085
  28       13.5085
  29       17.4058
  30       17.4058
  31       18.5243
  32       18.5243
 
  0.2857143E+00  0.2857143E+00  0.0000000E+00  0.4373178E-02
   1       -3.5692
   2       -0.6213
   3       -0.6213
   4       -0.2386
   5       -0.0440
   6       -0.0018
   7       -0.0018
   8        0.6115
   9        0.9146
  10        0.9146
  11        1.0640
  12        1.1554
  13        1.3257
  14        1.6024
  15        1.9126
  16        2.0616
  17        2.0616
  18        2.1635
  19        2.2301
  20        2.2301
  21        2.3497
  22        4.2604
  23        4.2604
  24        8.9500
  25        9.2971
  26       12.5942
  27       15.1162
  28       15.1162
  29       16.0713
  30       16.0713
  31       17.7980
  32       17.7980
 
  0.3571429E+00  0.2857143E+00  0.0000000E+00  0.8746356E-02
   1       -3.0717
   2       -0.8787
   3       -0.3776
   4       -0.1103
   5        0.0361
   6        0.0987
   7        0.1297
   8        0.5345
   9        0.6489
  10        0.8225
  11        0.8708
  12        1.1151
  13        1.4220
  14        1.5760
  15        1.8184
  16        1.9308
  17        1.9627
  18        2.0560
  19        2.2305
  20        2.2959
  21        2.3133
  22        3.5560
  23        4.8295
  24        7.9033
  25       10.0557
  26       12.9116
  27       13.9661
  28       15.2300
  29       15.7495
  30       16.6538
  31       18.2208
  32       19.2493
 
  0.4285714E+00  0.2857143E+00  0.0000000E+00  0.8746356E-02
   1       -2.5030
   2       -1.3301
   3       -0.1568
   4        0.0024
   5        0.1050
   6        0.2098
   7        0.2880
   8        0.4209
   9        0.4360
  10        0.6673
  11        0.8401
  12        1.0344
  13        1.5511
  14        1.6082
  15        1.7500
  16        1.8137
  17        1.8328
  18        1.8774
  19        2.2341
  20        2.2624
  21        2.4980
  22        3.0652
  23        5.4591
  24        6.9785
  25       10.9132
  26       12.8767
  27       13.3269
  28       14.4833
  29       16.4886
  30       17.3360
  31       18.2447
  32       18.7539
 
  0.5000000E+00  0.2857143E+00  0.0000000E+00  0.4373178E-02
   1       -1.9014
   2       -1.9014
   3       -0.0103
   4       -0.0103
   5        0.2323
   6        0.2323
   7        0.3249
   8        0.3249
   9        0.4694
  10        0.4694
  11        0.9285
  12        0.9285
  13        1.7026
  14        1.7026
  15        1.7058
  16        1.7058
  17        1.7448
  18        1.7448
  19        2.2435
  20        2.2435
  21        2.7344
  22        2.7344
  23        6.1689
  24        6.1689
  25       11.8566
  26       11.8566
  27       13.8487
  28       13.8487
  29       17.3229
  30       17.3229
  31       18.1214
  32       18.1214
 
  0.3571429E+00  0.3571429E+00  0.0000000E+00  0.4373178E-02
   1       -2.6022
   2       -0.6051
   3       -0.6051
   4       -0.0793
   5        0.1447
   6        0.2068
   7        0.2068
   8        0.4995
   9        0.6328
  10        0.6328
  11        0.7524
  12        1.0594
  13        1.4928
  14        1.5305
  15        1.7355
  16        1.8395
  17        1.8395
  18        2.0611
  19        2.0611
  20        2.2062
  21        2.5048
  22        4.0376
  23        4.0376
  24        6.8714
  25       10.7807
  26       13.2676
  27       14.6056
  28       14.6056
  29       15.7590
  30       15.7590
  31       18.1474
  32       18.9402
 
  0.4285714E+00  0.3571429E+00  0.0000000E+00  0.8746356E-02
   1       -2.0728
   2       -1.0095
   3       -0.3549
   4       -0.0946
   5        0.2611
   6        0.2895
   7        0.3334
   8        0.4433
   9        0.4828
  10        0.6158
  11        0.7176
  12        0.9705
  13        1.5348
  14        1.5978
  15        1.6715
  16        1.7202
  17        1.7289
  18        1.8913
  19        2.0738
  20        2.1409
  21        2.7392
  22        3.4529
  23        4.5852
  24        5.9805
  25       11.6090
  26       13.5294
  27       13.7238
  28       14.9668
  29       15.3521
  30       16.3941
  31       17.1288
  32       17.9855
 
  0.5000000E+00  0.3571429E+00  0.0000000E+00  0.4373178E-02
   1       -1.5229
   2       -1.5229
   3       -0.1777
   4       -0.1777
   5        0.3662
   6        0.3662
   7        0.3708
   8        0.3708
   9        0.4725
  10        0.4725
  11        0.8461
  12        0.8461
  13        1.6059
  14        1.6059
  15        1.6649
  16        1.6649
  17        1.7334
  18        1.7334
  19        2.0985
  20        2.0985
  21        3.0396
  22        3.0396
  23        5.2244
  24        5.2244
  25       12.5282
  26       12.5282
  27       14.2883
  28       14.2883
  29       16.1955
  30       16.1955
  31       17.1364
  32       17.1364
 
  0.4285714E+00  0.4285714E+00  0.0000000E+00  0.4373178E-02
   1       -1.5997
   2       -0.6947
   3       -0.6947
   4       -0.2309
   5        0.3771
   6        0.3771
   7        0.4078
   8        0.4362
   9        0.5475
  10        0.6201
  11        0.6201
  12        0.8894
  13        1.4981
  14        1.5997
  15        1.6226
  16        1.6226
  17        1.6746
  18        1.9192
  19        1.9192
  20        2.0407
  21        3.0321
  22        3.9077
  23        3.9077
  24        5.1430
  25       12.4109
  26       14.2238
  27       14.2897
  28       14.2897
  29       15.5570
  30       15.5570
  31       16.0954
  32       17.0663
 
  0.5000000E+00  0.4285714E+00  0.0000000E+00  0.4373178E-02
   1       -1.1246
   2       -1.1246
   3       -0.4278
   4       -0.4278
   5        0.4132
   6        0.4132
   7        0.4658
   8        0.4658
   9        0.5259
  10        0.5259
  11        0.7685
  12        0.7685
  13        1.5317
  14        1.5317
  15        1.5758
  16        1.5758
  17        1.7831
  18        1.7831
  19        1.9673
  20        1.9673
  21        3.4058
  22        3.4058
  23        4.4599
  24        4.4599
  25       13.3073
  26       13.3073
  27       14.8335
  28       14.8335
  29       15.1475
  30       15.1475
  31       16.2565
  32       16.2565
 
  0.5000000E+00  0.5000000E+00  0.0000000E+00  0.1093294E-02
   1       -0.7481
   2       -0.7481
   3       -0.7481
   4       -0.7481
   5        0.4460
   6        0.4460
   7        0.4460
   8        0.4460
   9        0.6661
  10        0.6661
  11        0.6661
  12        0.6661
  13        1.5192
  14        1.5192
  15        1.5192
  16        1.5192
  17        1.8606
  18        1.8606
  19        1.8606
  20        1.8606
  21        3.8652
  22        3.8652
  23        3.8652
  24        3.8652
  25       14.1829
  26       14.1829
  27       14.1829
  28       14.1829
  29       15.4886
  30       15.4886
  31       15.4886
  32       15.4886
 
  0.7142857E-01  0.7142857E-01  0.7142857E-01  0.2915452E-02
   1       -5.3197
   2       -0.9231
   3       -0.9231
   4       -0.9231
   5       -0.4504
   6       -0.4504
   7       -0.4504
   8        0.9416
   9        1.0203
  10        1.0203
  11        1.8539
  12        1.8539
  13        2.3708
  14        2.3708
  15        2.3708
  16        2.3923
  17        2.3923
  18        2.3923
  19        2.5871
  20        2.5871
  21        2.5871
  22        5.5966
  23        5.5966
  24        5.5966
  25       12.1701
  26       12.1701
  27       12.1701
  28       16.4086
  29       16.4086
  30       16.4086
  31       17.9688
  32       17.9688
 
  0.1428571E+00  0.7142857E-01  0.7142857E-01  0.8746356E-02
   1       -5.1298
   2       -0.9272
   3       -0.8345
   4       -0.8345
   5       -0.3998
   6       -0.3965
   7       -0.3965
   8        0.8932
   9        1.0575
  10        1.0616
  11        1.8048
  12        1.8794
  13        2.0929
  14        2.0929
  15        2.2604
  16        2.3322
  17        2.3322
  18        2.3376
  19        2.5445
  20        2.5792
  21        2.5792
  22        4.7113
  23        6.0264
  24        6.0264
  25       12.2571
  26       12.2571
  27       13.4636
  28       15.2516
  29       15.2516
  30       16.6598
  31       17.7883
  32       17.7883
 
  0.2142857E+00  0.7142857E-01  0.7142857E-01  0.8746356E-02
   1       -4.8173
   2       -0.9669
   3       -0.6972
   4       -0.6972
   5       -0.3177
   6       -0.3062
   7       -0.3062
   8        0.8063
   9        1.1263
  10        1.1299
  11        1.7303
  12        1.7395
  13        1.7395
  14        1.9204
  15        2.0707
  16        2.2345
  17        2.2345
  18        2.2432
  19        2.4859
  20        2.5733
  21        2.5733
  22        3.7518
  23        6.6266
  24        6.6266
  25       12.4034
  26       12.4034
  27       14.0900
  28       14.0900
  29       15.1418
  30       17.0700
  31       17.1130
  32       17.1130
 
  0.2857143E+00  0.7142857E-01  0.7142857E-01  0.8746356E-02
   1       -4.3885
   2       -1.1025
   3       -0.5282
   4       -0.5282
   5       -0.2078
   6       -0.1799
   7       -0.1799
   8        0.6891
   9        1.2142
  10        1.2238
  11        1.3729
  12        1.3729
  13        1.6471
  14        1.7958
  15        1.9750
  16        2.1076
  17        2.1076
  18        2.1137
  19        2.4190
  20        2.5698
  21        2.5698
  22        2.9599
  23        7.3342
  24        7.3342
  25       12.5473
  26       12.5473
  27       13.0497
  28       13.0497
  29       16.2737
  30       16.2737
  31       17.0034
  32       17.6505
 
  0.3571429E+00  0.7142857E-01  0.7142857E-01  0.8746356E-02
   1       -3.8553
   2       -1.4150
   3       -0.3535
   4       -0.3535
   5       -0.0750
   6       -0.0191
   7       -0.0191
   8        0.5492
   9        1.0236
  10        1.0236
  11        1.2850
  12        1.3415
  13        1.4927
  14        1.6029
  15        1.9607
  16        1.9725
  17        1.9725
  18        2.0403
  19        2.3464
  20        2.4334
  21        2.5678
  22        2.5678
  23        8.1157
  24        8.1157
  25       11.8245
  26       11.8245
  27       13.0241
  28       13.0241
  29       15.4410
  30       15.4410
  31       18.2296
  32       19.1225
 
  0.4285714E+00  0.7142857E-01  0.7142857E-01  0.8746356E-02
   1       -3.2379
   2       -1.9316
   3       -0.2134
   4       -0.2134
   5        0.0746
   6        0.1748
   7        0.1748
   8        0.3947
   9        0.7078
  10        0.7078
  11        1.2785
  12        1.2993
  13        1.4797
  14        1.6783
  15        1.7970
  16        1.8632
  17        1.8632
  18        2.0967
  19        2.1135
  20        2.2697
  21        2.5669
  22        2.5669
  23        8.9486
  24        8.9486
  25       10.8469
  26       10.8469
  27       13.4111
  28       13.4111
  29       14.6990
  30       14.6990
  31       19.0273
  32       20.8514
 
  0.5000000E+00  0.7142857E-01  0.7142857E-01  0.4373178E-02
   1       -2.5738
   2       -2.5738
   3       -0.1581
   4       -0.1581
   5        0.2338
   6        0.2338
   7        0.3576
   8        0.3576
   9        0.4824
  10        0.4824
  11        1.2503
  12        1.2503
  13        1.6337
  14        1.6337
  15        1.8200
  16        1.8200
  17        1.8543
  18        1.8543
  19        2.1910
  20        2.1910
  21        2.5666
  22        2.5666
  23        9.6522
  24        9.6522
  25       10.0934
  26       10.0934
  27       13.7546
  28       13.7546
  29       14.2362
  30       14.2362
  31       19.9005
  32       19.9005
 
  0.1428571E+00  0.1428571E+00  0.7142857E-01  0.8746356E-02
   1       -4.9420
   2       -0.8344
   3       -0.8344
   4       -0.7509
   5       -0.3479
   6       -0.3479
   7       -0.3468
   8        0.8610
   9        1.0821
  10        1.0907
  11        1.7957
  12        1.8761
  13        1.9099
  14        1.9619
  15        1.9619
  16        2.2526
  17        2.2840
  18        2.2840
  19        2.5413
  20        2.5413
  21        2.5530
  22        5.1233
  23        5.1233
  24        6.4046
  25       12.3362
  26       13.5761
  27       13.5761
  28       13.9798
  29       15.4926
  30       15.4926
  31       18.0489
  32       18.0489
 
  0.2142857E+00  0.1428571E+00  0.7142857E-01  0.1749271E-01
   1       -4.6330
   2       -0.8671
   3       -0.6904
   4       -0.6214
   5       -0.2691
   6       -0.2643
   7       -0.2612
   8        0.7897
   9        1.1375
  10        1.1410
  11        1.6052