   4   4   0   0
  0.1514370E+02  0.3927329E-09  0.3927329E-09  0.3927329E-09  0.5000000E-15
  1.000000000000000E-004
  CAR 
 unknown system                          
     14.20327896     -6.64460838  301      1.93928068      1.00000000
     -6.645  0.0000E+00  0.0000E+00
     -6.575  0.0000E+00  0.0000E+00
     -6.506  0.0000E+00  0.0000E+00
     -6.436  0.0000E+00  0.0000E+00
     -6.367  0.0000E+00  0.0000E+00
     -6.297  0.0000E+00  0.0000E+00
     -6.228  0.0000E+00  0.0000E+00
     -6.158  0.0000E+00  0.0000E+00
     -6.089  0.0000E+00  0.0000E+00
     -6.019  0.0000E+00  0.0000E+00
     -5.950  0.0000E+00  0.0000E+00
     -5.880  0.0000E+00  0.0000E+00
     -5.811  0.0000E+00  0.0000E+00
     -5.741  0.2620E-11  0.1820E-12
     -5.672  0.1310E-01  0.9102E-03
     -5.602  0.7862E-01  0.6374E-02
     -5.533  0.1583E+00  0.1738E-01
     -5.463  0.1170E+00  0.2551E-01
     -5.394  0.2760E+00  0.4469E-01
     -5.324  0.4083E+00  0.7306E-01
     -5.255  0.3032E-07  0.7374E-01
     -5.185  0.1573E+00  0.8467E-01
     -5.116  0.3977E+00  0.1123E+00
     -5.046  0.3965E+00  0.1399E+00
     -4.977  0.3191E+00  0.1620E+00
     -4.907  0.3260E+00  0.1847E+00
     -4.838  0.6288E+00  0.2285E+00
     -4.768  0.3920E-03  0.2285E+00
     -4.699  0.2557E+00  0.2463E+00
     -4.629  0.8478E+00  0.3052E+00
     -4.560  0.3891E+00  0.3322E+00
     -4.490  0.3146E+00  0.3541E+00
     -4.421  0.6888E+00  0.4020E+00
     -4.351  0.2541E+00  0.4197E+00
     -4.282  0.3133E+00  0.4414E+00
     -4.212  0.3933E+00  0.4688E+00
     -4.143  0.1000E+01  0.5383E+00
     -4.073  0.3620E+00  0.5635E+00
     -4.004  0.9400E+00  0.6288E+00
     -3.934  0.6288E+00  0.6727E+00
     -3.865  0.4220E-01  0.6757E+00
     -3.795  0.7345E+00  0.7267E+00
     -3.726  0.6290E+00  0.7711E+00
     -3.656  0.8993E+00  0.8336E+00
     -3.587  0.3942E+00  0.8610E+00
     -3.517  0.9855E+00  0.9294E+00
     -3.448  0.4671E-01  0.9327E+00
     -3.378  0.1495E+01  0.1037E+01
     -3.309  0.9330E+00  0.1104E+01
     -3.239  0.2833E+00  0.1124E+01
     -3.170  0.9742E+00  0.1192E+01
     -3.100  0.7322E+00  0.1243E+01
     -3.031  0.4296E-01  0.1246E+01
     -2.961  0.1551E+01  0.1353E+01
     -2.892  0.8422E+00  0.1412E+01
     -2.822  0.1080E+01  0.1487E+01
     -2.753  0.1694E+01  0.1605E+01
     -2.684  0.6843E+00  0.1652E+01
     -2.614  0.6434E+00  0.1697E+01
     -2.545  0.1556E+01  0.1805E+01
     -2.475  0.3938E+00  0.1833E+01
     -2.406  0.1583E+01  0.1943E+01
     -2.336  0.1540E+01  0.2050E+01
     -2.267  0.2126E+01  0.2197E+01
     -2.197  0.2043E+01  0.2339E+01
     -2.128  0.7995E+00  0.2398E+01
     -2.058  0.1212E+01  0.2482E+01
     -1.989  0.3104E+01  0.2699E+01
     -1.919  0.4171E+01  0.2988E+01
     -1.850  0.2289E+01  0.3148E+01
     -1.780  0.4527E+01  0.3462E+01
     -1.711  0.3995E+01  0.3740E+01
     -1.641  0.6502E+01  0.4195E+01
     -1.572  0.5442E+01  0.4573E+01
     -1.502  0.7836E+01  0.5118E+01
     -1.433  0.5350E+01  0.5493E+01
     -1.363  0.9348E+01  0.6144E+01
     -1.294  0.9321E+01  0.6795E+01
     -1.224  0.1208E+02  0.7634E+01
     -1.155  0.1439E+02  0.8637E+01
     -1.085  0.1154E+02  0.9442E+01
     -1.016  0.1205E+02  0.1028E+02
     -0.946  0.1178E+02  0.1111E+02
     -0.877  0.1066E+02  0.1185E+02
     -0.807  0.1264E+02  0.1273E+02
     -0.738  0.1570E+02  0.1382E+02
     -0.668  0.1824E+02  0.1509E+02
     -0.599  0.1675E+02  0.1626E+02
     -0.529  0.1917E+02  0.1759E+02
     -0.460  0.2562E+02  0.1938E+02
     -0.390  0.2273E+02  0.2097E+02
     -0.321  0.2924E+02  0.2301E+02
     -0.251  0.1997E+02  0.2440E+02
     -0.182  0.1574E+02  0.2549E+02
     -0.112  0.1441E+02  0.2650E+02
     -0.043  0.1779E+02  0.2773E+02
      0.027  0.2082E+02  0.2919E+02
      0.096  0.2377E+02  0.3084E+02
      0.166  0.1925E+02  0.3219E+02
      0.235  0.2038E+02  0.3361E+02
      0.305  0.1846E+02  0.3490E+02
      0.374  0.2121E+02  0.3637E+02
      0.444  0.3129E+02  0.3856E+02
      0.513  0.3320E+02  0.4087E+02
      0.583  0.1186E+02  0.4170E+02
      0.652  0.4267E+01  0.4200E+02
      0.722  0.1791E+01  0.4213E+02
      0.791  0.9918E+00  0.4220E+02
      0.861  0.2991E+01  0.4240E+02
      0.930  0.1800E+01  0.4253E+02
      1.000  0.7357E+00  0.4258E+02
      1.069  0.1434E+01  0.4268E+02
      1.139  0.1711E+01  0.4280E+02
      1.208  0.2703E+01  0.4299E+02
      1.278  0.1417E+01  0.4309E+02
      1.347  0.1053E+01  0.4316E+02
      1.417  0.9323E+00  0.4323E+02
      1.486  0.1223E+01  0.4331E+02
      1.556  0.1901E+01  0.4344E+02
      1.625  0.2130E+01  0.4359E+02
      1.695  0.2300E+01  0.4375E+02
      1.764  0.5515E+00  0.4379E+02
      1.834  0.1500E+01  0.4390E+02
      1.903  0.9998E+00  0.4397E+02
      1.973  0.6458E+00  0.4401E+02
      2.042  0.1174E+01  0.4409E+02
      2.112  0.1292E+01  0.4418E+02
      2.181  0.2297E+01  0.4434E+02
      2.250  0.1565E+01  0.4445E+02
      2.320  0.1682E+01  0.4457E+02
      2.389  0.1307E+01  0.4466E+02
      2.459  0.1539E+01  0.4477E+02
      2.528  0.3111E+00  0.4479E+02
      2.598  0.3952E-02  0.4479E+02
      2.667  0.1228E+01  0.4488E+02
      2.737  0.2282E+01  0.4504E+02
      2.806  0.1697E+01  0.4515E+02
      2.876  0.1709E+01  0.4527E+02
      2.945  0.1234E+01  0.4536E+02
      3.015  0.6341E+00  0.4540E+02
      3.084  0.3216E+00  0.4543E+02
      3.154  0.2233E+01  0.4558E+02
      3.223  0.9437E+00  0.4565E+02
      3.293  0.9426E+00  0.4571E+02
      3.362  0.8035E-04  0.4571E+02
      3.432  0.1465E+01  0.4582E+02
      3.501  0.1208E+01  0.4590E+02
      3.571  0.9087E+00  0.4596E+02
      3.640  0.2191E+01  0.4612E+02
      3.710  0.1049E+01  0.4619E+02
      3.779  0.1800E+01  0.4631E+02
      3.849  0.5396E+00  0.4635E+02
      3.918  0.1067E+01  0.4642E+02
      3.988  0.6079E+00  0.4647E+02
      4.057  0.1036E+01  0.4654E+02
      4.127  0.7440E+00  0.4659E+02
      4.196  0.5075E+00  0.4663E+02
      4.266  0.1378E+01  0.4672E+02
      4.335  0.9726E+00  0.4679E+02
      4.405  0.1228E+01  0.4687E+02
      4.474  0.6447E+00  0.4692E+02
      4.544  0.9872E+00  0.4699E+02
      4.613  0.1299E+01  0.4708E+02
      4.683  0.9262E+00  0.4714E+02
      4.752  0.2066E+01  0.4729E+02
      4.822  0.6759E+00  0.4733E+02
      4.891  0.1017E+01  0.4740E+02
      4.961  0.1058E+01  0.4748E+02
      5.030  0.1667E+01  0.4759E+02
      5.100  0.1449E+01  0.4769E+02
      5.169  0.8860E+00  0.4776E+02
      5.239  0.1389E+01  0.4785E+02
      5.308  0.1126E+01  0.4793E+02
      5.378  0.2591E+01  0.4811E+02
      5.447  0.7935E+00  0.4817E+02
      5.517  0.1947E+01  0.4831E+02
      5.586  0.9459E-01  0.4831E+02
      5.656  0.1993E+01  0.4845E+02
      5.725  0.1906E+01  0.4859E+02
      5.795  0.7592E+00  0.4864E+02
      5.864  0.6284E+00  0.4868E+02
      5.934  0.6012E+00  0.4873E+02
      6.003  0.1542E+01  0.4883E+02
      6.073  0.2250E+01  0.4899E+02
      6.142  0.1097E+01  0.4907E+02
      6.212  0.1249E+01  0.4915E+02
      6.281  0.6681E-01  0.4916E+02
      6.351  0.1191E+01  0.4924E+02
      6.420  0.1886E+01  0.4937E+02
      6.490  0.6383E+00  0.4942E+02
      6.559  0.1885E+01  0.4955E+02
      6.629  0.1913E+01  0.4968E+02
      6.698  0.1194E+00  0.4969E+02
      6.768  0.1332E+01  0.4978E+02
      6.837  0.1498E+01  0.4989E+02
      6.907  0.1328E+01  0.4998E+02
      6.976  0.1587E+01  0.5009E+02
      7.046  0.5082E-01  0.5009E+02
      7.115  0.7037E+00  0.5014E+02
      7.184  0.1628E+01  0.5026E+02
      7.254  0.6052E+00  0.5030E+02
      7.323  0.1402E+01  0.5040E+02
      7.393  0.1086E+01  0.5047E+02
      7.462  0.5271E+00  0.5051E+02
      7.532  0.2190E+01  0.5066E+02
      7.601  0.1652E+01  0.5078E+02
      7.671  0.7108E+00  0.5083E+02
      7.740  0.1153E+01  0.5091E+02
      7.810  0.1220E+01  0.5099E+02
      7.879  0.1247E+01  0.5108E+02
      7.949  0.1992E+01  0.5122E+02
      8.018  0.9315E+00  0.5128E+02
      8.088  0.2371E+01  0.5144E+02
      8.157  0.1254E+01  0.5153E+02
      8.227  0.9572E+00  0.5160E+02
      8.296  0.1296E+01  0.5169E+02
      8.366  0.1314E+01  0.5178E+02
      8.435  0.2699E+01  0.5197E+02
      8.505  0.1406E+01  0.5207E+02
      8.574  0.1519E+01  0.5217E+02
      8.644  0.1017E+01  0.5224E+02
      8.713  0.1820E+01  0.5237E+02
      8.783  0.1992E+01  0.5251E+02
      8.852  0.1518E+01  0.5262E+02
      8.922  0.1357E+01  0.5271E+02
      8.991  0.1409E+01  0.5281E+02
      9.061  0.1341E+01  0.5290E+02
      9.130  0.2560E+01  0.5308E+02
      9.200  0.6285E+00  0.5312E+02
      9.269  0.9428E+00  0.5319E+02
      9.339  0.1711E+01  0.5331E+02
      9.408  0.1531E+01  0.5342E+02
      9.478  0.8996E+00  0.5348E+02
      9.547  0.2697E+01  0.5367E+02
      9.617  0.1717E+01  0.5379E+02
      9.686  0.5595E+00  0.5383E+02
      9.756  0.2661E+01  0.5401E+02
      9.825  0.1773E+01  0.5414E+02
      9.895  0.1257E+01  0.5422E+02
      9.964  0.9129E+00  0.5429E+02
     10.034  0.1554E+01  0.5440E+02
     10.103  0.2110E+01  0.5454E+02
     10.173  0.5598E+00  0.5458E+02
     10.242  0.1311E+01  0.5467E+02
     10.312  0.1136E+01  0.5475E+02
     10.381  0.2635E+01  0.5494E+02
     10.451  0.1736E+01  0.5506E+02
     10.520  0.9429E+00  0.5512E+02
     10.590  0.1238E+01  0.5521E+02
     10.659  0.8761E+00  0.5527E+02
     10.729  0.4678E-01  0.5527E+02
     10.798  0.1936E+01  0.5541E+02
     10.868  0.1031E+01  0.5548E+02
     10.937  0.1163E+01  0.5556E+02
     11.007  0.9897E+00  0.5563E+02
     11.076  0.6233E+00  0.5568E+02
     11.146  0.3257E+00  0.5570E+02
     11.215  0.3030E+00  0.5572E+02
     11.285  0.9429E+00  0.5579E+02
     11.354  0.2706E-02  0.5579E+02
     11.424  0.1569E+01  0.5590E+02
     11.493  0.0000E+00  0.5590E+02
     11.563  0.2748E+00  0.5592E+02
     11.632  0.3540E+00  0.5594E+02
     11.702  0.0000E+00  0.5594E+02
     11.771  0.0000E+00  0.5594E+02
     11.841  0.2587E-14  0.5594E+02
     11.910  0.2228E+00  0.5596E+02
     11.980  0.1935E+00  0.5597E+02
     12.049  0.2828E-01  0.5597E+02
     12.118  0.0000E+00  0.5597E+02
     12.188  0.1571E-15  0.5597E+02
     12.257  0.3030E+00  0.5599E+02
     12.327  0.0000E+00  0.5599E+02
     12.396  0.0000E+00  0.5599E+02
     12.466  0.0000E+00  0.5599E+02
     12.535  0.0000E+00  0.5599E+02
     12.605  0.0000E+00  0.5599E+02
     12.674  0.0000E+00  0.5599E+02
     12.744  0.0000E+00  0.5599E+02
     12.813  0.4535E-02  0.5599E+02
     12.883  0.7406E-01  0.5600E+02
     12.952  0.0000E+00  0.5600E+02
     13.022  0.0000E+00  0.5600E+02
     13.091  0.0000E+00  0.5600E+02
     13.161  0.0000E+00  0.5600E+02
     13.230  0.2305E-05  0.5600E+02
     13.300  0.1310E-01  0.5600E+02
     13.369  0.0000E+00  0.5600E+02
     13.439  0.0000E+00  0.5600E+02
     13.508  0.0000E+00  0.5600E+02
     13.578  0.0000E+00  0.5600E+02
     13.647  0.0000E+00  0.5600E+02
     13.717  0.0000E+00  0.5600E+02
     13.786  0.0000E+00  0.5600E+02
     13.856  0.0000E+00  0.5600E+02
     13.925  0.0000E+00  0.5600E+02
     13.995  0.0000E+00  0.5600E+02
     14.064  0.0000E+00  0.5600E+02
     14.134  0.0000E+00  0.5600E+02
     14.203  0.0000E+00  0.5600E+02
