    4    4    1    1
  0.1514370E+02  0.3927329E-09  0.3927329E-09  0.3927329E-09  0.5000000E-15
  1.000000000000000E-004
  CAR 
 unknown system                          
   44   84   28
 
  0.0000000E+00  0.0000000E+00  0.0000000E+00  0.4551661E-03
   1       -5.6970
   2       -1.7224
   3       -1.7224
   4       -1.7224
   5       -1.4093
   6       -1.4093
   7       -1.4093
   8       -0.4697
   9       -0.4697
  10       -0.4697
  11        0.0920
  12        0.0920
  13        0.4671
  14        0.4671
  15        0.4671
  16        0.5718
  17        0.5718
  18        0.5718
  19        0.5718
  20        0.5718
  21        0.5718
  22        3.6093
  23        3.6093
  24        3.6093
  25        7.4517
  26        7.4517
  27        7.4517
  28       13.2556
 
  0.7692308E-01  0.0000000E+00  0.0000000E+00  0.2730997E-02
   1       -5.6367
   2       -1.7254
   3       -1.6976
   4       -1.6976
   5       -1.3961
   6       -1.3952
   7       -1.3952
   8       -0.4838
   9       -0.4579
  10       -0.4579
  11        0.0793
  12        0.0974
  13        0.4507
  14        0.4507
  15        0.4616
  16        0.4969
  17        0.4969
  18        0.5522
  19        0.5522
  20        0.5718
  21        0.5718
  22        3.1411
  23        3.7406
  24        3.7406
  25        7.4793
  26        7.4793
  27        8.0474
  28       12.8246
 
  0.1538462E+00  0.0000000E+00  0.0000000E+00  0.2730997E-02
   1       -5.4565
   2       -1.7444
   3       -1.6262
   4       -1.6262
   5       -1.3571
   6       -1.3525
   7       -1.3525
   8       -0.5251
   9       -0.4227
  10       -0.4227
  11        0.0423
  12        0.1132
  13        0.3047
  14        0.3047
  15        0.4027
  16        0.4027
  17        0.4453
  18        0.4956
  19        0.4956
  20        0.5719
  21        0.5719
  22        2.1981
  23        4.1018
  24        4.1018
  25        7.5641
  26        7.5641
  27        9.3819
  28       11.8935
 
  0.2307692E+00  0.0000000E+00  0.0000000E+00  0.2730997E-02
   1       -5.1592
   2       -1.8159
   3       -1.5177
   4       -1.5177
   5       -1.2944
   6       -1.2807
   7       -1.2807
   8       -0.5910
   9       -0.3649
  10       -0.3649
  11       -0.0150
  12        0.0551
  13        0.0551
  14        0.1386
  15        0.3272
  16        0.3272
  17        0.4079
  18        0.4079
  19        0.4193
  20        0.5720
  21        0.5720
  22        1.2373
  23        4.6321
  24        4.6321
  25        7.7110
  26        7.7110
  27       10.8319
  28       10.8319
 
  0.3076923E+00  0.0000000E+00  0.0000000E+00  0.2730997E-02
   1       -4.7501
   2       -2.0169
   3       -1.3892
   4       -1.3892
   5       -1.2113
   6       -1.1787
   7       -1.1787
   8       -0.6775
   9       -0.2861
  10       -0.2861
  11       -0.2072
  12       -0.2072
  13       -0.0850
  14        0.1720
  15        0.2340
  16        0.2340
  17        0.2977
  18        0.2977
  19        0.3851
  20        0.4654
  21        0.5721
  22        0.5721
  23        5.2855
  24        5.2855
  25        7.9272
  26        7.9272
  27        9.7670
  28        9.7670
 
  0.3846154E+00  0.0000000E+00  0.0000000E+00  0.2730997E-02
   1       -4.2394
   2       -2.4292
   3       -1.2677
   4       -1.2677
   5       -1.1124
   6       -1.0456
   7       -1.0456
   8       -0.7792
   9       -0.4576
  10       -0.4576
  11       -0.1885
  12       -0.1885
  13       -0.1549
  14        0.0024
  15        0.1420
  16        0.1420
  17        0.1745
  18        0.1745
  19        0.2118
  20        0.3448
  21        0.5722
  22        0.5722
  23        6.0355
  24        6.0355
  25        8.2184
  26        8.2184
  27        8.7412
  28        8.7412
 
  0.4615385E+00  0.0000000E+00  0.0000000E+00  0.2730997E-02
   1       -3.6468
   2       -3.0143
   3       -1.1905
   4       -1.1905
   5       -1.0033
   6       -0.8900
   7       -0.8806
   8       -0.8806
   9       -0.6839
  10       -0.6839
  11       -0.2011
  12       -0.1785
  13       -0.0758
  14       -0.0758
  15        0.0474
  16        0.0474
  17        0.0815
  18        0.0815
  19        0.2555
  20        0.3008
  21        0.5723
  22        0.5723
  23        6.8672
  24        6.8672
  25        7.7716
  26        7.7716
  27        8.5583
  28        8.5583
 
  0.7692308E-01  0.7692308E-01  0.0000000E+00  0.5461994E-02
   1       -5.5765
   2       -1.7000
   3       -1.7000
   4       -1.6734
   5       -1.3822
   6       -1.3822
   7       -1.3814
   8       -0.4913
   9       -0.4524
  10       -0.4471
  11        0.0759
  12        0.0944
  13        0.4334
  14        0.4334
  15        0.4349
  16        0.4402
  17        0.4860
  18        0.4860
  19        0.5522
  20        0.5522
  21        0.5591
  22        3.2673
  23        3.2673
  24        3.8666
  25        7.5075
  26        8.0830
  27        8.0830
  28       11.9000
 
  0.1538462E+00  0.7692308E-01  0.0000000E+00  0.1092399E-01
   1       -5.3969
   2       -1.7170
   3       -1.6268
   4       -1.6039
   5       -1.3438
   6       -1.3402
   7       -1.3397
   8       -0.5285
   9       -0.4206
  10       -0.4150
  11        0.0436
  12        0.1086
  13        0.2642
  14        0.2667
  15        0.3739
  16        0.3885
  17        0.4105
  18        0.4611
  19        0.4954
  20        0.5521
  21        0.5523
  22        2.3271
  23        3.6081
  24        4.2161
  25        7.5937
  26        8.1916
  27        9.4250
  28       10.8085
 
  0.2307692E+00  0.7692308E-01  0.0000000E+00  0.1092399E-01
   1       -5.1005
   2       -1.7851
   3       -1.5154
   4       -1.4982
   5       -1.2822
   6       -1.2699
   7       -1.2695
   8       -0.5923
   9       -0.3638
  10       -0.3634
  11       -0.0098
  12        0.0153
  13        0.0309
  14        0.1364
  15        0.2640
  16        0.3155
  17        0.3334
  18        0.4076
  19        0.4266
  20        0.5507
  21        0.5520
  22        1.3921
  23        4.0972
  24        4.7346
  25        7.7426
  26        8.3784
  27        9.7330
  28       10.9047
 
  0.3076923E+00  0.7692308E-01  0.0000000E+00  0.1092399E-01
   1       -4.6928
   2       -1.9808
   3       -1.3829
   4       -1.3720
   5       -1.2005
   6       -1.1723
   7       -1.1693
   8       -0.6768
   9       -0.2986
  10       -0.2855
  11       -0.2444
  12       -0.2210
  13       -0.0697
  14        0.0864
  15        0.1737
  16        0.2253
  17        0.2400
  18        0.2974
  19        0.3762
  20        0.5504
  21        0.5518
  22        0.6997
  23        4.6880
  24        5.3784
  25        7.9579
  26        8.6489
  27        8.7225
  28        9.8397
 
  0.3846154E+00  0.7692308E-01  0.0000000E+00  0.1092399E-01
   1       -4.1842
   2       -2.3870
   3       -1.2565
   4       -1.2500
   5       -1.1034
   6       -1.0485
   7       -1.0385
   8       -0.7764
   9       -0.4900
  10       -0.4637
  11       -0.2504
  12       -0.1883
  13       -0.1327
  14       -0.0948
  15        0.1367
  16        0.1471
  17        0.1742
  18        0.2183
  19        0.2615
  20        0.4032
  21        0.5506
  22        0.5516
  23        5.3562
  24        6.1212
  25        7.7505
  26        8.2888
  27        8.8152
  28        8.9910
 
  0.4615385E+00  0.7692308E-01  0.0000000E+00  0.1092399E-01
   1       -3.5947
   2       -2.9665
   3       -1.1741
   4       -1.1714
   5       -0.9962
   6       -0.8960
   7       -0.8851
   8       -0.8767
   9       -0.7094
  10       -0.6843
  11       -0.2599
  12       -0.2487
  13       -0.0758
  14       -0.0244
  15        0.0471
  16        0.0800
  17        0.0839
  18        0.1016
  19        0.2685
  20        0.3241
  21        0.5509
  22        0.5513
  23        6.0914
  24        6.8911
  25        6.9476
  26        7.8481
  27        8.6667
  28        9.0874
 
  0.1538462E+00  0.1538462E+00  0.0000000E+00  0.5461994E-02
   1       -5.2189
   2       -1.6382
   3       -1.6382
   4       -1.5400
   5       -1.3038
   6       -1.3038
   7       -1.3010
   8       -0.5507
   9       -0.4017
  10       -0.3925
  11        0.0319
  12        0.1118
  13        0.1447
  14        0.1653
  15        0.1653
  16        0.3468
  17        0.4103
  18        0.4103
  19        0.4950
  20        0.4950
  21        0.5211
  22        2.6576
  23        2.6576
  24        4.5390
  25        7.6838
  26        9.5548
  27        9.5548
  28        9.6133
 
  0.2307692E+00  0.1538462E+00  0.0000000E+00  0.1092399E-01
   1       -4.9254
   2       -1.6959
   3       -1.5176
   4       -1.4430
   5       -1.2455
   6       -1.2367
   7       -1.2366
   8       -0.6023
   9       -0.3580
  10       -0.3539
  11       -0.0891
  12       -0.0454
  13       -0.0070
  14        0.0196
  15        0.1421
  16        0.2807
  17        0.3372
  18        0.3873
  19        0.4068
  20        0.4944
  21        0.5033
  22        1.7327
  23        3.1093
  24        5.0289
  25        7.8353
  26        8.4950
  27        9.7705
  28       11.1205
 
  0.3076923E+00  0.1538462E+00  0.0000000E+00  0.1092399E-01
   1       -4.5223
   2       -1.8763
   3       -1.3726
   4       -1.3249
   5       -1.1682
   6       -1.1506
   7       -1.1415
   8       -0.6779
   9       -0.3426
  10       -0.3225
  11       -0.2802
  12       -0.2642
  13       -0.1612
  14       -0.0488
  15        0.1911
  16        0.1987
  17        0.2463
  18        0.2964
  19        0.3365
  20        0.4936
  21        0.4955
  22        1.0322
  23        3.6427
  24        5.6484
  25        7.4412
  26        8.0889
  27       10.0431
  28       10.0552
 
  0.3846154E+00  0.1538462E+00  0.0000000E+00  0.1092399E-01
   1       -4.0203
   2       -2.2641
   3       -1.2303
   4       -1.2019
   5       -1.0765
   6       -1.0536
   7       -1.0178
   8       -0.7698
   9       -0.5758
  10       -0.4831
  11       -0.3149
  12       -0.3103
  13       -0.1857
  14       -0.0499
  15        0.1190
  16        0.1532
  17        0.1733
  18        0.2489
  19        0.2534
  20        0.4925
  21        0.4927
  22        0.6271
  23        4.2457
  24        6.3721
  25        6.5117
  26        8.4008
  27        9.0343
  28        9.9075
 
  0.4615385E+00  0.1538462E+00  0.0000000E+00  0.1092399E-01
   1       -3.4405
   2       -2.8260
   3       -1.1298
   4       -1.1161
   5       -0.9755
   6       -0.9404
   7       -0.8712
   8       -0.8657
   9       -0.7789
  10       -0.6862
  11       -0.3624
  12       -0.3443
  13       -0.0750
  14        0.0170
  15        0.0469
  16        0.0722
  17        0.0852
  18        0.1289
  19        0.3298
  20        0.4346
  21        0.4917
  22        0.4920
  23        4.9197
  24        5.6721
  25        7.1841
  26        8.0742
  27        8.8135
  28        9.3272
 
  0.2307692E+00  0.2307692E+00  0.0000000E+00  0.5461994E-02
   1       -4.6372
   2       -1.5587
   3       -1.5587
   4       -1.3609
   5       -1.1839
   6       -1.1839
   7       -1.1805
   8       -0.6331
   9       -0.3485
  10       -0.3217
  11       -0.2347
  12       -0.2347
  13       -0.1743
  14       -0.0274
  15        0.1792
  16        0.2247
  17        0.3201
  18        0.3201
  19        0.4057
  20        0.4057
  21        0.4591
  22        2.1569
  23        2.1569
  24        5.4856
  25        7.3255
  26        8.0235
  27       11.3909
  28       11.3910
 
  0.3076923E+00  0.2307692E+00  0.0000000E+00  0.1092399E-01
   1       -4.2423
   2       -1.7151
   3       -1.3916
   4       -1.2617
   5       -1.1144
   6       -1.1075
   7       -1.0972
   8       -0.6888
   9       -0.4708
  10       -0.3830
  11       -0.3433
  12       -0.3397
  13       -0.2610
  14       -0.0571
  15        0.1541
  16        0.2339
  17        0.2473
  18        0.2727
  19        0.2953
  20        0.4046
  21        0.4303
  22        1.4035
  23        2.6429
  24        6.0746
  25        6.2873
  26        8.2677
  27       10.4061
  28       10.9919
 
  0.3846154E+00  0.2307692E+00  0.0000000E+00  0.1092399E-01
   1       -3.7527
   2       -2.0724
   3       -1.2222
   4       -1.1488
   5       -1.0411
   6       -1.0323
   7       -0.9853
   8       -0.7639
   9       -0.6806
  10       -0.5181
  11       -0.4671
  12       -0.3637
  13       -0.1751
  14       -0.0559
  15        0.0861
  16        0.1432
  17        0.1730
  18        0.1924
  19        0.3381
  20        0.4038
  21        0.4147
  22        0.9078
  23        3.1934
  24        5.3573
  25        6.7730
  26        8.6060
  27        9.3905
  28       10.2495
 
  0.4615385E+00  0.2307692E+00  0.0000000E+00  0.1092399E-01
   1       -3.1910
   2       -2.6023
   3       -1.0874
   4       -1.0306
   5       -1.0104
   6       -0.9425
   7       -0.8619
   8       -0.8509
   9       -0.8493
  10       -0.6916
  11       -0.4644
  12       -0.4147
  13       -0.0699
  14       -0.0016
  15        0.0485
  16        0.0505
  17        0.0723
  18        0.0910
  19        0.4043
  20        0.4072
  21        0.4552
  22        0.6235
  23        3.8202
  24        4.5373
  25        7.5652
  26        8.4405
  27        9.0450
  28        9.5923
 
  0.3076923E+00  0.3076923E+00  0.0000000E+00  0.5461994E-02
   1       -3.8605
   2       -1.5180
   3       -1.5180
   4       -1.1982
   5       -1.0417
   6       -1.0393
   7       -1.0393
   8       -0.7175
   9       -0.5746
  10       -0.5746
  11       -0.4454
  12       -0.3629
  13       -0.2182
  14       -0.0853
  15        0.0955
  16        0.1912
  17        0.1912
  18        0.2948
  19        0.2948
  20        0.3414
  21        0.3748
  22        1.8216
  23        1.8216
  24        5.2453
  25        6.6335
  26        8.5380
  27       10.8825
  28       10.8825
 
  0.3846154E+00  0.3076923E+00  0.0000000E+00  0.1092399E-01
   1       -3.3910
   2       -1.8344
   3       -1.3180
   4       -1.1404
   5       -0.9742
   6       -0.9718
   7       -0.9439
   8       -0.7657
   9       -0.7333
  10       -0.5951
  11       -0.5713
  12       -0.3999
  13       -0.1485
  14       -0.0939
  15        0.0374
  16        0.1044
  17        0.1165
  18        0.1749
  19        0.2962
  20        0.3364
  21        0.4651
  22        1.2334
  23        2.3028
  24        4.3284
  25        7.3056
  26        8.9035
  27        9.8731
  28       10.6484
 
  0.4615385E+00  0.3076923E+00  0.0000000E+00  0.1092399E-01
   1       -2.8596
   2       -2.3140
   3       -1.1623
   4       -1.1064
   5       -0.9248
   6       -0.8996
   7       -0.8536
   8       -0.8305
   9       -0.8287
  10       -0.7036
  11       -0.5439
  12       -0.4666
  13       -0.0552
  14       -0.0546
  15        0.0089
  16        0.0248
  17        0.0343
  18        0.0552
  19        0.3014
  20        0.3134
  21        0.6266
  22        0.8600
  23        2.8680
  24        3.5381
  25        8.0762
  26        8.9348
  27        9.3727
  28        9.9533
 
  0.3846154E+00  0.3846154E+00  0.0000000E+00  0.5461994E-02
   1       -2.9531
   2       -1.5862
   3       -1.5862
   4       -1.1691
   5       -0.8974
   6       -0.8974
   7       -0.8863
   8       -0.7807
   9       -0.6913
  10       -0.6913
  11       -0.6421
  12       -0.4405
  13       -0.1242
  14       -0.0990
  15       -0.0165
  16        0.0355
  17        0.0355
  18        0.1817
  19        0.1817
  20        0.2714
  21        0.6280
  22        1.6212
  23        1.6212
  24        3.4400
  25        7.9534
  26        9.3001
  27       10.4711
  28       10.4711
 
  0.4615385E+00  0.3846154E+00  0.0000000E+00  0.1092399E-01
   1       -2.4702
   2       -1.9923
   3       -1.3751
   4       -1.2378
   5       -0.8510
   6       -0.8143
   7       -0.8132
   8       -0.8102
   9       -0.7583
  10       -0.7254
  11       -0.6016
  12       -0.5087
  13       -0.1095
  14       -0.0478
  15       -0.0467
  16       -0.0285
  17       -0.0245
  18        0.0716
  19        0.1969
  20        0.2254
  21        0.8423
  22        1.1514
  23        2.0997
  24        2.6990
  25        8.7031
  26        9.5450
  27        9.8032
  28       10.4189
 
  0.4615385E+00  0.4615385E+00  0.0000000E+00  0.5461994E-02
   1       -2.0608
   2       -1.6814
   3       -1.6814
   4       -1.4246
   5       -0.8020
   6       -0.8020
   7       -0.8005
   8       -0.7586
   9       -0.7184
  10       -0.6513
  11       -0.6513
  12       -0.5641
  13       -0.1301
  14       -0.0957
  15       -0.0957
  16       -0.0944
  17        0.0277
  18        0.1028
  19        0.1028
  20        0.1537
  21        1.1269
  22        1.5281
  23        1.5281
  24        2.0323
  25        9.4342
  26       10.2605
  27       10.2605
  28       10.3419
 
  0.7692308E-01  0.7692308E-01  0.7692308E-01  0.3641329E-02
   1       -5.5165
   2       -1.6753
   3       -1.6753
   4       -1.6753
   5       -1.3685
   6       -1.3685
   7       -1.3685
   8       -0.4983
   9       -0.4422
  10       -0.4422
  11        0.0824
  12        0.0824
  13        0.4144
  14        0.4144
  15        0.4144
  16        0.4214
  17        0.4214
  18        0.4214
  19        0.5485
  20        0.5485
  21        0.5485
  22        3.3870
  23        3.3870
  24        3.3870
  25        8.1190
  26        8.1190
  27        8.1190
  28       11.9752
 
  0.1538462E+00  0.7692308E-01  0.7692308E-01  0.1092399E-01
   1       -5.3374
   2       -1.6907
   3       -1.6042
   4       -1.6042
   5       -1.3307
   6       -1.3275
   7       -1.3275
   8       -0.5320
   9       -0.4146
  10       -0.4118
  11        0.0482
  12        0.1018
  13        0.2317
  14        0.2317
  15        0.3361
  16        0.3799
  17        0.3804
  18        0.3804
  19        0.5202
  20        0.5426
  21        0.5426
  22        2.4453
  23        3.7143
  24        3.7143
  25        8.2288
  26        8.2288
  27        9.4680
  28       10.8813
 
  0.2307692E+00  0.7692308E-01  0.7692308E-01  0.1092399E-01
   1       -5.0421
   2       -1.7556
   3       -1.4961
   4       -1.4961
   5       -1.2700
   6       -1.2586
   7       -1.2586
   8       -0.5933
   9       -0.3641
  10       -0.3617
  11       -0.0062
  12       -0.0062
  13       -0.0023
  14        0.1328
  15        0.2003
  16        0.3102
  17        0.3128
  18        0.3128
  19        0.4808
  20        0.5381
  21        0.5381
  22        1.5181
  23        4.1902
  24        4.1902
  25        8.4156
  26        8.4156
  27        9.8074
  28        9.8074
 
  0.3076923E+00  0.7692308E-01  0.7692308E-01  0.1092399E-01
   1       -4.6360
   2       -1.9465
   3       -1.3666
   4       -1.3666
   5       -1.1895
   6       -1.1628
   7       -1.1628
   8       -0.6755
   9       -0.3038
  10       -0.2930
  11       -0.2557
  12       -0.2557
  13       -0.0519
  14        0.0013
  15        0.1735
  16        0.2176
  17        0.2257
  18        0.2257
  19        0.4346
  20        0.5354
  21        0.5354
  22        0.8211
  23        4.7705
  24        4.7705
  25        8.6156
  26        8.6156
  27        8.8699
  28        8.8699
 
  0.3846154E+00  0.7692308E-01  0.7692308E-01  0.1092399E-01
   1       -4.1296
   2       -2.3464
   3       -1.2399
   4       -1.2399
   5       -1.0939
   6       -1.0429
   7       -1.0429
   8       -0.7729
   9       -0.4921
  10       -0.4921
  11       -0.2726
  12       -0.2076
  13       -0.1981
  14       -0.0520
  15        0.1111
  16        0.1378
  17        0.1378
  18        0.2217
  19        0.3836
  20        0.4205
  21        0.5340
  22        0.5340
  23        5.4306
  24        5.4306
  25        7.8229
  26        7.8229
  27        9.0945
  28        9.0945
 
  0.4615385E+00  0.7692308E-01  0.7692308E-01  0.1092399E-01
   1       -3.5434
   2       -2.9199
   3       -1.1550
   4       -1.1550
   5       -0.9885
   6       -0.9032
   7       -0.9032
   8       -0.8794
   9       -0.6972
  10       -0.6972
  11       -0.2910
  12       -0.2902
  13       -0.1086
  14       -0.0003
  15        0.0387
  16        0.0791
  17        0.0791
  18        0.1924
  19        0.2746
  20        0.3295
  21        0.5334
  22        0.5334
  23        6.1578
  24        6.1578
  25        6.9623
  26        6.9623
  27        9.5370
  28        9.5370
 
  0.1538462E+00  0.1538462E+00  0.7692308E-01  0.1092399E-01
   1       -5.1601
   2       -1.6148
   3       -1.6148
   4       -1.5397
   5       -1.2913
   6       -1.2913
   7       -1.2890
   8       -0.5530
   9       -0.3971
  10       -0.3916
  11        0.0429
  12        0.1017
  13        0.1136
  14        0.1360
  15        0.1360
  16        0.3229
  17        0.3447
  18        0.3447
  19        0.5176
  20        0.5176
  21        0.5240
  22        2.7562
  23        2.7562
  24        4.0113
  25        8.3401
  26        9.5955
  27        9.5955
  28        9.6887
 
  0.2307692E+00  0.1538462E+00  0.7692308E-01  0.2184797E-01
   1       -4.8679
   2       -1.6707
   3       -1.4991
   4       -1.4418
   5       -1.2332
   6       -1.2253
   7       -1.2251
   8       -0.6018
   9       -0.3590
  10       -0.3551
  11       -0.1064
  12       -0.0767
  13       -0.0120
  14        0.0074
  15        0.1349
  16        0.2599
  17        0.2747
  18        0.2917
  19        0.4819
  20        0.5050
  21        0.5066
  22        1.8241
  23        3.1920
  24        4.4553
  25        8.4317
  26        8.6722
  27        9.7479
  28       10.0885
 
  0.3076923E+00  0.1538462E+00  0.7692308E-01  0.2184797E-01
   1       -4.4666
   2       -1.8475
   3       -1.3599
   4       -1.3230
   5       -1.1562
   6       -1.1403
   7       -1.1339
   8       -0.6746
   9       -0.3477
  10       -0.3252
  11       -0.2937
  12       -0.2917
  13       -0.1927
  14       -0.0240
  15        0.1802
  16        0.1851
  17        0.1863
  18        0.2159
  19        0.4332
  20        0.4942
  21        0.4944
  22        1.1020
  23        3.7142
  24        5.0078
  25        7.5096
  26        8.8550
  27        8.9601
  28       10.1747
 
  0.3846154E+00  0.1538462E+00  0.7692308E-01  0.2184797E-01
   1       -3.9675
   2       -2.2289
   3       -1.2196
   4       -1.1972
   5       -1.0651
   6       -1.0500
   7       -1.0248
   8       -0.7638
   9       -0.5657
  10       -0.5000
  11       -0.3339
  12       -0.3221
  13       -0.2183
  14       -0.0019
  15        0.0746
  16        0.1095
  17        0.1328
  18        0.2490
  19        0.3619
  20        0.4873
  21        0.4879
  22        0.6501
  23        4.3092
  24        5.6388
  25        6.5887
  26        8.0272
  27        9.2437
  28       10.5432
 
  0.4615385E+00  0.1538462E+00  0.7692308E-01  0.2184797E-01
   1       -3.3918
   2       -2.7833
   3       -1.1128
   4       -1.0999
   5       -0.9674
   6       -0.9653
   7       -0.9296
   8       -0.8629
   9       -0.7233
  10       -0.6751
  11       -0.3783
  12       -0.3556
  13       -0.1304
  14       -0.0314
  15        0.0621
  16        0.0712
  17        0.0959
  18        0.2404
  19        0.3225
  20        0.4254
  21        0.4845
  22        0.4847
  23        4.9762
  24        5.7102
  25        6.3951
  26        7.1676
  27        9.7420
  28       10.3297
 
  0.2307692E+00  0.2307692E+00  0.7692308E-01  0.1092399E-01
   1       -4.5812
   2       -1.5415
   3       -1.5415
   4       -1.3621
   5       -1.1712
   6       -1.1712
   7       -1.1682
   8       -0.6298
   9       -0.3501
  10       -0.3299
  11       -0.2479
  12       -0.2479
  13       -0.1994
  14       -0.0056
  15        0.1708
  16        0.1944
  17        0.2363
  18        0.2363
  19        0.4599
  20        0.4599
  21        0.4726
  22        2.2280
  23        2.2280
  24        4.8611
  25        7.3940
  26        8.7743
  27       10.3160
  28       10.3160
 
  0.3076923E+00  0.2307692E+00  0.7692308E-01  0.2184797E-01
   1       -4.1888
   2       -1.6970
   3       -1.3865
   4       -1.2677
   5       -1.0997
   6       -1.0944
   7       -1.0851
   8       -0.6818
   9       -0.4679
  10       -0.3913
  11       -0.3563
  12       -0.3453
  13       -0.2829
  14       -0.0227
  15        0.1262
  16        0.1497
  17        0.1776
  18        0.2391
  19        0.4020
  20        0.4367
  21        0.4443
  22        1.4537
  23        2.7022
  24        5.3664
  25        6.3726
  26        9.0783
  27        9.2993
  28       10.7864
 
  0.3846154E+00  0.2307692E+00  0.7692308E-01  0.2184797E-01
   1       -3.7030
   2       -2.0474
   3       -1.2302
   4       -1.1631
   5       -1.0296
   6       -1.0163
   7       -0.9863
   8       -0.7534
   9       -0.6527
  10       -0.5180
  11       -0.4715
  12       -0.3663
  13       -0.2208
  14        0.0035
  15        0.0477
  16        0.0628
  17        0.1054
  18        0.3210
  19        0.3289
  20        0.4213
  21        0.4251
  22        0.9271
  23        3.2456
  24        5.3662
  25        6.0594
  26        8.3585
  27        9.4906
  28       11.3727
 
  0.4615385E+00  0.2307692E+00  0.7692308E-01  0.2184797E-01
   1       -3.1472
   2       -2.5670
   3       -1.1000
   4       -1.0573
   5       -1.0111
   6       -0.9457
   7       -0.9269
   8       -0.8373
   9       -0.7389
  10       -0.6580
  11       -0.4675
  12       -0.4176
  13       -0.1449
  14       -0.0540
  15        0.0277
  16        0.0449
  17        0.0907
  18        0.2105
  19        0.4144
  20        0.4156
  21        0.4448
  22        0.6191
  23        3.8672
  24        4.5778
  25        6.7273
  26        7.5008
  27       10.0144
  28       10.6489
 
  0.3076923E+00  0.3076923E+00  0.7692308E-01  0.1092399E-01
   1       -3.8106
   2       -1.5182
   3       -1.5182
   4       -1.2166
   5       -1.0252
   6       -1.0198
   7       -1.0198
   8       -0.7055
   9       -0.5655
  10       -0.5655
  11       -0.4467
  12       -0.3640
  13       -0.2579
  14       -0.0347
  15        0.0614
  16        0.1058
  17        0.1058
  18        0.3318
  19        0.3666
  20        0.3666
  21        0.3973
  22        1.8625
  23        1.8625
  24        5.2418
  25        5.9483
  26        9.4062
  27        9.7548
  28        9.7548
 
  0.3846154E+00  0.3076923E+00  0.7692308E-01  0.2184797E-01
   1       -3.3468
   2       -1.8268
   3       -1.3445
   4       -1.1756
   5       -0.9559
   6       -0.9468
   7       -0.9231
   8       -0.7481
   9       -0.7007
  10       -0.5874
  11       -0.5500
  12       -0.3999
  13       -0.2192
  14       -0.0129
  15        0.0037
  16        0.0130
  17        0.0475
  18        0.2783
  19        0.3414
  20        0.3604
  21        0.4543
  22        1.2500
  23        2.3393
  24        4.3581
  25        6.5067
  26        8.8090
  27        9.8425
  28       10.3221
 
  0.4615385E+00  0.3076923E+00  0.7692308E-01  0.2184797E-01
   1       -2.8242
   2       -2.2914
   3       -1.2149
   4       -1.1615
   5       -0.9079
   6       -0.8740
   7       -0.8713
   8       -0.8062
   9       -0.7386
  10       -0.6519
  11       -0.5401
  12       -0.4653
  13       -0.1616
  14       -0.0815
  15       -0.0253
  16       -0.0065
  17        0.0630
  18        0.1708
  19        0.3318
  20        0.3381
  21        0.6161
  22        0.8571
  23        2.9028
  24        3.5718
  25        7.1842
  26        7.9522
  27       10.3914
  28       10.9952
 
  0.3846154E+00  0.3846154E+00  0.7692308E-01  0.1092399E-01
   1       -2.9176
   2       -1.6039
   3       -1.6039
   4       -1.2188
   5       -0.8685
   6       -0.8578
   7       -0.8578
   8       -0.7545
   9       -0.6745
  10       -0.6745
  11       -0.5969
  12       -0.4382
  13       -0.2125
  14       -0.0543
  15       -0.0335
  16       -0.0335
  17       -0.0032
  18        0.2489
  19        0.2489
  20        0.3028
  21        0.6164
  22        1.6378
  23        1.6378
  24        3.4684
  25        7.0786
  26        9.3709
  27        9.3709
  28       10.3043
 
  0.4615385E+00  0.3846154E+00  0.7692308E-01  0.2184797E-01
   1       -2.4481
   2       -1.9892
   3       -1.4194
   4       -1.2940
   5       -0.8094
   6       -0.7990
   7       -0.7752
   8       -0.7700
   9       -0.7243
  10       -0.6609
  11       -0.5942
  12       -0.5044
  13       -0.1823
  14       -0.1176
  15       -0.0882
  16       -0.0772
  17        0.0548
  18        0.1473
  19        0.2425
  20        0.2613
  21        0.8326
  22        1.1504
  23        2.1189
  24        2.7228
  25        7.7490
  26        8.5132
  27       10.0382
  28       10.8073
 
  0.4615385E+00  0.4615385E+00  0.7692308E-01  0.1092399E-01
   1       -2.0584
   2       -1.7034
   3       -1.7034
   4       -1.4695
   5       -0.7519
   6       -0.7426
   7       -0.7426
   8       -0.7059
   9       -0.6898
  10       -0.6415
  11       -0.6415
  12       -0.5570
  13       -0.1858
  14       -0.1467
  15       -0.1467
  16       -0.1379
  17        0.0868
  18        0.1551
  19        0.1551
  20        0.1959
  21        1.1209
  22        1.5320
  23        1.5320
  24        2.0451
  25        8.4145
  26        9.1778
  27        9.1778
  28        9.9430
 
  0.1538462E+00  0.1538462E+00  0.1538462E+00  0.3641329E-02
   1       -4.9849
   2       -1.5481
   3       -1.5481
   4       -1.5481
   5       -1.2534
   6       -1.2534
   7       -1.2534
   8       -0.5672
   9       -0.3825
  10       -0.3825
  11        0.0217
  12        0.0217
  13        0.0217
  14        0.0744
  15        0.0744
  16        0.2617
  17        0.2617
  18        0.2617
  19        0.5240
  20        0.5240
  21        0.5240
  22        3.0277
  23        3.0277
  24        3.0277
  25        9.6487
  26        9.6487
  27        9.6487
  28        9.9825
 
  0.2307692E+00  0.1538462E+00  0.1538462E+00  0.1092399E-01