 running on    4 nodes
 distr:  one band on    1 nodes,    4 groups
 vasp.4.6.28 25Jul05 complex 
 POSCAR found :  1 types and  108 ions

 ----------------------------------------------------------------------------- 
|                                                                             |
|  ADVICE TO THIS USER RUNNING 'VASP/VAMP'   (HEAR YOUR MASTER'S VOICE ...):  |
|                                                                             |
|      You have a (more or less) 'large supercell' and for larger cells       |
|      it might be more efficient to use real space projection operators      |
|      So try LREAL= Auto  in the INCAR   file.                               |
|      Mind: If you want to do an extremely accurate calculations keep the    |
|      reciprocal projection scheme          (i.e. LREAL=.FALSE.)             |
|                                                                             |
 ----------------------------------------------------------------------------- 

 LDA part: xc-table for Pade appr. of Perdew
 found WAVECAR, reading the header
 POSCAR, INCAR and KPOINTS ok, starting setup
 WARNING: wrap around errors must be expected
 FFT: planning ...           1
 reading WAVECAR
 the WAVECAR file was read sucessfully
 initial charge from wavefunction
 entering main loop
       N       E                     dE             d eps       ncg     rms          rms(c)
DAV:   1    -0.400038746326E+03   -0.40004E+03   -0.21946E+00  1472   0.297E+00    0.779E-01
DAV:   2    -0.400060605759E+03   -0.21859E-01   -0.19440E-01  1584   0.600E+00    0.151E+00
DAV:   3    -0.400010830241E+03    0.49776E-01   -0.11093E-01  1568   0.420E+00    0.353E-01
DAV:   4    -0.400010505383E+03    0.32486E-03   -0.25185E-02  1888   0.122E+00    0.278E-01
DAV:   5    -0.400009653334E+03    0.85205E-03   -0.96845E-03  1720   0.742E-01    0.746E-02
DAV:   6    -0.400009816722E+03   -0.16339E-03   -0.21569E-03  1520   0.254E-01    0.749E-02
DAV:   7    -0.400009801916E+03    0.14806E-04   -0.96851E-04  1520   0.215E-01    0.413E-02
DAV:   8    -0.400009809183E+03   -0.72673E-05   -0.23875E-04  1528   0.118E-01    0.309E-02
DAV:   9    -0.400009799381E+03    0.98023E-05   -0.95744E-05  1512   0.751E-02
   1 F= -.40000980E+03 E0= -.39984300E+03  d E =-.500406E+00

 ----------------------------------------------------------------------------- 
|                                                                             |
|           W    W    AA    RRRRR   N    N  II  N    N   GGGG   !!!           |
|           W    W   A  A   R    R  NN   N  II  NN   N  G    G  !!!           |
|           W    W  A    A  R    R  N N  N  II  N N  N  G       !!!           |
|           W WW W  AAAAAA  RRRRR   N  N N  II  N  N N  G  GGG   !            |
|           WW  WW  A    A  R   R   N   NN  II  N   NN  G    G                |
|           W    W  A    A  R    R  N    N  II  N    N   GGGG   !!!           |
|                                                                             |
|      The partial DOS and the PROCAR file are not evaluated for NPAR/=1      |
|      please rerun with NPAR=1                                               |
|                                                                             |
 ----------------------------------------------------------------------------- 

