  32  32   0   0
  0.1166450E+02  0.7200103E-09  0.7200103E-09  0.7200103E-09  0.5000000E-15
  1.000000000000000E-004
  CAR 
 unknown system                          
     15.11697525     -6.52818617  301      3.90443956      1.00000000
     -6.528  0.0000E+00  0.0000E+00
     -6.456  0.0000E+00  0.0000E+00
     -6.384  0.0000E+00  0.0000E+00
     -6.312  0.0000E+00  0.0000E+00
     -6.240  0.0000E+00  0.0000E+00
     -6.167  0.0000E+00  0.0000E+00
     -6.095  0.0000E+00  0.0000E+00
     -6.023  0.0000E+00  0.0000E+00
     -5.951  0.0000E+00  0.0000E+00
     -5.879  0.0000E+00  0.0000E+00
     -5.807  0.0000E+00  0.0000E+00
     -5.735  0.0000E+00  0.0000E+00
     -5.662  0.0000E+00  0.0000E+00
     -5.590  0.3395E-11  0.2450E-12
     -5.518  0.8081E-01  0.5830E-02
     -5.446  0.4850E+00  0.4082E-01
     -5.374  0.9752E+00  0.1112E+00
     -5.302  0.7193E+00  0.1631E+00
     -5.229  0.1723E+01  0.2874E+00
     -5.157  0.2513E+01  0.4687E+00
     -5.085  0.8212E-07  0.4723E+00
     -5.013  0.9701E+00  0.5423E+00
     -4.941  0.2454E+01  0.7194E+00
     -4.869  0.2500E+01  0.8998E+00
     -4.797  0.1932E+01  0.1039E+01
     -4.724  0.1935E+01  0.1183E+01
     -4.652  0.3879E+01  0.1464E+01
     -4.580  0.4167E-02  0.1464E+01
     -4.508  0.1905E+01  0.1601E+01
     -4.436  0.5105E+01  0.1970E+01
     -4.364  0.1939E+01  0.2128E+01
     -4.292  0.1943E+01  0.2269E+01
     -4.219  0.4430E+01  0.2588E+01
     -4.147  0.1384E+01  0.2688E+01
     -4.075  0.1938E+01  0.2828E+01
     -4.003  0.2431E+01  0.3003E+01
     -3.931  0.6416E+01  0.3466E+01
     -3.859  0.1983E+01  0.3609E+01
     -3.786  0.5817E+01  0.4029E+01
     -3.714  0.3879E+01  0.4309E+01
     -3.642  0.4552E+00  0.4342E+01
     -3.570  0.4387E+01  0.4658E+01
     -3.498  0.3889E+01  0.4940E+01
     -3.426  0.5819E+01  0.5359E+01
     -3.354  0.2216E+01  0.5532E+01
     -3.281  0.5819E+01  0.5953E+01
     -3.209  0.8133E+00  0.6012E+01
     -3.137  0.8850E+01  0.6651E+01
     -3.065  0.5722E+01  0.7066E+01
     -2.993  0.1861E+01  0.7207E+01
     -2.921  0.5821E+01  0.7633E+01
     -2.849  0.4365E+01  0.7948E+01
     -2.776  0.2219E+00  0.7964E+01
     -2.704  0.9813E+01  0.8672E+01
     -2.632  0.5148E+01  0.9043E+01
     -2.560  0.3750E+01  0.9314E+01
     -2.488  0.1177E+02  0.1016E+02
     -2.416  0.5815E+01  0.1058E+02
     -2.343  0.3768E+01  0.1085E+02
     -2.271  0.5356E+01  0.1125E+02
     -2.199  0.4341E+01  0.1156E+02
     -2.127  0.1059E+02  0.1233E+02
     -2.055  0.5749E+01  0.1275E+02
     -1.983  0.8249E+01  0.1335E+02
     -1.911  0.1069E+02  0.1412E+02
     -1.838  0.8382E+01  0.1472E+02
     -1.766  0.5803E+01  0.1514E+02
     -1.694  0.7217E+01  0.1569E+02
     -1.622  0.9689E+01  0.1639E+02
     -1.550  0.1821E+02  0.1770E+02
     -1.478  0.8634E+01  0.1833E+02
     -1.405  0.1539E+02  0.1944E+02
     -1.333  0.1025E+02  0.2019E+02
     -1.261  0.2099E+02  0.2171E+02
     -1.189  0.2475E+02  0.2350E+02
     -1.117  0.3270E+02  0.2586E+02
     -1.045  0.2313E+02  0.2756E+02
     -0.973  0.2916E+02  0.2967E+02
     -0.900  0.4588E+02  0.3299E+02
     -0.828  0.3715E+02  0.3567E+02
     -0.756  0.3415E+02  0.3816E+02
     -0.684  0.4089E+02  0.4112E+02
     -0.612  0.4595E+02  0.4444E+02
     -0.540  0.4383E+02  0.4764E+02
     -0.468  0.6622E+02  0.5243E+02
     -0.395  0.6423E+02  0.5713E+02
     -0.323  0.6275E+02  0.6171E+02
     -0.251  0.8917E+02  0.6815E+02
     -0.179  0.6151E+02  0.7267E+02
     -0.107  0.7948E+02  0.7845E+02
     -0.035  0.5495E+02  0.8247E+02
      0.038  0.7008E+02  0.8754E+02
      0.110  0.6683E+02  0.9243E+02
      0.182  0.6107E+02  0.9689E+02
      0.254  0.5681E+02  0.1010E+03
      0.326  0.9245E+02  0.1077E+03
      0.398  0.7558E+02  0.1132E+03
      0.470  0.8197E+02  0.1191E+03
      0.543  0.1081E+03  0.1270E+03
      0.615  0.1042E+03  0.1346E+03
      0.687  0.9013E+02  0.1411E+03
      0.759  0.1232E+03  0.1500E+03
      0.831  0.1135E+03  0.1583E+03
      0.903  0.1447E+03  0.1688E+03
      0.975  0.1356E+03  0.1787E+03
      1.048  0.1341E+03  0.1884E+03
      1.120  0.9468E+02  0.1953E+03
      1.192  0.1004E+03  0.2026E+03
      1.264  0.8257E+02  0.2086E+03
      1.336  0.7511E+02  0.2140E+03
      1.408  0.8337E+02  0.2201E+03
      1.481  0.1042E+03  0.2276E+03
      1.553  0.1130E+03  0.2359E+03
      1.625  0.1222E+03  0.2447E+03
      1.697  0.1120E+03  0.2528E+03
      1.769  0.1129E+03  0.2610E+03
      1.841  0.9051E+02  0.2676E+03
      1.913  0.9821E+02  0.2747E+03
      1.986  0.1029E+03  0.2822E+03
      2.058  0.1215E+03  0.2911E+03
      2.130  0.1087E+03  0.2989E+03
      2.202  0.2058E+03  0.3138E+03
      2.274  0.1891E+03  0.3276E+03
      2.346  0.7269E+02  0.3329E+03
      2.418  0.2721E+02  0.3349E+03
      2.491  0.2794E+02  0.3369E+03
      2.563  0.9682E+01  0.3376E+03
      2.635  0.9594E+01  0.3383E+03
      2.707  0.7150E+01  0.3389E+03
      2.779  0.1594E+02  0.3400E+03
      2.851  0.1789E+02  0.3413E+03
      2.924  0.8101E+01  0.3419E+03
      2.996  0.7283E+01  0.3425E+03
      3.068  0.8217E+01  0.3431E+03
      3.140  0.1364E+02  0.3440E+03
      3.212  0.1759E+02  0.3453E+03
      3.284  0.4942E+01  0.3457E+03
      3.356  0.1045E+02  0.3464E+03
      3.429  0.5875E+01  0.3469E+03
      3.501  0.9082E+01  0.3475E+03
      3.573  0.1908E+02  0.3489E+03
      3.645  0.1511E+02  0.3500E+03
      3.717  0.3250E+01  0.3502E+03
      3.789  0.1043E+02  0.3510E+03
      3.861  0.7631E+01  0.3516E+03
      3.934  0.7758E+01  0.3521E+03
      4.006  0.3388E+01  0.3524E+03
      4.078  0.1213E+02  0.3532E+03
      4.150  0.8435E+01  0.3538E+03
      4.222  0.1532E+02  0.3549E+03
      4.294  0.4821E+01  0.3553E+03
      4.367  0.1495E+02  0.3564E+03
      4.439  0.1508E+02  0.3575E+03
      4.511  0.1827E+01  0.3576E+03
      4.583  0.7729E+01  0.3582E+03
      4.655  0.4013E+01  0.3585E+03
      4.727  0.7273E+01  0.3590E+03
      4.799  0.6171E+01  0.3594E+03
      4.872  0.1339E+02  0.3604E+03
      4.944  0.1675E+02  0.3616E+03
      5.016  0.8040E+01  0.3622E+03
      5.088  0.3951E+01  0.3625E+03
      5.160  0.7980E+01  0.3630E+03
      5.232  0.7695E+01  0.3636E+03
      5.305  0.8752E+01  0.3642E+03
      5.377  0.8376E+01  0.3648E+03
      5.449  0.8129E+01  0.3654E+03
      5.521  0.5816E+01  0.3658E+03
      5.593  0.4859E+01  0.3662E+03
      5.665  0.1418E+02  0.3672E+03
      5.737  0.6313E+01  0.3677E+03
      5.810  0.6435E+01  0.3682E+03
      5.882  0.9378E+01  0.3688E+03
      5.954  0.9054E+01  0.3695E+03
      6.026  0.6374E+01  0.3700E+03
      6.098  0.6167E+01  0.3704E+03
      6.170  0.7643E+01  0.3710E+03
      6.242  0.1146E+02  0.3718E+03
      6.315  0.1120E+01  0.3719E+03
      6.387  0.9744E+01  0.3726E+03
      6.459  0.2714E+01  0.3728E+03
      6.531  0.2052E+01  0.3729E+03
      6.603  0.1072E+02  0.3737E+03
      6.675  0.1657E+02  0.3749E+03
      6.748  0.7199E+00  0.3749E+03
      6.820  0.1939E+01  0.3751E+03
      6.892  0.3882E+01  0.3754E+03
      6.964  0.1276E+02  0.3763E+03
      7.036  0.3896E+01  0.3766E+03
      7.108  0.8244E+01  0.3772E+03
      7.180  0.3376E+01  0.3775E+03
      7.253  0.1480E-04  0.3775E+03
      7.325  0.3882E+01  0.3777E+03
      7.397  0.7705E+01  0.3783E+03
      7.469  0.2960E+01  0.3785E+03
      7.541  0.1018E+02  0.3792E+03
      7.613  0.1459E+01  0.3793E+03
      7.685  0.2284E+01  0.3795E+03
      7.758  0.1097E+02  0.3803E+03
      7.830  0.8703E+01  0.3809E+03
      7.902  0.4324E+01  0.3813E+03
      7.974  0.8619E+01  0.3819E+03
      8.046  0.7137E+01  0.3824E+03
      8.118  0.9165E+01  0.3831E+03
      8.191  0.1067E+02  0.3838E+03
      8.263  0.1140E+02  0.3847E+03
      8.335  0.6687E+01  0.3851E+03
      8.407  0.9132E+01  0.3858E+03
      8.479  0.5730E+01  0.3862E+03
      8.551  0.9432E+01  0.3869E+03
      8.623  0.1310E+02  0.3879E+03
      8.696  0.1275E+02  0.3888E+03
      8.768  0.9497E+01  0.3895E+03
      8.840  0.4527E+01  0.3898E+03
      8.912  0.3498E+01  0.3901E+03
      8.984  0.1097E+02  0.3909E+03
      9.056  0.1352E+02  0.3919E+03
      9.128  0.9286E+01  0.3925E+03
      9.201  0.9480E+01  0.3932E+03
      9.273  0.9374E+01  0.3939E+03
      9.345  0.1056E+02  0.3947E+03
      9.417  0.2880E+01  0.3949E+03
      9.489  0.1416E+02  0.3959E+03
      9.561  0.8893E+01  0.3966E+03
      9.634  0.6050E-01  0.3966E+03
      9.706  0.8863E+01  0.3972E+03
      9.778  0.4002E+01  0.3975E+03
      9.850  0.1236E+02  0.3984E+03
      9.922  0.9611E+01  0.3991E+03
      9.994  0.1502E+02  0.4002E+03
     10.066  0.2040E-03  0.4002E+03
     10.139  0.1250E+02  0.4011E+03
     10.211  0.5575E+01  0.4015E+03
     10.283  0.7675E+01  0.4021E+03
     10.355  0.7900E+01  0.4026E+03
     10.427  0.5032E+01  0.4030E+03
     10.499  0.9343E+01  0.4037E+03
     10.571  0.7635E+01  0.4043E+03
     10.644  0.6231E+01  0.4047E+03
     10.716  0.1112E+02  0.4055E+03
     10.788  0.1940E+01  0.4057E+03
     10.860  0.8695E+01  0.4063E+03
     10.932  0.2559E+01  0.4065E+03
     11.004  0.7140E+01  0.4070E+03
     11.077  0.7775E+01  0.4075E+03
     11.149  0.9275E+01  0.4082E+03
     11.221  0.1493E+02  0.4093E+03
     11.293  0.9225E+01  0.4100E+03
     11.365  0.7648E+01  0.4105E+03
     11.437  0.8902E+01  0.4112E+03
     11.509  0.7688E+01  0.4117E+03
     11.582  0.9311E+01  0.4124E+03
     11.654  0.6807E+01  0.4129E+03
     11.726  0.1112E+02  0.4137E+03
     11.798  0.1422E+02  0.4147E+03
     11.870  0.4740E+01  0.4151E+03
     11.942  0.2041E+02  0.4165E+03
     12.015  0.9342E+01  0.4172E+03
     12.087  0.3556E+01  0.4175E+03
     12.159  0.1525E+02  0.4186E+03
     12.231  0.7069E+01  0.4191E+03
     12.303  0.1123E+02  0.4199E+03
     12.375  0.6508E+01  0.4204E+03
     12.447  0.1546E+02  0.4215E+03
     12.520  0.1128E+02  0.4223E+03
     12.592  0.1350E+02  0.4233E+03
     12.664  0.6745E+01  0.4238E+03
     12.736  0.9672E+01  0.4245E+03
     12.808  0.1236E+02  0.4254E+03
     12.880  0.1543E+02  0.4265E+03
     12.952  0.4447E+01  0.4268E+03
     13.025  0.9097E+01  0.4275E+03
     13.097  0.1753E+02  0.4287E+03
     13.169  0.2604E+01  0.4289E+03
     13.241  0.9195E+01  0.4296E+03
     13.313  0.6112E+01  0.4300E+03
     13.385  0.9678E+01  0.4307E+03
     13.458  0.4178E+01  0.4310E+03
     13.530  0.4527E+01  0.4314E+03
     13.602  0.3024E+01  0.4316E+03
     13.674  0.0000E+00  0.4316E+03
     13.746  0.2056E+01  0.4318E+03
     13.818  0.1176E+01  0.4319E+03
     13.890  0.0000E+00  0.4319E+03
     13.963  0.0000E+00  0.4319E+03
     14.035  0.0000E+00  0.4319E+03
     14.107  0.9386E-03  0.4319E+03
     14.179  0.1939E+01  0.4320E+03
     14.251  0.0000E+00  0.4320E+03
     14.323  0.0000E+00  0.4320E+03
     14.395  0.0000E+00  0.4320E+03
     14.468  0.0000E+00  0.4320E+03
     14.540  0.0000E+00  0.4320E+03
     14.612  0.0000E+00  0.4320E+03
     14.684  0.0000E+00  0.4320E+03
     14.756  0.0000E+00  0.4320E+03
     14.828  0.0000E+00  0.4320E+03
     14.901  0.0000E+00  0.4320E+03
     14.973  0.0000E+00  0.4320E+03
     15.045  0.0000E+00  0.4320E+03
     15.117  0.0000E+00  0.4320E+03
