   32   32    1    1
  0.1166450E+02  0.7200103E-09  0.7200103E-09  0.7200103E-09  0.5000000E-15
  1.000000000000000E-004
  CAR 
 unknown system                          
  352   20  216
 
  0.0000000E+00  0.0000000E+00  0.0000000E+00  0.2915452E-02
   1       -5.5443
   2       -2.7616
   3       -2.7616
   4       -2.7616
   5       -2.7616
   6       -2.7616
   7       -2.7616
   8       -1.2635
   9       -1.2635
  10       -1.2635
  11       -1.2635
  12       -1.0696
  13       -1.0696
  14       -1.0696
  15       -0.8649
  16       -0.8649
  17       -0.8649
  18       -0.8649
  19       -0.8649
  20       -0.8649
  21       -0.8649
  22       -0.8649
  23       -0.8649
  24       -0.8649
  25       -0.8649
  26       -0.8649
  27       -0.6091
  28       -0.6091
  29       -0.6091
  30       -0.3194
  31       -0.3194
  32       -0.3194
  33       -0.3194
  34       -0.3194
  35       -0.3194
  36        0.0807
  37        0.0807
  38        0.0807
  39        0.0807
  40        0.0807
  41        0.0807
  42        0.2960
  43        0.2960
  44        0.2960
  45        0.2960
  46        0.2960
  47        0.2960
  48        0.2960
  49        0.2960
  50        0.2960
  51        0.2960
  52        0.2960
  53        0.2960
  54        0.2996
  55        0.2996
  56        0.2996
  57        0.2996
  58        0.2996
  59        0.2996
  60        0.2996
  61        0.2996
  62        0.2996
  63        0.2996
  64        0.2996
  65        0.2996
  66        0.5115
  67        0.5115
  68        0.5115
  69        0.5115
  70        0.5115
  71        0.5115
  72        0.5115
  73        0.5115
  74        0.5115
  75        0.5115
  76        0.5115
  77        0.5115
  78        0.7788
  79        0.7788
  80        0.7788
  81        0.7788
  82        0.7788
  83        0.7788
  84        0.7788
  85        0.7788
  86        0.8094
  87        0.8094
  88        0.8094
  89        1.1914
  90        1.1914
  91        1.1914
  92        1.1914
  93        1.1914
  94        1.1914
  95        1.3225
  96        1.3225
  97        1.3225
  98        1.3225
  99        1.3225
 100        1.3225
 101        1.3225
 102        1.3225
 103        1.3225
 104        1.3225
 105        1.3225
 106        1.3225
 107        1.4831
 108        1.4831
 109        1.4831
 110        1.4831
 111        1.4831
 112        1.4831
 113        1.4831
 114        1.4831
 115        1.4831
 116        1.4831
 117        1.4831
 118        1.4831
 119        1.6128
 120        1.6128
 121        1.6128
 122        1.6128
 123        1.6128
 124        1.6128
 125        1.6468
 126        1.6468
 127        1.6468
 128        1.6468
 129        1.6468
 130        1.6468
 131        1.6468
 132        1.6468
 133        1.6468
 134        1.6468
 135        1.6468
 136        1.6468
 137        1.6535
 138        1.6535
 139        1.9306
 140        1.9306
 141        1.9306
 142        1.9306
 143        1.9306
 144        1.9306
 145        2.2139
 146        2.2139
 147        2.2139
 148        2.2284
 149        2.2284
 150        2.2284
 151        2.2284
 152        2.2284
 153        2.2284
 154        2.2284
 155        2.2284
 156        2.3712
 157        2.3712
 158        2.3712
 159        2.3712
 160        2.3712
 161        2.3712
 162        2.3720
 163        2.3720
 164        2.3720
 165        2.3720
 166        2.3720
 167        2.3720
 168        2.8666
 169        2.8666
 170        2.8666
 171        2.8666
 172        3.5793
 173        3.5793
 174        3.5793
 175        3.5793
 176        3.5793
 177        3.5793
 178        3.5793
 179        3.5793
 180        3.5793
 181        3.5793
 182        3.5793
 183        3.5793
 184        5.4022
 185        5.4022
 186        5.4022
 187        7.7133
 188        7.7133
 189        7.7133
 190        7.7133
 191       10.1618
 192       10.1618
 193       10.1618
 194       10.1618
 195       10.1618
 196       10.1618
 197       10.1618
 198       10.1618
 199       10.1618
 200       10.1618
 201       10.1618
 202       10.1618
 203       11.1064
 204       11.1064
 205       11.1064
 206       12.2801
 207       12.2801
 208       12.2801
 209       12.2801
 210       12.2801
 211       12.2801
 212       12.8615
 213       12.8615
 214       12.8615
 215       12.8615
 216       12.8615
 
  0.1428571E+00  0.0000000E+00  0.0000000E+00  0.1749271E-01
   1       -5.4816
   2       -3.4234
   3       -2.7108
   4       -2.7108
   5       -2.7108
   6       -2.7108
   7       -2.1170
   8       -1.2490
   9       -1.2490
  10       -1.2490
  11       -1.2490
  12       -1.2359
  13       -1.2359
  14       -1.2359
  15       -1.2359
  16       -1.0696
  17       -1.0401
  18       -1.0401
  19       -0.8946
  20       -0.8946
  21       -0.8946
  22       -0.8946
  23       -0.5923
  24       -0.5913
  25       -0.5913
  26       -0.5496
  27       -0.5496
  28       -0.5496
  29       -0.5496
  30       -0.3689
  31       -0.3689
  32       -0.2965
  33       -0.2965
  34       -0.2965
  35       -0.2965
  36       -0.0760
  37        0.0510
  38        0.0510
  39        0.0880
  40        0.0880
  41        0.0880
  42        0.0880
  43        0.2394
  44        0.2681
  45        0.2681
  46        0.2681
  47        0.2681
  48        0.2717
  49        0.2717
  50        0.2717
  51        0.2717
  52        0.2985
  53        0.2985
  54        0.2985
  55        0.2985
  56        0.3186
  57        0.3186
  58        0.3186
  59        0.3186
  60        0.3677
  61        0.3677
  62        0.3677
  63        0.3677
  64        0.3783
  65        0.3783
  66        0.3783
  67        0.3783
  68        0.5269
  69        0.5269
  70        0.5269
  71        0.5269
  72        0.5803
  73        0.5803
  74        0.6084
  75        0.6084
  76        0.6084
  77        0.6084
  78        0.7667
  79        0.7667
  80        0.7667
  81        0.7667
  82        0.7907
  83        0.7952
  84        0.7952
  85        0.7952
  86        0.7952
  87        0.8244
  88        0.8244
  89        1.1139
  90        1.1139
  91        1.1139
  92        1.1139
  93        1.2213
  94        1.2599
  95        1.2599
  96        1.2599
  97        1.2599
  98        1.2875
  99        1.3184
 100        1.3184
 101        1.3344
 102        1.3344
 103        1.3344
 104        1.3344
 105        1.3766
 106        1.3766
 107        1.3766
 108        1.3766
 109        1.4829
 110        1.4829
 111        1.4829
 112        1.4829
 113        1.5453
 114        1.5453
 115        1.5453
 116        1.5453
 117        1.5729
 118        1.5729
 119        1.5729
 120        1.5729
 121        1.6127
 122        1.6127
 123        1.6127
 124        1.6127
 125        1.6365
 126        1.6550
 127        1.6550
 128        1.6580
 129        1.6580
 130        1.6604
 131        1.7113
 132        1.7113
 133        1.7113
 134        1.7113
 135        1.7486
 136        1.7486
 137        1.7486
 138        1.7486
 139        1.8685
 140        1.9518
 141        1.9518
 142        1.9518
 143        1.9518
 144        1.9931
 145        2.0104
 146        2.0104
 147        2.0104
 148        2.0104
 149        2.1919
 150        2.1919
 151        2.2067
 152        2.2102
 153        2.2102
 154        2.2102
 155        2.2102
 156        2.2578
 157        2.2578
 158        2.3439
 159        2.3439
 160        2.3439
 161        2.3439
 162        2.3451
 163        2.3451
 164        2.3712
 165        2.3712
 166        2.3719
 167        2.3719
 168        3.0184
 169        3.0184
 170        3.0184
 171        3.0184
 172        3.1319
 173        3.1319
 174        3.1319
 175        3.1319
 176        3.5709
 177        3.5709
 178        3.5709
 179        3.5709
 180        4.1613
 181        4.1613
 182        4.1613
 183        4.1613
 184        5.0087
 185        5.5713
 186        5.5713
 187        7.8884
 188        7.8884
 189        7.8884
 190        7.8884
 191        9.1750
 192        9.1750
 193        9.3988
 194        9.3988
 195        9.3988
 196        9.3988
 197       10.2465
 198       10.2465
 199       10.2465
 200       10.2465
 201       11.1290
 202       11.1290
 203       11.2077
 204       11.2078
 205       11.6236
 206       12.0505
 207       12.0505
 208       12.5716
 209       12.5716
 210       12.5716
 211       12.5716
 212       12.7126
 213       12.7126
 214       12.7126
 215       12.7127
 216       12.8535
 
  0.2857143E+00  0.0000000E+00  0.0000000E+00  0.1749271E-01
   1       -5.2946
   2       -4.0359
   3       -2.5608
   4       -2.5608
   5       -2.5608
   6       -2.5608
   7       -1.6281
   8       -1.6281
   9       -1.6281
  10       -1.6281
  11       -1.5930
  12       -1.2067
  13       -1.2067
  14       -1.2067
  15       -1.2067
  16       -1.0782
  17       -0.9678
  18       -0.9678
  19       -0.9678
  20       -0.9678
  21       -0.9545
  22       -0.9545
  23       -0.5424
  24       -0.5377
  25       -0.5377
  26       -0.4968
  27       -0.4968
  28       -0.3038
  29       -0.3038
  30       -0.3038
  31       -0.3038
  32       -0.2311
  33       -0.2311
  34       -0.2311
  35       -0.2311
  36       -0.2232
  37       -0.1543
  38       -0.1543
  39        0.1092
  40        0.1092
  41        0.1092
  42        0.1092
  43        0.2036
  44        0.2036
  45        0.2036
  46        0.2036
  47        0.2258
  48        0.2258
  49        0.2258
  50        0.2258
  51        0.2273
  52        0.2273
  53        0.2273
  54        0.2273
  55        0.3053
  56        0.3053
  57        0.3053
  58        0.3053
  59        0.3252
  60        0.3252
  61        0.3252
  62        0.3252
  63        0.3920
  64        0.5445
  65        0.5445
  66        0.5445
  67        0.5445
  68        0.5821
  69        0.5821
  70        0.5821
  71        0.5821
  72        0.6816
  73        0.6816
  74        0.6816
  75        0.6816
  76        0.7322
  77        0.7322
  78        0.7322
  79        0.7322
  80        0.7355
  81        0.8434
  82        0.8434
  83        0.8434
  84        0.8434
  85        0.8692
  86        0.8692
  87        0.9013
  88        0.9013
  89        0.9815
  90        0.9815
  91        0.9815
  92        0.9815
  93        1.1417
  94        1.1417
  95        1.1417
  96        1.1417
  97        1.1704
  98        1.1704
  99        1.3078
 100        1.4053
 101        1.4053
 102        1.4053
 103        1.4053
 104        1.4618
 105        1.4618
 106        1.4618
 107        1.4618
 108        1.4834
 109        1.4834
 110        1.4834
 111        1.4834
 112        1.5256
 113        1.5256
 114        1.5256
 115        1.5256
 116        1.5868
 117        1.6012
 118        1.6012
 119        1.6012
 120        1.6012
 121        1.6077
 122        1.6077
 123        1.6077
 124        1.6077
 125        1.6123
 126        1.6146
 127        1.6146
 128        1.6146
 129        1.6146
 130        1.6807
 131        1.7625
 132        1.7625
 133        1.8097
 134        1.8348
 135        1.8348
 136        1.8348
 137        1.8348
 138        1.8349
 139        1.8349
 140        1.8738
 141        1.8738
 142        1.8738
 143        1.8738
 144        1.9758
 145        1.9758
 146        2.0478
 147        2.0478
 148        2.0478
 149        2.0478
 150        2.0528
 151        2.1273
 152        2.1273
 153        2.1567
 154        2.1567
 155        2.1567
 156        2.1567
 157        2.1856
 158        2.2649
 159        2.2649
 160        2.2649
 161        2.2649
 162        2.2698
 163        2.2698
 164        2.3713
 165        2.3713
 166        2.3718
 167        2.3718
 168        2.7773
 169        2.7773
 170        2.7773
 171        2.7773
 172        3.2341
 173        3.2341
 174        3.2341
 175        3.2341
 176        3.5431
 177        3.5431
 178        3.5431
 179        3.5431
 180        4.1192
 181        4.9117
 182        4.9117
 183        4.9117
 184        4.9117
 185        6.0203
 186        6.0203
 187        8.1482
 188        8.1482
 189        8.1482
 190        8.1482
 191        8.2540
 192        8.2540
 193        8.3950
 194        8.3950
 195        8.3950
 196        8.3950
 197       10.4958
 198       10.4958
 199       10.4958
 200       10.4958
 201       11.1986
 202       11.1986
 203       11.4000
 204       11.4000
 205       11.4000
 206       11.4000
 207       11.7443
 208       11.7443
 209       12.0908
 210       12.0908
 211       12.0908
 212       12.0908
 213       12.3066
 214       12.3066
 215       12.7644
 216       12.7644
 
  0.4285714E+00  0.0000000E+00  0.0000000E+00  0.1749271E-01
   1       -4.9865
   2       -4.5633
   3       -2.3192
   4       -2.3192
   5       -2.3192
   6       -2.3192
   7       -2.0006
   8       -2.0006
   9       -2.0006
  10       -2.0006
  11       -1.2704
  12       -1.1402
  13       -1.1402
  14       -1.1402
  15       -1.1402
  16       -1.1253
  17       -1.0565
  18       -1.0565
  19       -1.0565
  20       -1.0565
  21       -0.8224
  22       -0.8224
  23       -0.6608
  24       -0.6608
  25       -0.4618
  26       -0.4476
  27       -0.4476
  28       -0.3537
  29       -0.3202
  30       -0.3202
  31       -0.1409
  32       -0.1409
  33       -0.1409
  34       -0.1409
  35       -0.1376
  36       -0.1376
  37       -0.1376
  38       -0.1376
  39        0.0959
  40        0.0959
  41        0.0959
  42        0.0959
  43        0.1099
  44        0.1099
  45        0.1099
  46        0.1099
  47        0.1421
  48        0.1421
  49        0.1421
  50        0.1421
  51        0.1833
  52        0.1833
  53        0.1833
  54        0.1833
  55        0.3143
  56        0.3143
  57        0.3143
  58        0.3143
  59        0.3223
  60        0.3223
  61        0.3223
  62        0.3223
  63        0.5303
  64        0.6200
  65        0.6200
  66        0.6200
  67        0.6200
  68        0.6470
  69        0.6805
  70        0.6805
  71        0.6805
  72        0.6805
  73        0.7594
  74        0.7594
  75        0.7594
  76        0.7594
  77        0.8507
  78        0.8507
  79        0.8507
  80        0.8507
  81        0.8588
  82        0.8588
  83        0.8588
  84        0.8588
  85        0.9208
  86        0.9208
  87        0.9208
  88        0.9208
  89        0.9429
  90        0.9429
  91        1.0229
  92        1.0229
  93        1.0229
  94        1.0229
  95        1.0441
  96        1.0441
  97        1.2102
  98        1.2102
  99        1.2102
 100        1.2102
 101        1.2527
 102        1.2527
 103        1.4113
 104        1.4874
 105        1.4874
 106        1.4874
 107        1.4874
 108        1.4974
 109        1.4974
 110        1.4974
 111        1.4974
 112        1.4993
 113        1.4993
 114        1.4993
 115        1.4993
 116        1.5089
 117        1.5380
 118        1.5380
 119        1.5380
 120        1.5380
 121        1.5746
 122        1.5746
 123        1.5746
 124        1.5746
 125        1.5864
 126        1.5864
 127        1.5864
 128        1.5864
 129        1.6207
 130        1.6207
 131        1.7135
 132        1.7572
 133        1.8968
 134        1.8968
 135        1.9611
 136        1.9611
 137        1.9611
 138        1.9611
 139        2.0035
 140        2.0035
 141        2.0121
 142        2.0121
 143        2.0121
 144        2.0121
 145        2.0252
 146        2.0252
 147        2.0716
 148        2.0716
 149        2.0716
 150        2.0716
 151        2.1065
 152        2.1484
 153        2.1484
 154        2.1484
 155        2.1484
 156        2.1516
 157        2.1524
 158        2.1524
 159        2.2360
 160        2.2360
 161        2.2360
 162        2.2360
 163        2.2395
 164        2.3715
 165        2.3715
 166        2.3716
 167        2.3716
 168        2.4832
 169        2.4832
 170        2.4832
 171        2.4832
 172        3.1221
 173        3.3905
 174        3.3905
 175        3.3905
 176        3.3905
 177        3.4878
 178        3.4878
 179        3.4878
 180        3.4878
 181        5.8400
 182        5.8400
 183        5.8400
 184        5.8400
 185        6.6531
 186        6.6531
 187        6.9309
 188        6.9309
 189        6.9309
 190        6.9309
 191        7.4081
 192        7.4081
 193        9.1856
 194        9.1856
 195        9.1856
 196        9.1856
 197       10.2042
 198       10.2042
 199       10.2042
 200       10.2042
 201       10.8971
 202       10.8971
 203       10.8971
 204       10.8971
 205       11.3197
 206       11.3197
 207       11.4341
 208       11.4341
 209       11.4341
 210       11.4341
 211       11.4993
 212       11.4993
 213       13.0079
 214       13.0079
 215       13.0079
 216       13.0079
 
  0.1428571E+00  0.1428571E+00  0.0000000E+00  0.3498542E-01
   1       -5.4192
   2       -3.3691
   3       -3.3691
   4       -2.6611
   5       -2.6611
   6       -2.0704
   7       -2.0704
   8       -1.7044
   9       -1.2848
  10       -1.2848
  11       -1.2414
  12       -1.2414
  13       -1.2414
  14       -1.2414
  15       -1.1874
  16       -1.1874
  17       -1.0395
  18       -1.0395
  19       -1.0111
  20       -0.8118
  21       -0.8118
  22       -0.6008
  23       -0.6008
  24       -0.6008
  25       -0.6008
  26       -0.5747
  27       -0.5747
  28       -0.5739
  29       -0.3562
  30       -0.3506
  31       -0.3506
  32       -0.3446
  33       -0.3446
  34       -0.2731
  35       -0.2731
  36       -0.0662
  37       -0.0662
  38        0.0387
  39        0.0387
  40        0.0578
  41        0.0578
  42        0.0959
  43        0.0959
  44        0.2149
  45        0.2149
  46        0.2337
  47        0.2337
  48        0.2441
  49        0.2441
  50        0.2666
  51        0.2899
  52        0.3220
  53        0.3220
  54        0.3220
  55        0.3220
  56        0.3348
  57        0.3348
  58        0.3687
  59        0.3687
  60        0.3687
  61        0.3687
  62        0.3970
  63        0.4221
  64        0.4221
  65        0.4221
  66        0.4221
  67        0.4669
  68        0.4669
  69        0.5467
  70        0.5467
  71        0.5770
  72        0.5770
  73        0.6196
  74        0.6196
  75        0.6196
  76        0.6196
  77        0.7233
  78        0.7301
  79        0.7301
  80        0.7718
  81        0.7718
  82        0.7800
  83        0.8068
  84        0.8068
  85        0.8230
  86        0.8230
  87        0.8316
  88        0.8384
  89        1.0657
  90        1.0657
  91        1.1331
  92        1.1331
  93        1.1794
  94        1.1794
  95        1.2585
  96        1.2585
  97        1.2585
  98        1.2585
  99        1.3022
 100        1.3184
 101        1.3184
 102        1.3184
 103        1.3184
 104        1.3185
 105        1.3185
 106        1.3993
 107        1.3996
 108        1.3996
 109        1.4215
 110        1.4215
 111        1.4308
 112        1.4308
 113        1.4694
 114        1.6091
 115        1.6091
 116        1.6317
 117        1.6418
 118        1.6418
 119        1.6504
 120        1.6504
 121        1.6541
 122        1.6541
 123        1.6541
 124        1.6541
 125        1.6561
 126        1.6577
 127        1.6577
 128        1.6587
 129        1.6587
 130        1.7028
 131        1.7028
 132        1.7361
 133        1.7361
 134        1.7862
 135        1.7862
 136        1.8055
 137        1.8055
 138        1.8055
 139        1.8055
 140        1.8186
 141        1.8807
 142        1.8807
 143        1.9160
 144        1.9160
 145        1.9616
 146        1.9616
 147        2.0300
 148        2.0300
 149        2.1701
 150        2.1701
 151        2.1705
 152        2.1711
 153        2.2194
 154        2.2194
 155        2.2218
 156        2.2218
 157        2.2419
 158        2.2419
 159        2.3199
 160        2.3199
 161        2.3435
 162        2.3435
 163        2.3443
 164        2.3443
 165        2.3451
 166        2.3451
 167        2.3546
 168        2.7697
 169        2.7710
 170        2.7710
 171        3.1197
 172        3.1197
 173        3.1197
 174        3.1197
 175        3.4410
 176        3.4410
 177        3.6213
 178        3.6213
 179        4.1607
 180        4.1607
 181        4.1607
 182        4.1607
 183        4.8314
 184        5.1759
 185        5.1759
 186        5.7305
 187        7.7461
 188        7.7461
 189        8.3386
 190        8.3386
 191        8.5178
 192        8.5178
 193        9.2650
 194        9.2650
 195        9.2809
 196        9.2809
 197        9.6880
 198        9.6880
 199       10.3255
 200       10.3255
 201       11.1517
 202       11.2887
 203       11.2887
 204       11.6527
 205       11.6527
 206       11.9200
 207       11.9200
 208       11.9200
 209       11.9200
 210       11.9753
 211       12.1709
 212       12.1709
 213       12.7665
 214       12.7665
 215       13.3112
 216       13.3113
 
  0.2857143E+00  0.1428571E+00  0.0000000E+00  0.6997085E-01
   1       -5.2328
   2       -3.9787
   3       -3.2078
   4       -2.5144
   5       -2.5144
   6       -2.1703
   7       -1.9335
   8       -1.6129
   9       -1.6129
  10       -1.5507
  11       -1.2974
  12       -1.2974
  13       -1.2563
  14       -1.2563
  15       -1.1209
  16       -1.0994
  17       -1.0994
  18       -1.0466
  19       -0.9525
  20       -0.9270
  21       -0.7194
  22       -0.7194
  23       -0.5256
  24       -0.5218
  25       -0.5217
  26       -0.4840
  27       -0.4763
  28       -0.4737
  29       -0.3666
  30       -0.3666
  31       -0.3020
  32       -0.2740
  33       -0.2226
  34       -0.2111
  35       -0.2066
  36       -0.2066
  37       -0.1542
  38       -0.1441
  39       -0.0372
  40        0.0035
  41        0.0779
  42        0.1194
  43        0.1194
  44        0.1237
  45        0.1237
  46        0.1272
  47        0.1497
  48        0.1919
  49        0.2296
  50        0.2296
  51        0.2568
  52        0.2645
  53        0.2645
  54        0.2964
  55        0.3351
  56        0.3679
  57        0.3679
  58        0.3940
  59        0.4149
  60        0.4149
  61        0.4344
  62        0.4344
  63        0.4556
  64        0.4625
  65        0.4825
  66        0.4825
  67        0.5587
  68        0.5662
  69        0.5996
  70        0.5996
  71        0.6506
  72        0.6506
  73        0.6708
  74        0.6708
  75        0.6891
  76        0.6891
  77        0.7299
  78        0.7573
  79        0.7573
  80        0.7999
  81        0.8474
  82        0.8474
  83        0.8603
  84        0.8721
  85        0.8796
  86        0.8817
  87        0.8817
  88        0.8902
  89        0.9615
  90        0.9615
  91        0.9962
  92        1.0227
  93        1.1203
  94        1.1336
  95        1.1336
  96        1.1710
  97        1.2017
  98        1.2017
  99        1.2979
 100        1.2979
 101        1.3206
 102        1.3372
 103        1.3574
 104        1.3952
 105        1.3952
 106        1.3962
 107        1.4001
 108        1.4081
 109        1.4081
 110        1.4679
 111        1.4697
 112        1.4796
 113        1.4796
 114        1.5147
 115        1.5232
 116        1.5345
 117        1.5345
 118        1.5880
 119        1.5941
 120        1.5941
 121        1.6340
 122        1.6429
 123        1.6429
 124        1.6572
 125        1.6623
 126        1.6739
 127        1.6763
 128        1.7264
 129        1.7264
 130        1.7536
 131        1.7683
 132        1.7709
 133        1.7942
 134        1.7942
 135        1.8151
 136        1.8344
 137        1.8503
 138        1.9141
 139        1.9181
 140        1.9181
 141        1.9184
 142        1.9205
 143        1.9205
 144        1.9243
 145        1.9382
 146        1.9577
 147        2.0372
 148        2.0372
 149        2.0923
 150        2.1079
 151        2.1355
 152        2.1503
 153        2.1650
 154        2.1650
 155        2.1939
 156        2.1939
 157        2.2012
 158        2.2068
 159        2.2528
 160        2.2528
 161        2.2648
 162        2.2656
 163        2.2696
 164        2.3431
 165        2.3446
 166        2.3451
 167        2.3455
 168        2.4873
 169        2.7643
 170        2.7643
 171        2.8118
 172        2.8118
 173        3.0822
 174        3.0822
 175        3.1789
 176        3.8023
 177        3.8023
 178        4.1534
 179        4.1534
 180        4.2852
 181        4.2939
 182        4.9213
 183        4.9213
 184        5.6111
 185        5.6545
 186        6.1596
 187        7.3459
 188        7.6868
 189        7.9716
 190        7.9716
 191        8.1646
 192        8.1646
 193        8.3514
 194        9.0170
 195        9.0389
 196        9.0389
 197        9.5289
 198        9.7831
 199        9.7831
 200       10.6417
 201       10.6417
 202       11.1907
 203       11.2210
 204       11.2218
 205       11.2218
 206       11.2589
 207       11.5277
 208       11.7420
 209       11.8934
 210       12.2590
 211       12.2590
 212       12.3134
 213       12.3852
 214       12.4330
 215       12.9291
 216       13.0722
 
  0.4285714E+00  0.1428571E+00  0.0000000E+00  0.6997085E-01
   1       -4.9256
   2       -4.5040
   3       -2.9456
   4       -2.5936
   5       -2.2790
   6       -2.2790
   7       -1.9703
   8       -1.9703
   9       -1.7159
  10       -1.4355
  11       -1.2920
  12       -1.2920
  13       -1.2756
  14       -1.2756
  15       -1.2323
  16       -1.0910
  17       -0.9873
  18       -0.9873
  19       -0.8567
  20       -0.8567
  21       -0.8178
  22       -0.7971
  23       -0.6526
  24       -0.6374
  25       -0.4461
  26       -0.4342
  27       -0.4330
  28       -0.3397
  29       -0.3115
  30       -0.3074
  31       -0.2785
  32       -0.2505
  33       -0.1869
  34       -0.1869
  35       -0.1645
  36       -0.1281
  37       -0.1219
  38       -0.1219
  39       -0.0505
  40       -0.0214
  41        0.0100
  42        0.0266
  43        0.0266
  44        0.0735
  45        0.0804
  46        0.0804
  47        0.1092
  48        0.1486
  49        0.1572
  50        0.1572
  51        0.2070
  52        0.2070
  53        0.2738
  54        0.2744
  55        0.2893
  56        0.3389
  57        0.3920
  58        0.3920
  59        0.4081
  60        0.4081
  61        0.5118
  62        0.5118
  63        0.5119
  64        0.5298
  65        0.5455
  66        0.5949
  67        0.5949
  68        0.6441
  69        0.6749
  70        0.6808
  71        0.6808
  72        0.7265
  73        0.7265
  74        0.7574
  75        0.7574
  76        0.7620
  77        0.7620
  78        0.8221
  79        0.8533
  80        0.8533
  81        0.8558
  82        0.8558
  83        0.8603
  84        0.9145
  85        0.9145
  86        0.9309
  87        0.9446
  88        0.9467
  89        0.9667
  90        0.9667
  91        1.0177
  92        1.0177
  93        1.0343
  94        1.0451
  95        1.0804
  96        1.0804
  97        1.1176
  98        1.1176
  99        1.1612
 100        1.1612
 101        1.2060
 102        1.2309
 103        1.3292
 104        1.3398
 105        1.3398
 106        1.3517
 107        1.3699
 108        1.3699
 109        1.4071
 110        1.4260
 111        1.4653
 112        1.4948
 113        1.4948
 114        1.5143
 115        1.5427
 116        1.5582
 117        1.5582
 118        1.5706
 119        1.5841
 120        1.5997
 121        1.6040
 122        1.6220
 123        1.6490
 124        1.6581
 125        1.6631
 126        1.6732
 127        1.6732
 128        1.7092
 129        1.7105
 130        1.7159
 131        1.7176
 132        1.7176
 133        1.7572
 134        1.8840
 135        1.9030
 136        1.9353
 137        1.9353
 138        1.9454
 139        2.0031
 140        2.0032
 141        2.0089
 142        2.0300
 143        2.0315
 144        2.0325
 145        2.0325
 146        2.0407
 147        2.0407
 148        2.0622
 149        2.0622
 150        2.0678
 151        2.0956
 152        2.1281
 153        2.1281
 154        2.1469
 155        2.1521
 156        2.1533
 157        2.1551
 158        2.1551
 159        2.1608
 160        2.2226
 161        2.2226
 162        2.2558
 163        2.3429
 164        2.3434
 165        2.3449
 166        2.3450
 167        2.4704
 168        2.4704
 169        2.4768
 170        2.5535
 171        2.8035
 172        2.9227
 173        2.9227
 174        3.0169
 175        3.0169
 176        3.3330
 177        4.0210
 178        4.0210
 179        4.1199
 180        4.1199
 181        5.1438
 182        5.8587
 183        5.8587
 184        6.1802
 185        6.2108
 186        6.6359
 187        6.7743
 188        6.9129
 189        6.9541
 190        6.9541
 191        7.5155
 192        7.7650
 193        8.5755
 194        8.5755
 195        9.4950
 196        9.4950
 197        9.9465
 198        9.9465
 199        9.9507
 200       10.1381
 201       10.1381
 202       10.5108
 203       10.6241
 204       10.6241
 205       11.0292
 206       11.0292
 207       11.3391
 208       11.4957
 209       11.8971
 210       11.9141
 211       12.1257
 212       12.4337
 213       12.4529
 214       12.5248
 215       12.8226
 216       13.5310
 
  0.2857143E+00  0.2857143E+00  0.0000000E+00  0.3498542E-01
   1       -5.0482
   2       -3.8087
   3       -3.8087
   4       -2.6915
   5       -2.3782
   6       -2.3782
   7       -1.5714
   8       -1.5714
   9       -1.5714
  10       -1.5714
  11       -1.4271
  12       -1.4271
  13       -1.3759
  14       -1.3759
  15       -0.9733
  16       -0.9733
  17       -0.9548
  18       -0.9548
  19       -0.8474
  20       -0.7200
  21       -0.7200
  22       -0.5077
  23       -0.5077
  24       -0.5077
  25       -0.5077
  26       -0.4749
  27       -0.4749
  28       -0.4736
  29       -0.4530
  30       -0.4530