<?xml version="1.0" encoding="ISO-8859-1"?>
<modeling>
 <generator>
  <i name="program" type="string">vasp</i>
  <i name="version" type="string">4.6.28 </i>
  <i name="subversion" type="string">25Jul05 complex  parallel</i>
  <i name="platform" type="string">LinuxIFC</i>
  <i name="date" type="string">2016 01 16</i>
  <i name="time" type="string">20:35:28</i>
 </generator>
 <incar>
  <i type="string" name="PREC">accurate</i>
  <i type="int" name="IALGO">    38</i>
  <i type="logical" name="ADDGRID"> T  </i>
  <i name="EDIFF">      0.00000001</i>
  <i type="int" name="IBRION">    -1</i>
  <i name="ENCUT">    500.00000000</i>
  <i type="logical" name="LREAL"> F  </i>
  <i type="int" name="ISMEAR">     0</i>
  <i name="SIGMA">      0.01000000</i>
  <i type="logical" name="LWAVE"> F  </i>
  <i type="logical" name="LCHARG"> F  </i>
 </incar>
 <kpoints>
  <generation param="Auto">
   <i name="subdivisionlength">     50.00000000</i>
   <v type="int" name="divisions">       7       7       7</v>
   <v name="usershift">      0.00000000      0.00000000      0.00000000</v>
   <v name="genvec1">      0.14285714      0.00000000      0.00000000</v>
   <v name="genvec2">      0.00000000      0.14285714      0.00000000</v>
   <v name="genvec3">      0.00000000      0.00000000      0.14285714</v>
   <v name="shift">      0.00000000      0.00000000      0.00000000</v>
  </generation>
  <varray name="kpointlist" >
   <v>       0.00000000      0.00000000      0.00000000</v>
   <v>       0.14285714      0.00000000      0.00000000</v>
   <v>       0.28571429      0.00000000      0.00000000</v>
   <v>       0.42857143      0.00000000      0.00000000</v>
   <v>       0.14285714      0.14285714      0.00000000</v>
   <v>       0.28571429      0.14285714      0.00000000</v>
   <v>       0.42857143      0.14285714      0.00000000</v>
   <v>       0.28571429      0.28571429      0.00000000</v>
   <v>       0.42857143      0.28571429      0.00000000</v>
   <v>       0.42857143      0.42857143      0.00000000</v>
   <v>       0.14285714      0.14285714      0.14285714</v>
   <v>       0.28571429      0.14285714      0.14285714</v>
   <v>       0.42857143      0.14285714      0.14285714</v>
   <v>       0.28571429      0.28571429      0.14285714</v>
   <v>       0.42857143      0.28571429      0.14285714</v>
   <v>       0.42857143      0.42857143      0.14285714</v>
   <v>       0.28571429      0.28571429      0.28571429</v>
   <v>       0.42857143      0.28571429      0.28571429</v>
   <v>       0.42857143      0.42857143      0.28571429</v>
   <v>       0.42857143      0.42857143      0.42857143</v>
  </varray>
  <varray name="weights" >
   <v>       0.00291545</v>
   <v>       0.01749271</v>
   <v>       0.01749271</v>
   <v>       0.01749271</v>
   <v>       0.03498542</v>
   <v>       0.06997085</v>
   <v>       0.06997085</v>
   <v>       0.03498542</v>
   <v>       0.06997085</v>
   <v>       0.03498542</v>
   <v>       0.02332362</v>
   <v>       0.06997085</v>
   <v>       0.06997085</v>
   <v>       0.06997085</v>
   <v>       0.13994169</v>
   <v>       0.06997085</v>
   <v>       0.02332362</v>
   <v>       0.06997085</v>
   <v>       0.06997085</v>
   <v>       0.02332362</v>
  </varray>
 </kpoints>
 <parameters>
  <separator name="general" >
   <i type="string" name="SYSTEM">unknown system</i>
   <i type="logical" name="LCOMPAT"> F  </i>
  </separator>
  <separator name="electronic" >
   <i type="string" name="PREC">accura</i>
   <i name="ENMAX">    500.00000000</i>
   <i name="ENAUG">    516.45600000</i>
   <i name="EDIFF">      0.00000001</i>
   <i type="int" name="IALGO">    38</i>
   <i type="int" name="IWAVPR">    10</i>
   <i type="int" name="NBANDS">   211</i>
   <i name="NELECT">    352.00000000</i>
   <separator name="electronic smearing" >
    <i type="int" name="ISMEAR">     0</i>
    <i name="SIGMA">      0.01000000</i>
   </separator>
   <separator name="electronic projectors" >
    <i type="logical" name="LREAL"> F  </i>
    <v name="ROPT">      0.00000000</v>
    <i type="int" name="LMAXPAW">  -100</i>
    <i type="int" name="LMAXMIX">     2</i>
   </separator>
   <separator name="electronic startup" >
    <i type="int" name="ISTART">     0</i>
    <i type="int" name="ICHARG">     2</i>
    <i type="int" name="INIWAV">     1</i>
   </separator>
   <separator name="electronic spin" >
    <i type="int" name="ISPIN">     1</i>
    <i type="logical" name="LNONCOLLINEAR"> F  </i>
    <v name="MAGMOM">      1.00000000      1.00000000      1.00000000      1.00000000      1.00000000      1.00000000      1.00000000      1.00000000      1.00000000      1.00000000      1.00000000      1.00000000      1.00000000      1.00000000      1.00000000      1.00000000      1.00000000      1.00000000      1.00000000      1.00000000
      1.00000000      1.00000000      1.00000000      1.00000000      1.00000000      1.00000000      1.00000000      1.00000000      1.00000000      1.00000000      1.00000000      1.00000000</v>
    <i name="NUPDOWN">     -1.00000000</i>
    <i type="logical" name="LSORBIT"> F  </i>
    <v name="SAXIS">      0.00000000      0.00000000      1.00000000</v>
    <i type="logical" name="LSPIRAL"> F  </i>
    <v name="QSPIRAL">      0.00000000      0.00000000      0.00000000</v>
    <i type="logical" name="LZEROZ"> F  </i>
   </separator>
   <separator name="electronic exchange-correlation" >
    <i type="string" name="GGA">--</i>
    <i type="int" name="VOSKOWN">     0</i>
    <i type="logical" name="LASPH"> F  </i>
    <i type="logical" name="LMETAGGA"> F  </i>
    <i type="string" name="GGA2">--</i>
   </separator>
   <separator name="electronic convergence" >
    <i type="int" name="NELM">    60</i>
    <i type="int" name="NELMDL">     0</i>
    <i type="int" name="NELMIN">     2</i>
    <i name="ENINI">    500.00000000</i>
    <separator name="electronic convergence detail" >
     <i type="logical" name="LDIAG"> T  </i>
     <i name="WEIMIN">      0.00000000</i>
     <i name="EBREAK">      0.00000000</i>
     <i name="DEPER">      0.30000000</i>
     <i type="int" name="NRMM">     4</i>
     <i name="TIME">      0.10000000</i>
    </separator>
   </separator>
   <separator name="electronic mixer" >
    <i name="AMIX">      0.40000000</i>
    <i name="BMIX">      1.00000000</i>
    <i name="AMIN">      0.10000000</i>
    <i name="AMIX_MAG">      1.60000000</i>
    <i name="BMIX_MAG">      1.00000000</i>
    <separator name="electronic mixer details" >
     <i type="int" name="IMIX">     4</i>
     <i type="int" name="MAXMIX">   -45</i>
     <i name="WC">    100.00000000</i>
     <i type="int" name="INIMIX">     1</i>
     <i type="int" name="MIXPRE">     1</i>
     <i type="int" name="MREMOVE">     5</i>
    </separator>
   </separator>
   <separator name="electronic dipolcorrection" >
    <i type="int" name="IDIPOL">     0</i>
    <i type="logical" name="LDIPOL"> F  </i>
    <v name="DIPOL">   -100.00000000</v>
    <i name="EFIELD">      0.00000000</i>
   </separator>
  </separator>
  <separator name="grids" >
   <i type="int" name="NGX">    54</i>
   <i type="int" name="NGY">    54</i>
   <i type="int" name="NGZ">    54</i>
   <i type="int" name="NGXF">   108</i>
   <i type="int" name="NGYF">   108</i>
   <i type="int" name="NGZF">   108</i>
   <i type="logical" name="ADDGRID"> T  </i>
  </separator>
  <separator name="ionic" >
   <i type="int" name="NSW">     0</i>
   <i type="int" name="IBRION">    -1</i>
   <i type="int" name="ISIF">     2</i>
   <i name="PSTRESS">      0.00000000</i>
   <i name="EDIFFG">      0.00000010</i>
   <i type="int" name="NFREE">     0</i>
   <i name="POTIM">      0.50000000</i>
   <i name="SMASS">     -3.00000000</i>
  </separator>
  <separator name="ionic md" >
   <i name="TEBEG">      0.00010000</i>
   <i name="TEEND">      0.00010000</i>
   <i type="int" name="NBLOCK">     1</i>
   <i type="int" name="KBLOCK">     1</i>
   <i type="int" name="NPACO">   256</i>
   <i name="APACO">     16.00000000</i>
  </separator>
  <separator name="symmetry" >
   <i type="int" name="ISYM">     2</i>
   <i name="SYMPREC">      0.00001000</i>
  </separator>
  <separator name="dos" >
   <i type="logical" name="LORBIT"> F  </i>
   <v name="RWIGS">     -1.00000000</v>
   <i type="int" name="NEDOS">   301</i>
   <i name="EMIN">     10.00000000</i>
   <i name="EMAX">    -10.00000000</i>
  </separator>
  <separator name="writing" >
   <i type="int" name="NWRITE">     2</i>
   <i type="logical" name="LWAVE"> F  </i>
   <i type="logical" name="LCHARG"> F  </i>
   <i type="logical" name="LPARD"> F  </i>
   <i type="logical" name="LVTOT"> F  </i>
   <i type="logical" name="LELF"> F  </i>
   <i type="logical" name="LOPTICS"> F  </i>
   <i name="STM">      0.00000000</i>
  </separator>
  <separator name="performance" >
   <i type="int" name="NPAR">     8</i>
   <i type="int" name="NSIM">     4</i>
   <i type="int" name="NBLK">   256</i>
   <i type="logical" name="LPLANE"> T  </i>
   <i type="logical" name="LCRITICAL_MEM"> F  </i>
   <i type="logical" name="LSCALAPACK"> F  </i>
   <i type="logical" name="LSCALU"> F  </i>
   <i type="logical" name="LASYNC"> F  </i>
  </separator>
  <separator name="miscellaneous" >
   <i type="int" name="IDIOT">     3</i>
   <i type="logical" name="LMUSIC"> F  </i>
   <v name="POMASS">     63.54600000</v>
   <i type="logical" name="LCORR"> T  </i>
  </separator>
  <i type="logical" name="LREAL_COMPAT"> F  </i>
  <i type="logical" name="GGA_COMPAT"> T  </i>
  <i type="logical" name="LBERRY"> F  </i>
  <i type="int" name="ICORELEVEL">     0</i>
  <i type="logical" name="LDAU"> F  </i>
  <i type="int" name="I_CONSTRAINED_M">     0</i>
 </parameters>
 <atominfo>
  <atoms>      32</atoms>
  <types>       1</types>
  <array name="atoms" >
   <dimension dim="1">ion</dimension>
   <field type="string">element</field>
   <field type="int">atomtype</field>
   <set>
    <rc><c>Cu</c><c>   1</c></rc>
    <rc><c>Cu</c><c>   1</c></rc>
    <rc><c>Cu</c><c>   1</c></rc>
    <rc><c>Cu</c><c>   1</c></rc>
    <rc><c>Cu</c><c>   1</c></rc>
    <rc><c>Cu</c><c>   1</c></rc>
    <rc><c>Cu</c><c>   1</c></rc>
    <rc><c>Cu</c><c>   1</c></rc>
    <rc><c>Cu</c><c>   1</c></rc>
    <rc><c>Cu</c><c>   1</c></rc>
    <rc><c>Cu</c><c>   1</c></rc>
    <rc><c>Cu</c><c>   1</c></rc>
    <rc><c>Cu</c><c>   1</c></rc>
    <rc><c>Cu</c><c>   1</c></rc>
    <rc><c>Cu</c><c>   1</c></rc>
    <rc><c>Cu</c><c>   1</c></rc>
    <rc><c>Cu</c><c>   1</c></rc>
    <rc><c>Cu</c><c>   1</c></rc>
    <rc><c>Cu</c><c>   1</c></rc>
    <rc><c>Cu</c><c>   1</c></rc>
    <rc><c>Cu</c><c>   1</c></rc>
    <rc><c>Cu</c><c>   1</c></rc>
    <rc><c>Cu</c><c>   1</c></rc>
    <rc><c>Cu</c><c>   1</c></rc>
    <rc><c>Cu</c><c>   1</c></rc>
    <rc><c>Cu</c><c>   1</c></rc>
    <rc><c>Cu</c><c>   1</c></rc>
    <rc><c>Cu</c><c>   1</c></rc>
    <rc><c>Cu</c><c>   1</c></rc>
    <rc><c>Cu</c><c>   1</c></rc>
    <rc><c>Cu</c><c>   1</c></rc>
    <rc><c>Cu</c><c>   1</c></rc>
   </set>
  </array>
  <array name="atomtypes" >
   <dimension dim="1">type</dimension>
   <field type="int">atomspertype</field>
   <field type="string">element</field>
   <field>mass</field>
   <field>valence</field>
   <field type="string">pseudopotential</field>
   <set>
    <rc><c>  32</c><c>Cu</c><c>     63.54600000</c><c>     11.00000000</c><c> PAW_PBE Cu 05Jan2001                   </c></rc>
   </set>
  </array>
 </atominfo>
 <structure name="initialpos" >
  <crystal>
   <varray name="basis" >
    <v>       7.20010331      0.00000000      0.00000000</v>
    <v>       0.00000000      7.20010331      0.00000000</v>
    <v>       0.00000000      0.00000000      7.20010331</v>
   </varray>
   <i name="volume">    373.26406657</i>
   <varray name="rec_basis" >
    <v>       0.13888690      0.00000000      0.00000000</v>
    <v>       0.00000000      0.13888690      0.00000000</v>
    <v>       0.00000000      0.00000000      0.13888690</v>
   </varray>
  </crystal>
  <varray name="positions" >
   <v>       0.00000000      0.00000000      0.00000000</v>
   <v>       0.50000000      0.00000000      0.00000000</v>
   <v>       0.00000000      0.50000000      0.00000000</v>
   <v>       0.50000000      0.50000000      0.00000000</v>
   <v>       0.00000000      0.00000000      0.50000000</v>
   <v>       0.50000000      0.00000000      0.50000000</v>
   <v>       0.00000000      0.50000000      0.50000000</v>
   <v>       0.50000000      0.50000000      0.50000000</v>
   <v>       0.25000000      0.25000000      0.00000000</v>
   <v>       0.75000000      0.25000000      0.00000000</v>
   <v>       0.25000000      0.75000000      0.00000000</v>
   <v>       0.75000000      0.75000000      0.00000000</v>
   <v>       0.25000000      0.25000000      0.50000000</v>
   <v>       0.75000000      0.25000000      0.50000000</v>
   <v>       0.25000000      0.75000000      0.50000000</v>
   <v>       0.75000000      0.75000000      0.50000000</v>
   <v>       0.25000000      0.00000000      0.25000000</v>
   <v>       0.75000000      0.00000000      0.25000000</v>
   <v>       0.25000000      0.50000000      0.25000000</v>
   <v>       0.75000000      0.50000000      0.25000000</v>
   <v>       0.25000000      0.00000000      0.75000000</v>
   <v>       0.75000000      0.00000000      0.75000000</v>
   <v>       0.25000000      0.50000000      0.75000000</v>
   <v>       0.75000000      0.50000000      0.75000000</v>
   <v>       0.00000000      0.25000000      0.25000000</v>
   <v>       0.50000000      0.25000000      0.25000000</v>
   <v>       0.00000000      0.75000000      0.25000000</v>
   <v>       0.50000000      0.75000000      0.25000000</v>
   <v>       0.00000000      0.25000000      0.75000000</v>
   <v>       0.50000000      0.25000000      0.75000000</v>
   <v>       0.00000000      0.75000000      0.75000000</v>
   <v>       0.50000000      0.75000000      0.75000000</v>
  </varray>
 </structure>
 <calculation>
  <scstep>
   <time name="dav">   32.98   33.00</time>
   <time name="total">   33.28   33.29</time>
   <energy>
    <i name="alphaZ">   3504.99324175</i>
    <i name="ewald"> -35504.14190207</i>
    <i name="hartreedc"> -10361.30178505</i>
    <i name="XCdc">   1406.00842560</i>
    <i name="pawpsdc">  34625.67335558</i>
    <i name="pawaedc"> -39234.46421604</i>
    <i name="eentropy">     -0.00033971</i>
    <i name="bandstr">   4339.29229912</i>
    <i name="atom">  44511.25856501</i>
    <i name="e_fr_energy">   3287.31764420</i>
    <i name="e_wo_entrp">   3287.31798391</i>
    <i name="e_0_energy">   3287.31781405</i>
   </energy>
  </scstep>
  <scstep>
   <time name="dav">   32.93   32.93</time>
   <time name="total">   32.95   32.95</time>
   <energy>
    <i name="e_fr_energy">    324.14864185</i>
    <i name="e_wo_entrp">    324.14962305</i>
    <i name="e_0_energy">    324.14913245</i>
   </energy>
  </scstep>
  <scstep>
   <time name="dav">   32.92   32.91</time>
   <time name="total">   32.93   32.93</time>
   <energy>
    <i name="e_fr_energy">   -122.11052105</i>
    <i name="e_wo_entrp">   -122.10960736</i>
    <i name="e_0_energy">   -122.11006421</i>
   </energy>
  </scstep>
  <scstep>
   <time name="dav">   34.46   34.46</time>
   <time name="total">   34.47   34.47</time>
   <energy>
    <i name="e_fr_energy">   -146.65938484</i>
    <i name="e_wo_entrp">   -146.65817485</i>
    <i name="e_0_energy">   -146.65877985</i>
   </energy>
  </scstep>
  <scstep>
   <time name="dav">   34.60   34.60</time>
   <time name="total">   36.10   36.10</time>
   <energy>
    <i name="e_fr_energy">   -146.85667011</i>
    <i name="e_wo_entrp">   -146.85545872</i>
    <i name="e_0_energy">   -146.85606441</i>
   </energy>
  </scstep>
  <scstep>
   <time name="dav">   34.83   34.83</time>
   <time name="total">   36.53   36.53</time>
   <energy>
    <i name="e_fr_energy">   -128.37227572</i>
    <i name="e_wo_entrp">   -128.37141051</i>
    <i name="e_0_energy">   -128.37184311</i>
   </energy>
  </scstep>
  <scstep>
   <time name="dav">   35.59   35.59</time>
   <time name="total">   37.33   37.33</time>
   <energy>
    <i name="e_fr_energy">   -119.24851669</i>
    <i name="e_wo_entrp">   -119.24775416</i>
    <i name="e_0_energy">   -119.24813543</i>
   </energy>
  </scstep>
  <scstep>
   <time name="dav">   33.72   33.71</time>
   <time name="total">   35.40   35.39</time>
   <energy>
    <i name="e_fr_energy">   -118.96197002</i>
    <i name="e_wo_entrp">   -118.96120754</i>
    <i name="e_0_energy">   -118.96158878</i>
   </energy>
  </scstep>
  <scstep>
   <time name="dav">   35.50   35.50</time>
   <time name="total">   37.19   37.19</time>
   <energy>
    <i name="e_fr_energy">   -118.88176286</i>
    <i name="e_wo_entrp">   -118.88095909</i>
    <i name="e_0_energy">   -118.88136098</i>
   </energy>
  </scstep>
  <scstep>
   <time name="dav">   33.83   33.83</time>
   <time name="total">   35.53   35.53</time>
   <energy>
    <i name="e_fr_energy">   -118.88263388</i>
    <i name="e_wo_entrp">   -118.88183208</i>
    <i name="e_0_energy">   -118.88223298</i>
   </energy>
  </scstep>
  <scstep>
   <time name="dav">   36.76   36.76</time>
   <time name="total">   38.45   38.45</time>
   <energy>
    <i name="e_fr_energy">   -118.88256425</i>
    <i name="e_wo_entrp">   -118.88176602</i>
    <i name="e_0_energy">   -118.88216513</i>
   </energy>
  </scstep>
  <scstep>
   <time name="dav">   35.25   35.25</time>
   <time name="total">   36.99   36.98</time>
   <energy>
    <i name="e_fr_energy">   -118.88261059</i>
    <i name="e_wo_entrp">   -118.88181138</i>
    <i name="e_0_energy">   -118.88221098</i>
   </energy>
  </scstep>
  <scstep>
   <time name="dav">   34.20   34.20</time>
   <time name="total">   35.92   35.92</time>
   <energy>
    <i name="e_fr_energy">   -118.88261292</i>
    <i name="e_wo_entrp">   -118.88181397</i>
    <i name="e_0_energy">   -118.88221345</i>
   </energy>
  </scstep>
  <scstep>
   <time name="dav">   30.21   30.21</time>
   <time name="total">   31.71   31.71</time>
   <energy>
    <i name="e_fr_energy">   -118.88261283</i>
    <i name="e_wo_entrp">   -118.88181394</i>
    <i name="e_0_energy">   -118.88221338</i>
   </energy>
  </scstep>
  <scstep>
   <time name="dav">   20.89   20.89</time>
   <time name="total">   22.42   22.42</time>
   <energy>
    <i name="e_fr_energy">   -118.88261268</i>
    <i name="e_wo_entrp">   -118.88181379</i>
    <i name="e_0_energy">   -118.88221323</i>
   </energy>
  </scstep>
  <scstep>
   <time name="dav">   20.68   20.68</time>
   <time name="total">   22.03   22.03</time>
   <energy>
    <i name="e_fr_energy">   -118.88261257</i>
    <i name="e_wo_entrp">   -118.88181369</i>
    <i name="e_0_energy">   -118.88221313</i>
   </energy>
  </scstep>
  <scstep>
   <time name="dav">   19.32   19.32</time>
   <time name="total">   20.83   20.83</time>
   <energy>
    <i name="e_fr_energy">   -118.88261256</i>
    <i name="e_wo_entrp">   -118.88181366</i>
    <i name="e_0_energy">   -118.88221311</i>
   </energy>
  </scstep>
  <scstep>
   <time name="dav">   22.13   22.12</time>
   <time name="total">   22.39   22.39</time>
   <energy>
    <i name="alphaZ">   3504.99324175</i>
    <i name="ewald"> -35504.14190207</i>
    <i name="hartreedc">  -9651.07313585</i>
    <i name="XCdc">   1370.84734534</i>
    <i name="pawpsdc">  35209.02816750</i>
    <i name="pawaedc"> -39844.17361019</i>
    <i name="eentropy">     -0.00079889</i>
    <i name="bandstr">    284.37951484</i>
    <i name="atom">  44511.25856501</i>
    <i name="e_fr_energy">   -118.88261256</i>
    <i name="e_wo_entrp">   -118.88181366</i>
    <i name="e_0_energy">   -118.88221311</i>
   </energy>
  </scstep>
  <structure>
   <crystal>
    <varray name="basis" >
     <v>       7.20010331      0.00000000      0.00000000</v>
     <v>       0.00000000      7.20010331      0.00000000</v>
     <v>       0.00000000      0.00000000      7.20010331</v>
    </varray>
    <i name="volume">    373.26406657</i>
    <varray name="rec_basis" >
     <v>       0.13888690      0.00000000      0.00000000</v>
     <v>       0.00000000      0.13888690      0.00000000</v>
     <v>       0.00000000      0.00000000      0.13888690</v>
    </varray>
   </crystal>
   <varray name="positions" >
    <v>       0.00000000      0.00000000      0.00000000</v>
    <v>       0.50000000      0.00000000      0.00000000</v>
    <v>       0.00000000      0.50000000      0.00000000</v>
    <v>       0.50000000      0.50000000      0.00000000</v>
    <v>       0.00000000      0.00000000      0.50000000</v>
    <v>       0.50000000      0.00000000      0.50000000</v>
    <v>       0.00000000      0.50000000      0.50000000</v>
    <v>       0.50000000      0.50000000      0.50000000</v>
    <v>       0.25000000      0.25000000      0.00000000</v>
    <v>       0.75000000      0.25000000      0.00000000</v>
    <v>       0.25000000      0.75000000      0.00000000</v>
    <v>       0.75000000      0.75000000      0.00000000</v>
    <v>       0.25000000      0.25000000      0.50000000</v>
    <v>       0.75000000      0.25000000      0.50000000</v>
    <v>       0.25000000      0.75000000      0.50000000</v>
    <v>       0.75000000      0.75000000      0.50000000</v>
    <v>       0.25000000      0.00000000      0.25000000</v>
    <v>       0.75000000      0.00000000      0.25000000</v>
    <v>       0.25000000      0.50000000      0.25000000</v>
    <v>       0.75000000      0.50000000      0.25000000</v>
    <v>       0.25000000      0.00000000      0.75000000</v>
    <v>       0.75000000      0.00000000      0.75000000</v>
    <v>       0.25000000      0.50000000      0.75000000</v>
    <v>       0.75000000      0.50000000      0.75000000</v>
    <v>       0.00000000      0.25000000      0.25000000</v>
    <v>       0.50000000      0.25000000      0.25000000</v>
    <v>       0.00000000      0.75000000      0.25000000</v>
    <v>       0.50000000      0.75000000      0.25000000</v>
    <v>       0.00000000      0.25000000      0.75000000</v>
    <v>       0.50000000      0.25000000      0.75000000</v>
    <v>       0.00000000      0.75000000      0.75000000</v>
    <v>       0.50000000      0.75000000      0.75000000</v>
   </varray>
  </structure>
  <varray name="forces" >
   <v>      -0.00000000     -0.00000000     -0.00000000</v>
   <v>      -0.00000000      0.00000000     -0.00000000</v>
   <v>      -0.00000000      0.00000000     -0.00000000</v>
   <v>      -0.00000000      0.00000000     -0.00000000</v>
   <v>      -0.00000000      0.00000000      0.00000000</v>
   <v>       0.00000000     -0.00000000     -0.00000000</v>
   <v>       0.00000000     -0.00000000      0.00000000</v>
   <v>      -0.00000000     -0.00000000      0.00000000</v>
   <v>      -0.00000000     -0.00000000      0.00000000</v>
   <v>      -0.00000000      0.00000000     -0.00000000</v>
   <v>      -0.00000000     -0.00000000     -0.00000000</v>
   <v>       0.00000000      0.00000000     -0.00000000</v>
   <v>       0.00000000     -0.00000000      0.00000000</v>
   <v>       0.00000000     -0.00000000     -0.00000000</v>
   <v>       0.00000000     -0.00000000      0.00000000</v>
   <v>       0.00000000      0.00000000      0.00000000</v>
   <v>      -0.00000000     -0.00000000      0.00000000</v>
   <v>      -0.00000000     -0.00000000     -0.00000000</v>
   <v>      -0.00000000      0.00000000     -0.00000000</v>
   <v>       0.00000000     -0.00000000     -0.00000000</v>
   <v>       0.00000000      0.00000000     -0.00000000</v>
   <v>      -0.00000000      0.00000000     -0.00000000</v>
   <v>      -0.00000000      0.00000000     -0.00000000</v>
   <v>      -0.00000000     -0.00000000     -0.00000000</v>
   <v>       0.00000000      0.00000000     -0.00000000</v>
   <v>      -0.00000000     -0.00000000      0.00000000</v>
   <v>      -0.00000000     -0.00000000     -0.00000000</v>
   <v>       0.00000000      0.00000000     -0.00000000</v>
   <v>      -0.00000000     -0.00000000      0.00000000</v>
   <v>      -0.00000000      0.00000000      0.00000000</v>
   <v>      -0.00000000      0.00000000     -0.00000000</v>
   <v>       0.00000000      0.00000000      0.00000000</v>
  </varray>
  <varray name="stress" >
   <v>      44.74114454     -0.00000000      0.00000000</v>
   <v>      -0.00000000     44.74114454      0.00000000</v>
   <v>       0.00000000      0.00000000     44.74114454</v>
  </varray>
  <energy>
   <i name="e_fr_energy">   -118.88261256</i>
   <i name="e_wo_entrp">   -118.88221311</i>
   <i name="e_0_energy">     -0.00079889</i>
  </energy>
  <eigenvalues>
   <array>
    <dimension dim="1">band</dimension>
    <dimension dim="2">kpoint</dimension>
    <dimension dim="3">spin</dimension>
    <field>eigene</field>
    <field>occ</field>
    <set>
     <set comment="spin 1">
      <set comment="kpoint 1">
       <r>  -5.5443  1.0000</r>
       <r>  -2.7616  1.0000</r>
       <r>  -2.7616  1.0000</r>
       <r>  -2.7616  1.0000</r>
       <r>  -2.7616  1.0000</r>
       <r>  -2.7616  1.0000</r>
       <r>  -2.7616  1.0000</r>
       <r>  -1.2635  1.0000</r>
       <r>  -1.2635  1.0000</r>
       <r>  -1.2635  1.0000</r>
       <r>  -1.2635  1.0000</r>
       <r>  -1.0696  1.0000</r>
       <r>  -1.0696  1.0000</r>
       <r>  -1.0696  1.0000</r>
       <r>  -0.8649  1.0000</r>
       <r>  -0.8649  1.0000</r>
       <r>  -0.8649  1.0000</r>
       <r>  -0.8649  1.0000</r>
       <r>  -0.8649  1.0000</r>
       <r>  -0.8649  1.0000</r>
       <r>  -0.8649  1.0000</r>
       <r>  -0.8649  1.0000</r>
       <r>  -0.8649  1.0000</r>
       <r>  -0.8649  1.0000</r>
       <r>  -0.8649  1.0000</r>
       <r>  -0.8649  1.0000</r>
       <r>  -0.6091  1.0000</r>
       <r>  -0.6091  1.0000</r>
       <r>  -0.6091  1.0000</r>
       <r>  -0.3194  1.0000</r>
       <r>  -0.3194  1.0000</r>
       <r>  -0.3194  1.0000</r>
       <r>  -0.3194  1.0000</r>
       <r>  -0.3194  1.0000</r>
       <r>  -0.3194  1.0000</r>
       <r>   0.0807  1.0000</r>
       <r>   0.0807  1.0000</r>
       <r>   0.0807  1.0000</r>
       <r>   0.0807  1.0000</r>
       <r>   0.0807  1.0000</r>
       <r>   0.0807  1.0000</r>
       <r>   0.2960  1.0000</r>
       <r>   0.2960  1.0000</r>
       <r>   0.2960  1.0000</r>
       <r>   0.2960  1.0000</r>
       <r>   0.2960  1.0000</r>
       <r>   0.2960  1.0000</r>
       <r>   0.2960  1.0000</r>
       <r>   0.2960  1.0000</r>
       <r>   0.2960  1.0000</r>
       <r>   0.2960  1.0000</r>
       <r>   0.2960  1.0000</r>
       <r>   0.2960  1.0000</r>
       <r>   0.2996  1.0000</r>
       <r>   0.2996  1.0000</r>
       <r>   0.2996  1.0000</r>
       <r>   0.2996  1.0000</r>
       <r>   0.2996  1.0000</r>
       <r>   0.2996  1.0000</r>
       <r>   0.2996  1.0000</r>
       <r>   0.2996  1.0000</r>
       <r>   0.2996  1.0000</r>
       <r>   0.2996  1.0000</r>
       <r>   0.2996  1.0000</r>
       <r>   0.2996  1.0000</r>
       <r>   0.5115  1.0000</r>
       <r>   0.5115  1.0000</r>
       <r>   0.5115  1.0000</r>
       <r>   0.5115  1.0000</r>
       <r>   0.5115  1.0000</r>
       <r>   0.5115  1.0000</r>
       <r>   0.5115  1.0000</r>
       <r>   0.5115  1.0000</r>
       <r>   0.5115  1.0000</r>
       <r>   0.5115  1.0000</r>
       <r>   0.5115  1.0000</r>
       <r>   0.5115  1.0000</r>
       <r>   0.7788  1.0000</r>
       <r>   0.7788  1.0000</r>
       <r>   0.7788  1.0000</r>
       <r>   0.7788  1.0000</r>
       <r>   0.7788  1.0000</r>
       <r>   0.7788  1.0000</r>
       <r>   0.7788  1.0000</r>
       <r>   0.7788  1.0000</r>
       <r>   0.8094  1.0000</r>
       <r>   0.8094  1.0000</r>
       <r>   0.8094  1.0000</r>
       <r>   1.1914  1.0000</r>
       <r>   1.1914  1.0000</r>
       <r>   1.1914  1.0000</r>
       <r>   1.1914  1.0000</r>
       <r>   1.1914  1.0000</r>
       <r>   1.1914  1.0000</r>
       <r>   1.3225  1.0000</r>
       <r>   1.3225  1.0000</r>
       <r>   1.3225  1.0000</r>
       <r>   1.3225  1.0000</r>
       <r>   1.3225  1.0000</r>
       <r>   1.3225  1.0000</r>
       <r>   1.3225  1.0000</r>
       <r>   1.3225  1.0000</r>
       <r>   1.3225  1.0000</r>
       <r>   1.3225  1.0000</r>
       <r>   1.3225  1.0000</r>
       <r>   1.3225  1.0000</r>
       <r>   1.4831  1.0000</r>
       <r>   1.4831  1.0000</r>
       <r>   1.4831  1.0000</r>
       <r>   1.4831  1.0000</r>
       <r>   1.4831  1.0000</r>
       <r>   1.4831  1.0000</r>
       <r>   1.4831  1.0000</r>
       <r>   1.4831  1.0000</r>
       <r>   1.4831  1.0000</r>
       <r>   1.4831  1.0000</r>
       <r>   1.4831  1.0000</r>
       <r>   1.4831  1.0000</r>
       <r>   1.6128  1.0000</r>
       <r>   1.6128  1.0000</r>
       <r>   1.6128  1.0000</r>
       <r>   1.6128  1.0000</r>
       <r>   1.6128  1.0000</r>
       <r>   1.6128  1.0000</r>
       <r>   1.6468  1.0000</r>
       <r>   1.6468  1.0000</r>
       <r>   1.6468  1.0000</r>
       <r>   1.6468  1.0000</r>
       <r>   1.6468  1.0000</r>
       <r>   1.6468  1.0000</r>
       <r>   1.6468  1.0000</r>
       <r>   1.6468  1.0000</r>
       <r>   1.6468  1.0000</r>
       <r>   1.6468  1.0000</r>
       <r>   1.6468  1.0000</r>
       <r>   1.6468  1.0000</r>
       <r>   1.6535  1.0000</r>
       <r>   1.6535  1.0000</r>
       <r>   1.9306  1.0000</r>
       <r>   1.9306  1.0000</r>
       <r>   1.9306  1.0000</r>
       <r>   1.9306  1.0000</r>
       <r>   1.9306  1.0000</r>
       <r>   1.9306  1.0000</r>
       <r>   2.2139  1.0000</r>
       <r>   2.2139  1.0000</r>
       <r>   2.2139  1.0000</r>
       <r>   2.2284  1.0000</r>
       <r>   2.2284  1.0000</r>
       <r>   2.2284  1.0000</r>
       <r>   2.2284  1.0000</r>
       <r>   2.2284  1.0000</r>
       <r>   2.2284  1.0000</r>
       <r>   2.2284  1.0000</r>
       <r>   2.2284  1.0000</r>
       <r>   2.3712  1.0000</r>
       <r>   2.3712  1.0000</r>
       <r>   2.3712  1.0000</r>
       <r>   2.3712  1.0000</r>
       <r>   2.3712  1.0000</r>
       <r>   2.3712  1.0000</r>
       <r>   2.3720  1.0000</r>
       <r>   2.3720  1.0000</r>
       <r>   2.3720  1.0000</r>
       <r>   2.3720  1.0000</r>
       <r>   2.3720  1.0000</r>
       <r>   2.3720  1.0000</r>
       <r>   2.8666  1.0000</r>
       <r>   2.8666  1.0000</r>
       <r>   2.8666  1.0000</r>
       <r>   2.8666  1.0000</r>
       <r>   3.5793  1.0000</r>
       <r>   3.5793  1.0000</r>
       <r>   3.5793  1.0000</r>
       <r>   3.5793  1.0000</r>
       <r>   3.5793  1.0000</r>
       <r>   3.5793  1.0000</r>
       <r>   3.5793  1.0000</r>
       <r>   3.5793  1.0000</r>
       <r>   3.5793  1.0000</r>
       <r>   3.5793  1.0000</r>
       <r>   3.5793  1.0000</r>
       <r>   3.5793  1.0000</r>
       <r>   5.4022  0.0000</r>
       <r>   5.4022  0.0000</r>
       <r>   5.4022  0.0000</r>
       <r>   7.7133  0.0000</r>
       <r>   7.7133  0.0000</r>
       <r>   7.7133  0.0000</r>
       <r>   7.7133  0.0000</r>
       <r>  10.1618  0.0000</r>
       <r>  10.1618  0.0000</r>
       <r>  10.1618  0.0000</r>
       <r>  10.1618  0.0000</r>
       <r>  10.1618  0.0000</r>
       <r>  10.1618  0.0000</r>
       <r>  10.1618  0.0000</r>
       <r>  10.1618  0.0000</r>
       <r>  10.1618  0.0000</r>
       <r>  10.1618  0.0000</r>
       <r>  10.1618  0.0000</r>
       <r>  10.1618  0.0000</r>
       <r>  11.1064  0.0000</r>
       <r>  11.1064  0.0000</r>
       <r>  11.1064  0.0000</r>
       <r>  12.2801  0.0000</r>
       <r>  12.2801  0.0000</r>
       <r>  12.2801  0.0000</r>
       <r>  12.2801  0.0000</r>
       <r>  12.2801  0.0000</r>
       <r>  12.2801  0.0000</r>
       <r>  12.8615  0.0000</r>
       <r>  12.8615  0.0000</r>
       <r>  12.8615  0.0000</r>
       <r>  12.8615  0.0000</r>
       <r>  12.8615  0.0000</r>
      </set>
      <set comment="kpoint 2">
       <r>  -5.4816  1.0000</r>
       <r>  -3.4234  1.0000</r>
       <r>  -2.7108  1.0000</r>
       <r>  -2.7108  1.0000</r>
       <r>  -2.7108  1.0000</r>
       <r>  -2.7108  1.0000</r>
       <r>  -2.1170  1.0000</r>
       <r>  -1.2490  1.0000</r>
       <r>  -1.2490  1.0000</r>
       <r>  -1.2490  1.0000</r>
       <r>  -1.2490  1.0000</r>
       <r>  -1.2359  1.0000</r>
       <r>  -1.2359  1.0000</r>
       <r>  -1.2359  1.0000</r>
       <r>  -1.2359  1.0000</r>
       <r>  -1.0696  1.0000</r>
       <r>  -1.0401  1.0000</r>
       <r>  -1.0401  1.0000</r>
       <r>  -0.8946  1.0000</r>
       <r>  -0.8946  1.0000</r>
       <r>  -0.8946  1.0000</r>
       <r>  -0.8946  1.0000</r>
       <r>  -0.5923  1.0000</r>
       <r>  -0.5913  1.0000</r>
       <r>  -0.5913  1.0000</r>
       <r>  -0.5496  1.0000</r>
       <r>  -0.5496  1.0000</r>
       <r>  -0.5496  1.0000</r>
       <r>  -0.5496  1.0000</r>
       <r>  -0.3689  1.0000</r>
       <r>  -0.3689  1.0000</r>
       <r>  -0.2965  1.0000</r>
       <r>  -0.2965  1.0000</r>
       <r>  -0.2965  1.0000</r>
       <r>  -0.2965  1.0000</r>
       <r>  -0.0760  1.0000</r>
       <r>   0.0510  1.0000</r>
       <r>   0.0510  1.0000</r>
       <r>   0.0880  1.0000</r>
       <r>   0.0880  1.0000</r>
       <r>   0.0880  1.0000</r>
       <r>   0.0880  1.0000</r>
       <r>   0.2394  1.0000</r>
       <r>   0.2681  1.0000</r>
       <r>   0.2681  1.0000</r>
       <r>   0.2681  1.0000</r>
       <r>   0.2681  1.0000</r>
       <r>   0.2717  1.0000</r>
       <r>   0.2717  1.0000</r>
       <r>   0.2717  1.0000</r>
       <r>   0.2717  1.0000</r>
       <r>   0.2985  1.0000</r>
       <r>   0.2985  1.0000</r>
       <r>   0.2985  1.0000</r>
       <r>   0.2985  1.0000</r>
       <r>   0.3186  1.0000</r>
       <r>   0.3186  1.0000</r>
       <r>   0.3186  1.0000</r>
       <r>   0.3186  1.0000</r>
       <r>   0.3677  1.0000</r>
       <r>   0.3677  1.0000</r>
       <r>   0.3677  1.0000</r>
       <r>   0.3677  1.0000</r>
       <r>   0.3783  1.0000</r>
       <r>   0.3783  1.0000</r>
       <r>   0.3783  1.0000</r>
       <r>   0.3783  1.0000</r>
       <r>   0.5269  1.0000</r>
       <r>   0.5269  1.0000</r>
       <r>   0.5269  1.0000</r>
       <r>   0.5269  1.0000</r>
       <r>   0.5803  1.0000</r>
       <r>   0.5803  1.0000</r>
       <r>   0.6084  1.0000</r>
       <r>   0.6084  1.0000</r>
       <r>   0.6084  1.0000</r>
       <r>   0.6084  1.0000</r>
       <r>   0.7667  1.0000</r>
       <r>   0.7667  1.0000</r>
       <r>   0.7667  1.0000</r>
       <r>   0.7667  1.0000</r>
       <r>   0.7907  1.0000</r>
       <r>   0.7952  1.0000</r>
       <r>   0.7952  1.0000</r>
       <r>   0.7952  1.0000</r>
       <r>   0.7952  1.0000</r>
       <r>   0.8244  1.0000</r>
       <r>   0.8244  1.0000</r>
       <r>   1.1139  1.0000</r>
       <r>   1.1139  1.0000</r>
       <r>   1.1139  1.0000</r>
       <r>   1.1139  1.0000</r>
       <r>   1.2213  1.0000</r>
       <r>   1.2599  1.0000</r>
       <r>   1.2599  1.0000</r>
       <r>   1.2599  1.0000</r>
       <r>   1.2599  1.0000</r>
       <r>   1.2875  1.0000</r>
       <r>   1.3184  1.0000</r>
       <r>   1.3184  1.0000</r>
       <r>   1.3344  1.0000</r>
       <r>   1.3344  1.0000</r>
       <r>   1.3344  1.0000</r>
       <r>   1.3344  1.0000</r>
       <r>   1.3766  1.0000</r>
       <r>   1.3766  1.0000</r>
       <r>   1.3766  1.0000</r>
       <r>   1.3766  1.0000</r>
       <r>   1.4829  1.0000</r>
       <r>   1.4829  1.0000</r>
       <r>   1.4829  1.0000</r>
       <r>   1.4829  1.0000</r>
       <r>   1.5453  1.0000</r>
       <r>   1.5453  1.0000</r>
       <r>   1.5453  1.0000</r>
       <r>   1.5453  1.0000</r>
       <r>   1.5729  1.0000</r>
       <r>   1.5729  1.0000</r>
       <r>   1.5729  1.0000</r>
       <r>   1.5729  1.0000</r>
       <r>   1.6127  1.0000</r>
       <r>   1.6127  1.0000</r>
       <r>   1.6127  1.0000</r>
       <r>   1.6127  1.0000</r>
       <r>   1.6365  1.0000</r>
       <r>   1.6550  1.0000</r>
       <r>   1.6550  1.0000</r>
       <r>   1.6580  1.0000</r>
       <r>   1.6580  1.0000</r>
       <r>   1.6604  1.0000</r>
       <r>   1.7113  1.0000</r>
       <r>   1.7113  1.0000</r>
       <r>   1.7113  1.0000</r>
       <r>   1.7113  1.0000</r>
       <r>   1.7486  1.0000</r>
       <r>   1.7486  1.0000</r>
       <r>   1.7486  1.0000</r>
       <r>   1.7486  1.0000</r>
       <r>   1.8685  1.0000</r>
       <r>   1.9518  1.0000</r>
       <r>   1.9518  1.0000</r>
       <r>   1.9518  1.0000</r>
       <r>   1.9518  1.0000</r>
       <r>   1.9931  1.0000</r>
       <r>   2.0104  1.0000</r>
       <r>   2.0104  1.0000</r>
       <r>   2.0104  1.0000</r>
       <r>   2.0104  1.0000</r>
       <r>   2.1919  1.0000</r>
       <r>   2.1919  1.0000</r>
       <r>   2.2067  1.0000</r>
       <r>   2.2102  1.0000</r>
       <r>   2.2102  1.0000</r>
       <r>   2.2102  1.0000</r>
       <r>   2.2102  1.0000</r>
       <r>   2.2578  1.0000</r>
       <r>   2.2578  1.0000</r>
       <r>   2.3439  1.0000</r>
       <r>   2.3439  1.0000</r>
       <r>   2.3439  1.0000</r>
       <r>   2.3439  1.0000</r>
       <r>   2.3451  1.0000</r>
       <r>   2.3451  1.0000</r>
       <r>   2.3712  1.0000</r>
       <r>   2.3712  1.0000</r>
       <r>   2.3719  1.0000</r>
       <r>   2.3719  1.0000</r>
       <r>   3.0184  1.0000</r>
       <r>   3.0184  1.0000</r>
       <r>   3.0184  1.0000</r>
       <r>   3.0184  1.0000</r>
       <r>   3.1319  1.0000</r>
       <r>   3.1319  1.0000</r>
       <r>   3.1319  1.0000</r>
       <r>   3.1319  1.0000</r>
       <r>   3.5709  1.0000</r>
       <r>   3.5709  1.0000</r>
       <r>   3.5709  1.0000</r>
       <r>   3.5709  1.0000</r>
       <r>   4.1613  0.0000</r>
       <r>   4.1613  0.0000</r>
       <r>   4.1613  0.0000</r>
       <r>   4.1613  0.0000</r>
       <r>   5.0087  0.0000</r>
       <r>   5.5713  0.0000</r>
       <r>   5.5713  0.0000</r>
       <r>   7.8884  0.0000</r>
       <r>   7.8884  0.0000</r>
       <r>   7.8884  0.0000</r>
       <r>   7.8884  0.0000</r>
       <r>   9.1750  0.0000</r>
       <r>   9.1750  0.0000</r>
       <r>   9.3988  0.0000</r>
       <r>   9.3988  0.0000</r>
       <r>   9.3988  0.0000</r>
       <r>   9.3988  0.0000</r>
       <r>  10.2465  0.0000</r>
       <r>  10.2465  0.0000</r>
       <r>  10.2465  0.0000</r>
       <r>  10.2465  0.0000</r>
       <r>  11.1290  0.0000</r>
       <r>  11.1290  0.0000</r>
       <r>  11.2077  0.0000</r>
       <r>  11.2078  0.0000</r>
       <r>  11.6236  0.0000</r>
       <r>  12.0505  0.0000</r>
       <r>  12.0505  0.0000</r>
       <r>  12.5716  0.0000</r>
       <r>  12.5716  0.0000</r>
       <r>  12.5716  0.0000</r>
       <r>  12.5716  0.0000</r>
       <r>  12.7126  0.0000</r>
       <r>  12.7126  0.0000</r>
       <r>  12.7126  0.0000</r>
       <r>  12.7127  0.0000</r>
       <r>  12.8535  0.0000</r>
      </set>
      <set comment="kpoint 3">
       <r>  -5.2946  1.0000</r>
       <r>  -4.0359  1.0000</r>
       <r>  -2.5608  1.0000</r>
       <r>  -2.5608  1.0000</r>
       <r>  -2.5608  1.0000</r>
       <r>  -2.5608  1.0000</r>
       <r>  -1.6281  1.0000</r>
       <r>  -1.6281  1.0000</r>
       <r>  -1.6281  1.0000</r>
       <r>  -1.6281  1.0000</r>
       <r>  -1.5930  1.0000</r>
       <r>  -1.2067  1.0000</r>
       <r>  -1.2067  1.0000</r>
       <r>  -1.2067  1.0000</r>
       <r>  -1.2067  1.0000</r>
       <r>  -1.0782  1.0000</r>
       <r>  -0.9678  1.0000</r>
       <r>  -0.9678  1.0000</r>
       <r>  -0.9678  1.0000</r>
       <r>  -0.9678  1.0000</r>
       <r>  -0.9545  1.0000</r>
       <r>  -0.9545  1.0000</r>
       <r>  -0.5424  1.0000</r>
       <r>  -0.5377  1.0000</r>
       <r>  -0.5377  1.0000</r>
       <r>  -0.4968  1.0000</r>
       <r>  -0.4968  1.0000</r>
       <r>  -0.3038  1.0000</r>
       <r>  -0.3038  1.0000</r>
       <r>  -0.3038  1.0000</r>
       <r>  -0.3038  1.0000</r>
       <r>  -0.2311  1.0000</r>
       <r>  -0.2311  1.0000</r>
       <r>  -0.2311  1.0000</r>
       <r>  -0.2311  1.0000</r>
       <r>  -0.2232  1.0000</r>
       <r>  -0.1543  1.0000</r>
       <r>  -0.1543  1.0000</r>
       <r>   0.1092  1.0000</r>
       <r>   0.1092  1.0000</r>
       <r>   0.1092  1.0000</r>
       <r>   0.1092  1.0000</r>
       <r>   0.2036  1.0000</r>
       <r>   0.2036  1.0000</r>
       <r>   0.2036  1.0000</r>
       <r>   0.2036  1.0000</r>
       <r>   0.2258  1.0000</r>
       <r>   0.2258  1.0000</r>
       <r>   0.2258  1.0000</r>
       <r>   0.2258  1.0000</r>
       <r>   0.2273  1.0000</r>
       <r>   0.2273  1.0000</r>
       <r>   0.2273  1.0000</r>
       <r>   0.2273  1.0000</r>
       <r>   0.3053  1.0000</r>
       <r>   0.3053  1.0000</r>
       <r>   0.3053  1.0000</r>
       <r>   0.3053  1.0000</r>
       <r>   0.3252  1.0000</r>
       <r>   0.3252  1.0000</r>
       <r>   0.3252  1.0000</r>
       <r>   0.3252  1.0000</r>
       <r>   0.3920  1.0000</r>
       <r>   0.5445  1.0000</r>
       <r>   0.5445  1.0000</r>
       <r>   0.5445  1.0000</r>
       <r>   0.5445  1.0000</r>
       <r>   0.5821  1.0000</r>
       <r>   0.5821  1.0000</r>
       <r>   0.5821  1.0000</r>
       <r>   0.5821  1.0000</r>
       <r>   0.6816  1.0000</r>
       <r>   0.6816  1.0000</r>
       <r>   0.6816  1.0000</r>
       <r>   0.6816  1.0000</r>
       <r>   0.7322  1.0000</r>
       <r>   0.7322  1.0000</r>
       <r>   0.7322  1.0000</r>
       <r>   0.7322  1.0000</r>
       <r>   0.7355  1.0000</r>
       <r>   0.8434  1.0000</r>
       <r>   0.8434  1.0000</r>
       <r>   0.8434  1.0000</r>
       <r>   0.8434  1.0000</r>
       <r>   0.8692  1.0000</r>
       <r>   0.8692  1.0000</r>
       <r>   0.9013  1.0000</r>
       <r>   0.9013  1.0000</r>
       <r>   0.9815  1.0000</r>
       <r>   0.9815  1.0000</r>
       <r>   0.9815  1.0000</r>
       <r>   0.9815  1.0000</r>
       <r>   1.1417  1.0000</r>
       <r>   1.1417  1.0000</r>
       <r>   1.1417  1.0000</r>
       <r>   1.1417  1.0000</r>
       <r>   1.1704  1.0000</r>
       <r>   1.1704  1.0000</r>
       <r>   1.3078  1.0000</r>
       <r>   1.4053  1.0000</r>
       <r>   1.4053  1.0000</r>
       <r>   1.4053  1.0000</r>
       <r>   1.4053  1.0000</r>
       <r>   1.4618  1.0000</r>
       <r>   1.4618  1.0000</r>
       <r>   1.4618  1.0000</r>
       <r>   1.4618  1.0000</r>
       <r>   1.4834  1.0000</r>
       <r>   1.4834  1.0000</r>
       <r>   1.4834  1.0000</r>
       <r>   1.4834  1.0000</r>
       <r>   1.5256  1.0000</r>
       <r>   1.5256  1.0000</r>
       <r>   1.5256  1.0000</r>
       <r>   1.5256  1.0000</r>
       <r>   1.5868  1.0000</r>
       <r>   1.6012  1.0000</r>
       <r>   1.6012  1.0000</r>
       <r>   1.6012  1.0000</r>
       <r>   1.6012  1.0000</r>
       <r>   1.6077  1.0000</r>
       <r>   1.6077  1.0000</r>
       <r>   1.6077  1.0000</r>
       <r>   1.6077  1.0000</r>
       <r>   1.6123  1.0000</r>
       <r>   1.6146  1.0000</r>
       <r>   1.6146  1.0000</r>
       <r>   1.6146  1.0000</r>
       <r>   1.6146  1.0000</r>
       <r>   1.6807  1.0000</r>
       <r>   1.7625  1.0000</r>
       <r>   1.7625  1.0000</r>
       <r>   1.8097  1.0000</r>
       <r>   1.8348  1.0000</r>
       <r>   1.8348  1.0000</r>
       <r>   1.8348  1.0000</r>
       <r>   1.8348  1.0000</r>
       <r>   1.8349  1.0000</r>
       <r>   1.8349  1.0000</r>
       <r>   1.8738  1.0000</r>
       <r>   1.8738  1.0000</r>
       <r>   1.8738  1.0000</r>
       <r>   1.8738  1.0000</r>
       <r>   1.9758  1.0000</r>
       <r>   1.9758  1.0000</r>
       <r>   2.0478  1.0000</r>
       <r>   2.0478  1.0000</r>
       <r>   2.0478  1.0000</r>
       <r>   2.0478  1.0000</r>
       <r>   2.0528  1.0000</r>
       <r>   2.1273  1.0000</r>
       <r>   2.1273  1.0000</r>
       <r>   2.1567  1.0000</r>
       <r>   2.1567  1.0000</r>
       <r>   2.1567  1.0000</r>
       <r>   2.1567  1.0000</r>
       <r>   2.1856  1.0000</r>
       <r>   2.2649  1.0000</r>
       <r>   2.2649  1.0000</r>
       <r>   2.2649  1.0000</r>
       <r>   2.2649  1.0000</r>
       <r>   2.2698  1.0000</r>
       <r>   2.2698  1.0000</r>
       <r>   2.3713  1.0000</r>
       <r>   2.3713  1.0000</r>
       <r>   2.3718  1.0000</r>
       <r>   2.3718  1.0000</r>
       <r>   2.7773  1.0000</r>
       <r>   2.7773  1.0000</r>
       <r>   2.7773  1.0000</r>
       <r>   2.7773  1.0000</r>
       <r>   3.2341  1.0000</r>
       <r>   3.2341  1.0000</r>
       <r>   3.2341  1.0000</r>
       <r>   3.2341  1.0000</r>
       <r>   3.5431  1.0000</r>
       <r>   3.5431  1.0000</r>
       <r>   3.5431  1.0000</r>
       <r>   3.5431  1.0000</r>
       <r>   4.1192  0.0000</r>
       <r>   4.9117  0.0000</r>
       <r>   4.9117  0.0000</r>
       <r>   4.9117  0.0000</r>
       <r>   4.9117  0.0000</r>
       <r>   6.0203  0.0000</r>
       <r>   6.0203  0.0000</r>
       <r>   8.1482  0.0000</r>
       <r>   8.1482  0.0000</r>
       <r>   8.1482  0.0000</r>
       <r>   8.1482  0.0000</r>
       <r>   8.2540  0.0000</r>
       <r>   8.2540  0.0000</r>
       <r>   8.3950  0.0000</r>
       <r>   8.3950  0.0000</r>
       <r>   8.3950  0.0000</r>
       <r>   8.3950  0.0000</r>
       <r>  10.4958  0.0000</r>
       <r>  10.4958  0.0000</r>
       <r>  10.4958  0.0000</r>
       <r>  10.4958  0.0000</r>
       <r>  11.1986  0.0000</r>
       <r>  11.1986  0.0000</r>
       <r>  11.4000  0.0000</r>
       <r>  11.4000  0.0000</r>
       <r>  11.4000  0.0000</r>
       <r>  11.4000  0.0000</r>
       <r>  11.7443  0.0000</r>
       <r>  11.7443  0.0000</r>
       <r>  12.0908  0.0000</r>
       <r>  12.0908  0.0000</r>
       <r>  12.0908  0.0000</r>
       <r>  12.0908  0.0000</r>
       <r>  12.3066  0.0000</r>
       <r>  12.3066  0.0000</r>
       <r>  12.7644  0.0000</r>
       <r>  12.7644  0.0000</r>
      </set>
      <set comment="kpoint 4">
       <r>  -4.9865  1.0000</r>
       <r>  -4.5633  1.0000</r>
       <r>  -2.3192  1.0000</r>
       <r>  -2.3192  1.0000</r>
       <r>  -2.3192  1.0000</r>
       <r>  -2.3192  1.0000</r>
       <r>  -2.0006  1.0000</r>
       <r>  -2.0006  1.0000</r>
       <r>  -2.0006  1.0000</r>
       <r>  -2.0006  1.0000</r>
       <r>  -1.2704  1.0000</r>
       <r>  -1.1402  1.0000</r>
       <r>  -1.1402  1.0000</r>
       <r>  -1.1402  1.0000</r>
       <r>  -1.1402  1.0000</r>
       <r>  -1.1253  1.0000</r>
       <r>  -1.0565  1.0000</r>
       <r>  -1.0565  1.0000</r>
       <r>  -1.0565  1.0000</r>
       <r>  -1.0565  1.0000</r>
       <r>  -0.8224  1.0000</r>
       <r>  -0.8224  1.0000</r>
       <r>  -0.6608  1.0000</r>
       <r>  -0.6608  1.0000</r>
       <r>  -0.4618  1.0000</r>
       <r>  -0.4476  1.0000</r>
       <r>  -0.4476  1.0000</r>
       <r>  -0.3537  1.0000</r>
       <r>  -0.3202  1.0000</r>
       <r>  -0.3202  1.0000</r>
       <r>  -0.1409  1.0000</r>
       <r>  -0.1409  1.0000</r>
       <r>  -0.1409  1.0000</r>
       <r>  -0.1409  1.0000</r>
       <r>  -0.1376  1.0000</r>
       <r>  -0.1376  1.0000</r>
       <r>  -0.1376  1.0000</r>
       <r>  -0.1376  1.0000</r>
       <r>   0.0959  1.0000</r>
       <r>   0.0959  1.0000</r>
       <r>   0.0959  1.0000</r>
       <r>   0.0959  1.0000</r>
       <r>   0.1099  1.0000</r>
       <r>   0.1099  1.0000</r>
       <r>   0.1099  1.0000</r>
       <r>   0.1099  1.0000</r>
       <r>   0.1421  1.0000</r>
       <r>   0.1421  1.0000</r>
       <r>   0.1421  1.0000</r>
       <r>   0.1421  1.0000</r>
       <r>   0.1833  1.0000</r>
       <r>   0.1833  1.0000</r>
       <r>   0.1833  1.0000</r>
       <r>   0.1833  1.0000</r>
       <r>   0.3143  1.0000</r>
       <r>   0.3143  1.0000</r>
       <r>   0.3143  1.0000</r>
       <r>   0.3143  1.0000</r>
       <r>   0.3223  1.0000</r>
       <r>   0.3223  1.0000</r>
       <r>   0.3223  1.0000</r>
       <r>   0.3223  1.0000</r>
       <r>   0.5303  1.0000</r>
       <r>   0.6200  1.0000</r>
       <r>   0.6200  1.0000</r>
       <r>   0.6200  1.0000</r>
       <r>   0.6200  1.0000</r>
       <r>   0.6470  1.0000</r>
       <r>   0.6805  1.0000</r>
       <r>   0.6805  1.0000</r>
       <r>   0.6805  1.0000</r>
       <r>   0.6805  1.0000</r>
       <r>   0.7594  1.0000</r>
       <r>   0.7594  1.0000</r>
       <r>   0.7594  1.0000</r>
       <r>   0.7594  1.0000</r>
       <r>   0.8507  1.0000</r>
       <r>   0.8507  1.0000</r>
       <r>   0.8507  1.0000</r>
       <r>   0.8507  1.0000</r>
       <r>   0.8588  1.0000</r>
       <r>   0.8588  1.0000</r>
       <r>   0.8588  1.0000</r>
       <r>   0.8588  1.0000</r>
       <r>   0.9208  1.0000</r>
       <r>   0.9208  1.0000</r>
       <r>   0.9208  1.0000</r>
       <r>   0.9208  1.0000</r>
       <r>   0.9429  1.0000</r>
       <r>   0.9429  1.0000</r>
       <r>   1.0229  1.0000</r>
       <r>   1.0229  1.0000</r>
       <r>   1.0229  1.0000</r>
       <r>   1.0229  1.0000</r>
       <r>   1.0441  1.0000</r>
       <r>   1.0441  1.0000</r>
       <r>   1.2102  1.0000</r>
       <r>   1.2102  1.0000</r>
       <r>   1.2102  1.0000</r>
       <r>   1.2102  1.0000</r>
       <r>   1.2527  1.0000</r>
       <r>   1.2527  1.0000</r>
       <r>   1.4113  1.0000</r>
       <r>   1.4874  1.0000</r>
       <r>   1.4874  1.0000</r>
       <r>   1.4874  1.0000</r>
       <r>   1.4874  1.0000</r>
       <r>   1.4974  1.0000</r>
       <r>   1.4974  1.0000</r>
       <r>   1.4974  1.0000</r>
       <r>   1.4974  1.0000</r>
       <r>   1.4993  1.0000</r>
       <r>   1.4993  1.0000</r>
       <r>   1.4993  1.0000</r>
       <r>   1.4993  1.0000</r>
       <r>   1.5089  1.0000</r>
       <r>   1.5380  1.0000</r>
       <r>   1.5380  1.0000</r>
       <r>   1.5380  1.0000</r>
       <r>   1.5380  1.0000</r>
       <r>   1.5746  1.0000</r>
       <r>   1.5746  1.0000</r>
       <r>   1.5746  1.0000</r>
       <r>   1.5746  1.0000</r>
       <r>   1.5864  1.0000</r>
       <r>   1.5864  1.0000</r>
       <r>   1.5864  1.0000</r>
       <r>   1.5864  1.0000</r>
       <r>   1.6207  1.0000</r>
       <r>   1.6207  1.0000</r>
       <r>   1.7135  1.0000</r>
       <r>   1.7572  1.0000</r>
       <r>   1.8968  1.0000</r>
       <r>   1.8968  1.0000</r>
       <r>   1.9611  1.0000</r>
       <r>   1.9611  1.0000</r>
       <r>   1.9611  1.0000</r>
       <r>   1.9611  1.0000</r>
       <r>   2.0035  1.0000</r>
       <r>   2.0035  1.0000</r>
       <r>   2.0121  1.0000</r>
       <r>   2.0121  1.0000</r>
       <r>   2.0121  1.0000</r>
       <r>   2.0121  1.0000</r>
       <r>   2.0252  1.0000</r>
       <r>   2.0252  1.0000</r>
       <r>   2.0716  1.0000</r>
       <r>   2.0716  1.0000</r>
       <r>   2.0716  1.0000</r>
       <r>   2.0716  1.0000</r>
       <r>   2.1065  1.0000</r>
       <r>   2.1484  1.0000</r>
       <r>   2.1484  1.0000</r>
       <r>   2.1484  1.0000</r>
       <r>   2.1484  1.0000</r>
       <r>   2.1516  1.0000</r>
       <r>   2.1524  1.0000</r>
       <r>   2.1524  1.0000</r>
       <r>   2.2360  1.0000</r>
       <r>   2.2360  1.0000</r>
       <r>   2.2360  1.0000</r>
       <r>   2.2360  1.0000</r>
       <r>   2.2395  1.0000</r>
       <r>   2.3715  1.0000</r>
       <r>   2.3715  1.0000</r>
       <r>   2.3716  1.0000</r>
       <r>   2.3716  1.0000</r>
       <r>   2.4832  1.0000</r>
       <r>   2.4832  1.0000</r>
       <r>   2.4832  1.0000</r>
       <r>   2.4832  1.0000</r>
       <r>   3.1221  1.0000</r>
       <r>   3.3905  1.0000</r>
       <r>   3.3905  1.0000</r>
       <r>   3.3905  1.0000</r>
       <r>   3.3905  1.0000</r>
       <r>   3.4878  1.0000</r>
       <r>   3.4878  1.0000</r>
       <r>   3.4878  1.0000</r>
       <r>   3.4878  1.0000</r>
       <r>   5.8400  0.0000</r>
       <r>   5.8400  0.0000</r>
       <r>   5.8400  0.0000</r>
       <r>   5.8400  0.0000</r>
       <r>   6.6531  0.0000</r>
       <r>   6.6531  0.0000</r>
       <r>   6.9309  0.0000</r>
       <r>   6.9309  0.0000</r>
       <r>   6.9309  0.0000</r>
       <r>   6.9309  0.0000</r>
       <r>   7.4081  0.0000</r>
       <r>   7.4081  0.0000</r>
       <r>   9.1856  0.0000</r>
       <r>   9.1856  0.0000</r>
       <r>   9.1856  0.0000</r>
       <r>   9.1856  0.0000</r>
       <r>  10.2042  0.0000</r>
       <r>  10.2042  0.0000</r>
       <r>  10.2042  0.0000</r>
       <r>  10.2042  0.0000</r>
       <r>  10.8971  0.0000</r>
       <r>  10.8971  0.0000</r>
       <r>  10.8971  0.0000</r>
       <r>  10.8971  0.0000</r>
       <r>  11.3197  0.0000</r>
       <r>  11.3197  0.0000</r>
       <r>  11.4341  0.0000</r>
       <r>  11.4341  0.0000</r>
       <r>  11.4341  0.0000</r>
       <r>  11.4341  0.0000</r>
       <r>  11.4993  0.0000</r>
       <r>  11.4993  0.0000</r>
       <r>  13.0079  0.0000</r>
       <r>  13.0079  0.0000</r>
       <r>  13.0079  0.0000</r>
       <r>  13.0079  0.0000</r>
      </set>
      <set comment="kpoint 5">
       <r>  -5.4192  1.0000</r>
       <r>  -3.3691  1.0000</r>
       <r>  -3.3691  1.0000</r>
       <r>  -2.6611  1.0000</r>
       <r>  -2.6611  1.0000</r>
       <r>  -2.0704  1.0000</r>
       <r>  -2.0704  1.0000</r>
       <r>  -1.7044  1.0000</r>
       <r>  -1.2848  1.0000</r>
       <r>  -1.2848  1.0000</r>
       <r>  -1.2414  1.0000</r>
       <r>  -1.2414  1.0000</r>
       <r>  -1.2414  1.0000</r>
       <r>  -1.2414  1.0000</r>
       <r>  -1.1874  1.0000</r>
       <r>  -1.1874  1.0000</r>
       <r>  -1.0395  1.0000</r>
       <r>  -1.0395  1.0000</r>
       <r>  -1.0111  1.0000</r>
       <r>  -0.8118  1.0000</r>
       <r>  -0.8118  1.0000</r>
       <r>  -0.6008  1.0000</r>
       <r>  -0.6008  1.0000</r>
       <r>  -0.6008  1.0000</r>
       <r>  -0.6008  1.0000</r>
       <r>  -0.5747  1.0000</r>
       <r>  -0.5747  1.0000</r>
       <r>  -0.5739  1.0000</r>
       <r>  -0.3562  1.0000</r>
       <r>  -0.3506  1.0000</r>
       <r>  -0.3506  1.0000</r>
       <r>  -0.3446  1.0000</r>
       <r>  -0.3446  1.0000</r>
       <r>  -0.2731  1.0000</r>
       <r>  -0.2731  1.0000</r>
       <r>  -0.0662  1.0000</r>
       <r>  -0.0662  1.0000</r>
       <r>   0.0387  1.0000</r>
       <r>   0.0387  1.0000</r>
       <r>   0.0578  1.0000</r>
       <r>   0.0578  1.0000</r>
       <r>   0.0959  1.0000</r>
       <r>   0.0959  1.0000</r>
       <r>   0.2149  1.0000</r>
       <r>   0.2149  1.0000</r>
       <r>   0.2337  1.0000</r>
       <r>   0.2337  1.0000</r>
       <r>   0.2441  1.0000</r>
       <r>   0.2441  1.0000</r>
       <r>   0.2666  1.0000</r>
       <r>   0.2899  1.0000</r>
       <r>   0.3220  1.0000</r>
       <r>   0.3220  1.0000</r>
       <r>   0.3220  1.0000</r>
       <r>   0.3220  1.0000</r>
       <r>   0.3348  1.0000</r>
       <r>   0.3348  1.0000</r>
       <r>   0.3687  1.0000</r>
       <r>   0.3687  1.0000</r>
       <r>   0.3687  1.0000</r>
       <r>   0.3687  1.0000</r>
       <r>   0.3970  1.0000</r>
       <r>   0.4221  1.0000</r>
       <r>   0.4221  1.0000</r>
       <r>   0.4221  1.0000</r>
       <r>   0.4221  1.0000</r>
       <r>   0.4669  1.0000</r>
       <r>   0.4669  1.0000</r>
       <r>   0.5467  1.0000</r>
       <r>   0.5467  1.0000</r>
       <r>   0.5770  1.0000</r>
       <r>   0.5770  1.0000</r>
       <r>   0.6196  1.0000</r>
       <r>   0.6196  1.0000</r>
       <r>   0.6196  1.0000</r>
       <r>   0.6196  1.0000</r>
       <r>   0.7233  1.0000</r>
       <r>   0.7301  1.0000</r>
       <r>   0.7301  1.0000</r>
       <r>   0.7718  1.0000</r>
       <r>   0.7718  1.0000</r>
       <r>   0.7800  1.0000</r>
       <r>   0.8068  1.0000</r>
       <r>   0.8068  1.0000</r>
       <r>   0.8230  1.0000</r>
       <r>   0.8230  1.0000</r>
       <r>   0.8316  1.0000</r>
       <r>   0.8384  1.0000</r>
       <r>   1.0657  1.0000</r>
       <r>   1.0657  1.0000</r>
       <r>   1.1331  1.0000</r>
       <r>   1.1331  1.0000</r>
       <r>   1.1794  1.0000</r>
       <r>   1.1794  1.0000</r>
       <r>   1.2585  1.0000</r>
       <r>   1.2585  1.0000</r>
       <r>   1.2585  1.0000</r>
       <r>   1.2585  1.0000</r>
       <r>   1.3022  1.0000</r>
       <r>   1.3184  1.0000</r>
       <r>   1.3184  1.0000</r>
       <r>   1.3184  1.0000</r>
       <r>   1.3184  1.0000</r>
       <r>   1.3185  1.0000</r>
       <r>   1.3185  1.0000</r>
       <r>   1.3993  1.0000</r>
       <r>   1.3996  1.0000</r>
       <r>   1.3996  1.0000</r>
       <r>   1.4215  1.0000</r>
       <r>   1.4215  1.0000</r>
       <r>   1.4308  1.0000</r>
       <r>   1.4308  1.0000</r>
       <r>   1.4694  1.0000</r>
       <r>   1.6091  1.0000</r>
       <r>   1.6091  1.0000</r>
       <r>   1.6317  1.0000</r>
       <r>   1.6418  1.0000</r>
       <r>   1.6418  1.0000</r>
       <r>   1.6504  1.0000</r>
       <r>   1.6504  1.0000</r>
       <r>   1.6541  1.0000</r>
       <r>   1.6541  1.0000</r>
       <r>   1.6541  1.0000</r>
       <r>   1.6541  1.0000</r>
       <r>   1.6561  1.0000</r>
       <r>   1.6577  1.0000</r>
       <r>   1.6577  1.0000</r>
       <r>   1.6587  1.0000</r>
       <r>   1.6587  1.0000</r>
       <r>   1.7028  1.0000</r>
       <r>   1.7028  1.0000</r>
       <r>   1.7361  1.0000</r>
       <r>   1.7361  1.0000</r>
       <r>   1.7862  1.0000</r>
       <r>   1.7862  1.0000</r>
       <r>   1.8055  1.0000</r>
       <r>   1.8055  1.0000</r>
       <r>   1.8055  1.0000</r>
       <r>   1.8055  1.0000</r>
       <r>   1.8186  1.0000</r>
       <r>   1.8807  1.0000</r>
       <r>   1.8807  1.0000</r>
       <r>   1.9160  1.0000</r>
       <r>   1.9160  1.0000</r>
       <r>   1.9616  1.0000</r>
       <r>   1.9616  1.0000</r>
       <r>   2.0300  1.0000</r>
       <r>   2.0300  1.0000</r>
       <r>   2.1701  1.0000</r>
       <r>   2.1701  1.0000</r>
       <r>   2.1705  1.0000</r>
       <r>   2.1711  1.0000</r>
       <r>   2.2194  1.0000</r>
       <r>   2.2194  1.0000</r>
       <r>   2.2218  1.0000</r>
       <r>   2.2218  1.0000</r>
       <r>   2.2419  1.0000</r>
       <r>   2.2419  1.0000</r>
       <r>   2.3199  1.0000</r>
       <r>   2.3199  1.0000</r>
       <r>   2.3435  1.0000</r>
       <r>   2.3435  1.0000</r>
       <r>   2.3443  1.0000</r>
       <r>   2.3443  1.0000</r>
       <r>   2.3451  1.0000</r>
       <r>   2.3451  1.0000</r>
       <r>   2.3546  1.0000</r>
       <r>   2.7697  1.0000</r>
       <r>   2.7710  1.0000</r>
       <r>   2.7710  1.0000</r>
       <r>   3.1197  1.0000</r>
       <r>   3.1197  1.0000</r>
       <r>   3.1197  1.0000</r>
       <r>   3.1197  1.0000</r>
       <r>   3.4410  1.0000</r>
       <r>   3.4410  1.0000</r>
       <r>   3.6213  1.0000</r>
       <r>   3.6213  1.0000</r>
       <r>   4.1607  0.0000</r>
       <r>   4.1607  0.0000</r>
       <r>   4.1607  0.0000</r>
       <r>   4.1607  0.0000</r>
       <r>   4.8314  0.0000</r>
       <r>   5.1759  0.0000</r>
       <r>   5.1759  0.0000</r>
       <r>   5.7305  0.0000</r>
       <r>   7.7461  0.0000</r>
       <r>   7.7461  0.0000</r>
       <r>   8.3386  0.0000</r>
       <r>   8.3386  0.0000</r>
       <r>   8.5178  0.0000</r>
       <r>   8.5178  0.0000</r>
       <r>   9.2650  0.0000</r>
       <r>   9.2650  0.0000</r>
       <r>   9.2809  0.0000</r>
       <r>   9.2809  0.0000</r>
       <r>   9.6880  0.0000</r>
       <r>   9.6880  0.0000</r>
       <r>  10.3255  0.0000</r>
       <r>  10.3255  0.0000</r>
       <r>  11.1517  0.0000</r>
       <r>  11.2887  0.0000</r>
       <r>  11.2887  0.0000</r>
       <r>  11.6527  0.0000</r>
       <r>  11.6527  0.0000</r>
       <r>  11.9200  0.0000</r>
       <r>  11.9200  0.0000</r>
       <r>  11.9200  0.0000</r>
       <r>  11.9200  0.0000</r>
       <r>  11.9753  0.0000</r>
       <r>  12.1709  0.0000</r>
       <r>  12.1709  0.0000</r>
       <r>  12.7665  0.0000</r>
       <r>  12.7665  0.0000</r>
       <r>  13.3112  0.0000</r>
       <r>  13.3113  0.0000</r>
      </set>
      <set comment="kpoint 6">
       <r>  -5.2328  1.0000</r>
       <r>  -3.9787  1.0000</r>
       <r>  -3.2078  1.0000</r>
       <r>  -2.5144  1.0000</r>
       <r>  -2.5144  1.0000</r>
       <r>  -2.1703  1.0000</r>
       <r>  -1.9335  1.0000</r>
       <r>  -1.6129  1.0000</r>
       <r>  -1.6129  1.0000</r>
       <r>  -1.5507  1.0000</r>
       <r>  -1.2974  1.0000</r>
       <r>  -1.2974  1.0000</r>
       <r>  -1.2563  1.0000</r>
       <r>  -1.2563  1.0000</r>
       <r>  -1.1209  1.0000</r>
       <r>  -1.0994  1.0000</r>
       <r>  -1.0994  1.0000</r>
       <r>  -1.0466  1.0000</r>
       <r>  -0.9525  1.0000</r>
       <r>  -0.9270  1.0000</r>
       <r>  -0.7194  1.0000</r>
       <r>  -0.7194  1.0000</r>
       <r>  -0.5256  1.0000</r>
       <r>  -0.5218  1.0000</r>
       <r>  -0.5217  1.0000</r>
       <r>  -0.4840  1.0000</r>
       <r>  -0.4763  1.0000</r>
       <r>  -0.4737  1.0000</r>
       <r>  -0.3666  1.0000</r>
       <r>  -0.3666  1.0000</r>
       <r>  -0.3020  1.0000</r>
       <r>  -0.2740  1.0000</r>
       <r>  -0.2226  1.0000</r>
       <r>  -0.2111  1.0000</r>
       <r>  -0.2066  1.0000</r>
       <r>  -0.2066  1.0000</r>
       <r>  -0.1542  1.0000</r>
       <r>  -0.1441  1.0000</r>
       <r>  -0.0372  1.0000</r>
       <r>   0.0035  1.0000</r>
       <r>   0.0779  1.0000</r>
       <r>   0.1194  1.0000</r>
       <r>   0.1194  1.0000</r>
       <r>   0.1237  1.0000</r>
       <r>   0.1237  1.0000</r>
       <r>   0.1272  1.0000</r>
       <r>   0.1497  1.0000</r>
       <r>   0.1919  1.0000</r>
       <r>   0.2296  1.0000</r>
       <r>   0.2296  1.0000</r>
       <r>   0.2568  1.0000</r>
       <r>   0.2645  1.0000</r>
       <r>   0.2645  1.0000</r>
       <r>   0.2964  1.0000</r>
       <r>   0.3351  1.0000</r>
       <r>   0.3679  1.0000</r>
       <r>   0.3679  1.0000</r>
       <r>   0.3940  1.0000</r>
       <r>   0.4149  1.0000</r>
       <r>   0.4149  1.0000</r>
       <r>   0.4344  1.0000</r>
       <r>   0.4344  1.0000</r>
       <r>   0.4556  1.0000</r>
       <r>   0.4625  1.0000</r>
       <r>   0.4825  1.0000</r>
       <r>   0.4825  1.0000</r>
       <r>   0.5587  1.0000</r>
       <r>   0.5662  1.0000</r>
       <r>   0.5996  1.0000</r>
       <r>   0.5996  1.0000</r>
       <r>   0.6506  1.0000</r>
       <r>   0.6506  1.0000</r>
       <r>   0.6708  1.0000</r>
       <r>   0.6708  1.0000</r>
       <r>   0.6891  1.0000</r>
       <r>   0.6891  1.0000</r>
       <r>   0.7299  1.0000</r>
       <r>   0.7573  1.0000</r>
       <r>   0.7573  1.0000</r>
       <r>   0.7999  1.0000</r>
       <r>   0.8474  1.0000</r>
       <r>   0.8474  1.0000</r>
       <r>   0.8603  1.0000</r>
       <r>   0.8721  1.0000</r>
       <r>   0.8796  1.0000</r>
       <r>   0.8817  1.0000</r>
       <r>   0.8817  1.0000</r>
       <r>   0.8902  1.0000</r>
       <r>   0.9615  1.0000</r>
       <r>   0.9615  1.0000</r>
       <r>   0.9962  1.0000</r>
       <r>   1.0227  1.0000</r>
       <r>   1.1203  1.0000</r>
       <r>   1.1336  1.0000</r>
       <r>   1.1336  1.0000</r>
       <r>   1.1710  1.0000</r>
       <r>   1.2017  1.0000</r>
       <r>   1.2017  1.0000</r>
       <r>   1.2979  1.0000</r>
       <r>   1.2979  1.0000</r>
       <r>   1.3206  1.0000</r>
       <r>   1.3372  1.0000</r>
       <r>   1.3574  1.0000</r>
       <r>   1.3952  1.0000</r>
       <r>   1.3952  1.0000</r>
       <r>   1.3962  1.0000</r>
       <r>   1.4001  1.0000</r>
       <r>   1.4081  1.0000</r>
       <r>   1.4081  1.0000</r>
       <r>   1.4679  1.0000</r>
       <r>   1.4697  1.0000</r>
       <r>   1.4796  1.0000</r>
       <r>   1.4796  1.0000</r>
       <r>   1.5147  1.0000</r>
       <r>   1.5232  1.0000</r>
       <r>   1.5345  1.0000</r>
       <r>   1.5345  1.0000</r>
       <r>   1.5880  1.0000</r>
       <r>   1.5941  1.0000</r>
       <r>   1.5941  1.0000</r>
       <r>   1.6340  1.0000</r>
       <r>   1.6429  1.0000</r>
       <r>   1.6429  1.0000</r>
       <r>   1.6572  1.0000</r>
       <r>   1.6623  1.0000</r>
       <r>   1.6739  1.0000</r>
       <r>   1.6763  1.0000</r>
       <r>   1.7264  1.0000</r>
       <r>   1.7264  1.0000</r>
       <r>   1.7536  1.0000</r>
       <r>   1.7683  1.0000</r>
       <r>   1.7709  1.0000</r>
       <r>   1.7942  1.0000</r>
       <r>   1.7942  1.0000</r>
       <r>   1.8151  1.0000</r>
       <r>   1.8344  1.0000</r>
       <r>   1.8503  1.0000</r>
       <r>   1.9141  1.0000</r>
       <r>   1.9181  1.0000</r>
       <r>   1.9181  1.0000</r>
       <r>   1.9184  1.0000</r>
       <r>   1.9205  1.0000</r>
       <r>   1.9205  1.0000</r>
       <r>   1.9243  1.0000</r>
       <r>   1.9382  1.0000</r>
       <r>   1.9577  1.0000</r>
       <r>   2.0372  1.0000</r>
       <r>   2.0372  1.0000</r>
       <r>   2.0923  1.0000</r>
       <r>   2.1079  1.0000</r>
       <r>   2.1355  1.0000</r>
       <r>   2.1503  1.0000</r>
       <r>   2.1650  1.0000</r>
       <r>   2.1650  1.0000</r>
       <r>   2.1939  1.0000</r>
       <r>   2.1939  1.0000</r>
       <r>   2.2012  1.0000</r>
       <r>   2.2068  1.0000</r>
       <r>   2.2528  1.0000</r>
       <r>   2.2528  1.0000</r>
       <r>   2.2648  1.0000</r>
       <r>   2.2656  1.0000</r>
       <r>   2.2696  1.0000</r>
       <r>   2.3431  1.0000</r>
       <r>   2.3446  1.0000</r>
       <r>   2.3451  1.0000</r>
       <r>   2.3455  1.0000</r>
       <r>   2.4873  1.0000</r>
       <r>   2.7643  1.0000</r>
       <r>   2.7643  1.0000</r>
       <r>   2.8118  1.0000</r>
       <r>   2.8118  1.0000</r>
       <r>   3.0822  1.0000</r>
       <r>   3.0822  1.0000</r>
       <r>   3.1789  1.0000</r>
       <r>   3.8023  1.0000</r>
       <r>   3.8023  1.0000</r>
       <r>   4.1534  0.0000</r>
       <r>   4.1534  0.0000</r>
       <r>   4.2852  0.0000</r>
       <r>   4.2939  0.0000</r>
       <r>   4.9213  0.0000</r>
       <r>   4.9213  0.0000</r>
       <r>   5.6111  0.0000</r>
       <r>   5.6545  0.0000</r>
       <r>   6.1596  0.0000</r>
       <r>   7.3459  0.0000</r>
       <r>   7.6868  0.0000</r>
       <r>   7.9716  0.0000</r>
       <r>   7.9716  0.0000</r>
       <r>   8.1646  0.0000</r>
       <r>   8.1646  0.0000</r>
       <r>   8.3514  0.0000</r>
       <r>   9.0170  0.0000</r>
       <r>   9.0389  0.0000</r>
       <r>   9.0389  0.0000</r>
       <r>   9.5289  0.0000</r>
       <r>   9.7831  0.0000</r>
       <r>   9.7831  0.0000</r>
       <r>  10.6417  0.0000</r>
       <r>  10.6417  0.0000</r>
       <r>  11.1907  0.0000</r>
       <r>  11.2210  0.0000</r>
       <r>  11.2218  0.0000</r>
       <r>  11.2218  0.0000</r>
       <r>  11.2589  0.0000</r>
       <r>  11.5277  0.0000</r>
       <r>  11.7420  0.0000</r>
       <r>  11.8934  0.0000</r>
       <r>  12.2590  0.0000</r>
       <r>  12.2590  0.0000</r>
       <r>  12.3134  0.0000</r>
       <r>  12.3852  0.0000</r>
       <r>  12.4330  0.0000</r>
       <r>  12.9291  0.0000</r>
       <r>  13.0722  0.0000</r>
      </set>
      <set comment="kpoint 7">
       <r>  -4.9256  1.0000</r>
       <r>  -4.5040  1.0000</r>
       <r>  -2.9456  1.0000</r>
       <r>  -2.5936  1.0000</r>
       <r>  -2.2790  1.0000</r>
       <r>  -2.2790  1.0000</r>
       <r>  -1.9703  1.0000</r>
       <r>  -1.9703  1.0000</r>
       <r>  -1.7159  1.0000</r>
       <r>  -1.4355  1.0000</r>
       <r>  -1.2920  1.0000</r>
       <r>  -1.2920  1.0000</r>
       <r>  -1.2756  1.0000</r>
       <r>  -1.2756  1.0000</r>
       <r>  -1.2323  1.0000</r>
       <r>  -1.0910  1.0000</r>
       <r>  -0.9873  1.0000</r>
       <r>  -0.9873  1.0000</r>
       <r>  -0.8567  1.0000</r>
       <r>  -0.8567  1.0000</r>
       <r>  -0.8178  1.0000</r>
       <r>  -0.7971  1.0000</r>
       <r>  -0.6526  1.0000</r>
       <r>  -0.6374  1.0000</r>
       <r>  -0.4461  1.0000</r>
       <r>  -0.4342  1.0000</r>
       <r>  -0.4330  1.0000</r>
       <r>  -0.3397  1.0000</r>
       <r>  -0.3115  1.0000</r>
       <r>  -0.3074  1.0000</r>
       <r>  -0.2785  1.0000</r>
       <r>  -0.2505  1.0000</r>
       <r>  -0.1869  1.0000</r>
       <r>  -0.1869  1.0000</r>
       <r>  -0.1645  1.0000</r>
       <r>  -0.1281  1.0000</r>
       <r>  -0.1219  1.0000</r>
       <r>  -0.1219  1.0000</r>
       <r>  -0.0505  1.0000</r>
       <r>  -0.0214  1.0000</r>
       <r>   0.0100  1.0000</r>
       <r>   0.0266  1.0000</r>
       <r>   0.0266  1.0000</r>
       <r>   0.0735  1.0000</r>
       <r>   0.0804  1.0000</r>
       <r>   0.0804  1.0000</r>
       <r>   0.1092  1.0000</r>
       <r>   0.1486  1.0000</r>
       <r>   0.1572  1.0000</r>
       <r>   0.1572  1.0000</r>
       <r>   0.2070  1.0000</r>
       <r>   0.2070  1.0000</r>
       <r>   0.2738  1.0000</r>
       <r>   0.2744  1.0000</r>
       <r>   0.2893  1.0000</r>
       <r>   0.3389  1.0000</r>
       <r>   0.3920  1.0000</r>
       <r>   0.3920  1.0000</r>
       <r>   0.4081  1.0000</r>
       <r>   0.4081  1.0000</r>
       <r>   0.5118  1.0000</r>
       <r>   0.5118  1.0000</r>
       <r>   0.5119  1.0000</r>
       <r>   0.5298  1.0000</r>
       <r>   0.5455  1.0000</r>
       <r>   0.5949  1.0000</r>
       <r>   0.5949  1.0000</r>
       <r>   0.6441  1.0000</r>
       <r>   0.6749  1.0000</r>
       <r>   0.6808  1.0000</r>
       <r>   0.6808  1.0000</r>
       <r>   0.7265  1.0000</r>
       <r>   0.7265  1.0000</r>
       <r>   0.7574  1.0000</r>
       <r>   0.7574  1.0000</r>
       <r>   0.7620  1.0000</r>
       <r>   0.7620  1.0000</r>
       <r>   0.8221  1.0000</r>
       <r>   0.8533  1.0000</r>
       <r>   0.8533  1.0000</r>
       <r>   0.8558  1.0000</r>
       <r>   0.8558  1.0000</r>
       <r>   0.8603  1.0000</r>
       <r>   0.9145  1.0000</r>
       <r>   0.9145  1.0000</r>
       <r>   0.9309  1.0000</r>
       <r>   0.9446  1.0000</r>
       <r>   0.9467  1.0000</r>
       <r>   0.9667  1.0000</r>
       <r>   0.9667  1.0000</r>
       <r>   1.0177  1.0000</r>
       <r>   1.0177  1.0000</r>
       <r>   1.0343  1.0000</r>
       <r>   1.0451  1.0000</r>
       <r>   1.0804  1.0000</r>
       <r>   1.0804  1.0000</r>
       <r>   1.1176  1.0000</r>
       <r>   1.1176  1.0000</r>
       <r>   1.1612  1.0000</r>
       <r>   1.1612  1.0000</r>
       <r>   1.2060  1.0000</r>
       <r>   1.2309  1.0000</r>
       <r>   1.3292  1.0000</r>
       <r>   1.3398  1.0000</r>
       <r>   1.3398  1.0000</r>
       <r>   1.3517  1.0000</r>
       <r>   1.3699  1.0000</r>
       <r>   1.3699  1.0000</r>
       <r>   1.4071  1.0000</r>
       <r>   1.4260  1.0000</r>
       <r>   1.4653  1.0000</r>
       <r>   1.4948  1.0000</r>
       <r>   1.4948  1.0000</r>
       <r>   1.5143  1.0000</r>
       <r>   1.5427  1.0000</r>
       <r>   1.5582  1.0000</r>
       <r>   1.5582  1.0000</r>
       <r>   1.5706  1.0000</r>
       <r>   1.5841  1.0000</r>
       <r>   1.5997  1.0000</r>
       <r>   1.6040  1.0000</r>
       <r>   1.6220  1.0000</r>
       <r>   1.6490  1.0000</r>
       <r>   1.6581  1.0000</r>
       <r>   1.6631  1.0000</r>
       <r>   1.6732  1.0000</r>
       <r>   1.6732  1.0000</r>
       <r>   1.7092  1.0000</r>
       <r>   1.7105  1.0000</r>
       <r>   1.7159  1.0000</r>
       <r>   1.7176  1.0000</r>
       <r>   1.7176  1.0000</r>
       <r>   1.7572  1.0000</r>
       <r>   1.8840  1.0000</r>
       <r>   1.9030  1.0000</r>
       <r>   1.9353  1.0000</r>
       <r>   1.9353  1.0000</r>
       <r>   1.9454  1.0000</r>
       <r>   2.0031  1.0000</r>
       <r>   2.0032  1.0000</r>
       <r>   2.0089  1.0000</r>
       <r>   2.0300  1.0000</r>
       <r>   2.0315  1.0000</r>
       <r>   2.0325  1.0000</r>
       <r>   2.0325  1.0000</r>
       <r>   2.0407  1.0000</r>
       <r>   2.0407  1.0000</r>
       <r>   2.0622  1.0000</r>
       <r>   2.0622  1.0000</r>
       <r>   2.0678  1.0000</r>
       <r>   2.0956  1.0000</r>
       <r>   2.1281  1.0000</r>
       <r>   2.1281  1.0000</r>
       <r>   2.1469  1.0000</r>
       <r>   2.1521  1.0000</r>
       <r>   2.1533  1.0000</r>
       <r>   2.1551  1.0000</r>
       <r>   2.1551  1.0000</r>
       <r>   2.1608  1.0000</r>
       <r>   2.2226  1.0000</r>
       <r>   2.2226  1.0000</r>
       <r>   2.2558  1.0000</r>
       <r>   2.3429  1.0000</r>
       <r>   2.3434  1.0000</r>
       <r>   2.3449  1.0000</r>
       <r>   2.3450  1.0000</r>
       <r>   2.4704  1.0000</r>
       <r>   2.4704  1.0000</r>
       <r>   2.4768  1.0000</r>
       <r>   2.5535  1.0000</r>
       <r>   2.8035  1.0000</r>
       <r>   2.9227  1.0000</r>
       <r>   2.9227  1.0000</r>
       <r>   3.0169  1.0000</r>
       <r>   3.0169  1.0000</r>
       <r>   3.3330  1.0000</r>
       <r>   4.0210  0.0000</r>
       <r>   4.0210  0.0000</r>
       <r>   4.1199  0.0000</r>
       <r>   4.1199  0.0000</r>
       <r>   5.1438  0.0000</r>
       <r>   5.8587  0.0000</r>
       <r>   5.8587  0.0000</r>
       <r>   6.1802  0.0000</r>
       <r>   6.2108  0.0000</r>
       <r>   6.6359  0.0000</r>
       <r>   6.7743  0.0000</r>
       <r>   6.9129  0.0000</r>
       <r>   6.9541  0.0000</r>
       <r>   6.9541  0.0000</r>
       <r>   7.5155  0.0000</r>
       <r>   7.7650  0.0000</r>
       <r>   8.5755  0.0000</r>
       <r>   8.5755  0.0000</r>
       <r>   9.4950  0.0000</r>
       <r>   9.4950  0.0000</r>
       <r>   9.9465  0.0000</r>
       <r>   9.9465  0.0000</r>
       <r>   9.9507  0.0000</r>
       <r>  10.1381  0.0000</r>
       <r>  10.1381  0.0000</r>
       <r>  10.5108  0.0000</r>
       <r>  10.6241  0.0000</r>
       <r>  10.6241  0.0000</r>
       <r>  11.0292  0.0000</r>
       <r>  11.0292  0.0000</r>
       <r>  11.3391  0.0000</r>
       <r>  11.4957  0.0000</r>
       <r>  11.8971  0.0000</r>
       <r>  11.9141  0.0000</r>
       <r>  12.1257  0.0000</r>
       <r>  12.4337  0.0000</r>
       <r>  12.4529  0.0000</r>
       <r>  12.5248  0.0000</r>
       <r>  12.8226  0.0000</r>
       <r>  13.5310  0.0000</r>
      </set>
      <set comment="kpoint 8">
       <r>  -5.0482  1.0000</r>
       <r>  -3.8087  1.0000</r>
       <r>  -3.8087  1.0000</r>
       <r>  -2.6915  1.0000</r>
       <r>  -2.3782  1.0000</r>
       <r>  -2.3782  1.0000</r>
       <r>  -1.5714  1.0000</r>
       <r>  -1.5714  1.0000</r>
       <r>  -1.5714  1.0000</r>
       <r>  -1.5714  1.0000</r>
       <r>  -1.4271  1.0000</r>
       <r>  -1.4271  1.0000</r>
       <r>  -1.3759  1.0000</r>
       <r>  -1.3759  1.0000</r>
       <r>  -0.9733  1.0000</r>
       <r>  -0.9733  1.0000</r>
       <r>  -0.9548  1.0000</r>
       <r>  -0.9548  1.0000</r>
       <r>  -0.8474  1.0000</r>
       <r>  -0.7200  1.0000</r>
       <r>  -0.7200  1.0000</r>
       <r>  -0.5077  1.0000</r>
       <r>  -0.5077  1.0000</r>
       <r>  -0.5077  1.0000</r>
       <r>  -0.5077  1.0000</r>
       <r>  -0.4749  1.0000</r>
       <r>  -0.4749  1.0000</r>
       <r>  -0.4736  1.0000</r>
       <r>  -0.4530  1.0000</r>
       <r>  -0.4530  1.0000</r>
       <r>  -0.4080  1.0000</r>
       <r>  -0.4080  1.0000</r>
       <r>  -0.2068  1.0000</r>
       <r>  -0.1750  1.0000</r>
       <r>  -0.1750  1.0000</r>
       <r>  -0.1520  1.0000</r>
       <r>  -0.1520  1.0000</r>
       <r>  -0.1360  1.0000</r>
       <r>  -0.1360  1.0000</r>
       <r>  -0.1140  1.0000</r>
       <r>  -0.1140  1.0000</r>
       <r>  -0.0061  1.0000</r>
       <r>  -0.0061  1.0000</r>
       <r>   0.0169  1.0000</r>
       <r>   0.0708  1.0000</r>
       <r>   0.0708  1.0000</r>
       <r>   0.1506  1.0000</r>
       <r>   0.1506  1.0000</r>
       <r>   0.2811  1.0000</r>
       <r>   0.2811  1.0000</r>
       <r>   0.2811  1.0000</r>
       <r>   0.2811  1.0000</r>
       <r>   0.3499  1.0000</r>
       <r>   0.3797  1.0000</r>
       <r>   0.3797  1.0000</r>
       <r>   0.3797  1.0000</r>
       <r>   0.3797  1.0000</r>
       <r>   0.3978  1.0000</r>
       <r>   0.3978  1.0000</r>
       <r>   0.4475  1.0000</r>
       <r>   0.4475  1.0000</r>
       <r>   0.4771  1.0000</r>
       <r>   0.4771  1.0000</r>
       <r>   0.5831  1.0000</r>
       <r>   0.5831  1.0000</r>
       <r>   0.5934  1.0000</r>
       <r>   0.5940  1.0000</r>
       <r>   0.5940  1.0000</r>
       <r>   0.5940  1.0000</r>
       <r>   0.5940  1.0000</r>
       <r>   0.6982  1.0000</r>
       <r>   0.7096  1.0000</r>
       <r>   0.7096  1.0000</r>
       <r>   0.7096  1.0000</r>
       <r>   0.7096  1.0000</r>
       <r>   0.7506  1.0000</r>
       <r>   0.7506  1.0000</r>
       <r>   0.7541  1.0000</r>
       <r>   0.7541  1.0000</r>
       <r>   0.8556  1.0000</r>
       <r>   0.8556  1.0000</r>
       <r>   0.8842  1.0000</r>
       <r>   0.8872  1.0000</r>
       <r>   0.8872  1.0000</r>
       <r>   0.8967  1.0000</r>
       <r>   0.9071  1.0000</r>
       <r>   0.9071  1.0000</r>
       <r>   0.9103  1.0000</r>
       <r>   0.9523  1.0000</r>
       <r>   0.9523  1.0000</r>
       <r>   1.0464  1.0000</r>
       <r>   1.0464  1.0000</r>
       <r>   1.1257  1.0000</r>
       <r>   1.1257  1.0000</r>
       <r>   1.1628  1.0000</r>
       <r>   1.1628  1.0000</r>
       <r>   1.1628  1.0000</r>
       <r>   1.1628  1.0000</r>
       <r>   1.1753  1.0000</r>
       <r>   1.1753  1.0000</r>
       <r>   1.2376  1.0000</r>
       <r>   1.2376  1.0000</r>
       <r>   1.2664  1.0000</r>
       <r>   1.2664  1.0000</r>
       <r>   1.2937  1.0000</r>
       <r>   1.2937  1.0000</r>
       <r>   1.2937  1.0000</r>
       <r>   1.2937  1.0000</r>
       <r>   1.2959  1.0000</r>
       <r>   1.3070  1.0000</r>
       <r>   1.3070  1.0000</r>
       <r>   1.3328  1.0000</r>
       <r>   1.4150  1.0000</r>
       <r>   1.4150  1.0000</r>
       <r>   1.5289  1.0000</r>
       <r>   1.5525  1.0000</r>
       <r>   1.5525  1.0000</r>
       <r>   1.5716  1.0000</r>
       <r>   1.6288  1.0000</r>
       <r>   1.6288  1.0000</r>
       <r>   1.6751  1.0000</r>
       <r>   1.7259  1.0000</r>
       <r>   1.7259  1.0000</r>
       <r>   1.7402  1.0000</r>
       <r>   1.7752  1.0000</r>
       <r>   1.7752  1.0000</r>
       <r>   1.7946  1.0000</r>
       <r>   1.7946  1.0000</r>
       <r>   1.8072  1.0000</r>
       <r>   1.8072  1.0000</r>
       <r>   1.8072  1.0000</r>
       <r>   1.8072  1.0000</r>
       <r>   1.8334  1.0000</r>
       <r>   1.8334  1.0000</r>
       <r>   1.8383  1.0000</r>
       <r>   1.8383  1.0000</r>
       <r>   1.8475  1.0000</r>
       <r>   1.8475  1.0000</r>
       <r>   1.9008  1.0000</r>
       <r>   1.9008  1.0000</r>
       <r>   1.9313  1.0000</r>
       <r>   1.9313  1.0000</r>
       <r>   1.9763  1.0000</r>
       <r>   2.0141  1.0000</r>
       <r>   2.0141  1.0000</r>
       <r>   2.0141  1.0000</r>
       <r>   2.0141  1.0000</r>
       <r>   2.0264  1.0000</r>
       <r>   2.0264  1.0000</r>
       <r>   2.0510  1.0000</r>
       <r>   2.1343  1.0000</r>
       <r>   2.1343  1.0000</r>
       <r>   2.1929  1.0000</r>
       <r>   2.1929  1.0000</r>
       <r>   2.2036  1.0000</r>
       <r>   2.2036  1.0000</r>
       <r>   2.2190  1.0000</r>
       <r>   2.2190  1.0000</r>
       <r>   2.2622  1.0000</r>
       <r>   2.2663  1.0000</r>
       <r>   2.2663  1.0000</r>
       <r>   2.2666  1.0000</r>
       <r>   2.2666  1.0000</r>
       <r>   2.2692  1.0000</r>
       <r>   2.2692  1.0000</r>
       <r>   2.3051  1.0000</r>
       <r>   2.4779  1.0000</r>
       <r>   2.4779  1.0000</r>
       <r>   2.6084  1.0000</r>
       <r>   2.6084  1.0000</r>
       <r>   2.7260  1.0000</r>
       <r>   2.7260  1.0000</r>
       <r>   2.7260  1.0000</r>
       <r>   2.7260  1.0000</r>
       <r>   3.7505  1.0000</r>
       <r>   3.7505  1.0000</r>
       <r>   4.3653  0.0000</r>
       <r>   4.3653  0.0000</r>
       <r>   4.7209  0.0000</r>
       <r>   4.7209  0.0000</r>
       <r>   4.9375  0.0000</r>
       <r>   4.9375  0.0000</r>
       <r>   4.9375  0.0000</r>
       <r>   4.9375  0.0000</r>
       <r>   6.5308  0.0000</r>
       <r>   6.5462  0.0000</r>
       <r>   6.6017  0.0000</r>
       <r>   6.6017  0.0000</r>
       <r>   7.8534  0.0000</r>
       <r>   7.8534  0.0000</r>
       <r>   7.9276  0.0000</r>
       <r>   7.9276  0.0000</r>
       <r>   8.6349  0.0000</r>
       <r>   8.6349  0.0000</r>
       <r>   8.9674  0.0000</r>
       <r>   8.9674  0.0000</r>
       <r>   9.8622  0.0000</r>
       <r>   9.8622  0.0000</r>
       <r>   9.9573  0.0000</r>
       <r>   9.9573  0.0000</r>
       <r>   9.9862  0.0000</r>
[...]
       <r>   1.3157  1.0000</r>
       <r>   1.3916  1.0000</r>
       <r>   1.4340  1.0000</r>
       <r>   1.4340  1.0000</r>
       <r>   1.4668  1.0000</r>
       <r>   1.4668  1.0000</r>
       <r>   1.4917  1.0000</r>
       <r>   1.4917  1.0000</r>
       <r>   1.4961  1.0000</r>
       <r>   1.4961  1.0000</r>
       <r>   1.5292  1.0000</r>
       <r>   1.5696  1.0000</r>
       <r>   1.5720  1.0000</r>
       <r>   1.5720  1.0000</r>
       <r>   1.5977  1.0000</r>
       <r>   1.5977  1.0000</r>
       <r>   1.5990  1.0000</r>
       <r>   1.5990  1.0000</r>
       <r>   1.6001  1.0000</r>
       <r>   1.6001  1.0000</r>
       <r>   1.6817  1.0000</r>
       <r>   1.7036  1.0000</r>
       <r>   1.7573  1.0000</r>
       <r>   1.7573  1.0000</r>
       <r>   1.7715  1.0000</r>
       <r>   1.7715  1.0000</r>
       <r>   1.8318  1.0000</r>
       <r>   1.8596  1.0000</r>
       <r>   1.8596  1.0000</r>
       <r>   1.8960  1.0000</r>
       <r>   1.8988  1.0000</r>
       <r>   1.8988  1.0000</r>
       <r>   2.0285  1.0000</r>
       <r>   2.0285  1.0000</r>
       <r>   2.0604  1.0000</r>
       <r>   2.1243  1.0000</r>
       <r>   2.1243  1.0000</r>
       <r>   2.1369  1.0000</r>
       <r>   2.1476  1.0000</r>
       <r>   2.1476  1.0000</r>
       <r>   2.1483  1.0000</r>
       <r>   2.1483  1.0000</r>
       <r>   2.1645  1.0000</r>
       <r>   2.1728  1.0000</r>
       <r>   2.1728  1.0000</r>
       <r>   2.1760  1.0000</r>
       <r>   2.1760  1.0000</r>
       <r>   2.1990  1.0000</r>
       <r>   2.1990  1.0000</r>
       <r>   2.2019  1.0000</r>
       <r>   2.2019  1.0000</r>
       <r>   2.2185  1.0000</r>
       <r>   2.2329  1.0000</r>
       <r>   2.2329  1.0000</r>
       <r>   2.2442  1.0000</r>
       <r>   2.2588  1.0000</r>
       <r>   2.2588  1.0000</r>
       <r>   2.2838  1.0000</r>
       <r>   2.2850  1.0000</r>
       <r>   2.2850  1.0000</r>
       <r>   2.9946  1.0000</r>
       <r>   2.9946  1.0000</r>
       <r>   3.3388  1.0000</r>
       <r>   3.3744  1.0000</r>
       <r>   3.3744  1.0000</r>
       <r>   3.9024  0.6116</r>
       <r>   3.9024  0.6115</r>
       <r>   4.0264  0.0000</r>
       <r>   4.0264  0.0000</r>
       <r>   4.1918  0.0000</r>
       <r>   4.6685  0.0000</r>
       <r>   4.6685  0.0000</r>
       <r>   5.1109  0.0000</r>
       <r>   5.6549  0.0000</r>
       <r>   5.6549  0.0000</r>
       <r>   5.7003  0.0000</r>
       <r>   5.7003  0.0000</r>
       <r>   5.9626  0.0000</r>
       <r>   6.2237  0.0000</r>
       <r>   6.2237  0.0000</r>
       <r>   7.0547  0.0000</r>
       <r>   7.0547  0.0000</r>
       <r>   7.0839  0.0000</r>
       <r>   7.0839  0.0000</r>
       <r>   8.1935  0.0000</r>
       <r>   8.2553  0.0000</r>
       <r>   8.5405  0.0000</r>
       <r>   8.5405  0.0000</r>
       <r>   9.1983  0.0000</r>
       <r>   9.1983  0.0000</r>
       <r>   9.4764  0.0000</r>
       <r>   9.4764  0.0000</r>
       <r>  10.5336  0.0000</r>
       <r>  10.5336  0.0000</r>
       <r>  10.7018  0.0000</r>
       <r>  10.7018  0.0000</r>
       <r>  11.1727  0.0000</r>
       <r>  11.1727  0.0000</r>
       <r>  11.3596  0.0000</r>
       <r>  11.3596  0.0000</r>
       <r>  12.4694  0.0000</r>
       <r>  12.4694  0.0000</r>
       <r>  12.6437  0.0000</r>
       <r>  12.7946  0.0000</r>
       <r>  12.7946  0.0000</r>
       <r>  13.4493  0.0000</r>
       <r>  13.4493  0.0000</r>
       <r>  13.7391  0.0000</r>
      </set>
      <set comment="kpoint 19">
       <r>  -4.2154  1.0000</r>
       <r>  -3.8171  1.0000</r>
       <r>  -3.8171  1.0000</r>
       <r>  -3.4353  1.0000</r>
       <r>  -3.0766  1.0000</r>
       <r>  -2.7463  1.0000</r>
       <r>  -2.7463  1.0000</r>
       <r>  -2.4584  1.0000</r>
       <r>  -1.0344  1.0000</r>
       <r>  -0.9262  1.0000</r>
       <r>  -0.9262  1.0000</r>
       <r>  -0.9033  1.0000</r>
       <r>  -0.8594  1.0000</r>
       <r>  -0.8594  1.0000</r>
       <r>  -0.7438  1.0000</r>
       <r>  -0.7438  1.0000</r>
       <r>  -0.6967  1.0000</r>
       <r>  -0.6967  1.0000</r>
       <r>  -0.6615  1.0000</r>
       <r>  -0.6615  1.0000</r>
       <r>  -0.6097  1.0000</r>
       <r>  -0.5934  1.0000</r>
       <r>  -0.5934  1.0000</r>
       <r>  -0.5844  1.0000</r>
       <r>  -0.5844  1.0000</r>
       <r>  -0.4819  1.0000</r>
       <r>  -0.4819  1.0000</r>
       <r>  -0.4803  1.0000</r>
       <r>  -0.4803  1.0000</r>
       <r>  -0.4346  1.0000</r>
       <r>  -0.4346  1.0000</r>
       <r>  -0.4058  1.0000</r>
       <r>  -0.2684  1.0000</r>
       <r>  -0.2642  1.0000</r>
       <r>  -0.2642  1.0000</r>
       <r>  -0.1776  1.0000</r>
       <r>  -0.1776  1.0000</r>
       <r>  -0.1656  1.0000</r>
       <r>  -0.1656  1.0000</r>
       <r>  -0.1620  1.0000</r>
       <r>  -0.1620  1.0000</r>
       <r>  -0.0937  1.0000</r>
       <r>  -0.0616  1.0000</r>
       <r>  -0.0616  1.0000</r>
       <r>   0.0096  1.0000</r>
       <r>   0.0096  1.0000</r>
       <r>   0.0420  1.0000</r>
       <r>   0.1132  1.0000</r>
       <r>   0.1132  1.0000</r>
       <r>   0.1455  1.0000</r>
       <r>   0.1455  1.0000</r>
       <r>   0.1695  1.0000</r>
       <r>   0.1695  1.0000</r>
       <r>   0.2590  1.0000</r>
       <r>   0.2590  1.0000</r>
       <r>   0.3086  1.0000</r>
       <r>   0.4747  1.0000</r>
       <r>   0.4951  1.0000</r>
       <r>   0.5207  1.0000</r>
       <r>   0.5207  1.0000</r>
       <r>   0.5275  1.0000</r>
       <r>   0.5275  1.0000</r>
       <r>   0.5826  1.0000</r>
       <r>   0.6443  1.0000</r>
       <r>   0.6950  1.0000</r>
       <r>   0.6950  1.0000</r>
       <r>   0.7157  1.0000</r>
       <r>   0.7157  1.0000</r>
       <r>   0.7191  1.0000</r>
       <r>   0.7191  1.0000</r>
       <r>   0.7573  1.0000</r>
       <r>   0.7573  1.0000</r>
       <r>   0.7639  1.0000</r>
       <r>   0.7703  1.0000</r>
       <r>   0.7703  1.0000</r>
       <r>   0.7737  1.0000</r>
       <r>   0.8080  1.0000</r>
       <r>   0.8080  1.0000</r>
       <r>   0.8489  1.0000</r>
       <r>   0.8891  1.0000</r>
       <r>   0.8891  1.0000</r>
       <r>   0.9096  1.0000</r>
       <r>   0.9261  1.0000</r>
       <r>   0.9261  1.0000</r>
       <r>   0.9372  1.0000</r>
       <r>   0.9513  1.0000</r>
       <r>   0.9522  1.0000</r>
       <r>   0.9522  1.0000</r>
       <r>   0.9616  1.0000</r>
       <r>   0.9616  1.0000</r>
       <r>   0.9692  1.0000</r>
       <r>   0.9747  1.0000</r>
       <r>   0.9825  1.0000</r>
       <r>   0.9867  1.0000</r>
       <r>   0.9867  1.0000</r>
       <r>   0.9878  1.0000</r>
       <r>   0.9878  1.0000</r>
       <r>   1.0199  1.0000</r>
       <r>   1.0199  1.0000</r>
       <r>   1.0211  1.0000</r>
       <r>   1.0335  1.0000</r>
       <r>   1.1460  1.0000</r>
       <r>   1.1460  1.0000</r>
       <r>   1.1543  1.0000</r>
       <r>   1.1858  1.0000</r>
       <r>   1.2250  1.0000</r>
       <r>   1.2250  1.0000</r>
       <r>   1.2927  1.0000</r>
       <r>   1.2927  1.0000</r>
       <r>   1.3463  1.0000</r>
       <r>   1.3463  1.0000</r>
       <r>   1.3507  1.0000</r>
       <r>   1.3507  1.0000</r>
       <r>   1.3735  1.0000</r>
       <r>   1.4674  1.0000</r>
       <r>   1.4674  1.0000</r>
       <r>   1.5529  1.0000</r>
       <r>   1.5619  1.0000</r>
       <r>   1.5619  1.0000</r>
       <r>   1.5625  1.0000</r>
       <r>   1.5625  1.0000</r>
       <r>   1.5643  1.0000</r>
       <r>   1.5778  1.0000</r>
       <r>   1.6249  1.0000</r>
       <r>   1.6249  1.0000</r>
       <r>   1.6572  1.0000</r>
       <r>   1.6572  1.0000</r>
       <r>   1.6795  1.0000</r>
       <r>   1.6795  1.0000</r>
       <r>   1.7074  1.0000</r>
       <r>   1.7117  1.0000</r>
       <r>   1.7423  1.0000</r>
       <r>   1.7423  1.0000</r>
       <r>   1.7502  1.0000</r>
       <r>   1.7519  1.0000</r>
       <r>   1.7519  1.0000</r>
       <r>   1.7921  1.0000</r>
       <r>   1.7921  1.0000</r>
       <r>   1.8660  1.0000</r>
       <r>   1.8883  1.0000</r>
       <r>   1.8914  1.0000</r>
       <r>   1.9488  1.0000</r>
       <r>   1.9767  1.0000</r>
       <r>   1.9767  1.0000</r>
       <r>   2.1922  1.0000</r>
       <r>   2.1966  1.0000</r>
       <r>   2.1966  1.0000</r>
       <r>   2.2012  1.0000</r>
       <r>   2.2012  1.0000</r>
       <r>   2.2106  1.0000</r>
       <r>   2.2106  1.0000</r>
       <r>   2.2157  1.0000</r>
       <r>   2.2157  1.0000</r>
       <r>   2.2210  1.0000</r>
       <r>   2.2210  1.0000</r>
       <r>   2.2326  1.0000</r>
       <r>   2.2326  1.0000</r>
       <r>   2.2327  1.0000</r>
       <r>   2.2327  1.0000</r>
       <r>   2.2345  1.0000</r>
       <r>   2.2377  1.0000</r>
       <r>   2.2377  1.0000</r>
       <r>   2.2380  1.0000</r>
       <r>   2.2380  1.0000</r>
       <r>   2.2528  1.0000</r>
       <r>   2.2659  1.0000</r>
       <r>   2.2723  1.0000</r>
       <r>   2.2723  1.0000</r>
       <r>   3.2047  1.0000</r>
       <r>   3.5130  1.0000</r>
       <r>   3.5130  1.0000</r>
       <r>   3.7105  1.0000</r>
       <r>   3.7105  1.0000</r>
       <r>   3.7313  1.0000</r>
       <r>   4.1579  0.0000</r>
       <r>   4.1579  0.0000</r>
       <r>   4.6202  0.0000</r>
       <r>   4.6202  0.0000</r>
       <r>   4.8260  0.0000</r>
       <r>   4.8260  0.0000</r>
       <r>   5.0000  0.0000</r>
       <r>   5.0000  0.0000</r>
       <r>   5.1296  0.0000</r>
       <r>   5.1296  0.0000</r>
       <r>   5.9059  0.0000</r>
       <r>   5.9059  0.0000</r>
       <r>   6.0665  0.0000</r>
       <r>   6.0685  0.0000</r>
       <r>   6.0685  0.0000</r>
       <r>   6.5650  0.0000</r>
       <r>   6.5650  0.0000</r>
       <r>   6.9366  0.0000</r>
       <r>   8.6099  0.0000</r>
       <r>   8.6099  0.0000</r>
       <r>   8.9678  0.0000</r>
       <r>   8.9678  0.0000</r>
       <r>   9.1030  0.0000</r>
       <r>   9.5242  0.0000</r>
       <r>   9.5242  0.0000</r>
       <r>   9.9730  0.0000</r>
       <r>   9.9730  0.0000</r>
       <r>  10.1350  0.0000</r>
       <r>  10.1350  0.0000</r>
       <r>  10.4367  0.0000</r>
       <r>  11.2452  0.0000</r>
       <r>  11.5499  0.0000</r>
       <r>  11.5499  0.0000</r>
       <r>  11.7245  0.0000</r>
       <r>  11.7245  0.0000</r>
       <r>  12.2043  0.0000</r>
       <r>  12.2043  0.0000</r>
       <r>  12.6880  0.0000</r>
       <r>  12.8495  0.0000</r>
       <r>  12.8495  0.0000</r>
       <r>  13.3381  0.0000</r>
       <r>  13.3381  0.0000</r>
      </set>
      <set comment="kpoint 20">
       <r>  -3.9327  1.0000</r>
       <r>  -3.5483  1.0000</r>
       <r>  -3.5483  1.0000</r>
       <r>  -3.5483  1.0000</r>
       <r>  -3.1858  1.0000</r>
       <r>  -3.1858  1.0000</r>
       <r>  -3.1858  1.0000</r>
       <r>  -2.8534  1.0000</r>
       <r>  -0.7697  1.0000</r>
       <r>  -0.7697  1.0000</r>
       <r>  -0.7697  1.0000</r>
       <r>  -0.6757  1.0000</r>
       <r>  -0.6757  1.0000</r>
       <r>  -0.6757  1.0000</r>
       <r>  -0.6757  1.0000</r>
       <r>  -0.6757  1.0000</r>
       <r>  -0.6757  1.0000</r>
       <r>  -0.6643  1.0000</r>
       <r>  -0.6643  1.0000</r>
       <r>  -0.6643  1.0000</r>
       <r>  -0.6466  1.0000</r>
       <r>  -0.6466  1.0000</r>
       <r>  -0.6466  1.0000</r>
       <r>  -0.5380  1.0000</r>
       <r>  -0.5380  1.0000</r>
       <r>  -0.5380  1.0000</r>
       <r>  -0.5380  1.0000</r>
       <r>  -0.5380  1.0000</r>
       <r>  -0.5380  1.0000</r>
       <r>  -0.5015  1.0000</r>
       <r>  -0.5015  1.0000</r>
       <r>  -0.5015  1.0000</r>
       <r>  -0.1911  1.0000</r>
       <r>  -0.1911  1.0000</r>
       <r>  -0.1911  1.0000</r>
       <r>  -0.0917  1.0000</r>
       <r>  -0.0917  1.0000</r>
       <r>  -0.0917  1.0000</r>
       <r>  -0.0917  1.0000</r>
       <r>  -0.0917  1.0000</r>
       <r>  -0.0917  1.0000</r>
       <r>  -0.0837  1.0000</r>
       <r>  -0.0837  1.0000</r>
       <r>  -0.0837  1.0000</r>
       <r>   0.0089  1.0000</r>
       <r>   0.0089  1.0000</r>
       <r>   0.0089  1.0000</r>
       <r>   0.0294  1.0000</r>
       <r>   0.0294  1.0000</r>
       <r>   0.0294  1.0000</r>
       <r>   0.0294  1.0000</r>
       <r>   0.0294  1.0000</r>
       <r>   0.0294  1.0000</r>
       <r>   0.1479  1.0000</r>
       <r>   0.1479  1.0000</r>
       <r>   0.1479  1.0000</r>
       <r>   0.5353  1.0000</r>
       <r>   0.5353  1.0000</r>
       <r>   0.5353  1.0000</r>
       <r>   0.5412  1.0000</r>
       <r>   0.5412  1.0000</r>
       <r>   0.5412  1.0000</r>
       <r>   0.5702  1.0000</r>
       <r>   0.5966  1.0000</r>
       <r>   0.7671  1.0000</r>
       <r>   0.7671  1.0000</r>
       <r>   0.7671  1.0000</r>
       <r>   0.7671  1.0000</r>
       <r>   0.7671  1.0000</r>
       <r>   0.7671  1.0000</r>
       <r>   0.7799  1.0000</r>
       <r>   0.7799  1.0000</r>
       <r>   0.7799  1.0000</r>
       <r>   0.8110  1.0000</r>
       <r>   0.8110  1.0000</r>
       <r>   0.8110  1.0000</r>
       <r>   0.8565  1.0000</r>
       <r>   0.8565  1.0000</r>
       <r>   0.8565  1.0000</r>
       <r>   0.8565  1.0000</r>
       <r>   0.8565  1.0000</r>
       <r>   0.8565  1.0000</r>
       <r>   0.8700  1.0000</r>
       <r>   0.8700  1.0000</r>
       <r>   0.8700  1.0000</r>
       <r>   0.9440  1.0000</r>
       <r>   0.9440  1.0000</r>
       <r>   0.9606  1.0000</r>
       <r>   0.9606  1.0000</r>
       <r>   0.9606  1.0000</r>
       <r>   0.9774  1.0000</r>
       <r>   0.9774  1.0000</r>
       <r>   0.9774  1.0000</r>
       <r>   0.9774  1.0000</r>
       <r>   0.9774  1.0000</r>
       <r>   0.9776  1.0000</r>
       <r>   0.9776  1.0000</r>
       <r>   0.9776  1.0000</r>
       <r>   0.9885  1.0000</r>
       <r>   0.9885  1.0000</r>
       <r>   0.9885  1.0000</r>
       <r>   1.0147  1.0000</r>
       <r>   1.0147  1.0000</r>
       <r>   1.0147  1.0000</r>
       <r>   1.3026  1.0000</r>
       <r>   1.3026  1.0000</r>
       <r>   1.3026  1.0000</r>
       <r>   1.4152  1.0000</r>
       <r>   1.4152  1.0000</r>
       <r>   1.4152  1.0000</r>
       <r>   1.4152  1.0000</r>
       <r>   1.4152  1.0000</r>
       <r>   1.4152  1.0000</r>
       <r>   1.4289  1.0000</r>
       <r>   1.4289  1.0000</r>
       <r>   1.4289  1.0000</r>
       <r>   1.5006  1.0000</r>
       <r>   1.5006  1.0000</r>
       <r>   1.5006  1.0000</r>
       <r>   1.5409  1.0000</r>
       <r>   1.5409  1.0000</r>
       <r>   1.5409  1.0000</r>
       <r>   1.5409  1.0000</r>
       <r>   1.5409  1.0000</r>
       <r>   1.5409  1.0000</r>
       <r>   1.6299  1.0000</r>
       <r>   1.6299  1.0000</r>
       <r>   1.6299  1.0000</r>
       <r>   1.6564  1.0000</r>
       <r>   1.6564  1.0000</r>
       <r>   1.6564  1.0000</r>
       <r>   1.6704  1.0000</r>
       <r>   1.6704  1.0000</r>
       <r>   1.6931  1.0000</r>
       <r>   1.6931  1.0000</r>
       <r>   1.6931  1.0000</r>
       <r>   1.7771  1.0000</r>
       <r>   1.7771  1.0000</r>
       <r>   1.7771  1.0000</r>
       <r>   1.8243  1.0000</r>
       <r>   1.8243  1.0000</r>
       <r>   1.8496  1.0000</r>
       <r>   1.8496  1.0000</r>
       <r>   1.8496  1.0000</r>
       <r>   2.2374  1.0000</r>
       <r>   2.2374  1.0000</r>
       <r>   2.2374  1.0000</r>
       <r>   2.2525  1.0000</r>
       <r>   2.2525  1.0000</r>
       <r>   2.2525  1.0000</r>
       <r>   2.2525  1.0000</r>
       <r>   2.2525  1.0000</r>
       <r>   2.2525  1.0000</r>
       <r>   2.2542  1.0000</r>
       <r>   2.2542  1.0000</r>
       <r>   2.2542  1.0000</r>
       <r>   2.2542  1.0000</r>
       <r>   2.2542  1.0000</r>
       <r>   2.2542  1.0000</r>
       <r>   2.2596  1.0000</r>
       <r>   2.2596  1.0000</r>
       <r>   2.2596  1.0000</r>
       <r>   2.2700  1.0000</r>
       <r>   2.2700  1.0000</r>
       <r>   2.2700  1.0000</r>
       <r>   2.2797  1.0000</r>
       <r>   2.2797  1.0000</r>
       <r>   2.2797  1.0000</r>
       <r>   4.0028  0.0000</r>
       <r>   4.0028  0.0000</r>
       <r>   4.0028  0.0000</r>
       <r>   4.3808  0.0000</r>
       <r>   4.3808  0.0000</r>
       <r>   4.3808  0.0000</r>
       <r>   4.3808  0.0000</r>
       <r>   4.3808  0.0000</r>
       <r>   4.3808  0.0000</r>
       <r>   4.6718  0.0000</r>
       <r>   4.6718  0.0000</r>
       <r>   4.6718  0.0000</r>
       <r>   4.9770  0.0000</r>
       <r>   4.9770  0.0000</r>
       <r>   4.9770  0.0000</r>
       <r>   5.4166  0.0000</r>
       <r>   5.4166  0.0000</r>
       <r>   5.4166  0.0000</r>
       <r>   5.4166  0.0000</r>
       <r>   5.4166  0.0000</r>
       <r>   5.4166  0.0000</r>
       <r>   5.7586  0.0000</r>
       <r>   5.7586  0.0000</r>
       <r>   5.7586  0.0000</r>
       <r>   9.4293  0.0000</r>
       <r>   9.4293  0.0000</r>
       <r>   9.4293  0.0000</r>
       <r>   9.8772  0.0000</r>
       <r>   9.8772  0.0000</r>
       <r>   9.8772  0.0000</r>
       <r>  10.4964  0.0000</r>
       <r>  10.4964  0.0000</r>
       <r>  10.4964  0.0000</r>
       <r>  10.4964  0.0000</r>
       <r>  10.4964  0.0000</r>
       <r>  10.4964  0.0000</r>
       <r>  10.9690  0.0000</r>
       <r>  10.9690  0.0000</r>
       <r>  10.9690  0.0000</r>
       <r>  10.9690  0.0000</r>
       <r>  10.9690  0.0000</r>
       <r>  10.9690  0.0000</r>
       <r>  11.6137  0.0000</r>
       <r>  11.6137  0.0000</r>
       <r>  11.6137  0.0000</r>
       <r>  12.0959  0.0000</r>
       <r>  12.0959  0.0000</r>
       <r>  12.0959  0.0000</r>
      </set>
     </set>
    </set>
   </array>
  </eigenvalues>
 </calculation>
 <structure name="finalpos" >
  <crystal>
   <varray name="basis" >
    <v>       7.20010331      0.00000000      0.00000000</v>
    <v>       0.00000000      7.20010331      0.00000000</v>
    <v>       0.00000000      0.00000000      7.20010331</v>
   </varray>
   <i name="volume">    373.26406657</i>
   <varray name="rec_basis" >
    <v>       0.13888690      0.00000000      0.00000000</v>
    <v>       0.00000000      0.13888690      0.00000000</v>
    <v>       0.00000000      0.00000000      0.13888690</v>
   </varray>
  </crystal>
  <varray name="positions" >
   <v>       0.00000000      0.00000000      0.00000000</v>
   <v>       0.50000000      0.00000000      0.00000000</v>
   <v>       0.00000000      0.50000000      0.00000000</v>
   <v>       0.50000000      0.50000000      0.00000000</v>
   <v>       0.00000000      0.00000000      0.50000000</v>
   <v>       0.50000000      0.00000000      0.50000000</v>
   <v>       0.00000000      0.50000000      0.50000000</v>
   <v>       0.50000000      0.50000000      0.50000000</v>
   <v>       0.25000000      0.25000000      0.00000000</v>
   <v>       0.75000000      0.25000000      0.00000000</v>
   <v>       0.25000000      0.75000000      0.00000000</v>
   <v>       0.75000000      0.75000000      0.00000000</v>
   <v>       0.25000000      0.25000000      0.50000000</v>
   <v>       0.75000000      0.25000000      0.50000000</v>
   <v>       0.25000000      0.75000000      0.50000000</v>
   <v>       0.75000000      0.75000000      0.50000000</v>
   <v>       0.25000000      0.00000000      0.25000000</v>
   <v>       0.75000000      0.00000000      0.25000000</v>
   <v>       0.25000000      0.50000000      0.25000000</v>
   <v>       0.75000000      0.50000000      0.25000000</v>
   <v>       0.25000000      0.00000000      0.75000000</v>
   <v>       0.75000000      0.00000000      0.75000000</v>
   <v>       0.25000000      0.50000000      0.75000000</v>
   <v>       0.75000000      0.50000000      0.75000000</v>
   <v>       0.00000000      0.25000000      0.25000000</v>
   <v>       0.50000000      0.25000000      0.25000000</v>
   <v>       0.00000000      0.75000000      0.25000000</v>
   <v>       0.50000000      0.75000000      0.25000000</v>
   <v>       0.00000000      0.25000000      0.75000000</v>
   <v>       0.50000000      0.25000000      0.75000000</v>
   <v>       0.00000000      0.75000000      0.75000000</v>
   <v>       0.50000000      0.75000000      0.75000000</v>
  </varray>
 </structure>
</modeling>
