   4   4   0   0
  0.1762562E+02  0.4131123E-09  0.4131123E-09  0.4131123E-09  0.5000000E-15
  1.000000000000000E-004
  CAR 
 unknown system                          
     17.39874660     -5.20464839  301      5.27411762      1.00000000
     -5.205  0.0000E+00  0.0000E+00
     -5.129  0.0000E+00  0.0000E+00
     -5.054  0.0000E+00  0.0000E+00
     -4.979  0.0000E+00  0.0000E+00
     -4.903  0.0000E+00  0.0000E+00
     -4.828  0.0000E+00  0.0000E+00
     -4.753  0.0000E+00  0.0000E+00
     -4.677  0.0000E+00  0.0000E+00
     -4.602  0.0000E+00  0.0000E+00
     -4.527  0.0000E+00  0.0000E+00
     -4.451  0.0000E+00  0.0000E+00
     -4.376  0.0000E+00  0.0000E+00
     -4.301  0.0000E+00  0.0000E+00
     -4.225  0.9188E-13  0.6922E-14
     -4.150  0.1536E-01  0.1157E-02
     -4.074  0.9213E-01  0.8099E-02
     -3.999  0.1841E+00  0.2197E-01
     -3.924  0.1225E+00  0.3122E-01
     -3.848  0.9105E-01  0.3811E-01
     -3.773  0.3639E+00  0.6561E-01
     -3.698  0.3656E+00  0.9352E-01
     -3.622  0.5116E-16  0.9375E-01
     -3.547  0.1834E+00  0.1076E+00
     -3.472  0.4578E+00  0.1421E+00
     -3.396  0.3660E+00  0.1699E+00
     -3.321  0.3685E+00  0.1979E+00
     -3.246  0.1229E+00  0.2072E+00
     -3.170  0.3687E+00  0.2350E+00
     -3.095  0.7373E+00  0.2905E+00
     -3.020  0.1719E-08  0.2905E+00
     -2.944  0.4446E+00  0.3240E+00
     -2.869  0.4031E+00  0.3556E+00
     -2.794  0.8850E+00  0.4223E+00
     -2.718  0.2465E+00  0.4410E+00
     -2.643  0.1227E+01  0.5335E+00
     -2.568  0.1203E-11  0.5336E+00
     -2.492  0.3686E+00  0.5613E+00
     -2.417  0.1941E+00  0.5760E+00
     -2.342  0.1198E+01  0.6665E+00
     -2.266  0.1387E+01  0.7710E+00
     -2.191  0.3219E-05  0.7720E+00
     -2.116  0.1369E+01  0.8751E+00
     -2.040  0.1184E-03  0.8831E+00
     -1.965  0.1289E+01  0.9802E+00
     -1.889  0.4999E+00  0.1018E+01
     -1.814  0.1930E+01  0.1163E+01
     -1.739  0.8590E+00  0.1229E+01
     -1.663  0.2643E+01  0.1428E+01
     -1.588  0.2293E+01  0.1602E+01
     -1.513  0.3262E+01  0.1868E+01
     -1.437  0.1688E+01  0.1999E+01
     -1.362  0.4934E+01  0.2371E+01
     -1.287  0.3437E+01  0.2631E+01
     -1.211  0.5149E+01  0.3019E+01
     -1.136  0.7500E+01  0.3588E+01
     -1.061  0.3638E+01  0.3870E+01
     -0.985  0.9963E+01  0.4624E+01
     -0.910  0.7897E+01  0.5235E+01
     -0.835  0.6506E+01  0.5731E+01
     -0.759  0.6398E+01  0.6227E+01
     -0.684  0.1059E+02  0.7034E+01
     -0.609  0.5347E+01  0.7443E+01
     -0.533  0.4495E+01  0.7790E+01
     -0.458  0.9847E+01  0.8537E+01
     -0.383  0.6364E+01  0.9018E+01
     -0.307  0.4856E+01  0.9406E+01
     -0.232  0.5443E+01  0.9817E+01
     -0.157  0.4234E+01  0.1014E+02
     -0.081  0.4989E+01  0.1052E+02
     -0.006  0.8483E+01  0.1116E+02
      0.069  0.5935E+01  0.1162E+02
      0.145  0.5361E+01  0.1202E+02
      0.220  0.1061E+02  0.1282E+02
      0.296  0.6840E+01  0.1334E+02
      0.371  0.9369E+01  0.1407E+02
      0.446  0.8442E+01  0.1471E+02
      0.522  0.8853E+01  0.1538E+02
      0.597  0.6464E+01  0.1588E+02
      0.672  0.7226E+01  0.1643E+02
      0.748  0.1082E+02  0.1725E+02
      0.823  0.1054E+02  0.1806E+02
      0.898  0.9648E+01  0.1880E+02
      0.974  0.1193E+02  0.1971E+02
      1.049  0.1142E+02  0.2059E+02
      1.124  0.1738E+02  0.2191E+02
      1.200  0.8803E+01  0.2261E+02
      1.275  0.1107E+02  0.2344E+02
      1.350  0.7223E+01  0.2400E+02
      1.426  0.5893E+01  0.2445E+02
      1.501  0.7346E+01  0.2501E+02
      1.576  0.5084E+01  0.2541E+02
      1.652  0.8866E+01  0.2608E+02
      1.727  0.6465E+01  0.2657E+02
      1.802  0.6723E+01  0.2709E+02
      1.878  0.7778E+01  0.2770E+02
      1.953  0.9248E+01  0.2841E+02
      2.028  0.8453E+01  0.2905E+02
      2.104  0.9740E+01  0.2979E+02
      2.179  0.7976E+01  0.3040E+02
      2.254  0.7897E+01  0.3101E+02
      2.330  0.8914E+01  0.3168E+02
      2.405  0.8641E+01  0.3234E+02
      2.481  0.6207E+01  0.3281E+02
      2.556  0.6285E+01  0.3329E+02
      2.631  0.6159E+01  0.3376E+02
      2.707  0.7195E+01  0.3431E+02
      2.782  0.8610E+01  0.3496E+02
      2.857  0.7113E+01  0.3551E+02
      2.933  0.4337E+01  0.3584E+02
      3.008  0.7433E+01  0.3640E+02
      3.083  0.1096E+02  0.3725E+02
      3.159  0.9384E+01  0.3796E+02
      3.234  0.9454E+01  0.3870E+02
      3.309  0.1125E+02  0.3957E+02
      3.385  0.1550E+02  0.4076E+02
      3.460  0.7611E+01  0.4133E+02
      3.535  0.3800E+01  0.4162E+02
      3.611  0.4236E+01  0.4194E+02
      3.686  0.1458E+01  0.4205E+02
      3.761  0.1026E+01  0.4213E+02
      3.837  0.1106E+01  0.4222E+02
      3.912  0.2995E+01  0.4245E+02
      3.987  0.1351E+01  0.4257E+02
      4.063  0.3668E+00  0.4260E+02
      4.138  0.3820E+00  0.4262E+02
      4.213  0.1089E+01  0.4271E+02
      4.289  0.1446E+01  0.4282E+02
      4.364  0.7263E+00  0.4287E+02
      4.439  0.1104E+01  0.4296E+02
      4.515  0.1887E+01  0.4310E+02
      4.590  0.1167E+01  0.4319E+02
      4.666  0.1062E+01  0.4327E+02
      4.741  0.4606E+00  0.4330E+02
      4.816  0.1340E+01  0.4340E+02
      4.892  0.8714E+00  0.4347E+02
      4.967  0.6595E+00  0.4352E+02
      5.042  0.1286E+01  0.4362E+02
      5.118  0.2152E+01  0.4379E+02
      5.193  0.1451E+01  0.4390E+02
      5.268  0.1196E+01  0.4399E+02
      5.344  0.7514E+00  0.4405E+02
      5.419  0.1043E+01  0.4412E+02
      5.494  0.3272E+00  0.4415E+02
      5.570  0.7374E+00  0.4420E+02
      5.645  0.1265E+01  0.4430E+02
      5.720  0.2027E+01  0.4445E+02
      5.796  0.1317E+01  0.4455E+02
      5.871  0.1706E+01  0.4468E+02
      5.946  0.5902E-01  0.4469E+02
      6.022  0.1784E+01  0.4482E+02
      6.097  0.5595E-01  0.4483E+02
      6.172  0.6501E+00  0.4488E+02
      6.248  0.1875E+01  0.4502E+02
      6.323  0.6809E+00  0.4507E+02
      6.398  0.1129E+01  0.4515E+02
      6.474  0.2807E+01  0.4537E+02
      6.549  0.9685E+00  0.4544E+02
      6.624  0.4224E+00  0.4547E+02
      6.700  0.1183E+01  0.4556E+02
      6.775  0.5192E+00  0.4560E+02
      6.850  0.2103E+01  0.4576E+02
      6.926  0.3687E+00  0.4580E+02
      7.001  0.2401E-05  0.4580E+02
      7.077  0.1707E+01  0.4593E+02
      7.152  0.1795E+01  0.4606E+02
      7.227  0.3508E+00  0.4609E+02
      7.303  0.3591E+00  0.4612E+02
      7.378  0.1844E+01  0.4626E+02
      7.453  0.2210E+01  0.4642E+02
      7.529  0.1757E+00  0.4644E+02
      7.604  0.3764E+00  0.4647E+02
      7.679  0.1090E+01  0.4655E+02
      7.755  0.1607E+01  0.4667E+02
      7.830  0.5504E-01  0.4668E+02
      7.905  0.1653E+01  0.4680E+02
      7.981  0.1242E+01  0.4690E+02
      8.056  0.7374E+00  0.4695E+02
      8.131  0.3728E+00  0.4698E+02
      8.207  0.8064E+00  0.4704E+02
      8.282  0.3410E+01  0.4730E+02
      8.357  0.1160E+01  0.4739E+02
      8.433  0.3585E+00  0.4741E+02
      8.508  0.2149E+01  0.4758E+02
      8.583  0.2887E+01  0.4780E+02
      8.659  0.9747E+00  0.4787E+02
      8.734  0.7395E+00  0.4793E+02
      8.809  0.1522E+01  0.4804E+02
      8.885  0.3268E+01  0.4829E+02
      8.960  0.0000E+00  0.4829E+02
      9.035  0.1647E+00  0.4830E+02
      9.111  0.9414E+00  0.4837E+02
      9.186  0.9261E+00  0.4844E+02
      9.262  0.2207E+01  0.4861E+02
      9.337  0.9587E+00  0.4868E+02
      9.412  0.1041E+01  0.4877E+02
      9.488  0.1659E+01  0.4890E+02
      9.563  0.7370E+00  0.4896E+02
      9.638  0.3458E+00  0.4898E+02
      9.714  0.1356E+01  0.4909E+02
      9.789  0.1188E+01  0.4918E+02
      9.864  0.7374E+00  0.4923E+02
      9.940  0.5078E+00  0.4927E+02
     10.015  0.1581E+01  0.4939E+02
     10.090  0.1785E+01  0.4953E+02
     10.166  0.2070E+01  0.4969E+02
     10.241  0.9072E+00  0.4977E+02
     10.316  0.1339E+01  0.4987E+02
     10.392  0.2255E+01  0.5004E+02
     10.467  0.7883E+00  0.5010E+02
     10.542  0.5530E+00  0.5014E+02
     10.618  0.7712E+00  0.5020E+02
     10.693  0.1207E+01  0.5029E+02
     10.768  0.2858E+01  0.5050E+02
     10.844  0.1020E+01  0.5058E+02
     10.919  0.1738E+01  0.5072E+02
     10.994  0.1796E+01  0.5085E+02
     11.070  0.1843E+01  0.5099E+02
     11.145  0.1380E+01  0.5109E+02
     11.220  0.7023E+00  0.5115E+02
     11.296  0.1265E+01  0.5125E+02
     11.371  0.5991E+00  0.5129E+02
     11.447  0.8333E+00  0.5136E+02
     11.522  0.3356E+01  0.5161E+02
     11.597  0.8157E+00  0.5167E+02
     11.673  0.9793E+00  0.5175E+02
     11.748  0.6091E+00  0.5179E+02
     11.823  0.1311E+01  0.5189E+02
     11.899  0.2677E+00  0.5191E+02
     11.974  0.3163E+00  0.5194E+02
     12.049  0.1175E+01  0.5203E+02
     12.125  0.2005E+01  0.5218E+02
     12.200  0.2403E+01  0.5236E+02
     12.275  0.5804E+00  0.5240E+02
     12.351  0.1222E+01  0.5249E+02
     12.426  0.1656E+01  0.5262E+02
     12.501  0.1397E+01  0.5273E+02
     12.577  0.1585E+01  0.5285E+02
     12.652  0.9872E+00  0.5293E+02
     12.727  0.1042E+01  0.5301E+02
     12.803  0.1032E+01  0.5308E+02
     12.878  0.1427E+01  0.5319E+02
     12.953  0.2152E+01  0.5335E+02
     13.029  0.1480E+01  0.5347E+02
     13.104  0.8531E+00  0.5353E+02
     13.179  0.1524E+01  0.5365E+02
     13.255  0.1073E+00  0.5366E+02
     13.330  0.6668E+00  0.5371E+02
     13.405  0.2558E+01  0.5390E+02
     13.481  0.2056E+01  0.5406E+02
     13.556  0.1813E+01  0.5419E+02
     13.632  0.1842E+01  0.5433E+02
     13.707  0.8994E+00  0.5440E+02
     13.782  0.3527E+01  0.5467E+02
     13.858  0.1656E+01  0.5479E+02
     13.933  0.7373E+00  0.5485E+02
     14.008  0.6045E+00  0.5489E+02
     14.084  0.5015E+00  0.5493E+02
     14.159  0.3695E+00  0.5496E+02
     14.234  0.1833E+01  0.5510E+02
     14.310  0.9185E+00  0.5517E+02
     14.385  0.1070E+01  0.5525E+02
     14.460  0.1486E+01  0.5536E+02
     14.536  0.1086E+01  0.5544E+02
     14.611  0.3688E+00  0.5547E+02
     14.686  0.1229E+01  0.5556E+02
     14.762  0.5274E+00  0.5560E+02
     14.837  0.1082E+01  0.5568E+02
     14.912  0.6063E+00  0.5573E+02
     14.988  0.1132E+01  0.5582E+02
     15.063  0.0000E+00  0.5582E+02
     15.138  0.5370E+00  0.5586E+02
     15.214  0.2004E+00  0.5587E+02
     15.289  0.2808E+00  0.5589E+02
     15.364  0.2004E+00  0.5591E+02
     15.440  0.3712E+00  0.5594E+02
     15.515  0.7285E+00  0.5599E+02
     15.590  0.0000E+00  0.5599E+02
     15.666  0.0000E+00  0.5599E+02
     15.741  0.0000E+00  0.5599E+02
     15.817  0.0000E+00  0.5599E+02
     15.892  0.0000E+00  0.5599E+02
     15.967  0.0000E+00  0.5599E+02
     16.043  0.0000E+00  0.5599E+02
     16.118  0.0000E+00  0.5599E+02
     16.193  0.0000E+00  0.5599E+02
     16.269  0.0000E+00  0.5599E+02
     16.344  0.6561E-05  0.5599E+02
     16.419  0.1229E+00  0.5600E+02
     16.495  0.0000E+00  0.5600E+02
     16.570  0.0000E+00  0.5600E+02
     16.645  0.0000E+00  0.5600E+02
     16.721  0.0000E+00  0.5600E+02
     16.796  0.0000E+00  0.5600E+02
     16.871  0.0000E+00  0.5600E+02
     16.947  0.0000E+00  0.5600E+02
     17.022  0.0000E+00  0.5600E+02
     17.097  0.0000E+00  0.5600E+02
     17.173  0.0000E+00  0.5600E+02
     17.248  0.0000E+00  0.5600E+02
     17.323  0.0000E+00  0.5600E+02
     17.399  0.0000E+00  0.5600E+02
