    4    4    1    1
  0.1762562E+02  0.4131123E-09  0.4131123E-09  0.4131123E-09  0.5000000E-15
  1.000000000000000E-004
  CAR 
 unknown system                          
   44   84   28
 
  0.0000000E+00  0.0000000E+00  0.0000000E+00  0.5787037E-03
   1       -4.1772
   2       -1.4785
   3       -1.4785
   4       -1.4785
   5       -1.1889
   6       -1.1889
   7       -1.1889
   8        0.7595
   9        0.7595
  10        0.7595
  11        2.1913
  12        2.1913
  13        3.2810
  14        3.2810
  15        3.2810
  16        3.6252
  17        3.6252
  18        3.6252
  19        3.6252
  20        3.6252
  21        3.6252
  22        6.4474
  23        6.4474
  24        6.4474
  25       10.8764
  26       10.8764
  27       10.8764
  28       15.4302
 
  0.8333333E-01  0.0000000E+00  0.0000000E+00  0.3472222E-02
   1       -4.0983
   2       -1.4516
   3       -1.4264
   4       -1.4264
   5       -1.1605
   6       -1.1459
   7       -1.1459
   8        0.7199
   9        0.7943
  10        0.7943
  11        2.1491
  12        2.2084
  13        3.2209
  14        3.2209
  15        3.2608
  16        3.3592
  17        3.3592
  18        3.5517
  19        3.5517
  20        3.6253
  21        3.6253
  22        5.8652
  23        6.7688
  24        6.7688
  25       10.8072
  26       10.8072
  27       11.5948
  28       15.2903
 
  0.1666667E+00  0.0000000E+00  0.0000000E+00  0.3472222E-02
   1       -3.8644
   2       -1.3800
   3       -1.2755
   4       -1.2755
   5       -1.0767
   6       -1.0172
   7       -1.0172
   8        0.6057
   9        0.8982
  10        0.8982
  11        2.0284
  12        2.2591
  13        2.7758
  14        2.7758
  15        3.0464
  16        3.0464
  17        3.2022
  18        3.3452
  19        3.3452
  20        3.6256
  21        3.6256
  22        4.6961
  23        7.5167
  24        7.5167
  25       10.6241
  26       10.6241
  27       13.1786
  28       14.8845
 
  0.2500000E+00  0.0000000E+00  0.0000000E+00  0.3472222E-02
   1       -3.4849
   2       -1.2951
   3       -1.0444
   4       -1.0444
   5       -0.9409
   6       -0.8033
   7       -0.8033
   8        0.4287
   9        1.0690
  10        1.0690
  11        1.8473
  12        2.1132
  13        2.1132
  14        2.3404
  15        2.7781
  16        2.7781
  17        3.0406
  18        3.0406
  19        3.1099
  20        3.4821
  21        3.6260
  22        3.6260
  23        8.4476
  24        8.4476
  25       10.3885
  26       10.3885
  27       14.2561
  28       14.2561
 
  0.3333333E+00  0.0000000E+00  0.0000000E+00  0.3472222E-02
   1       -2.9807
   2       -1.2666
   3       -0.7715
   4       -0.7715
   5       -0.7593
   6       -0.5055
   7       -0.5055
   8        0.2065
   9        1.3029
  10        1.3029
  11        1.4649
  12        1.4649
  13        1.6401
  14        2.4411
  15        2.4478
  16        2.4625
  17        2.4625
  18        2.6795
  19        2.6795
  20        2.9915
  21        3.6265
  22        3.6265
  23        9.4585
  24        9.4585
  25       10.1701
  26       10.1701
  27       13.4562
  28       13.4562
 
  0.4166667E+00  0.0000000E+00  0.0000000E+00  0.3472222E-02
   1       -2.3956
   2       -1.4147
   3       -0.5406
   4       -0.5292
   5       -0.5292
   6       -0.1256
   7       -0.1256
   8       -0.0417
   9        0.8663
  10        0.8663
  11        1.4680
  12        1.5933
  13        1.5933
  14        1.7318
  15        2.1857
  16        2.1857
  17        2.2996
  18        2.2996
  19        2.5750
  20        2.8563
  21        3.6268
  22        3.6268
  23       10.0211
  24       10.0211
  25       10.5000
  26       10.5000
  27       12.5349
  28       12.5349
 
  0.5000000E+00  0.0000000E+00  0.0000000E+00  0.1736111E-02
   1       -1.8223
   2       -1.8223
   3       -0.4266
   4       -0.4266
   5       -0.2966
   6       -0.2966
   7        0.3333
   8        0.3333
   9        0.3333
  10        0.3333
  11        1.4418
  12        1.4418
  13        1.9304
  14        1.9304
  15        1.9304
  16        1.9304
  17        2.0696
  18        2.0696
  19        2.7142
  20        2.7142
  21        3.6269
  22        3.6269
  23        9.9688
  24        9.9688
  25       11.5368
  26       11.5368
  27       11.5368
  28       11.5368
 
  0.8333333E-01  0.8333333E-01  0.0000000E+00  0.6944444E-02
   1       -4.0203
   2       -1.3990
   3       -1.3990
   4       -1.3811
   5       -1.1181
   6       -1.1181
   7       -1.0982
   8        0.7032
   9        0.8074
  10        0.8262
  11        2.1378
  12        2.1987
  13        3.1500
  14        3.1500
  15        3.1644
  16        3.1796
  17        3.3216
  18        3.3216
  19        3.5516
  20        3.5516
  21        3.5769
  22        6.1868
  23        6.1868
  24        7.0527
  25       10.7275
  26       11.5277
  27       11.5277
  28       14.7378
 
  0.1666667E+00  0.8333333E-01  0.0000000E+00  0.1388889E-01
   1       -3.7888
   2       -1.3259
   3       -1.2495
   4       -1.2466
   5       -1.0359
   6       -0.9910
   7       -0.9568
   8        0.6031
   9        0.9004
  10        0.9201
  11        2.0336
  12        2.2450
  13        2.6274
  14        2.6779
  15        2.9165
  16        2.9994
  17        3.0814
  18        3.2335
  19        3.3446
  20        3.5513
  21        3.5515
  22        5.0693
  23        6.8886
  24        7.7460
  25       10.5125
  26       11.3587
  27       13.0693
  28       14.1461
 
  0.2500000E+00  0.8333333E-01  0.0000000E+00  0.1388889E-01
   1       -3.4136
   2       -1.2386
   3       -1.0429
   4       -1.0126
   5       -0.9029
   6       -0.7801
   7       -0.7298
   8        0.4335
   9        1.0686
  10        1.0689
  11        1.8681
  12        1.9783
  13        2.0606
  14        2.3359
  15        2.5120
  16        2.7443
  17        2.8141
  18        3.0394
  19        3.0979
  20        3.5459
  21        3.5508
  22        4.0055
  23        7.6925
  24        8.6397
  25       10.2244
  26       11.1775
  27       13.5749
  28       14.4033
 
  0.3333333E+00  0.8333333E-01  0.0000000E+00  0.1388889E-01
   1       -2.9150
   2       -1.2079
   3       -0.7814
   4       -0.7352
   5       -0.7250
   6       -0.4866
   7       -0.4378
   8        0.2178
   9        1.2379
  10        1.3015
  11        1.3491
  12        1.4394
  13        1.7137
  14        1.9667
  15        2.4431
  16        2.4585
  17        2.5014
  18        2.6778
  19        2.8550
  20        3.2839
  21        3.5452
  22        3.5500
  23        8.4510
  24        9.6274
  25        9.9314
  26       11.1124
  27       12.9959
  28       13.5995
 
  0.4166667E+00  0.8333333E-01  0.0000000E+00  0.1388889E-01
   1       -2.3357
   2       -1.3564
   3       -0.5190
   4       -0.5110
   5       -0.4878
   6       -0.1128
   7       -0.1039
   8       -0.0238
   9        0.7787
  10        0.8584
  11        1.2863
  12        1.4799
  13        1.5914
  14        1.7647
  15        2.1823
  16        2.2189
  17        2.2977
  18        2.4466
  19        2.6061
  20        2.9672
  21        3.5461
  22        3.5488
  23        9.0364
  24        9.6679
  25       10.6546
  26       11.2988
  27       12.3801
  28       12.6778
 
  0.5000000E+00  0.8333333E-01  0.0000000E+00  0.6944444E-02
   1       -1.7654
   2       -1.7654
   3       -0.3891
   4       -0.3891
   5       -0.2725
   6       -0.2725
   7        0.2907
   8        0.2907
   9        0.3375
  10        0.3375
  11        1.2743
  12        1.2743
  13        1.9284
  14        1.9284
  15        2.0556
  16        2.0556
  17        2.0858
  18        2.0858
  19        2.7735
  20        2.7735
  21        3.5475
  22        3.5475
  23        9.4056
  24        9.4056
  25       11.6832
  26       11.6832
  27       11.7681
  28       11.7681
 
  0.1666667E+00  0.1666667E+00  0.0000000E+00  0.6944444E-02
   1       -3.5652
   2       -1.1687
   3       -1.1687
   4       -1.1627
   5       -0.9139
   6       -0.9139
   7       -0.7904
   8        0.5568
   9        0.9485
  10        0.9836
  11        1.9974
  12        2.2603
  13        2.3008
  14        2.3008
  15        2.3661
  16        2.8606
  17        3.0748
  18        3.0748
  19        3.3429
  20        3.3429
  21        3.4351
  22        5.7681
  23        5.7681
  24        8.3439
  25       10.2029
  26       12.7824
  27       12.7824
  28       13.4634
 
  0.2500000E+00  0.1666667E+00  0.0000000E+00  0.1388889E-01
   1       -3.2027
   2       -1.0738
   3       -1.0050
   4       -0.9259
   5       -0.7891
   6       -0.7116
   7       -0.5483
   8        0.4295
   9        1.0751
  10        1.0879
  11        1.6638
  12        1.8731
  13        1.8821
  14        1.8908
  15        2.3673
  16        2.6415
  17        2.8381
  18        2.9715
  19        3.0361
  20        3.3402
  21        3.3699
  22        4.7180
  23        6.5114
  24        9.1613
  25        9.7703
  26       12.4315
  27       12.9465
  28       14.2767
 
  0.3333333E+00  0.1666667E+00  0.0000000E+00  0.1388889E-01
   1       -2.7214
   2       -1.0363
   3       -0.7769
   4       -0.6338
   5       -0.6228
   6       -0.4312
   7       -0.2730
   8        0.2432
   9        1.0730
  10        1.1422
  11        1.3078
  12        1.3569
  13        1.4186
  14        1.7913
  15        2.3793
  16        2.5374
  17        2.5480
  18        2.6736
  19        2.7598
  20        3.3368
  21        3.3427
  22        3.9072
  23        7.2155
  24        9.3028
  25       10.0970
  26       12.1469
  27       12.5537
  28       14.0105
 
  0.4166667E+00  0.1666667E+00  0.0000000E+00  0.1388889E-01
   1       -2.1605
   2       -1.1876
   3       -0.4990
   4       -0.4236
   5       -0.3678
   6       -0.0761
   7       -0.0269
   8        0.0253
   9        0.5607
  10        0.8315
  11        1.0927
  12        1.0968
  13        1.5916
  14        1.8721
  15        2.1595
  16        2.2682
  17        2.2934
  18        2.4513
  19        2.7531
  20        3.3331
  21        3.3335
  22        3.3695
  23        7.8379
  24        8.8420
  25       11.0905
  26       12.0158
  27       12.2545
  28       13.0860
 
  0.5000000E+00  0.1666667E+00  0.0000000E+00  0.6944444E-02
   1       -1.6010
   2       -1.6010
   3       -0.2865
   4       -0.2865
   5       -0.2028
   6       -0.2028
   7        0.1883
   8        0.1883
   9        0.3480
  10        0.3480
  11        1.0168
  12        1.0168
  13        1.9255
  14        1.9255
  15        2.1071
  16        2.1071
  17        2.1231
  18        2.1231
  19        3.0176
  20        3.0176
  21        3.3316
  22        3.3316
  23        8.3697
  24        8.3697
  25       12.0613
  26       12.0613
  27       12.0994
  28       12.0994
 
  0.2500000E+00  0.2500000E+00  0.0000000E+00  0.6944444E-02
   1       -2.8621
   2       -0.9021
   3       -0.8164
   4       -0.8164
   5       -0.6015
   6       -0.6015
   7       -0.3073
   8        0.3762
   9        1.0906
  10        1.1738
  11        1.2775
  12        1.2775
  13        1.5941
  14        1.8207
  15        2.4717
  16        2.5096
  17        2.7680
  18        2.7680
  19        3.0315
  20        3.0315
  21        3.2081
  22        5.4275
  23        5.4275
  24        9.1522
  25        9.9067
  26       12.5629
  27       13.5967
  28       13.5967
 
  0.3333333E+00  0.2500000E+00  0.0000000E+00  0.1388889E-01
   1       -2.4110
   2       -0.7672
   3       -0.7272
   4       -0.4984
   5       -0.4557
   6       -0.3432
   7       -0.0574
   8        0.2569
   9        0.7433
  10        0.9200
  11        1.0777
  12        1.2030
  13        1.3517
  14        1.7545
  15        2.2609
  16        2.5113
  17        2.5833
  18        2.6689
  19        2.7495
  20        3.0273
  21        3.1068
  22        4.5505
  23        6.1043
  24        8.5091
  25       10.7878
  26       12.3509
  27       13.0048
  28       14.6345
 
  0.4166667E+00  0.2500000E+00  0.0000000E+00  0.1388889E-01
   1       -1.8849
   2       -0.9298
   3       -0.4807
   4       -0.2832
   5       -0.1874
   6       -0.0200
   7        0.0911
   8        0.1151
   9        0.2885
  10        0.7460
  11        0.7756
  12        0.9688
  13        1.6108
  14        1.8174
  15        2.0889
  16        2.2506
  17        2.2917
  18        2.3111
  19        3.0261
  20        3.0546
  21        3.0550
  22        3.9005
  23        6.7344
  24        7.9030
  25       11.7439
  26       12.2740
  27       12.5799
  28       13.7094
 
  0.5000000E+00  0.2500000E+00  0.0000000E+00  0.6944444E-02
   1       -1.3499
   2       -1.3499
   3       -0.1816
   4       -0.1816
   5       -0.0957
   6       -0.0957
   7        0.1155
   8        0.1155
   9        0.3584
  10        0.3584
  11        0.8090
  12        0.8090
  13        1.9309
  14        1.9309
  15        2.0267
  16        2.0267
  17        2.0770
  18        2.0770
  19        3.0327
  20        3.0327
  21        3.4255
  22        3.4255
  23        7.3241
  24        7.3241
  25       12.3414
  26       12.3414
  27       12.7305
  28       12.7305
 
  0.3333333E+00  0.3333333E+00  0.0000000E+00  0.6944444E-02
   1       -2.0047
   2       -0.6216
   3       -0.4331
   4       -0.4331
   5       -0.2292
   6       -0.2292
   7        0.1605
   8        0.2293
   9        0.4866
  10        0.4866
  11        0.9708
  12        1.0233
  13        1.4693
  14        1.6688
  15        2.0970
  16        2.3567
  17        2.3567
  18        2.6682
  19        2.6682
  20        2.9106
  21        3.0671
  22        5.1819
  23        5.1819
  24        7.7310
  25       11.6240
  26       12.3136
  27       13.7933
  28       13.7933
 
  0.4166667E+00  0.3333333E+00  0.0000000E+00  0.1388889E-01
   1       -1.5355
   2       -0.6339
   3       -0.4558
   4       -0.1218
   5       -0.0990
   6        0.0472
   7        0.1501
   8        0.1573
   9        0.2944
  10        0.4905
  11        0.6772
  12        0.8985
  13        1.6762
  14        1.6816
  15        1.9555
  16        2.1099
  17        2.1216
  18        2.3015
  19        2.6784
  20        2.7815
  21        3.4522
  22        4.4619
  23        5.7944
  24        7.0321
  25       12.4210
  26       12.5477
  27       13.1432
  28       14.4893
 
  0.5000000E+00  0.3333333E+00  0.0000000E+00  0.6944444E-02
   1       -1.0522
   2       -1.0522
   3       -0.2332
   4       -0.2332
   5        0.0335
   6        0.0335
   7        0.2367
   8        0.2367
   9        0.3577
  10        0.3577
  11        0.6871
  12        0.6871
  13        1.8518
  14        1.8518
  15        1.9564
  16        1.9564
  17        1.9614
  18        1.9614
  19        2.7106
  20        2.7106
  21        3.9050
  22        3.9050
  23        6.4001
  24        6.4001
  25       12.6898
  26       12.6898
  27       13.5150
  28       13.5150
 
  0.4166667E+00  0.4166667E+00  0.0000000E+00  0.6944444E-02
   1       -1.1496
   2       -0.4136
   3       -0.4128
   4       -0.4128
   5        0.1135
   6        0.1135
   7        0.1774
   8        0.3911
   9        0.3911
  10        0.4372
  11        0.5270
  12        0.8238
  13        1.5950
  14        1.8062
  15        1.8154
  16        1.9012
  17        1.9012
  18        2.3369
  19        2.3369
  20        2.5625
  21        3.9071
  22        5.0342
  23        5.0342
  24        6.2800
  25       12.7073
  26       13.4471
  27       13.7831
  28       13.7831
 
  0.5000000E+00  0.4166667E+00  0.0000000E+00  0.6944444E-02
   1       -0.7668
   2       -0.7668
   3       -0.3700
   4       -0.3700
   5        0.1625
   6        0.1625
   7        0.3315
   8        0.3315
   9        0.4463
  10        0.4463
  11        0.6474
  12        0.6474
  13        1.6820
  14        1.6820
  15        1.7696
  16        1.7696
  17        2.0397
  18        2.0397
  19        2.4171
  20        2.4171
  21        4.4225
  22        4.4225
  23        5.6286
  24        5.6286
  25       13.1552
  26       13.1552
  27       14.3989
  28       14.4004
 
  0.5000000E+00  0.5000000E+00  0.0000000E+00  0.1736111E-02
   1       -0.5404
   2       -0.5404
   3       -0.5404
   4       -0.5404
   5        0.2669
   6        0.2669
   7        0.2669
   8        0.2669
   9        0.6013
  10        0.6013
  11        0.6013
  12        0.6013
  13        1.6358
  14        1.6358
  15        1.6358
  16        1.6358
  17        2.1886
  18        2.1886
  19        2.1886
  20        2.1886
  21        4.9851
  22        4.9851
  23        4.9851
  24        4.9851
  25       13.7638
  26       13.7638
  27       13.7638
  28       13.7638
 
  0.8333333E-01  0.8333333E-01  0.8333333E-01  0.4629630E-02
   1       -3.9432
   2       -1.3538
   3       -1.3538
   4       -1.3538
   5       -1.0705
   6       -1.0705
   7       -1.0705
   8        0.6894
   9        0.8369
  10        0.8369
  11        2.1596
  12        2.1596
  13        3.0789
  14        3.0789
  15        3.0789
  16        3.1137
  17        3.1137
  18        3.1137
  19        3.5413
  20        3.5413
  21        3.5413
  22        6.4598
  23        6.4598
  24        6.4598
  25       11.4435
  26       11.4435
  27       11.4435
  28       14.9198
 
  0.1666667E+00  0.8333333E-01  0.8333333E-01  0.1388889E-01
   1       -3.7147
   2       -1.2808
   3       -1.2224
   4       -1.2224
   5       -0.9887
   6       -0.9294
   7       -0.9294
   8        0.6022
   9        0.9164
  10        0.9249
  11        2.0499
  12        2.2238
  13        2.5514
  14        2.5514
  15        2.7857
  16        2.9634
  17        2.9752
  18        2.9752
  19        3.4460
  20        3.5183
  21        3.5183
  22        5.3477
  23        7.0962
  24        7.0962
  25       11.2219
  26       11.2219
  27       12.9140
  28       14.3767
 
  0.2500000E+00  0.8333333E-01  0.8333333E-01  0.1388889E-01
   1       -3.3445
   2       -1.1935
   3       -1.0159
   4       -1.0159
   5       -0.8564
   6       -0.7032
   7       -0.7032
   8        0.4418
   9        1.0624
  10        1.0699
  11        1.8979
  12        1.9367
  13        1.9367
  14        2.3264
  15        2.3266
  16        2.7266
  17        2.7475
  18        2.7475
  19        3.3114
  20        3.4992
  21        3.4992
  22        4.2761
  23        7.8543
  24        7.8543
  25       10.9508
  26       10.9508
  27       13.8863
  28       13.8863
 
  0.3333333E+00  0.8333333E-01  0.8333333E-01  0.1388889E-01
   1       -2.8527
   2       -1.1621
   3       -0.7530
   4       -0.7530
   5       -0.6810
   6       -0.4149
   7       -0.4148
   8        0.2343
   9        1.2077
  10        1.2689
  11        1.3340
  12        1.3340
  13        1.7812
  14        1.7903
  15        2.4328
  16        2.4619
  17        2.4619
  18        2.4620
  19        3.1520
  20        3.4133
  21        3.4881
  22        3.4881
  23        8.5701
  24        8.5701
  25       10.7500
  26       10.7500
  27       13.4249
  28       13.4249
 
  0.4166667E+00  0.8333333E-01  0.8333333E-01  0.1388889E-01
   1       -2.2812
   2       -1.3101
   3       -0.4834
   4       -0.4834
   5       -0.4720
   6       -0.0983
   7       -0.0983
   8        0.0005
   9        0.7900
  10        0.7900
  11        1.2138
  12        1.3432
  13        1.5163
  14        1.9149
  15        2.1156
  16        2.2005
  17        2.2005
  18        2.6220
  19        2.7624
  20        2.9774
  21        3.4828
  22        3.4828
  23        9.0706
  24        9.0706
  25       10.7202
  26       10.7202
  27       13.0078
  28       13.0078
 
  0.5000000E+00  0.8333333E-01  0.8333333E-01  0.6944444E-02
   1       -1.7171
   2       -1.7171
   3       -0.3518
   4       -0.3518
   5       -0.2404
   6       -0.2404
   7        0.1681
   8        0.1681
   9        0.4285
  10        0.4285
  11        1.1799
  12        1.1799
  13        1.8032
  14        1.8032
  15        2.0881
  16        2.0881
  17        2.2677
  18        2.2677
  19        2.7973
  20        2.7973
  21        3.4813
  22        3.4813
  23        9.2355
  24        9.2355
  25       10.7727
  26       10.7727
  27       12.8107
  28       12.8107
 
  0.1666667E+00  0.1666667E+00  0.8333333E-01  0.1388889E-01
   1       -3.4953
   2       -1.1502
   3       -1.1502
   4       -1.1395
   5       -0.8481
   6       -0.8481
   7       -0.7609
   8        0.5643
   9        0.9586
  10        0.9802
  11        2.0362
  12        2.2290
  13        2.2373
  14        2.2373
  15        2.2633
  16        2.7765
  17        2.8477
  18        2.8477
  19        3.4344
  20        3.4344
  21        3.4515
  22        5.9569
  23        5.9569
  24        7.6183
  25       10.8505
  26       12.5013
  27       12.5013
  28       13.8241
 
  0.2500000E+00  0.1666667E+00  0.8333333E-01  0.2777778E-01
   1       -3.1402
   2       -1.0640
   3       -0.9863
   4       -0.9454
   5       -0.7171
   6       -0.6229
   7       -0.5183
   8        0.4493
   9        1.0659
  10        1.0774
  11        1.6376
  12        1.7939
  13        1.8098
  14        1.9364
  15        2.3454
  16        2.5760
  17        2.6092
  18        2.6857
  19        3.3083
  20        3.3830
  21        3.3854
  22        4.8694
  23        6.6548
  24        8.2703
  25       10.3741
  26       11.9753
  27       13.4929
  28       13.7454
 
  0.3333333E+00  0.1666667E+00  0.8333333E-01  0.2777778E-01
   1       -2.6696
   2       -1.0326
   3       -0.7626
   4       -0.6812
   5       -0.5473
   6       -0.3419
   7       -0.2483
   8        0.2753
   9        1.0800
  10        1.1281
  11        1.2508
  12        1.2811
  13        1.3589
  14        1.8915
  15        2.3130
  16        2.3458
  17        2.4535
  18        2.5223
  19        3.1194
  20        3.3380
  21        3.3400
  22        3.9762
  23        7.3361
  24        8.8201
  25       10.0181
  26       11.4683
  27       13.3430
  28       14.4337
 
  0.4166667E+00  0.1666667E+00  0.8333333E-01  0.2777778E-01
   1       -2.1231
   2       -1.1801
   3       -0.4839
   4       -0.3908
   5       -0.3536
   6       -0.0808
   7       -0.0367
   8        0.0700
   9        0.6303
  10        0.8150
  11        1.0459
  12        1.0724
  13        1.4650
  14        2.0065
  15        2.0559
  16        2.1369
  17        2.2102
  18        2.7372
  19        2.8173
  20        3.3130
  21        3.3152
  22        3.3534
  23        7.9470
  24        8.8436
  25       10.1589
  26       11.0220
  27       13.3729
  28       14.0058
 
  0.5000000E+00  0.1666667E+00  0.8333333E-01  0.1388889E-01
   1       -1.5800
   2       -1.5800
   3       -0.2506
   4       -0.2506
   5       -0.1448
   6       -0.1448
   7        0.0074
   8        0.0074
   9        0.5136
  10        0.5136
  11        0.9834
  12        0.9834
  13        1.7188
  14        1.7188
  15        2.0724
  16        2.0724
  17        2.4075
  18        2.4075
  19        2.9921
  20        2.9921
  21        3.3065
  22        3.3065
  23        8.4619
  24        8.4619
  25       10.5932
  26       10.5932
  27       13.6072
  28       13.6072
 
  0.2500000E+00  0.2500000E+00  0.8333333E-01  0.1388889E-01
   1       -2.8113
   2       -0.8930
   3       -0.8643
   4       -0.8643
   5       -0.4909
   6       -0.4909
   7       -0.2782
   8        0.4142
   9        1.0811
  10        1.1357
  11        1.2637
  12        1.2637
  13        1.5258
  14        1.9034
  15        2.3714
  16        2.4836
  17        2.4987
  18        2.4987
  19        3.2271
  20        3.2271
  21        3.2636
  22        5.5357
  23        5.5357
  24        8.7306
  25        9.7636
  26       12.9139
  27       12.9139
  28       13.3683
 
  0.3333333E+00  0.2500000E+00  0.8333333E-01  0.2777778E-01
   1       -2.3782
   2       -0.8408
   3       -0.7300
   4       -0.6101
   5       -0.3238
   6       -0.2097
   7       -0.0406
   8        0.3154
   9        0.7782
  10        0.9160
  11        1.0688
  12        1.1735
  13        1.2596
  14        1.8903
  15        2.1732
  16        2.2242
  17        2.3346
  18        2.7235
  19        3.0128
  20        3.1427
  21        3.1614
  22        4.6012
  23        6.1954
  24        8.5900
  25        9.8238
  26       12.1589
  27       13.4478
  28       13.8326
 
  0.4166667E+00  0.2500000E+00  0.8333333E-01  0.2777778E-01
   1       -1.8778
   2       -0.9940
   3       -0.5004
   4       -0.3235
   5       -0.1530
   6       -0.0154
   7        0.0834
   8        0.1720
   9        0.4721
  10        0.7426
  11        0.8354
  12        0.9605
  13        1.4325
  14        1.9281
  15        2.0152
  16        2.0453
  17        2.1363
  18        2.7118
  19        3.0262
  20        3.0887
  21        3.0960
  22        3.8962
  23        6.8236
  24        8.0158
  25       10.3643
  26       11.5089
  27       13.7276
  28       14.7696
 
  0.5000000E+00  0.2500000E+00  0.8333333E-01  0.1388889E-01
   1       -1.3772
   2       -1.3772
   3       -0.2289
   4       -0.2289
   5       -0.0269
   6       -0.0269
   7        0.0109
   8        0.0109
   9        0.5840
  10        0.5840
  11        0.8021
  12        0.8021
  13        1.6564
  14        1.6564
  15        1.9942
  16        1.9942
  17        2.3555
  18        2.3555
  19        3.0726
  20        3.0726
  21        3.3981
  22        3.3981
  23        7.4231
  24        7.4231
  25       10.9298
  26       10.9298
  27       14.2054
  28       14.2054
 
  0.3333333E+00  0.3333333E+00  0.8333333E-01  0.1388889E-01
   1       -2.0009
   2       -0.6474
   3       -0.6175
   4       -0.6175
   5       -0.0294
   6       -0.0294
   7        0.1499
   8        0.3211
   9        0.5353
  10        0.5353
  11        1.0118
  12        1.0208
  13        1.3038
  14        1.8720
  15        1.9880
  16        2.1067
  17        2.1067
  18        2.9015
  19        2.9015
  20        2.9975
  21        3.0380
  22        5.2259
  23        5.2259
  24        7.8450
  25       10.2823
  26       12.9153
  27       12.9153
  28       13.7255
 
  0.4166667E+00  0.3333333E+00  0.8333333E-01  0.2777778E-01
   1       -1.5730
   2       -0.7964
   3       -0.5194
   4       -0.4181
   5        0.1220
   6        0.1676
   7        0.2219
   8        0.2789
   9        0.3952
  10        0.5060
  11        0.8412
  12        0.9012
  13        1.4023
  14        1.8349
  15        1.8469
  16        1.9568
  17        1.9932
  18        2.5988
  19        2.8274
  20        2.8744
  21        3.4222
  22        4.4618
  23        5.8413
  24        7.1177
  25       10.8501
  26       12.1297
  27       13.7458
  28       14.1870
 
  0.5000000E+00  0.3333333E+00  0.8333333E-01  0.1388889E-01
   1       -1.1459
   2       -1.1459
   3       -0.3891
   4       -0.3891
   5        0.1518
   6        0.1518
   7        0.2076
   8        0.2076
   9        0.6485
  10        0.6485
  11        0.6921
  12        0.6921
  13        1.5848
  14        1.5848
  15        1.8356
  16        1.8356
  17        2.2665
  18        2.2665
  19        2.8155
  20        2.8155
  21        3.8810
  22        3.8810
  23        6.4607
  24        6.4607
  25       11.4556
  26       11.4556
  27       14.6386
  28       14.6386
 
  0.4166667E+00  0.4166667E+00  0.8333333E-01  0.1388889E-01
   1       -1.2439
   2       -0.6397
   3       -0.6397
   4       -0.5326
   5        0.3063
   6        0.3437
   7        0.3437
   8        0.3514
   9        0.4624
  10        0.4624
  11        0.8259
  12        0.8455
  13        1.3948
  14        1.6864
  15        1.7195
  16        1.7195
  17        2.0436
  18        2.5331
  19        2.5331
  20        2.6803
  21        3.8790
  22        5.0410
  23        5.0410
  24        6.3288
  25       11.4315
  26       12.8562
  27       12.8562
  28       14.5846
 
  0.5000000E+00  0.4166667E+00  0.8333333E-01  0.1388889E-01
   1       -0.9246
   2       -0.9246
   3       -0.5582
   4       -0.5582
   5        0.3196
   6        0.3196
   7        0.3700
   8        0.3700
   9        0.6891
  10        0.6891
  11        0.7137
  12        0.7137
  13        1.5034
  14        1.5034
  15        1.6359
  16        1.6359
  17        2.2441
  18        2.2441
  19        2.5569
  20        2.5569
  21        4.4043
  22        4.4043
  23        5.6504
  24        5.6504
  25       12.0926
  26       12.0926
  27       13.6757
  28       13.6757
 
  0.5000000E+00  0.5000000E+00  0.8333333E-01  0.3472222E-02
   1       -0.7314
   2       -0.7314
   3       -0.7314
   4       -0.7314
   5        0.4013
   6        0.4013
   7        0.4013
   8        0.4013
   9        0.7449
  10        0.7449
  11        0.7449
  12        0.7449
  13        1.4937
  14        1.4937
  15        1.4937
  16        1.4937
  17        2.3455
  18        2.3455
  19        2.3455
  20        2.3455
  21        4.9804
  22        4.9804
  23        4.9804
  24        4.9804
  25       12.8300
  26       12.8300
  27       12.8300
  28       12.8300
 
  0.1666667E+00  0.1666667E+00  0.1666667E+00  0.4629630E-02
   1       -3.2888
   2       -1.0797
   3       -1.0797
   4       -1.0797
   5       -0.6727
   6       -0.6727
   7       -0.6727
   8        0.5602
   9        0.9933
  10        0.9933
  11        1.9788
  12        1.9788
  13        1.9788
  14        2.1462
  15        2.1462
  16        2.5717
  17        2.5717
  18        2.5717
  19        3.4604
  20        3.4604
  21        3.4604
  22        6.4312
  23        6.4312
  24        6.4312
  25       11.8275
  26       11.8275
  27       11.8275
  28       14.8581
 
  0.2500000E+00  0.1666667E+00  0.1666667E+00  0.1388889E-01