 running on    8 nodes
 distr:  one band on    1 nodes,    8 groups
 vasp.4.6.28 25Jul05 complex 
 POSCAR found :  1 types and    4 ions
 LDA part: xc-table for Pade appr. of Perdew
 generate k-points for:  14  14  14
 POSCAR, INCAR and KPOINTS ok, starting setup
 FFT: planning ...           1
 reading WAVECAR
 WARNING: random wavefunctions but no delay for mixing, default for NELMDL
 entering main loop
       N       E                     dE             d eps       ncg     rms          rms(c)
DAV:   1     0.277662065337E+03    0.27766E+03   -0.20208E+04  8088   0.213E+03
DAV:   2     0.758759216958E+00   -0.27690E+03   -0.26179E+03  7720   0.357E+02
DAV:   3    -0.180323748786E+02   -0.18791E+02   -0.18472E+02  8528   0.116E+02
DAV:   4    -0.182403601490E+02   -0.20799E+00   -0.20789E+00  8480   0.140E+01
DAV:   5    -0.182407376648E+02   -0.37752E-03   -0.37751E-03  8592   0.566E-01    0.141E+01
DAV:   6    -0.157411091516E+02    0.24996E+01   -0.21298E+01  8392   0.761E+01    0.530E+00
DAV:   7    -0.147477969120E+02    0.99331E+00   -0.36089E+00  8688   0.304E+01    0.133E+00
DAV:   8    -0.146963973192E+02    0.51400E-01   -0.26252E-02  8592   0.125E+00    0.587E-01
DAV:   9    -0.146890921871E+02    0.73051E-02   -0.70322E-03  9320   0.138E+00    0.281E-02
DAV:  10    -0.146891732020E+02   -0.81015E-04   -0.60326E-04  8408   0.175E-01    0.981E-03
DAV:  11    -0.146891702073E+02    0.29947E-05   -0.46479E-05  8520   0.870E-02    0.752E-03
DAV:  12    -0.146891755188E+02   -0.53115E-05   -0.14164E-06  8768   0.212E-02    0.108E-03
DAV:  13    -0.146891760962E+02   -0.57737E-06   -0.58505E-08  8328   0.341E-03    0.356E-04
DAV:  14    -0.146891762410E+02   -0.14477E-06   -0.36911E-09  5064   0.799E-04    0.714E-05
DAV:  15    -0.146891762192E+02    0.21731E-07   -0.77232E-10  4512   0.204E-04    0.366E-05
DAV:  16    -0.146891762212E+02   -0.20163E-08   -0.58873E-11  4400   0.897E-05
   1 F= -.14689176E+02 E0= -.14689129E+02  d E =-.953084E-04
