   4   4   0   0
  0.1097175E+02  0.3527323E-09  0.3527323E-09  0.3527323E-09  0.5000000E-15
  1.000000000000000E-004
  CAR 
 unknown system                          
     28.14611490     -7.07484176  301      4.47774233      1.00000000
     -7.075  0.0000E+00  0.0000E+00
     -6.957  0.0000E+00  0.0000E+00
     -6.840  0.0000E+00  0.0000E+00
     -6.723  0.0000E+00  0.0000E+00
     -6.605  0.0000E+00  0.0000E+00
     -6.488  0.0000E+00  0.0000E+00
     -6.370  0.0000E+00  0.0000E+00
     -6.253  0.0000E+00  0.0000E+00
     -6.136  0.0000E+00  0.0000E+00
     -6.018  0.0000E+00  0.0000E+00
     -5.901  0.0000E+00  0.0000E+00
     -5.783  0.0000E+00  0.0000E+00
     -5.666  0.0000E+00  0.0000E+00
     -5.549  0.0000E+00  0.0000E+00
     -5.431  0.6232E-02  0.7316E-03
     -5.314  0.7450E-01  0.1385E-01
     -5.196  0.3689E-01  0.2401E-01
     -5.079  0.2621E+00  0.5482E-01
     -4.962  0.1484E-01  0.6078E-01
     -4.844  0.1877E+00  0.8983E-01
     -4.727  0.1490E+00  0.1246E+00
     -4.609  0.1490E+00  0.1480E+00
     -4.492  0.5564E-10  0.1829E+00
     -4.375  0.3300E+00  0.2217E+00
     -4.257  0.3613E+00  0.2647E+00
     -4.140  0.3693E+00  0.3094E+00
     -4.022  0.1490E+00  0.3360E+00
     -3.905  0.2147E+00  0.3612E+00
     -3.788  0.5278E+00  0.4373E+00
     -3.670  0.2485E+00  0.4803E+00
     -3.553  0.2980E+00  0.5386E+00
     -3.435  0.2712E+00  0.5705E+00
     -3.318  0.5195E+00  0.6433E+00
     -3.201  0.3229E+00  0.6902E+00
     -3.083  0.1490E+00  0.7442E+00
     -2.966  0.7443E+00  0.8316E+00
     -2.848  0.1516E+00  0.8844E+00
     -2.731  0.4842E+00  0.9585E+00
     -2.614  0.4967E-01  0.9949E+00
     -2.496  0.5192E+00  0.1095E+01
     -2.379  0.2182E+00  0.1156E+01
     -2.261  0.4525E+00  0.1289E+01
     -2.144  0.2988E+00  0.1358E+01
     -2.027  0.5960E+00  0.1445E+01
     -1.909  0.9311E+00  0.1555E+01
     -1.792  0.7184E+00  0.1656E+01
     -1.674  0.1031E+01  0.1833E+01
     -1.557  0.5343E+00  0.1903E+01
     -1.439  0.7652E+00  0.2018E+01
     -1.322  0.1362E+01  0.2241E+01
     -1.205  0.9832E+00  0.2406E+01
     -1.087  0.1053E+01  0.2613E+01
     -0.970  0.2063E+01  0.2966E+01
     -0.852  0.3420E+01  0.3445E+01
     -0.735  0.3409E+01  0.3944E+01
     -0.618  0.3043E+01  0.4435E+01
     -0.500  0.2839E+01  0.4997E+01
     -0.383  0.3797E+01  0.5581E+01
     -0.265  0.3708E+01  0.6260E+01
     -0.148  0.4975E+01  0.7248E+01
     -0.031  0.6814E+01  0.8247E+01
      0.087  0.5116E+01  0.9180E+01
      0.204  0.4720E+01  0.1014E+02
      0.322  0.5297E+01  0.1104E+02
      0.439  0.4927E+01  0.1196E+02
      0.556  0.4094E+01  0.1269E+02
      0.674  0.6238E+01  0.1381E+02
      0.791  0.6803E+01  0.1499E+02
      0.909  0.9461E+01  0.1642E+02
      1.026  0.7355E+01  0.1767E+02
      1.143  0.9714E+01  0.1928E+02
      1.261  0.1104E+02  0.2107E+02
      1.378  0.1158E+02  0.2286E+02
      1.496  0.7692E+01  0.2439E+02
      1.613  0.7200E+01  0.2565E+02
      1.730  0.6025E+01  0.2669E+02
      1.848  0.7359E+01  0.2787E+02
      1.965  0.8517E+01  0.2932E+02
      2.083  0.7890E+01  0.3089E+02
      2.200  0.8207E+01  0.3243E+02
      2.317  0.7651E+01  0.3370E+02
      2.435  0.8208E+01  0.3509E+02
      2.552  0.1038E+02  0.3660E+02
      2.670  0.1343E+02  0.3861E+02
      2.787  0.1407E+02  0.4110E+02
      2.904  0.5107E+01  0.4185E+02
      3.022  0.2099E+01  0.4217E+02
      3.139  0.6495E+00  0.4228E+02
      3.257  0.1098E+01  0.4242E+02
      3.374  0.1807E+01  0.4266E+02
      3.491  0.8032E+00  0.4278E+02
      3.609  0.7518E+00  0.4290E+02
      3.726  0.1052E+01  0.4308E+02
      3.844  0.3557E+00  0.4324E+02
      3.961  0.8940E+00  0.4339E+02
      4.078  0.1051E+01  0.4352E+02
      4.196  0.1008E+01  0.4370E+02
      4.313  0.7903E+00  0.4384E+02
      4.431  0.6346E+00  0.4395E+02
      4.548  0.3123E+00  0.4402E+02
      4.665  0.7822E+00  0.4418E+02
      4.783  0.1323E+01  0.4437E+02
      4.900  0.7064E+00  0.4447E+02
      5.018  0.1341E+01  0.4470E+02
      5.135  0.1597E+00  0.4472E+02
      5.252  0.5970E+00  0.4481E+02
      5.370  0.4429E+00  0.4493E+02
      5.487  0.1022E+01  0.4505E+02
      5.605  0.1709E+01  0.4530E+02
      5.722  0.2972E+00  0.4534E+02
      5.840  0.5959E+00  0.4545E+02
      5.957  0.1060E+01  0.4559E+02
      6.074  0.4471E+00  0.4568E+02
      6.192  0.3131E+00  0.4576E+02
      6.309  0.6962E+00  0.4587E+02
      6.427  0.5217E+00  0.4602E+02
      6.544  0.7025E+00  0.4613E+02
      6.661  0.3720E+00  0.4625E+02
      6.779  0.7450E+00  0.4637E+02
      6.896  0.6715E+00  0.4645E+02
      7.014  0.6003E+00  0.4654E+02
      7.131  0.1491E+00  0.4660E+02
      7.248  0.8091E+00  0.4670E+02
      7.366  0.7354E+00  0.4687E+02
      7.483  0.1654E-16  0.4688E+02
      7.601  0.4584E+00  0.4694E+02
      7.718  0.9570E+00  0.4710E+02
      7.835  0.5960E+00  0.4718E+02
      7.953  0.1180E-01  0.4718E+02
      8.070  0.4750E+00  0.4727E+02
      8.188  0.4213E+00  0.4733E+02
      8.305  0.1510E+00  0.4742E+02
      8.422  0.4470E+00  0.4748E+02
      8.540  0.8940E+00  0.4758E+02
      8.657  0.3228E+00  0.4762E+02
      8.775  0.7247E+00  0.4773E+02
      8.892  0.6325E+00  0.4782E+02
      9.009  0.2336E+00  0.4798E+02
      9.127  0.7236E+00  0.4812E+02
      9.244  0.7217E+00  0.4821E+02
      9.362  0.1004E+01  0.4838E+02
      9.479  0.7410E+00  0.4855E+02
      9.596  0.7506E+00  0.4866E+02
      9.714  0.4926E+00  0.4875E+02
      9.831  0.8217E+00  0.4886E+02
      9.949  0.1094E+01  0.4906E+02
     10.066  0.1098E+01  0.4919E+02
     10.183  0.1259E+01  0.4935E+02
     10.301  0.4820E+00  0.4942E+02
     10.418  0.8940E+00  0.4957E+02
     10.536  0.7871E+00  0.4966E+02
     10.653  0.7095E+00  0.4976E+02
     10.770  0.8933E+00  0.4990E+02
     10.888  0.8939E+00  0.5002E+02
     11.005  0.8770E+00  0.5016E+02
     11.123  0.3932E+00  0.5022E+02
     11.240  0.6705E+00  0.5034E+02
     11.357  0.7492E+00  0.5046E+02
     11.475  0.3004E+00  0.5053E+02
     11.592  0.9711E+00  0.5068E+02
     11.710  0.2737E+00  0.5072E+02
     11.827  0.5854E+00  0.5084E+02
     11.944  0.8222E+00  0.5093E+02
     12.062  0.5202E+00  0.5104E+02
     12.179  0.1065E+01  0.5122E+02
     12.297  0.8316E+00  0.5134E+02
     12.414  0.3634E+00  0.5144E+02
     12.531  0.5595E+00  0.5157E+02
     12.649  0.6876E+00  0.5169E+02
     12.766  0.5051E+00  0.5181E+02
     12.884  0.1342E+01  0.5200E+02
     13.001  0.6818E+00  0.5219E+02
     13.119  0.4851E+00  0.5230E+02
     13.236  0.1000E+01  0.5246E+02
     13.353  0.5957E+00  0.5254E+02
     13.471  0.1192E+01  0.5277E+02
     13.588  0.1354E+01  0.5293E+02
     13.706  0.7675E+00  0.5307E+02
     13.823  0.1576E+01  0.5327E+02
     13.940  0.8382E+00  0.5340E+02
     14.058  0.1448E+01  0.5358E+02
     14.175  0.5960E+00  0.5370E+02
     14.293  0.1138E+01  0.5387E+02
     14.410  0.7443E+00  0.5400E+02
     14.527  0.1773E+01  0.5421E+02
     14.645  0.1454E+01  0.5438E+02
     14.762  0.1009E+01  0.5453E+02
     14.880  0.7515E+00  0.5472E+02
     14.997  0.1064E+01  0.5489E+02
     15.114  0.4406E+00  0.5501E+02
     15.232  0.1196E+01  0.5524E+02
     15.349  0.1024E+01  0.5539E+02
     15.467  0.2980E+00  0.5545E+02
     15.584  0.4833E+00  0.5552E+02
     15.701  0.2235E+01  0.5583E+02
     15.819  0.1408E+01  0.5604E+02
     15.936  0.1136E+01  0.5620E+02
     16.054  0.8875E+00  0.5638E+02
     16.171  0.5960E+00  0.5653E+02
     16.288  0.8957E+00  0.5673E+02
     16.406  0.8940E+00  0.5690E+02
     16.523  0.1082E+01  0.5706E+02
     16.641  0.1117E+01  0.5725E+02
     16.758  0.5997E+00  0.5732E+02
     16.875  0.1646E+01  0.5757E+02
     16.993  0.1254E+01  0.5780E+02
     17.110  0.9935E+00  0.5796E+02
     17.228  0.1163E+01  0.5812E+02
     17.345  0.7729E-01  0.5822E+02
     17.462  0.1246E+01  0.5840E+02
     17.580  0.1270E+01  0.5860E+02
     17.697  0.1428E+01  0.5885E+02
     17.815  0.1414E+01  0.5906E+02
     17.932  0.1475E+01  0.5924E+02
     18.049  0.8000E+00  0.5938E+02
     18.167  0.1185E+01  0.5958E+02
     18.284  0.1266E+01  0.5980E+02
     18.402  0.8065E+00  0.5999E+02
     18.519  0.1240E+01  0.6022E+02
     18.636  0.7381E+00  0.6032E+02
     18.754  0.1254E+01  0.6056E+02
     18.871  0.1146E+01  0.6073E+02
     18.989  0.1043E+01  0.6093E+02
     19.106  0.9650E+00  0.6104E+02
     19.223  0.1639E+01  0.6124E+02
     19.341  0.8394E+00  0.6134E+02
     19.458  0.8338E+00  0.6153E+02
     19.576  0.1018E+01  0.6168E+02
     19.693  0.3589E+00  0.6179E+02
     19.810  0.4479E+00  0.6193E+02
     19.928  0.4466E+00  0.6203E+02
     20.045  0.1581E+01  0.6222E+02
     20.163  0.8940E+00  0.6235E+02
     20.280  0.2980E+00  0.6238E+02
     20.398  0.1480E+00  0.6240E+02
     20.515  0.4079E+00  0.6245E+02
     20.632  0.4958E+00  0.6257E+02
     20.750  0.2422E+00  0.6265E+02
     20.867  0.7450E+00  0.6281E+02
     20.985  0.1490E+00  0.6283E+02
     21.102  0.5906E-12  0.6283E+02
     21.219  0.1018E+01  0.6295E+02
     21.337  0.2980E+00  0.6299E+02
     21.454  0.6103E-01  0.6299E+02
     21.572  0.7598E+00  0.6310E+02
     21.689  0.7422E+00  0.6322E+02
     21.806  0.2845E+00  0.6326E+02
     21.924  0.2980E+00  0.6329E+02
     22.041  0.2980E+00  0.6333E+02
     22.159  0.0000E+00  0.6335E+02
     22.276  0.1893E-03  0.6335E+02
     22.393  0.1350E+00  0.6338E+02
     22.511  0.3323E+00  0.6343E+02
     22.628  0.7483E+00  0.6351E+02
     22.746  0.0000E+00  0.6355E+02
     22.863  0.0000E+00  0.6355E+02
     22.980  0.2984E+00  0.6358E+02
     23.098  0.0000E+00  0.6362E+02
     23.215  0.1490E+00  0.6364E+02
     23.333  0.2980E+00  0.6367E+02
     23.450  0.2980E+00  0.6371E+02
     23.567  0.0000E+00  0.6371E+02
     23.685  0.0000E+00  0.6371E+02
     23.802  0.8171E-01  0.6372E+02
     23.920  0.0000E+00  0.6376E+02
     24.037  0.1588E-05  0.6376E+02
     24.154  0.2100E-06  0.6378E+02
     24.272  0.1686E+00  0.6381E+02
     24.389  0.0000E+00  0.6385E+02
     24.507  0.4949E-01  0.6386E+02
     24.624  0.0000E+00  0.6387E+02
     24.741  0.0000E+00  0.6387E+02
     24.859  0.0000E+00  0.6387E+02
     24.976  0.0000E+00  0.6387E+02
     25.094  0.1490E+00  0.6389E+02
     25.211  0.1974E+00  0.6391E+02
     25.328  0.1085E-08  0.6394E+02
     25.446  0.1490E+00  0.6396E+02
     25.563  0.0000E+00  0.6396E+02
     25.681  0.0000E+00  0.6396E+02
     25.798  0.0000E+00  0.6396E+02
     25.915  0.0000E+00  0.6396E+02
     26.033  0.1292E-13  0.6396E+02
     26.150  0.1490E+00  0.6397E+02
     26.268  0.1236E-03  0.6397E+02
     26.385  0.2645E-12  0.6399E+02
     26.502  0.4967E-01  0.6400E+02
     26.620  0.2483E-01  0.6400E+02
     26.737  0.0000E+00  0.6400E+02
     26.855  0.0000E+00  0.6400E+02
     26.972  0.0000E+00  0.6400E+02
     27.089  0.0000E+00  0.6400E+02
     27.207  0.0000E+00  0.6400E+02
     27.324  0.0000E+00  0.6400E+02
     27.442  0.0000E+00  0.6400E+02
     27.559  0.0000E+00  0.6400E+02
     27.677  0.0000E+00  0.6400E+02
     27.794  0.0000E+00  0.6400E+02
     27.911  0.0000E+00  0.6400E+02
     28.029  0.0000E+00  0.6400E+02
     28.146  0.0000E+00  0.6400E+02
