    4    4    1    1
  0.1097175E+02  0.3527323E-09  0.3527323E-09  0.3527323E-09  0.5000000E-15
  1.000000000000000E-004
  CAR 
 unknown system                          
   44  120   32
 
  0.0000000E+00  0.0000000E+00  0.0000000E+00  0.3644315E-03
   1       -5.4739
   2       -0.8989
   3       -0.8989
   4       -0.8989
   5       -0.3963
   6       -0.3963
   7       -0.3963
   8        1.1642
   9        1.1642
  10        1.1642
  11        2.0926
  12        2.0926
  13        2.7083
  14        2.7083
  15        2.7083
  16        2.8815
  17        2.8815
  18        2.8815
  19        2.8815
  20        2.8815
  21        2.8815
  22        5.9109
  23        5.9109
  24        5.9109
  25       12.1039
  26       12.1039
  27       12.1039
  28       18.2281
  29       18.2281
  30       18.2281
  31       18.2281
  32       18.2281
 
  0.7142857E-01  0.0000000E+00  0.0000000E+00  0.2186589E-02
   1       -5.4084
   2       -0.8976
   3       -0.8670
   4       -0.8670
   5       -0.3779
   6       -0.3768
   7       -0.3768
   8        1.1435
   9        1.1807
  10        1.1807
  11        2.0737
  12        2.1001
  13        2.6839
  14        2.6839
  15        2.7004
  16        2.7523
  17        2.7523
  18        2.8527
  19        2.8527
  20        2.8815
  21        2.8815
  22        5.5188
  23        6.0974
  24        6.0974
  25       12.1254
  26       12.1254
  27       12.6218
  28       17.7761
  29       17.7761
  30       17.9564
  31       17.9564
  32       18.3257
 
  0.1428571E+00  0.0000000E+00  0.0000000E+00  0.2186589E-02
   1       -5.2130
   2       -0.9029
   3       -0.7748
   4       -0.7748
   5       -0.3234
   6       -0.3180
   7       -0.3180
   8        1.0823
   9        1.2297
  10        1.2297
  11        2.0186
  12        2.1224
  13        2.4358
  14        2.4358
  15        2.6122
  16        2.6122
  17        2.6771
  18        2.7693
  19        2.7693
  20        2.8816
  21        2.8816
  22        4.6196
  23        6.5858
  24        6.5858
  25       12.1914
  26       12.1914
  27       13.9053
  28       16.7686
  29       16.7686
  30       17.2850
  31       17.2850
  32       18.6151
 
  0.2142857E+00  0.0000000E+00  0.0000000E+00  0.2186589E-02
   1       -4.8912
   2       -0.9451
   3       -0.6323
   4       -0.6323
   5       -0.2351
   6       -0.2193
   7       -0.2193
   8        0.9845
   9        1.3105
  10        1.3105
  11        1.9323
  12        2.0425
  13        2.0425
  14        2.1584
  15        2.4992
  16        2.4992
  17        2.6397
  18        2.6397
  19        2.6397
  20        2.8818
  21        2.8818
  22        3.5987
  23        7.2646
  24        7.2646
  25       12.3061
  26       12.3061
  27       15.5887
  28       15.5887
  29       15.5919
  30       16.4556
  31       16.4556
  32       19.0868
 
  0.2857143E+00  0.0000000E+00  0.0000000E+00  0.2186589E-02
   1       -4.4500
   2       -1.0846
   3       -0.4580
   4       -0.4580
   5       -0.1169
   6       -0.0798
   7       -0.0798
   8        0.8556
   9        1.4214
  10        1.4214
  11        1.6384
  12        1.6384
  13        1.8242
  14        2.2063
  15        2.3573
  16        2.3573
  17        2.4755
  18        2.4755
  19        2.5902
  20        2.6862
  21        2.8820
  22        2.8820
  23        8.0668
  24        8.0668
  25       12.4756
  26       12.4756
  27       14.3809
  28       14.3809
  29       15.6273
  30       15.6273
  31       17.4985
  32       19.7271
 
  0.3571429E+00  0.0000000E+00  0.0000000E+00  0.2186589E-02
   1       -3.9015
   2       -1.4025
   3       -0.2811
   4       -0.2811
   5        0.0263
   6        0.1016
   7        0.1016
   8        0.7029
   9        1.2541
  10        1.2541
  11        1.5598
  12        1.5598
  13        1.7096
  14        2.0296
  15        2.2091
  16        2.2091
  17        2.2640
  18        2.2898
  19        2.2898
  20        2.5311
  21        2.8822
  22        2.8822
  23        8.9598
  24        8.9598
  25       12.7035
  26       12.7035
  27       13.1953
  28       13.1953
  29       14.8850
  30       14.8850
  31       19.5340
  32       20.5202
 
  0.4285714E+00  0.0000000E+00  0.0000000E+00  0.2186589E-02
   1       -3.2668
   2       -1.9284
   3       -0.1432
   4       -0.1432
   5        0.1878
   6        0.3258
   7        0.3258
   8        0.5347
   9        0.9037
  10        0.9037
  11        1.6140
  12        1.6839
  13        1.7221
  14        1.7221
  15        2.0908
  16        2.0908
  17        2.0952
  18        2.0952
  19        2.3285
  20        2.4655
  21        2.8823
  22        2.8823
  23        9.9275
  24        9.9275
  25       12.0517
  26       12.0517
  27       12.9738
  28       12.9738
  29       14.2912
  30       14.2912
  31       21.4499
  32       21.4504
 
  0.5000000E+00  0.0000000E+00  0.0000000E+00  0.1093294E-02
   1       -2.5853
   2       -2.5853
   3       -0.0898
   4       -0.0898
   5        0.3601
   6        0.3601
   7        0.5934
   8        0.5934
   9        0.5934
  10        0.5934
  11        1.5806
  12        1.5806
  13        1.9030
  14        1.9030
  15        1.9030
  16        1.9030
  17        2.0445
  18        2.0445
  19        2.3969
  20        2.3969
  21        2.8823
  22        2.8823
  23       10.9603
  24       10.9603
  25       10.9603
  26       10.9603
  27       13.1451
  28       13.1451
  29       14.0097
  30       14.0097
  31       22.5008
  32       22.5008
 
  0.7142857E-01  0.7142857E-01  0.0000000E+00  0.4373178E-02
   1       -5.3431
   2       -0.8653
   3       -0.8653
   4       -0.8358
   5       -0.3586
   6       -0.3586
   7       -0.3578
   8        1.1316
   9        1.1885
  10        1.1959
  11        2.0684
  12        2.0953
  13        2.6540
  14        2.6589
  15        2.6589
  16        2.6602
  17        2.7355
  18        2.7355
  19        2.8527
  20        2.8527
  21        2.8632
  22        5.7040
  23        5.7040
  24        6.2716
  25       12.1466
  26       12.6499
  27       12.6499
  28       16.8473
  29       17.8683
  30       17.8683
  31       18.0504
  32       18.0504
 
  0.1428571E+00  0.7142857E-01  0.0000000E+00  0.8746356E-02
   1       -5.1483
   2       -0.8690
   3       -0.7715
   4       -0.7451
   5       -0.3050
   6       -0.3007
   7       -0.3005
   8        1.0761
   9        1.2330
  10        1.2411
  11        2.0200
  12        2.1148
  13        2.3714
  14        2.3795
  15        2.5706
  16        2.5908
  17        2.6205
  18        2.6982
  19        2.7692
  20        2.8526
  21        2.8532
  22        4.8146
  23        6.1790
  24        6.7363
  25       12.2110
  26       12.7357
  27       13.9426
  28       15.6794
  29       16.8542
  30       17.3716
  31       18.1411
  32       18.2482
 
  0.2142857E+00  0.7142857E-01  0.0000000E+00  0.8746356E-02
   1       -4.8277
   2       -0.9085
   3       -0.6264
   4       -0.6048
   5       -0.2180
   6       -0.2047
   7       -0.2034
   8        0.9811
   9        1.3123
  10        1.3145
  11        1.9382
  12        1.9880
  13        2.0019
  14        2.1536
  15        2.4056
  16        2.4811
  17        2.5056
  18        2.6394
  19        2.6481
  20        2.8508
  21        2.8525
  22        3.8363
  23        6.8240
  24        7.3943
  25       12.3184
  26       12.8846
  27       14.5042
  28       15.6337
  29       15.6711
  30       16.5348
  31       17.5805
  32       18.5835
 
  0.2857143E+00  0.7142857E-01  0.0000000E+00  0.8746356E-02
   1       -4.3882
   2       -1.0443
   3       -0.4484
   4       -0.4325
   5       -0.1014
   6       -0.0704
   7       -0.0659
   8        0.8549
   9        1.4105
  10        1.4225
  11        1.5880
  12        1.6144
  13        1.8404
  14        2.1435
  15        2.2062
  16        2.3431
  17        2.3637
  18        2.4750
  19        2.5754
  20        2.8503
  21        2.8524
  22        3.0418
  23        7.5717
  24        8.1811
  25       12.4414
  26       13.1027
  27       13.4129
  28       14.4626
  29       15.7014
  30       16.7440
  31       17.5364
  32       19.1791
 
  0.3571429E+00  0.7142857E-01  0.0000000E+00  0.8746356E-02
   1       -3.8420
   2       -1.3581
   3       -0.2667
   4       -0.2557
   5        0.0395
   6        0.1017
   7        0.1128
   8        0.7050
   9        1.2100
  10        1.2419
  11        1.5043
  12        1.5605
  13        1.7645
  14        1.8047
  15        2.1993
  16        2.2151
  17        2.2699
  18        2.2893
  19        2.4200
  20        2.6330
  21        2.8504
  22        2.8521
  23        8.3902
  24        9.0631
  25       12.0971
  26       12.9149
  27       13.2781
  28       13.3888
  29       14.9631
  30       15.9129
  31       19.5128
  32       19.9079
 
  0.4285714E+00  0.7142857E-01  0.0000000E+00  0.8746356E-02
   1       -3.2103
   2       -1.8798
   3       -0.1230
   4       -0.1166
   5        0.1985
   6        0.3128
   7        0.3334
   8        0.5397
   9        0.8676
  10        0.9000
  11        1.5173
  12        1.5666
  13        1.7223
  14        1.8109
  15        2.0857
  16        2.0947
  17        2.0949
  18        2.1790
  19        2.3419
  20        2.5056
  21        2.8509
  22        2.8518
  23        9.2637
  24       10.0227
  25       11.1449
  26       12.1371
  27       13.1579
  28       13.6615
  29       14.4482
  30       15.1704
  31       20.7475
  32       20.9152
 
  0.5000000E+00  0.7142857E-01  0.0000000E+00  0.4373178E-02
   1       -2.5325
   2       -2.5325
   3       -0.0648
   4       -0.0648
   5        0.3680
   6        0.3680
   7        0.5675
   8        0.5675
   9        0.5961
  10        0.5961
  11        1.4957
  12        1.4957
  13        1.9028
  14        1.9028
  15        1.9706
  16        1.9706
  17        2.0442
  18        2.0442
  19        2.4200
  20        2.4200
  21        2.8513
  22        2.8513
  23       10.1843
  24       10.1843
  25       11.0497
  26       11.0497
  27       13.5136
  28       13.5136
  29       14.5860
  30       14.5860
  31       21.6737
  32       21.6738
 
  0.1428571E+00  0.1428571E+00  0.0000000E+00  0.4373178E-02
   1       -4.9556
   2       -0.7705
   3       -0.7705
   4       -0.6589
   5       -0.2494
   6       -0.2494
   7       -0.2479
   8        1.0408
   9        1.2599
  10        1.2746
  11        2.0017
  12        2.1159
  13        2.1735
  14        2.2367
  15        2.2367
  16        2.5277
  17        2.6186
  18        2.6186
  19        2.7687
  20        2.7687
  21        2.8086
  22        5.2815
  23        5.2815
  24        7.1516
  25       12.2649
  26       14.0556
  27       14.0556
  28       14.3932
  29       17.1071
  30       17.1071
  31       17.6293
  32       17.6293
 
  0.2142857E+00  0.1428571E+00  0.0000000E+00  0.8746356E-02
   1       -4.6385
   2       -0.8018
   3       -0.6174
   4       -0.5254
   5       -0.1663
   6       -0.1606
   7       -0.1562
   8        0.9623
   9        1.3271
  10        1.3273
  11        1.8420
  12        1.8769
  13        1.9405
  14        2.0252
  15        2.1553
  16        2.4273
  17        2.5081
  18        2.5859
  19        2.6385
  20        2.7680
  21        2.7826
  22        4.3160
  23        5.8807
  24        7.7615
  25       12.2948
  26       13.2416
  27       14.2465
  28       15.7578
  29       15.9145
  30       16.7734
  31       17.5164
  32       18.0557
 
  0.2857143E+00  0.1428571E+00  0.0000000E+00  0.8746356E-02
   1       -4.2043
   2       -0.9267
   3       -0.4280
   4       -0.3594
   5       -0.0552
   6       -0.0413
   7       -0.0247
   8        0.8482
   9        1.3874
  10        1.4311
  11        1.4527
  12        1.5406
  13        1.7596
  14        1.8650
  15        2.2213
  16        2.3005
  17        2.3696
  18        2.4739
  19        2.5148
  20        2.7670
  21        2.7707
  22        3.5148
  23        6.5545
  24        8.5100
  25       11.7585
  26       12.8038
  27       14.5085
  28       14.7040
  29       15.9360
  30       17.6247
  31       18.0665
  32       18.3597
 
  0.3571429E+00  0.1428571E+00  0.0000000E+00  0.8746356E-02
   1       -3.6652
   2       -1.2283
   3       -0.2311
   4       -0.1833
   5        0.0791
   6        0.1038
   7        0.1457
   8        0.7088
   9        1.0920
  10        1.2041
  11        1.4224
  12        1.5068
  13        1.5653
  14        1.8280
  15        2.1686
  16        2.2220
  17        2.2883
  18        2.3053
  19        2.3930
  20        2.7657
  21        2.7659
  22        2.9825
  23        7.2832
  24        9.3632
  25       10.7641
  26       12.9906
  27       13.5224
  28       14.7061
  29       15.3377
  30       17.5908
  31       18.7391
  32       19.0875
 
  0.4285714E+00  0.1428571E+00  0.0000000E+00  0.8746356E-02
   1       -3.0429
   2       -1.7372
   3       -0.0691
   4       -0.0393
   5        0.2303
   6        0.2754
   7        0.3553
   8        0.5535
   9        0.7701
  10        0.8882
  11        1.3661
  12        1.3956
  13        1.7247
  14        1.8876
  15        2.0674
  16        2.0944
  17        2.0980
  18        2.2167
  19        2.4048
  20        2.6903
  21        2.7641
  22        2.7648
  23        8.0629
  24        9.7974
  25       10.3013
  26       12.3887
  27       13.3249
  28       14.2968
  29       15.5601
  30       16.8218
  31       19.5158
  32       19.9850
 
  0.5000000E+00  0.1428571E+00  0.0000000E+00  0.4373178E-02
   1       -2.3768
   2       -2.3768
   3        0.0068
   4        0.0068
   5        0.3911
   6        0.3911
   7        0.4950
   8        0.4950
   9        0.6036
  10        0.6036
  11        1.3501
  12        1.3501
  13        1.9035
  14        1.9035
  15        2.0313
  16        2.0313
  17        2.0383
  18        2.0383
  19        2.5246
  20        2.5246
  21        2.7641
  22        2.7641
  23        8.8983
  24        8.8983
  25       11.3125
  26       11.3125
  27       13.7661
  28       13.7661
  29       16.1287
  30       16.1287
  31       20.3799
  32       20.3799
 
  0.2142857E+00  0.2142857E+00  0.0000000E+00  0.4373178E-02
   1       -4.3276
   2       -0.6351
   3       -0.6351
   4       -0.4028
   5       -0.0875
   6       -0.0799
   7       -0.0799
   8        0.9117
   9        1.3472
  10        1.3738
  11        1.6346
  12        1.6346
  13        1.6724
  14        1.9088
  15        2.1976
  16        2.3409
  17        2.4833
  18        2.4833
  19        2.6371
  20        2.6371
  21        2.7192
  22        4.8780
  23        4.8780
  24        8.3186
  25       11.6305
  26       12.7581
  27       15.9480
  28       15.9480
  29       16.3088
  30       16.3088
  31       17.1912
  32       17.1912
 
  0.2857143E+00  0.2142857E+00  0.0000000E+00  0.8746356E-02
   1       -3.9025
   2       -0.7421
   3       -0.4266
   4       -0.2495
   5        0.0100
   6        0.0219
   7        0.0416
   8        0.8243
   9        1.2686
  10        1.3653
  11        1.4069
  12        1.4151
  13        1.4602
  14        1.8552
  15        2.2301
  16        2.2844
  17        2.3513
  18        2.4178
  19        2.4724
  20        2.6355
  21        2.6772
  22        4.0207
  23        5.4898
  24        9.0209
  25       10.5190
  26       12.8957
  27       15.0949
  28       15.9650
  29       16.5985
  30       16.8393
  31       17.4198
  32       18.1796
 
  0.3571429E+00  0.2142857E+00  0.0000000E+00  0.8746356E-02
   1       -3.3762
   2       -1.0241
   3       -0.2046
   4       -0.0783
   5        0.1158
   6        0.1445
   7        0.1983
   8        0.7075
   9        0.9374
  10        1.1379
  11        1.2330
  12        1.3545
  13        1.5827
  14        1.8316
  15        2.1146
  16        2.2079
  17        2.2875
  18        2.3058
  19        2.4019
  20        2.6342
  21        2.6534
  22        3.3937
  23        6.1483
  24        9.4626
  25        9.8367
  26       13.1695
  27       13.9178
  28       15.3131
  29       16.8535
  30       17.4902
  31       18.1731
  32       19.3971
 
  0.4285714E+00  0.2142857E+00  0.0000000E+00  0.8746356E-02
   1       -2.7710
   2       -1.5106
   3       -0.0097
   4        0.0811
   5        0.2177
   6        0.2819
   7        0.3896
   8        0.5718
   9        0.6449
  10        0.8657
  11        1.1746
  12        1.2941
  13        1.7343
  14        1.8825
  15        2.0293
  16        2.0826
  17        2.0955
  18        2.1563
  19        2.5464
  20        2.6339
  21        2.6411
  22        2.9878
  23        6.8610
  24        8.5042
  25       10.7456
  26       12.7946
  27       13.5459
  28       14.6211
  29       17.3597
  30       18.2462
  31       18.6825
  32       18.9354
 
  0.5000000E+00  0.2142857E+00  0.0000000E+00  0.4373178E-02
   1       -2.1263
   2       -2.1263
   3        0.1063
   4        0.1063
   5        0.3953
   6        0.3953
   7        0.4270
   8        0.4270
   9        0.6135
  10        0.6135
  11        1.2146
  12        1.2146
  13        1.9079
  14        1.9079
  15        2.0017
  16        2.0017
  17        2.0142
  18        2.0142
  19        2.6356
  20        2.6356
  21        2.7293
  22        2.7293
  23        7.6412
  24        7.6412
  25       11.7346
  26       11.7346
  27       14.0284
  28       14.0284
  29       17.9813
  30       17.9813
  31       19.0945
  32       19.0945
 
  0.2857143E+00  0.2857143E+00  0.0000000E+00  0.4373178E-02
   1       -3.4913
   2       -0.5095
   3       -0.5095
   4       -0.1188
   5        0.0833
   6        0.1297
   7        0.1297
   8        0.7726
   9        1.0905
  10        1.0905
  11        1.2434
  12        1.3434
  13        1.5229
  14        1.8124
  15        2.1372
  16        2.2927
  17        2.2927
  18        2.4017
  19        2.4712
  20        2.4712
  21        2.5971
  22        4.5611
  23        4.5611
  24        9.3396
  25        9.6790
  26       13.1181
  27       15.6214
  28       15.6214
  29       16.6046
  30       16.6046
  31       18.3942
  32       18.3942
 
  0.3571429E+00  0.2857143E+00  0.0000000E+00  0.8746356E-02
   1       -2.9847
   2       -0.7654
   3       -0.2581
   4        0.0178
   5        0.1651
   6        0.2348
   7        0.2673
   8        0.6918
   9        0.8124
  10        0.9940
  11        1.0416
  12        1.3007
  13        1.6238
  14        1.7846
  15        2.0382
  16        2.1553
  17        2.1889
  18        2.2885
  19        2.4717
  20        2.5406
  21        2.5585
  22        3.8427
  23        5.1454
  24        8.2766
  25       10.4566
  26       13.4352
  27       14.4497
  28       15.7630
  29       16.2685
  30       17.2061
  31       18.8154
  32       19.8297
 
  0.4285714E+00  0.2857143E+00  0.0000000E+00  0.8746356E-02
   1       -2.4065
   2       -1.2189
   3       -0.0301
   4        0.1380
   5        0.2360
   6        0.3513
   7        0.4328
   8        0.5732
   9        0.5884
  10        0.8291
  11        1.0120
  12        1.2156
  13        1.7591
  14        1.8181
  15        1.9663
  16        2.0325
  17        2.0527
  18        2.1012
  19        2.4756
  20        2.5054
  21        2.7514
  22        3.3392
  23        5.7894
  24        7.3368
  25       11.3340
  26       13.3391
  27       13.8514
  28       15.0130
  29       17.0224
  30       17.9038
  31       18.8094
  32       19.3531
 
  0.5000000E+00  0.2857143E+00  0.0000000E+00  0.4373178E-02
   1       -1.7963
   2       -1.7963
   3        0.1221
   4        0.1221
   5        0.3739
   6        0.3739
   7        0.4718
   8        0.4718
   9        0.6224
  10        0.6224
  11        1.1043
  12        1.1043
  13        1.9166
  14        1.9166
  15        1.9212
  16        1.9212
  17        1.9606
  18        1.9606
  19        2.4855
  20        2.4855
  21        2.9973
  22        2.9973
  23        6.5130
  24        6.5130
  25       12.2980
  26       12.2980
  27       14.3753
  28       14.3753
  29       17.8720
  30       17.8720
  31       18.7045
  32       18.7045
 
  0.3571429E+00  0.3571429E+00  0.0000000E+00  0.4373178E-02
   1       -2.5070
   2       -0.4847
   3       -0.4847
   4        0.0532
   5        0.2772
   6        0.3480
   7        0.3480
   8        0.6548
   9        0.7946
  10        0.7946
  11        0.9179
  12        1.2417
  13        1.6981
  14        1.7367
  15        1.9512
  16        2.0595
  17        2.0595
  18        2.2940
  19        2.2940
  20        2.4465
  21        2.7586
  22        4.3383
  23        4.3383
  24        7.2277
  25       11.1990
  26       13.7933
  27       15.1033
  28       15.1033
  29       16.3044
  30       16.3044
  31       18.7103
  32       19.5397
 
  0.4285714E+00  0.3571429E+00  0.0000000E+00  0.8746356E-02
   1       -1.9692
   2       -0.8922
   3       -0.2279
   4        0.0388
   5        0.3998
   6        0.4345
   7        0.4802
   8        0.5958
   9        0.6360
  10        0.7753
  11        0.8826
  12        1.1479
  13        1.7410
  14        1.8082
  15        1.8839
  16        1.9346
  17        1.9436
  18        2.1158
  19        2.3073
  20        2.3779
  21        3.0027
  22        3.7398
  23        4.8994
  24        6.3217
  25       12.0461
  26       14.0064
  27       14.2527
  28       15.5056
  29       15.8652
  30       16.9518
  31       17.6745
  32       18.5699
 
  0.5000000E+00  0.3571429E+00  0.0000000E+00  0.4373178E-02
   1       -1.4116
   2       -1.4116
   3       -0.0460
   4       -0.0460
   5        0.5119
   6        0.5119
   7        0.5198
   8        0.5198
   9        0.6256
  10        0.6256
  11        1.0172
  12        1.0172
  13        1.8151
  14        1.8151
  15        1.8767
  16        1.8767
  17        1.9502
  18        1.9502
  19        2.3334
  20        2.3334
  21        3.3142
  22        3.3142
  23        5.5519
  24        5.5519
  25       12.9850
  26       12.9850
  27       14.8215
  28       14.8215
  29       16.7247
  30       16.7247
  31       17.7069
  32       17.7069
 
  0.4285714E+00  0.4285714E+00  0.0000000E+00  0.4373178E-02
   1       -1.4890
   2       -0.5716
   3       -0.5716
   4       -0.0999
   5        0.5261
   6        0.5261
   7        0.5542
   8        0.5882
   9        0.7040
  10        0.7792
  11        0.7792
  12        1.0622
  13        1.7024
  14        1.8086
  15        1.8323
  16        1.8323
  17        1.8887
  18        2.1452
  19        2.1452
  20        2.2728
  21        3.3068
  22        4.2075
  23        4.2075
  24        5.4692
  25       12.8658
  26       14.7579
  27       14.7827
  28       14.7827
  29       16.1055
  30       16.1055
  31       16.6230
  32       17.6374
 
  0.5000000E+00  0.4285714E+00  0.0000000E+00  0.4373178E-02
   1       -1.0073
   2       -1.0073
   3       -0.3002
   4       -0.3002
   5        0.5640
   6        0.5640
   7        0.6187
   8        0.6187
   9        0.6790
  10        0.6790
  11        0.9348
  12        0.9348
  13        1.7373
  14        1.7373
  15        1.7835
  16        1.7835
  17        2.0025
  18        2.0025
  19        2.1957
  20        2.1957
  21        3.6926
  22        3.6926
  23        4.7727
  24        4.7727
  25       13.7809
  26       13.7809
  27       15.3740
  28       15.3740
  29       15.6574
  30       15.6574
  31       16.8156
  32       16.8156
 
  0.5000000E+00  0.5000000E+00  0.0000000E+00  0.1093294E-02
   1       -0.6253
   2       -0.6253
   3       -0.6253
   4       -0.6253
   5        0.5981
   6        0.5981
   7        0.5981
   8        0.5981
   9        0.8265
  10        0.8265
  11        0.8265
  12        0.8265
  13        1.7244
  14        1.7244
  15        1.7244
  16        1.7244
  17        2.0838
  18        2.0838
  19        2.0838
  20        2.0838
  21        4.1647
  22        4.1647
  23        4.1647
  24        4.1647
  25       14.6743
  26       14.6743
  27       14.6743
  28       14.6743
  29       16.0378
  30       16.0378
  31       16.0378
  32       16.0378
 
  0.7142857E-01  0.7142857E-01  0.7142857E-01  0.2915452E-02
   1       -5.2780
   2       -0.8336
   3       -0.8336
   4       -0.8336
   5       -0.3399
   6       -0.3399
   7       -0.3399
   8        1.1203
   9        1.2030
  10        1.2030
  11        2.0774
  12        2.0774
  13        2.6155
  14        2.6155
  15        2.6155
  16        2.6418
  17        2.6418
  18        2.6418
  19        2.8464
  20        2.8464
  21        2.8464
  22        5.8747
  23        5.8747
  24        5.8747
  25       12.6777
  26       12.6777
  27       12.6777
  28       16.9346
  29       16.9346
  30       16.9346
  31       18.5154
  32       18.5154
 
  0.1428571E+00  0.7142857E-01  0.7142857E-01  0.8746356E-02
   1       -5.0840
   2       -0.8359
   3       -0.7415
   4       -0.7415
   5       -0.2869
   6       -0.2834
   7       -0.2834
   8        1.0693
   9        1.2419
  10        1.2463
  11        2.0257
  12        2.1041
  13        2.3221
  14        2.3221
  15        2.4990
  16        2.5782
  17        2.5782
  18        2.5842
  19        2.8016
  20        2.8381
  21        2.8381
  22        4.9858
  23        6.3227
  24        6.3227
  25       12.7620
  26       12.7620
  27       13.9794
  28       15.7630
  29       15.7630
  30       17.1934
  31       18.3385
  32       18.3385
 
  0.2142857E+00  0.7142857E-01  0.7142857E-01  0.8746356E-02
   1       -4.7646
   2       -0.8730
   3       -0.5990
   4       -0.5990
   5       -0.2011
   6       -0.1889
   7       -0.1889
   8        0.9779
   9        1.3139
  10        1.3177
  11        1.9472
  12        1.9508
  13        1.9508
  14        2.1471
  15        2.2991
  16        2.4754
  17        2.4754
  18        2.4849
  19        2.7401
  20        2.8319
  21        2.8319
  22        4.0177
  23        6.9444
  24        6.9444
  25       12.9017
  26       12.9017
  27       14.5884
  28       14.5884
  29       15.6732
  30       17.6166
  31       17.6621
  32       17.6621
 
  0.2857143E+00  0.7142857E-01  0.7142857E-01  0.8746356E-02
   1       -4.3269
   2       -1.0055
   3       -0.4234
   4       -0.4234
   5       -0.0861
   6       -0.0567
   7       -0.0567
   8        0.8547
   9        1.4059
  10        1.4161
  11        1.5669
  12        1.5669
  13        1.8596
  14        2.0107
  15        2.2043
  16        2.3420
  17        2.3420
  18        2.3490
  19        2.6699
  20        2.8281
  21        2.8281
  22        3.2157
  23        7.6743
  24        7.6743
  25       13.0111
  26       13.0111
  27       13.5615
  28       13.5615
  29       16.8187
  30       16.8187
  31       17.5451
  32       18.2226
 
  0.3571429E+00  0.7142857E-01  0.7142857E-01  0.8746356E-02
   1       -3.7831
   2       -1.3154
   3       -0.2420
   4       -0.2420
   5        0.0530
   6        0.1116
   7        0.1116
   8        0.7077
   9        1.2016
  10        1.2016
  11        1.4797
  12        1.5393
  13        1.6951
  14        1.8130
  15        2.1884
  16        2.2000
  17        2.2000
  18        2.2728
  19        2.5938
  20        2.6778
  21        2.8261
  22        2.8261
  23        8.4775
  24        8.4775
  25       12.2637
  26       12.2637
  27       13.5376
  28       13.5376
  29       15.9834
  30       15.9834
  31       18.7869
  32       19.7162
 
  0.4285714E+00  0.7142857E-01  0.7142857E-01  0.8746356E-02
   1       -3.1547
   2       -1.8327
   3       -0.0966
   4       -0.0966
   5        0.2097
   6        0.3146
   7        0.3146
   8        0.5455
   9        0.8716
  10        0.8716
  11        1.4725
  12        1.4938
  13        1.6841
  14        1.8921
  15        2.0167
  16        2.0854
  17        2.0854
  18        2.3292
  19        2.3495
  20        2.5133
  21        2.8251
  22        2.8251
  23        9.3302
  24        9.3302
  25       11.2743
  26       11.2743
  27       13.9081
  28       13.9081
  29       15.2471
  30       15.2471
  31       19.6080
  32       21.4656
 
  0.5000000E+00  0.7142857E-01  0.7142857E-01  0.4373178E-02
   1       -2.4809
   2       -2.4809
   3       -0.0393
   4       -0.0393
   5        0.3767
   6        0.3767
   7        0.5060
   8        0.5060
   9        0.6358
  10        0.6358
  11        1.4427
  12        1.4427
  13        1.8455
  14        1.8455
  15        2.0401
  16        2.0401
  17        2.0762
  18        2.0762
  19        2.4308
  20        2.4308
  21        2.8248
  22        2.8248
  23       10.0405
  24       10.0405
  25       10.5160
  26       10.5160
  27       14.2166
  28       14.2166
  29       14.8161
  30       14.8161
  31       20.4994
  32       20.4994
 
  0.1428571E+00  0.1428571E+00  0.7142857E-01  0.8746356E-02
   1       -4.8921
   2       -0.7397
   3       -0.7397
   4       -0.6546
   5       -0.2326
   6       -0.2326
   7       -0.2314
   8        1.0354
   9        1.2678
  10        1.2767
  11        2.0160
  12        2.1006
  13        2.1291
  14        2.1847
  15        2.1847
  16        2.4947
  17        2.5274
  18        2.5274
  19        2.7983
  20        2.7983
  21        2.8106
  22        5.4153
  23        5.4153
  24        6.7150
  25       12.8337
  26       14.0887
  27       14.0887
  28       14.4791
  29       16.0124
  30       16.0124
  31       18.6067
  32       18.6067
 
  0.2142857E+00  0.1428571E+00  0.7142857E-01  0.1749271E-01
   1       -4.5764
   2       -0.7697
   3       -0.5903
   4       -0.5199
   5       -0.1502
   6       -0.1452
   7       -0.1419
   8        0.9603
   9        1.3256
  10        1.3294
  11        1.8107