   4   4   0   0
  0.1858633E+02  0.4204857E-09  0.4204857E-09  0.4204857E-09  0.5000000E-15
  1.000000000000000E-004
  CAR 
 unknown system                          
     14.22726895     -5.25598089  301      2.85962383      1.00000000
     -5.256  0.0000E+00  0.0000E+00
     -5.191  0.0000E+00  0.0000E+00
     -5.126  0.0000E+00  0.0000E+00
     -5.061  0.0000E+00  0.0000E+00
     -4.996  0.0000E+00  0.0000E+00
     -4.931  0.0000E+00  0.0000E+00
     -4.866  0.0000E+00  0.0000E+00
     -4.801  0.0000E+00  0.0000E+00
     -4.736  0.0000E+00  0.0000E+00
     -4.671  0.0000E+00  0.0000E+00
     -4.607  0.0000E+00  0.0000E+00
     -4.542  0.0000E+00  0.0000E+00
     -4.477  0.0000E+00  0.0000E+00
     -4.412  0.4523E-10  0.2937E-11
     -4.347  0.1781E-01  0.1157E-02
     -4.282  0.1067E+00  0.8089E-02
     -4.217  0.2129E+00  0.2193E-01
     -4.152  0.1416E+00  0.3119E-01
     -4.087  0.1051E+00  0.3808E-01
     -4.022  0.4240E+00  0.6561E-01
     -3.957  0.4256E+00  0.9362E-01
     -3.892  0.1217E-09  0.9375E-01
     -3.827  0.2136E+00  0.1076E+00
     -3.762  0.5344E+00  0.1423E+00
     -3.697  0.4277E+00  0.1701E+00
     -3.632  0.4725E+00  0.2008E+00
     -3.567  0.1008E+00  0.2074E+00
     -3.502  0.9712E+00  0.2704E+00
     -3.438  0.3090E+00  0.2905E+00
     -3.373  0.4008E+00  0.3165E+00
     -3.308  0.5569E+00  0.3527E+00
     -3.243  0.1058E+01  0.4217E+00
     -3.178  0.5489E+00  0.4574E+00
     -3.113  0.1518E+01  0.5560E+00
     -3.048  0.2835E+01  0.7401E+00
     -2.983  0.6846E+01  0.1185E+01
     -2.918  0.8113E+01  0.1712E+01
     -2.853  0.9386E+01  0.2322E+01
     -2.788  0.1199E+02  0.3101E+01
     -2.723  0.1179E+02  0.3867E+01
     -2.658  0.2051E+02  0.5199E+01
     -2.593  0.1590E+02  0.6233E+01
     -2.528  0.1375E+02  0.7127E+01
     -2.463  0.1508E+02  0.8106E+01
     -2.398  0.9421E+01  0.8719E+01
     -2.333  0.1235E+02  0.9520E+01
     -2.269  0.8093E+01  0.1005E+02
     -2.204  0.1054E+02  0.1073E+02
     -2.139  0.1086E+02  0.1144E+02
     -2.074  0.1146E+02  0.1218E+02
     -2.009  0.1154E+02  0.1293E+02
     -1.944  0.1549E+02  0.1394E+02
     -1.879  0.1282E+02  0.1477E+02
     -1.814  0.9222E+01  0.1537E+02
     -1.749  0.1237E+02  0.1617E+02
     -1.684  0.1287E+02  0.1701E+02
     -1.619  0.1318E+02  0.1787E+02
     -1.554  0.2279E+02  0.1935E+02
     -1.489  0.2421E+02  0.2092E+02
     -1.424  0.1172E+02  0.2168E+02
     -1.359  0.1936E+02  0.2294E+02
     -1.294  0.1003E+02  0.2359E+02
     -1.229  0.9626E+01  0.2422E+02
     -1.164  0.1677E+02  0.2531E+02
     -1.100  0.9175E+01  0.2590E+02
     -1.035  0.1211E+02  0.2669E+02
     -0.970  0.1461E+02  0.2764E+02
     -0.905  0.1679E+02  0.2873E+02
     -0.840  0.1531E+02  0.2973E+02
     -0.775  0.1524E+02  0.3072E+02
     -0.710  0.1404E+02  0.3163E+02
     -0.645  0.1017E+02  0.3229E+02
     -0.580  0.1322E+02  0.3315E+02
     -0.515  0.1206E+02  0.3393E+02
     -0.450  0.1208E+02  0.3472E+02
     -0.385  0.1427E+02  0.3564E+02
     -0.320  0.1367E+02  0.3653E+02
     -0.255  0.1745E+02  0.3767E+02
     -0.190  0.1768E+02  0.3881E+02
     -0.125  0.2195E+02  0.4024E+02
     -0.060  0.9875E+01  0.4088E+02
      0.004  0.6764E+01  0.4132E+02
      0.069  0.2706E+00  0.4134E+02
      0.134  0.7957E+00  0.4139E+02
      0.199  0.2151E-06  0.4139E+02
      0.264  0.1443E+01  0.4149E+02
      0.329  0.1944E+01  0.4161E+02
      0.394  0.1308E+01  0.4170E+02
      0.459  0.1283E+01  0.4178E+02
      0.524  0.5316E-01  0.4178E+02
      0.589  0.3868E+00  0.4181E+02
      0.654  0.1271E+01  0.4189E+02
      0.719  0.0000E+00  0.4189E+02
      0.784  0.5837E-01  0.4190E+02
      0.849  0.1856E+01  0.4202E+02
      0.914  0.1587E+01  0.4212E+02
      0.979  0.1118E+01  0.4219E+02
      1.044  0.1382E+01  0.4228E+02
      1.109  0.1258E+01  0.4236E+02
      1.173  0.3190E+00  0.4239E+02
      1.238  0.3000E+00  0.4240E+02
      1.303  0.9271E+00  0.4247E+02
      1.368  0.5673E-01  0.4247E+02
      1.433  0.5606E+00  0.4251E+02
      1.498  0.1979E+01  0.4263E+02
      1.563  0.1451E+01  0.4273E+02
      1.628  0.1190E+01  0.4281E+02
      1.693  0.9491E+00  0.4287E+02
      1.758  0.4845E+00  0.4290E+02
      1.823  0.1654E+01  0.4301E+02
      1.888  0.1069E+00  0.4301E+02
      1.953  0.7309E+00  0.4306E+02
      2.018  0.1794E+01  0.4318E+02
      2.083  0.3798E-01  0.4318E+02
      2.148  0.5121E+00  0.4321E+02
      2.213  0.1365E+01  0.4330E+02
      2.278  0.1672E+01  0.4341E+02
      2.342  0.1368E+01  0.4350E+02
      2.407  0.8806E+00  0.4356E+02
      2.472  0.8302E+00  0.4361E+02
      2.537  0.1720E+01  0.4372E+02
      2.602  0.2107E+01  0.4386E+02
      2.667  0.9388E-01  0.4386E+02
      2.732  0.8572E+00  0.4392E+02
      2.797  0.8537E+00  0.4398E+02
      2.862  0.3987E+00  0.4400E+02
      2.927  0.4567E+00  0.4403E+02
      2.992  0.1049E+01  0.4410E+02
      3.057  0.2461E+01  0.4426E+02
      3.122  0.1394E+01  0.4435E+02
      3.187  0.1315E+01  0.4444E+02
      3.252  0.1600E+01  0.4454E+02
      3.317  0.1356E+01  0.4463E+02
      3.382  0.1340E+01  0.4471E+02
      3.447  0.2845E+00  0.4473E+02
      3.511  0.5329E-04  0.4473E+02
      3.576  0.1301E+01  0.4482E+02
      3.641  0.8378E+00  0.4487E+02
      3.706  0.2798E+01  0.4505E+02
      3.771  0.1847E+00  0.4507E+02
      3.836  0.1579E+00  0.4508E+02
      3.901  0.1767E+01  0.4519E+02
      3.966  0.1276E+01  0.4527E+02
      4.031  0.1397E+01  0.4536E+02
      4.096  0.8007E+00  0.4542E+02
      4.161  0.1661E+01  0.4552E+02
      4.226  0.1811E+01  0.4564E+02
      4.291  0.3463E+00  0.4566E+02
      4.356  0.1282E+01  0.4575E+02
      4.421  0.8301E-01  0.4575E+02
      4.486  0.5651E-01  0.4576E+02
      4.551  0.2166E+01  0.4590E+02
      4.616  0.1252E+01  0.4598E+02
      4.680  0.2337E+00  0.4599E+02
      4.745  0.1697E+01  0.4610E+02
      4.810  0.9893E+00  0.4617E+02
      4.875  0.2489E+01  0.4633E+02
      4.940  0.4685E+00  0.4636E+02
      5.005  0.5320E+00  0.4640E+02
      5.070  0.4308E+00  0.4642E+02
      5.135  0.2349E+01  0.4658E+02
      5.200  0.7038E+00  0.4662E+02
      5.265  0.9265E+00  0.4668E+02
      5.330  0.8141E+00  0.4674E+02
      5.395  0.1220E+00  0.4674E+02
      5.460  0.8501E+00  0.4680E+02
      5.525  0.4337E+00  0.4683E+02
      5.590  0.1282E+01  0.4691E+02
      5.655  0.2753E+00  0.4693E+02
      5.720  0.9036E+00  0.4699E+02
      5.785  0.2404E+01  0.4714E+02
      5.849  0.1025E+00  0.4715E+02
      5.914  0.1513E+01  0.4725E+02
      5.979  0.8889E+00  0.4731E+02
      6.044  0.1072E+01  0.4737E+02
      6.109  0.8036E+00  0.4743E+02
      6.174  0.4965E+00  0.4746E+02
      6.239  0.1642E+01  0.4757E+02
      6.304  0.2613E+01  0.4774E+02
      6.369  0.1671E+01  0.4784E+02
      6.434  0.8543E+00  0.4790E+02
      6.499  0.4339E+00  0.4793E+02
      6.564  0.1275E+01  0.4801E+02
      6.629  0.1076E+01  0.4808E+02
      6.694  0.1406E+01  0.4817E+02
      6.759  0.2044E+01  0.4831E+02
      6.824  0.1737E+01  0.4842E+02
      6.889  0.1678E+01  0.4853E+02
      6.954  0.6122E+00  0.4857E+02
      7.018  0.1709E+01  0.4868E+02
      7.083  0.2530E+01  0.4884E+02
      7.148  0.1033E+01  0.4891E+02
      7.213  0.1391E+01  0.4900E+02
      7.278  0.6019E+00  0.4904E+02
      7.343  0.2970E-13  0.4904E+02
      7.408  0.1179E+01  0.4912E+02
      7.473  0.5894E+00  0.4915E+02
      7.538  0.2106E+01  0.4929E+02
      7.603  0.3693E+01  0.4953E+02
      7.668  0.4415E-01  0.4953E+02
      7.733  0.3450E+00  0.4956E+02
      7.798  0.1267E+01  0.4964E+02
      7.863  0.2383E+01  0.4979E+02
      7.928  0.9187E+00  0.4985E+02
      7.993  0.4718E+00  0.4988E+02
      8.058  0.5707E+00  0.4992E+02
      8.123  0.1945E+01  0.5005E+02
      8.187  0.8553E+00  0.5010E+02
      8.252  0.4215E+00  0.5013E+02
      8.317  0.2028E+01  0.5026E+02
      8.382  0.1168E+01  0.5034E+02
      8.447  0.1537E+01  0.5044E+02
      8.512  0.4101E+00  0.5047E+02
      8.577  0.1677E+01  0.5057E+02
      8.642  0.3077E-01  0.5058E+02
      8.707  0.1973E+01  0.5070E+02
      8.772  0.1447E+01  0.5080E+02
      8.837  0.9813E+00  0.5086E+02
      8.902  0.1562E+01  0.5096E+02
      8.967  0.1986E+01  0.5109E+02
      9.032  0.1295E+01  0.5118E+02
      9.097  0.1696E+01  0.5129E+02
      9.162  0.2288E+00  0.5130E+02
      9.227  0.2615E+01  0.5147E+02
      9.292  0.3732E+00  0.5150E+02
      9.356  0.7533E+00  0.5155E+02
      9.421  0.1161E+01  0.5162E+02
      9.486  0.1860E+01  0.5174E+02
      9.551  0.3530E+01  0.5197E+02
      9.616  0.3629E+01  0.5221E+02
      9.681  0.1725E+01  0.5232E+02
      9.746  0.1524E+01  0.5242E+02
      9.811  0.1080E+01  0.5249E+02
      9.876  0.1712E+01  0.5260E+02
      9.941  0.1348E+01  0.5269E+02
     10.006  0.9295E+00  0.5275E+02
     10.071  0.8189E+00  0.5280E+02
     10.136  0.4951E+00  0.5283E+02
     10.201  0.2200E+01  0.5297E+02
     10.266  0.3550E+01  0.5321E+02
     10.331  0.1127E+01  0.5328E+02
     10.396  0.2849E+01  0.5346E+02
     10.461  0.1299E+01  0.5355E+02
     10.525  0.2647E+01  0.5372E+02
     10.590  0.1636E+01  0.5383E+02
     10.655  0.1252E+01  0.5391E+02
     10.720  0.8439E+00  0.5396E+02
     10.785  0.5225E+00  0.5400E+02
     10.850  0.1348E+01  0.5408E+02
     10.915  0.4663E+01  0.5439E+02
     10.980  0.5561E+00  0.5442E+02
     11.045  0.2033E+01  0.5456E+02
     11.110  0.4047E+00  0.5458E+02
     11.175  0.1619E+01  0.5469E+02
     11.240  0.1324E+00  0.5470E+02
     11.305  0.2297E+01  0.5485E+02
     11.370  0.8693E+00  0.5490E+02
     11.435  0.2304E+01  0.5505E+02
     11.500  0.3272E+01  0.5526E+02
     11.565  0.1196E+01  0.5534E+02
     11.630  0.4276E+00  0.5537E+02
     11.694  0.1108E+01  0.5544E+02
     11.759  0.6041E+00  0.5548E+02
     11.824  0.8948E+00  0.5554E+02
     11.889  0.1239E+01  0.5562E+02
     11.954  0.3977E-02  0.5562E+02
     12.019  0.9738E+00  0.5568E+02
     12.084  0.1605E+01  0.5579E+02
     12.149  0.6253E+00  0.5583E+02
     12.214  0.1384E+00  0.5584E+02
     12.279  0.1111E+00  0.5584E+02
     12.344  0.4277E+00  0.5587E+02
     12.409  0.7564E+00  0.5592E+02
     12.474  0.9532E+00  0.5598E+02
     12.539  0.0000E+00  0.5598E+02
     12.604  0.0000E+00  0.5598E+02
     12.669  0.0000E+00  0.5598E+02
     12.734  0.0000E+00  0.5598E+02
     12.798  0.0000E+00  0.5598E+02
     12.863  0.3009E-12  0.5598E+02
     12.928  0.1058E+00  0.5599E+02
     12.993  0.0000E+00  0.5599E+02
     13.058  0.0000E+00  0.5599E+02
     13.123  0.2843E-11  0.5599E+02
     13.188  0.1779E-01  0.5599E+02
     13.253  0.0000E+00  0.5599E+02
     13.318  0.5976E-04  0.5599E+02
     13.383  0.1425E+00  0.5600E+02
     13.448  0.0000E+00  0.5600E+02
     13.513  0.0000E+00  0.5600E+02
     13.578  0.0000E+00  0.5600E+02
     13.643  0.0000E+00  0.5600E+02
     13.708  0.0000E+00  0.5600E+02
     13.773  0.0000E+00  0.5600E+02
     13.838  0.0000E+00  0.5600E+02
     13.903  0.0000E+00  0.5600E+02
     13.967  0.0000E+00  0.5600E+02
     14.032  0.0000E+00  0.5600E+02
     14.097  0.0000E+00  0.5600E+02
     14.162  0.0000E+00  0.5600E+02
     14.227  0.0000E+00  0.5600E+02
