    4    4    1    1
  0.1858633E+02  0.4204857E-09  0.4204857E-09  0.4204857E-09  0.5000000E-15
  1.000000000000000E-004
  CAR 
 unknown system                          
   44   84   28
 
  0.0000000E+00  0.0000000E+00  0.0000000E+00  0.5787037E-03
   1       -4.3704
   2       -3.1490
   3       -3.1490
   4       -3.1490
   5       -3.0406
   6       -3.0406
   7       -3.0406
   8       -1.7520
   9       -1.7520
  10       -1.7520
  11       -0.8642
  12       -0.8642
  13       -0.2090
  14       -0.2090
  15       -0.2090
  16       -0.0028
  17       -0.0028
  18       -0.0028
  19       -0.0028
  20       -0.0028
  21       -0.0028
  22        4.4794
  23        4.4794
  24        4.4794
  25        8.8938
  26        8.8938
  27        8.8938
  28       13.1677
 
  0.8333333E-01  0.0000000E+00  0.0000000E+00  0.3472222E-02
   1       -4.3024
   2       -3.1226
   3       -3.1147
   4       -3.1147
   5       -3.0207
   6       -3.0101
   7       -3.0101
   8       -1.7763
   9       -1.7288
  10       -1.7288
  11       -0.8884
  12       -0.8535
  13       -0.2412
  14       -0.2412
  15       -0.2207
  16       -0.1142
  17       -0.1142
  18       -0.0424
  19       -0.0424
  20       -0.0028
  21       -0.0028
  22        3.9953
  23        4.6485
  24        4.6485
  25        8.9065
  26        8.9065
  27        9.4882
  28       12.9122
 
  0.1666667E+00  0.0000000E+00  0.0000000E+00  0.3472222E-02
   1       -4.1020
   2       -3.0467
   3       -3.0162
   4       -3.0162
   5       -2.9619
   6       -2.9186
   7       -2.9186
   8       -1.8470
   9       -1.6601
  10       -1.6601
  11       -0.9562
  12       -0.8221
  13       -0.4041
  14       -0.4041
  15       -0.3342
  16       -0.3342
  17       -0.2548
  18       -0.1555
  19       -0.1555
  20       -0.0026
  21       -0.0026
  22        2.9717
  23        5.1109
  24        5.1109
  25        8.9462
  26        8.9462
  27       10.8431
  28       12.2508
 
  0.2500000E+00  0.0000000E+00  0.0000000E+00  0.3472222E-02
   1       -3.7820
   2       -2.9325
   3       -2.8678
   4       -2.8678
   5       -2.8673
   6       -2.7668
   7       -2.7668
   8       -1.9579
   9       -1.5476
  10       -1.5476
  11       -1.0501
  12       -0.7881
  13       -0.7881
  14       -0.7719
  15       -0.4758
  16       -0.4758
  17       -0.3272
  18       -0.3272
  19       -0.3088
  20       -0.0024
  21       -0.0024
  22        1.8460
  23        5.7797
  24        5.7797
  25        9.0158
  26        9.0158
  27       11.3787
  28       11.3787
 
  0.3333333E+00  0.0000000E+00  0.0000000E+00  0.3472222E-02
   1       -3.3760
   2       -2.8024
   3       -2.7418
   4       -2.6969
   5       -2.6969
   6       -2.5559
   7       -2.5559
   8       -2.0994
   9       -1.3951
  10       -1.3951
  11       -1.2001
  12       -1.2001
  13       -1.1295
  14       -0.7059
  15       -0.6407
  16       -0.6407
  17       -0.5377
  18       -0.5377
  19       -0.3785
  20       -0.0022
  21       -0.0022
  22        0.7830
  23        6.5843
  24        6.5843
  25        9.1149
  26        9.1149
  27       10.4137
  28       10.4137
 
  0.4166667E+00  0.0000000E+00  0.0000000E+00  0.3472222E-02
   1       -2.9697
   2       -2.7018
   3       -2.5927
   4       -2.5501
   5       -2.5501
   6       -2.2880
   7       -2.2880
   8       -2.2604
   9       -1.6005
  10       -1.6005
  11       -1.2080
  12       -1.2080
  13       -1.0997
  14       -0.7835
  15       -0.7835
  16       -0.7662
  17       -0.7662
  18       -0.6283
  19       -0.4588
  20       -0.1300
  21       -0.0021
  22       -0.0021
  23        7.4788
  24        7.4788
  25        9.2245
  26        9.2245
  27        9.4194
  28        9.4194
 
  0.5000000E+00  0.0000000E+00  0.0000000E+00  0.1736111E-02
   1       -2.7228
   2       -2.7228
   3       -2.4897
   4       -2.4897
   5       -2.4287
   6       -2.4287
   7       -1.9672
   8       -1.9672
   9       -1.9672
  10       -1.9672
  11       -0.9946
  12       -0.9946
  13       -0.9946
  14       -0.9946
  15       -0.8427
  16       -0.8427
  17       -0.7914
  18       -0.7914
  19       -0.5441
  20       -0.5441
  21       -0.0020
  22       -0.0020
  23        8.4322
  24        8.4322
  25        8.4322
  26        8.4322
  27        9.2803
  28        9.2803
 
  0.8333333E-01  0.8333333E-01  0.0000000E+00  0.6944444E-02
   1       -4.2354
   2       -3.0881
   3       -3.0881
   4       -3.0871
   5       -2.9906
   6       -2.9906
   7       -2.9741
   8       -1.7851
   9       -1.7206
  10       -1.7073
  11       -0.8948
  12       -0.8585
  13       -0.2721
  14       -0.2694
  15       -0.2694
  16       -0.1913
  17       -0.1377
  18       -0.1377
  19       -0.0425
  20       -0.0425
  21       -0.0302
  22        4.1560
  23        4.1560
  24        4.8110
  25        8.9190
  26        9.5093
  27        9.5093
  28       12.0944
 
  0.1666667E+00  0.8333333E-01  0.0000000E+00  0.1388889E-01
   1       -4.0378
   2       -3.0115
   3       -3.0053
   4       -2.9889
   5       -2.9330
   6       -2.9003
   7       -2.8698
   8       -1.8467
   9       -1.6591
  10       -1.6437
  11       -0.9532
  12       -0.8292
  13       -0.4897
  14       -0.4521
  15       -0.3620
  16       -0.3614
  17       -0.2990
  18       -0.1943
  19       -0.1559
  20       -0.0440
  21       -0.0427
  22        3.1274
  23        4.5895
  24        5.2587
  25        8.9558
  26        9.5734
  27       10.8690
  28       11.1667
 
  0.2500000E+00  0.8333333E-01  0.0000000E+00  0.1388889E-01
   1       -3.7228
   2       -2.8960
   3       -2.8735
   4       -2.8403
   5       -2.8394
   6       -2.7507
   7       -2.7076
   8       -1.9530
   9       -1.5484
  10       -1.5446
  11       -1.0369
  12       -0.8557
  13       -0.8174
  14       -0.7726
  15       -0.5216
  16       -0.4979
  17       -0.4533
  18       -0.3280
  19       -0.2670
  20       -0.0466
  21       -0.0431
  22        2.0082
  23        5.2032
  24        5.9124
  25        9.0052
  26        9.6797
  27       10.2622
  28       11.4791
 
  0.3333333E+00  0.8333333E-01  0.0000000E+00  0.1388889E-01
   1       -3.3238
   2       -2.7638
   3       -2.7176
   4       -2.7053
   5       -2.6671
   6       -2.5428
   7       -2.5029
   8       -2.0905
   9       -1.4360
  10       -1.3964
  11       -1.2535
  12       -1.2154
  13       -1.0787
  14       -0.7322
  15       -0.6960
  16       -0.6568
  17       -0.6240
  18       -0.5389
  19       -0.3532
  20       -0.0468
  21       -0.0437
  22        0.9647
  23        5.9224
  24        6.7046
  25        8.9223
  26        9.5745
  27        9.8054
  28       10.5127
 
  0.4166667E+00  0.8333333E-01  0.0000000E+00  0.1388889E-01
   1       -2.9241
   2       -2.6603
   3       -2.5717
   4       -2.5420
   5       -2.5198
   6       -2.2793
   7       -2.2639
   8       -2.2473
   9       -1.6358
  10       -1.6054
  11       -1.3590
  12       -1.2096
  13       -0.9756
  14       -0.9540
  15       -0.7929
  16       -0.7743
  17       -0.7678
  18       -0.6004
  19       -0.4569
  20       -0.0461
  21       -0.0444
  22        0.0931
  23        6.6986
  24        7.5898
  25        8.2968
  26        9.5198
  27        9.5213
  28        9.8470
 
  0.5000000E+00  0.8333333E-01  0.0000000E+00  0.6944444E-02
   1       -2.6792
   2       -2.6792
   3       -2.4645
   4       -2.4645
   5       -2.4115
   6       -2.4115
   7       -1.9773
   8       -1.9773
   9       -1.9643
  10       -1.9643
  11       -1.2153
  12       -1.2153
  13       -0.9963
  14       -0.9963
  15       -0.8432
  16       -0.8432
  17       -0.6487
  18       -0.6487
  19       -0.4465
  20       -0.4465
  21       -0.0453
  22       -0.0453
  23        7.5001
  24        7.5001
  25        8.5367
  26        8.5367
  27        9.7027
  28        9.7027
 
  0.1666667E+00  0.1666667E+00  0.0000000E+00  0.6944444E-02
   1       -3.8491
   2       -2.9538
   3       -2.9103
   4       -2.9103
   5       -2.8464
   6       -2.8464
   7       -2.7465
   8       -1.8720
   9       -1.6287
  10       -1.5967
  11       -0.9758
  12       -0.8133
  13       -0.6464
  14       -0.6464
  15       -0.6243
  16       -0.4408
  17       -0.2891
  18       -0.2891
  19       -0.1571
  20       -0.1571
  21       -0.1111
  22        3.5374
  23        3.5374
  24        5.6727
  25        8.9645
  26       10.1033
  27       10.9376
  28       10.9376
 
  0.2500000E+00  0.1666667E+00  0.0000000E+00  0.1388889E-01
   1       -3.5500
   2       -2.8502
   3       -2.7908
   4       -2.7598
   5       -2.7572
   6       -2.7031
   7       -2.5747
   8       -1.9507
   9       -1.5374
  10       -1.5309
  11       -1.0340
  12       -1.0108
  13       -0.9169
  14       -0.8431
  15       -0.7382
  16       -0.5630
  17       -0.4306
  18       -0.3304
  19       -0.3245
  20       -0.1589
  21       -0.1473
  22        2.4185
  23        4.1037
  24        6.2898
  25        8.7113
  26        9.4162
  27       10.9864
  28       11.7725
 
  0.3333333E+00  0.1666667E+00  0.0000000E+00  0.1388889E-01
   1       -3.1737
   2       -2.6987
   3       -2.6520
   4       -2.6454
   5       -2.5802
   6       -2.5047
   7       -2.3789
   8       -2.0695
   9       -1.4918
  10       -1.3939
  11       -1.3851
  12       -1.2664
  13       -1.0673
  14       -1.0393
  15       -0.7059
  16       -0.6143
  17       -0.6011
  18       -0.5422
  19       -0.4026
  20       -0.1613
  21       -0.1612
  22        1.3893
  23        4.7601
  24        7.0506
  25        7.9002
  26        9.4293
  27       10.7936
  28       10.8019
 
  0.4166667E+00  0.1666667E+00  0.0000000E+00  0.1388889E-01
   1       -2.7953
   2       -2.5402
   3       -2.5209
   4       -2.5098
   5       -2.4311
   6       -2.2543
   7       -2.2110
   8       -2.1889
   9       -1.7263
  10       -1.6227
  11       -1.5102
  12       -1.2978
  13       -1.2110
  14       -0.9047
  15       -0.8242
  16       -0.7714
  17       -0.7623
  18       -0.5235
  19       -0.4237
  20       -0.1654
  21       -0.1636
  22        0.5322
  23        5.4738
  24        7.0432
  25        7.9114
  26        9.6420
  27        9.8129
  28       10.3689
 
  0.5000000E+00  0.1666667E+00  0.0000000E+00  0.6944444E-02
   1       -2.5553
   2       -2.5553
   3       -2.3963
   4       -2.3963
   5       -2.3617
   6       -2.3617
   7       -1.9957
   8       -1.9957
   9       -1.9573
  10       -1.9573
  11       -1.4716
  12       -1.4716
  13       -0.9995
  14       -0.9995
  15       -0.8525
  16       -0.8525
  17       -0.6964
  18       -0.6964
  19       -0.1654
  20       -0.1654
  21       -0.0781
  22       -0.0781
  23        6.2342
  24        6.2342
  25        8.8407
  26        8.8407
  27        9.9607
  28        9.9607
 
  0.2500000E+00  0.2500000E+00  0.0000000E+00  0.6944444E-02
   1       -3.2799
   2       -2.7776
   3       -2.6308
   4       -2.6308
   5       -2.6271
   6       -2.6271
   7       -2.4013
   8       -1.9799
   9       -1.5068
  10       -1.4831
  11       -1.2047
  12       -1.2047
  13       -1.1046
  14       -1.0787
  15       -0.6654
  16       -0.6157
  17       -0.4483
  18       -0.4483
  19       -0.3338
  20       -0.3338
  21       -0.2418
  22        2.9666
  23        2.9666
  24        6.8641
  25        7.7522
  26        9.3872
  27       12.0468
  28       12.0468
 
  0.3333333E+00  0.2500000E+00  0.0000000E+00  0.1388889E-01
   1       -2.9462
   2       -2.6548
   3       -2.5272
   4       -2.4807
   5       -2.4445
   6       -2.4443
   7       -2.2159
   8       -2.0542
   9       -1.5521
  10       -1.5138
  11       -1.4118
  12       -1.3681
  13       -1.3659
  14       -1.0942
  15       -0.7872
  16       -0.6112
  17       -0.5462
  18       -0.5184
  19       -0.4075
  20       -0.3373
  21       -0.2992
  22        1.9272
  23        3.5952
  24        6.7638
  25        7.5858
  26        9.5619
  27       11.2603
  28       11.3576
 
  0.4166667E+00  0.2500000E+00  0.0000000E+00  0.1388889E-01
   1       -2.6107
   2       -2.4883
   3       -2.4102
   4       -2.3558
   5       -2.2917
   6       -2.2164
   7       -2.1615
   8       -2.0645
   9       -1.8414
  10       -1.6596
  11       -1.5983
  12       -1.5977
  13       -1.2014
  14       -0.9904
  15       -0.8843
  16       -0.7775
  17       -0.7743
  18       -0.6428
  19       -0.3394
  20       -0.3268
  21       -0.0978
  22        1.0473
  23        4.2847
  24        5.8579
  25        8.4146
  26        9.8416
  27       10.2769
  28       10.7361
 
  0.5000000E+00  0.2500000E+00  0.0000000E+00  0.6944444E-02
   1       -2.3762
   2       -2.3762
   3       -2.3139
   4       -2.3139
   5       -2.2847
   6       -2.2847
   7       -1.9855
   8       -1.9855
   9       -1.9504
  10       -1.9504
  11       -1.6717
  12       -1.6717
  13       -0.9983
  14       -0.9983
  15       -0.8879
  16       -0.8879
  17       -0.8132
  18       -0.8132
  19       -0.3374
  20       -0.3374
  21        0.3703
  22        0.3703
  23        5.0355
  24        5.0355
  25        9.3201
  26        9.3201
  27       10.2299
  28       10.2299
 
  0.3333333E+00  0.3333333E+00  0.0000000E+00  0.6944444E-02
   1       -2.6792
   2       -2.5682
   3       -2.3669
   4       -2.3669
   5       -2.2763
   6       -2.2763
   7       -2.0666
   8       -2.0418
   9       -1.7250
  10       -1.7250
  11       -1.5227
  12       -1.5194
  13       -1.2947
  14       -1.1675
  15       -0.8903
  16       -0.6752
  17       -0.6752
  18       -0.5485
  19       -0.5485
  20       -0.4154
  21       -0.0987
  22        2.5350
  23        2.5350
  24        5.7198
  25        8.2692
  26        9.7970
  27       11.8656
  28       11.8745
 
  0.4166667E+00  0.3333333E+00  0.0000000E+00  0.1388889E-01
   1       -2.4369
   2       -2.4207
   3       -2.2792
   4       -2.1712
   5       -2.1351
   6       -2.1185
   7       -2.1153
   8       -1.9520
   9       -1.9093
  10       -1.8519
  11       -1.7268
  12       -1.6062
  13       -1.1631
  14       -1.1227
  15       -0.9750
  16       -0.8426
  17       -0.7983
  18       -0.7710
  19       -0.5450
  20       -0.4900
  21        0.3194
  22        1.6226
  23        3.2065
  24        4.7842
  25        9.0650
  26       10.1345
  27       10.8835
  28       11.1655
 
  0.5000000E+00  0.3333333E+00  0.0000000E+00  0.6944444E-02
   1       -2.2628
   2       -2.2628
   3       -2.2103
   4       -2.2103
   5       -2.1911
   6       -2.1911
   7       -1.9517
   8       -1.9517
   9       -1.8979
  10       -1.8979
  11       -1.7692
  12       -1.7692
  13       -0.9826
  14       -0.9826
  15       -0.9655
  16       -0.9655
  17       -0.9653
  18       -0.9653
  19       -0.5289
  20       -0.5289
  21        0.8835
  22        0.8835
  23        3.9511
  24        3.9511
  25        9.9443
  26        9.9443
  27       10.5869
  28       10.5869
 
  0.4166667E+00  0.4166667E+00  0.0000000E+00  0.6944444E-02
   1       -2.3564
   2       -2.2752
   3       -2.1275
   4       -2.1275
   5       -2.0908
   6       -2.0819
   7       -2.0819
   8       -1.8922
   9       -1.8922
  10       -1.8322
  11       -1.7709
  12       -1.5873
  13       -1.2089
  14       -1.0775
  15       -1.0706
  16       -0.9644
  17       -0.9644
  18       -0.7529
  19       -0.7529
  20       -0.6217
  21        0.8358
  22        2.2668
  23        2.2668
  24        3.8318
  25        9.8303
  26       10.5335
  27       11.6046
  28       11.6055
 
  0.5000000E+00  0.4166667E+00  0.0000000E+00  0.6944444E-02
   1       -2.2384
   2       -2.2384
   3       -2.1721
   4       -2.1721
   5       -2.0967
   6       -2.0967
   7       -1.9716
   8       -1.9716
   9       -1.7508
  10       -1.7508
  11       -1.7013
  12       -1.7013
  13       -1.1201
  14       -1.1201
  15       -1.0827
  16       -1.0827
  17       -0.9374
  18       -0.9374
  19       -0.7076
  20       -0.7076
  21        1.4779
  22        1.4779
  23        2.9970
  24        2.9970
  25       10.6840
  26       10.6840
  27       11.0506
  28       11.0506
 
  0.5000000E+00  0.5000000E+00  0.0000000E+00  0.1736111E-02
   1       -2.2077
   2       -2.2077
   3       -2.2077
   4       -2.2077
   5       -2.0196
   6       -2.0196
   7       -2.0196
   8       -2.0196
   9       -1.6427
  10       -1.6427
  11       -1.6427
  12       -1.6427
  13       -1.1795
  14       -1.1795
  15       -1.1795
  16       -1.1795
  17       -0.8476
  18       -0.8476
  19       -0.8476
  20       -0.8476
  21        2.1758
  22        2.1758
  23        2.1758
  24        2.1758
  25       11.5141
  26       11.5141
  27       11.5141
  28       11.5141
 
  0.8333333E-01  0.8333333E-01  0.8333333E-01  0.4629630E-02
   1       -4.1694
   2       -3.0612
   3       -3.0612
   4       -3.0612
   5       -2.9541
   6       -2.9541
   7       -2.9541
   8       -1.7905
   9       -1.7010
  10       -1.7010
  11       -0.8813
  12       -0.8813
  13       -0.2999
  14       -0.2999
  15       -0.2999
  16       -0.2341
  17       -0.2341
  18       -0.2341
  19       -0.0506
  20       -0.0506
  21       -0.0506
  22        4.3092
  23        4.3092
  24        4.3092
  25        9.5289
  26        9.5289
  27        9.5289
  28       12.2006
 
  0.1666667E+00  0.8333333E-01  0.8333333E-01  0.1388889E-01
   1       -3.9754
   2       -2.9875
   3       -2.9809
   4       -2.9809
   5       -2.8945
   6       -2.8491
   7       -2.8491
   8       -1.8423
   9       -1.6467
  10       -1.6428
  11       -0.9431
  12       -0.8415
  13       -0.5191
  14       -0.5191
  15       -0.3834
  16       -0.3639
  17       -0.3639
  18       -0.3575
  19       -0.1061
  20       -0.0631
  21       -0.0631
  22        3.2728
  23        4.7259
  24        4.7259
  25        9.5826
  26        9.5826
  27       10.8859
  28       11.2791
 
  0.2500000E+00  0.8333333E-01  0.8333333E-01  0.1388889E-01
   1       -3.6669
   2       -2.8790
   3       -2.8504
   4       -2.8504
   5       -2.7958
   6       -2.6874
   7       -2.6874
   8       -1.9419
   9       -1.5475
  10       -1.5474
  11       -1.0173
  12       -0.8781
  13       -0.8781
  14       -0.7781
  15       -0.5482
  16       -0.5180
  17       -0.4940
  18       -0.4940
  19       -0.1853
  20       -0.0722
  21       -0.0722
  22        2.1536
  23        5.3224
  24        5.3224
  25        9.6081
  26        9.6081
  27       10.4462
  28       10.4462
 
  0.3333333E+00  0.8333333E-01  0.8333333E-01  0.1388889E-01
   1       -3.2780
   2       -2.7567
   3       -2.6815
   4       -2.6815
   5       -2.6642
   6       -2.4863
   7       -2.4863
   8       -2.0727
   9       -1.4550
  10       -1.4177
  11       -1.2636
  12       -1.2636
  13       -1.0232
  14       -0.7889
  15       -0.6951
  16       -0.6904
  17       -0.6510
  18       -0.6510
  19       -0.2798
  20       -0.0773
  21       -0.0773
  22        1.1132
  23        6.0273
  24        6.0273
  25        9.1853
  26        9.1853
  27       10.1712
  28       10.1712
 
  0.4166667E+00  0.8333333E-01  0.8333333E-01  0.1388889E-01
   1       -2.8909
   2       -2.6527
   3       -2.5196
   4       -2.5147
   5       -2.5147
   6       -2.2591
   7       -2.2591
   8       -2.2210
   9       -1.6318
  10       -1.6318
  11       -1.4139
  12       -1.2582
  13       -1.0580
  14       -0.8824
  15       -0.8331
  16       -0.7914
  17       -0.7914
  18       -0.5976
  19       -0.3837
  20       -0.0798
  21       -0.0798
  22        0.2339
  23        6.7931
  24        6.7931
  25        8.4012
  26        8.4012
  27       10.3567
  28       10.3567
 
  0.5000000E+00  0.8333333E-01  0.8333333E-01  0.6944444E-02
   1       -2.6587
   2       -2.6587
   3       -2.4395
   4       -2.4395
   5       -2.3732
   6       -2.3732
   7       -2.0484
   8       -2.0484
   9       -1.8982
  10       -1.8982
  11       -1.2989
  12       -1.2989
  13       -1.0763
  14       -1.0763
  15       -0.8507
  16       -0.8507
  17       -0.4917
  18       -0.4917
  19       -0.4201
  20       -0.4201
  21       -0.0805
  22       -0.0805
  23        7.5879
  24        7.5879
  25        7.5926
  26        7.5926
  27       10.5127
  28       10.5127
 
  0.1666667E+00  0.1666667E+00  0.8333333E-01  0.1388889E-01
   1       -3.7926
   2       -2.9331
   3       -2.9128
   4       -2.9128
   5       -2.7862
   6       -2.7862
   7       -2.7239
   8       -1.8555
   9       -1.6219
  10       -1.6019
  11       -0.9517
  12       -0.8332
  13       -0.6669
  14       -0.6663
  15       -0.6663
  16       -0.4892
  17       -0.4242
  18       -0.4242
  19       -0.1113
  20       -0.1113
  21       -0.1029
  22        3.6617
  23        3.6617
  24        5.1042
  25        9.5249
  26       10.3123
  27       10.8679
  28       10.8679
 
  0.2500000E+00  0.1666667E+00  0.8333333E-01  0.2777778E-01
   1       -3.5050
   2       -2.8327
   3       -2.8155
   4       -2.7871
   5       -2.6799
   6       -2.6242
   7       -2.5523
   8       -1.9205
   9       -1.5446
  10       -1.5378
  11       -1.0237
  12       -0.9984
  13       -0.9602
  14       -0.8609
  15       -0.7553
  16       -0.6008
  17       -0.5570
  18       -0.5210
  19       -0.1791
  20       -0.1390
  21       -0.1376
  22        2.5338
  23        4.2081
  24        5.6579
  25        8.8940
  26       10.0587
  27       10.3523
  28       11.3980
 
  0.3333333E+00  0.1666667E+00  0.8333333E-01  0.2777778E-01
   1       -3.1486
   2       -2.7073
   3       -2.6832
   4       -2.6183
   5       -2.5377
   6       -2.4322
   7       -2.3618
   8       -2.0238
   9       -1.5010
  10       -1.4304
  11       -1.3835
  12       -1.2992
  13       -1.0874
  14       -0.9659
  15       -0.7361
  16       -0.7291
  17       -0.6594
  18       -0.6329
  19       -0.2692
  20       -0.1626
  21       -0.1594
  22        1.4912
  23        4.8489
  24        6.3236
  25        7.9917
  26        9.5066
  27       10.2494
  28       11.5416
 
  0.4166667E+00  0.1666667E+00  0.8333333E-01  0.2777778E-01
   1       -2.8025
   2       -2.6131
   3       -2.5034
   4       -2.4388
   5       -2.3863
   6       -2.2447
   7       -2.1954
   8       -2.1417
   9       -1.6953
  10       -1.6226
  11       -1.5273
  12       -1.3216
  13       -1.2885
  14       -0.9313
  15       -0.8443
  16       -0.8012
  17       -0.7698
  18       -0.4463
  19       -0.3864
  20       -0.1743
  21       -0.1720
  22        0.6045
  23        5.5514
  24        6.9926
  25        7.1919
  26        8.6627
  27       10.5871
  28       11.4904
 
  0.5000000E+00  0.1666667E+00  0.8333333E-01  0.1388889E-01
   1       -2.6059
   2       -2.6059
   3       -2.3721
   4       -2.3721
   5       -2.2576
   6       -2.2576
   7       -2.1221
   8       -2.1221
   9       -1.8306
  10       -1.8306
  11       -1.4951
  12       -1.4951
  13       -1.1201
  14       -1.1201
  15       -0.8795
  16       -0.8795
  17       -0.5425
  18       -0.5425
  19       -0.1768
  20       -0.1768
  21       -0.0629
  22       -0.0629
  23        6.3031
  24        6.3031
  25        7.8528
  26        7.8528
  27       11.0351
  28       11.0351
 
  0.2500000E+00  0.2500000E+00  0.8333333E-01  0.1388889E-01
   1       -3.2565
   2       -2.7654
   3       -2.7008
   4       -2.7008
   5       -2.5137
   6       -2.5137
   7       -2.3809
   8       -1.9215
   9       -1.5139
  10       -1.5075
  11       -1.2100
  12       -1.2100
  13       -1.1318
  14       -1.0272
  15       -0.7259
  16       -0.6374
  17       -0.6182
  18       -0.6182
  19       -0.2224
  20       -0.2224
  21       -0.2104
  22        3.0572
  23        3.0572
  24        6.1570
  25        7.8428
  26       10.1888
  27       10.8622
  28       10.8622
 
  0.3333333E+00  0.2500000E+00  0.8333333E-01  0.2777778E-01
   1       -2.9609
   2       -2.6483
   3       -2.6104
   4       -2.5400
   5       -2.3615
   6       -2.3286
   7       -2.2058
   8       -1.9621
   9       -1.5343
  10       -1.5177
  11       -1.4256
  12       -1.4100
  13       -1.3735
  14       -1.0065
  15       -0.8419
  16       -0.7770
  17       -0.7214
  18       -0.4312
  19       -0.3254
  20       -0.2712
  21       -0.2673
  22        1.9993
  23        3.6687
  24        6.6513
  25        6.9717
  26        9.9361
  27       10.4644
  28       11.4486
 
  0.4166667E+00  0.2500000E+00  0.8333333E-01  0.2777778E-01
   1       -2.6886
   2       -2.5380
   3       -2.4869
   4       -2.3470
   5       -2.2076
   6       -2.1955
   7       -2.0953
   8       -2.0184
   9       -1.7596
  10       -1.6127
  11       -1.6038
  12       -1.5916
  13       -1.3043
  14       -0.9634
  15       -0.9326
  16       -0.8496
  17       -0.8495
  18       -0.4612
  19       -0.3023
  20       -0.3013
  21       -0.1160
  22        1.0913
  23        4.3466
  24        5.9022
  25        7.5142
  26        9.0713
  27       10.8654
  28       12.0342
 
  0.5000000E+00  0.2500000E+00  0.8333333E-01  0.1388889E-01
   1       -2.5376
   2       -2.5376
   3       -2.3050
   4       -2.3050
   5       -2.1546
   6       -2.1546
   7       -2.0751
   8       -2.0751
   9       -1.7615
  10       -1.7615
  11       -1.6746
  12       -1.6746
  13       -1.1465
  14       -1.1465
  15       -0.9419
  16       -0.9419
  17       -0.6404
  18       -0.6404
  19       -0.3122
  20       -0.3122
  21        0.3781
  22        0.3781
  23        5.0892
  24        5.0892
  25        8.2647
  26        8.2647
  27       11.3934
  28       11.3934
 
  0.3333333E+00  0.3333333E+00  0.8333333E-01  0.1388889E-01
   1       -2.7563
   2       -2.5728
   3       -2.4742
   4       -2.4742
   5       -2.1710
   6       -2.1710
   7       -2.0561
   8       -1.9209
   9       -1.6847
  10       -1.6847
  11       -1.5070
  12       -1.4884
  13       -1.3990
  14       -1.0417
  15       -0.9583
  16       -0.8471
  17       -0.8471
  18       -0.4003
  19       -0.4003
  20       -0.3644
  21       -0.1215
  22        2.5897
  23        2.5897
  24        5.7534
  25        7.4009
  26       10.4882
  27       10.4882
  28       10.7957
 
  0.4166667E+00  0.3333333E+00  0.8333333E-01  0.2777778E-01
   1       -2.5808
   2       -2.4573
   3       -2.4413
   4       -2.3229
   5       -2.0990
   6       -1.9967
   7       -1.9798
   8       -1.9095
   9       -1.8054
  10       -1.7845
  11       -1.5960
  12       -1.5868
  13       -1.3189
  14       -1.0439
  15       -1.0114
  16       -0.9499
  17       -0.9393
  18       -0.5561
  19       -0.4535
  20       -0.4346
  21        0.3049
  22        1.6538
  23        3.2514
  24        4.8220
  25        8.0631
  26        9.6071
  27       11.1481
  28       11.2517
 
  0.5000000E+00  0.3333333E+00  0.8333333E-01  0.1388889E-01
   1       -2.4705
   2       -2.4705
   3       -2.3186
   4       -2.3186
   5       -2.0830
   6       -2.0830
   7       -1.8927
   8       -1.8927
   9       -1.7602
  10       -1.7602
  11       -1.6799
  12       -1.6799
  13       -1.1790
  14       -1.1790
  15       -1.0422
  16       -1.0422
  17       -0.7457
  18       -0.7457
  19       -0.4657
  20       -0.4657
  21        0.8888
  22        0.8888
  23        3.9911
  24        3.9911
  25        8.8006
  26        8.8006
  27       11.8360
  28       11.8363
 
  0.4166667E+00  0.4166667E+00  0.8333333E-01  0.1388889E-01
   1       -2.4921
   2       -2.4088
   3       -2.3590
   4       -2.3590
   5       -1.9766
   6       -1.9766
   7       -1.9650
   8       -1.8837
   9       -1.7304
  10       -1.7304
  11       -1.5562
  12       -1.5092
  13       -1.3374
  14       -1.1468
  15       -1.0884
  16       -1.0884
  17       -0.9347
  18       -0.6224
  19       -0.6224
  20       -0.5508
  21        0.8293
  22        2.2932
  23        2.2932
  24        3.8630
  25        8.7098
  26       10.2512
  27       10.2512
  28       11.7603
 
  0.5000000E+00  0.4166667E+00  0.8333333E-01  0.1388889E-01
   1       -2.4192
   2       -2.4192
   3       -2.3553
   4       -2.3553
   5       -1.9966
   6       -1.9966
   7       -1.9093
   8       -1.9093
   9       -1.5976
  10       -1.5976
  11       -1.5749
  12       -1.5749
  13       -1.2362
  14       -1.2362
  15       -1.1670
  16       -1.1670
  17       -0.8006
  18       -0.8006
  19       -0.6215
  20       -0.6215
  21        1.4858
  22        1.4858
  23        3.0240
  24        3.0240
  25        9.4399
  26        9.4399
  27       10.9911
  28       10.9911
 
  0.5000000E+00  0.5000000E+00  0.8333333E-01  0.3472222E-02
   1       -2.3856
   2       -2.3856
   3       -2.3856
   4       -2.3856
   5       -1.9456
   6       -1.9456
   7       -1.9456
   8       -1.9456
   9       -1.4914
  10       -1.4914
  11       -1.4914
  12       -1.4914
  13       -1.2709
  14       -1.2709
  15       -1.2709
  16       -1.2709
  17       -0.7510
  18       -0.7510
  19       -0.7510
  20       -0.7510
  21        2.1914
  22        2.1914
  23        2.1914
  24        2.1914
  25       10.1711
  26       10.1711
  27       10.1711
  28       10.1711
 
  0.1666667E+00  0.1666667E+00  0.1666667E+00  0.4629630E-02
   1       -3.6289
   2       -2.8763
   3       -2.8763
   4       -2.8763
   5       -2.6548
   6       -2.6548
   7       -2.6548
   8       -1.8261
   9       -1.5989
  10       -1.5989
  11       -0.8836
  12       -0.8836
  13       -0.7886
  14       -0.7886
  15       -0.7886
  16       -0.6089
  17       -0.6089
  18       -0.6089
  19       -0.0997
  20       -0.0997
  21       -0.0997
  22        4.0039
  23        4.0039
  24        4.0039
  25       10.1979
  26       10.1979
  27       10.1979
  28       11.3344
 
  0.2500000E+00  0.1666667E+00  0.1666667E+00  0.1388889E-01