   4   4   0   0
  0.1854118E+02  0.4201449E-09  0.4201449E-09  0.4201449E-09  0.5000000E-15
  1.000000000000000E-004
  CAR 
 unknown system                          
     18.23189026     -4.55335690  301      6.82871546      1.00000000
     -4.553  0.0000E+00  0.0000E+00
     -4.477  0.0000E+00  0.0000E+00
     -4.401  0.0000E+00  0.0000E+00
     -4.326  0.0000E+00  0.0000E+00
     -4.250  0.0000E+00  0.0000E+00
     -4.174  0.0000E+00  0.0000E+00
     -4.098  0.0000E+00  0.0000E+00
     -4.022  0.0000E+00  0.0000E+00
     -3.946  0.0000E+00  0.0000E+00
     -3.870  0.0000E+00  0.0000E+00
     -3.794  0.0000E+00  0.0000E+00
     -3.718  0.0000E+00  0.0000E+00
     -3.642  0.0000E+00  0.0000E+00
     -3.566  0.2326E-14  0.1767E-15
     -3.490  0.2076E-01  0.1577E-02
     -3.414  0.1267E+00  0.1125E-01
     -3.338  0.1993E+00  0.2646E-01
     -3.262  0.2271E+00  0.4422E-01
     -3.186  0.2785E+00  0.6564E-01
     -3.110  0.3085E+00  0.8956E-01
     -3.034  0.3456E+00  0.1166E+00
     -2.958  0.3505E+00  0.1445E+00
     -2.882  0.3779E+00  0.1734E+00
     -2.806  0.4623E+00  0.2088E+00
     -2.731  0.4192E+00  0.2411E+00
     -2.655  0.4877E+00  0.2789E+00
     -2.579  0.4331E+00  0.3124E+00
     -2.503  0.5629E+00  0.3553E+00
     -2.427  0.4961E+00  0.3930E+00
     -2.351  0.5780E+00  0.4372E+00
     -2.275  0.5155E+00  0.4771E+00
     -2.199  0.6247E+00  0.5247E+00
     -2.123  0.5935E+00  0.5706E+00
     -2.047  0.6288E+00  0.6184E+00
     -1.971  0.6272E+00  0.6667E+00
     -1.895  0.7102E+00  0.7208E+00
     -1.819  0.5986E+00  0.7677E+00
     -1.743  0.7432E+00  0.8243E+00
     -1.667  0.6165E+00  0.8727E+00
     -1.591  0.7977E+00  0.9338E+00
     -1.515  0.6797E+00  0.9858E+00
     -1.439  0.7230E+00  0.1041E+01
     -1.363  0.7710E+00  0.1100E+01
     -1.287  0.8111E+00  0.1163E+01
     -1.212  0.7236E+00  0.1219E+01
     -1.136  0.8263E+00  0.1282E+01
     -1.060  0.8208E+00  0.1347E+01
     -0.984  0.7918E+00  0.1408E+01
     -0.908  0.8547E+00  0.1475E+01
     -0.832  0.7977E+00  0.1538E+01
     -0.756  0.8829E+00  0.1606E+01
     -0.680  0.8479E+00  0.1672E+01
     -0.604  0.8871E+00  0.1740E+01
     -0.528  0.9127E+00  0.1810E+01
     -0.452  0.8616E+00  0.1876E+01
     -0.376  0.9825E+00  0.1952E+01
     -0.300  0.9158E+00  0.2023E+01
     -0.224  0.9229E+00  0.2094E+01
     -0.148  0.9830E+00  0.2169E+01
     -0.072  0.9366E+00  0.2242E+01
      0.004  0.1085E+01  0.2325E+01
      0.080  0.8634E+00  0.2392E+01
      0.156  0.1028E+01  0.2472E+01
      0.232  0.1045E+01  0.2552E+01
      0.307  0.1038E+01  0.2632E+01
      0.383  0.9440E+00  0.2705E+01
      0.459  0.1081E+01  0.2788E+01
      0.535  0.1120E+01  0.2874E+01
      0.611  0.9866E+00  0.2951E+01
      0.687  0.1113E+01  0.3036E+01
      0.763  0.1046E+01  0.3117E+01
      0.839  0.1101E+01  0.3201E+01
      0.915  0.1169E+01  0.3292E+01
      0.991  0.1115E+01  0.3379E+01
      1.067  0.1028E+01  0.3460E+01
      1.143  0.1156E+01  0.3549E+01
      1.219  0.1145E+01  0.3638E+01
      1.295  0.1205E+01  0.3730E+01
      1.371  0.1071E+01  0.3813E+01
      1.447  0.1290E+01  0.3912E+01
      1.523  0.1096E+01  0.3997E+01
      1.599  0.1252E+01  0.4093E+01
      1.675  0.1165E+01  0.4183E+01
      1.751  0.1315E+01  0.4283E+01
      1.827  0.1038E+01  0.4364E+01
      1.902  0.1425E+01  0.4472E+01
      1.978  0.1135E+01  0.4560E+01
      2.054  0.1386E+01  0.4665E+01
      2.130  0.1189E+01  0.4757E+01
      2.206  0.1314E+01  0.4858E+01
      2.282  0.1284E+01  0.4958E+01
      2.358  0.1297E+01  0.5057E+01
      2.434  0.1344E+01  0.5159E+01
      2.510  0.1309E+01  0.5261E+01
      2.586  0.1145E+01  0.5350E+01
      2.662  0.1506E+01  0.5466E+01
      2.738  0.1389E+01  0.5572E+01
      2.814  0.1309E+01  0.5674E+01
      2.890  0.1269E+01  0.5771E+01
      2.966  0.1452E+01  0.5884E+01
      3.042  0.1383E+01  0.5992E+01
      3.118  0.1385E+01  0.6100E+01
      3.194  0.1307E+01  0.6201E+01
      3.270  0.1446E+01  0.6313E+01
      3.346  0.1455E+01  0.6425E+01
      3.421  0.1320E+01  0.6527E+01
      3.497  0.1600E+01  0.6650E+01
      3.573  0.1380E+01  0.6756E+01
      3.649  0.1533E+01  0.6874E+01
      3.725  0.1419E+01  0.6984E+01
      3.801  0.1447E+01  0.7096E+01
      3.877  0.1639E+01  0.7222E+01
      3.953  0.1441E+01  0.7335E+01
      4.029  0.1473E+01  0.7449E+01
      4.105  0.1516E+01  0.7566E+01
      4.181  0.1661E+01  0.7694E+01
      4.257  0.1651E+01  0.7823E+01
      4.333  0.1492E+01  0.7938E+01
      4.409  0.1689E+01  0.8067E+01
      4.485  0.1683E+01  0.8197E+01
      4.561  0.1447E+01  0.8309E+01
      4.637  0.1647E+01  0.8435E+01
      4.713  0.1549E+01  0.8554E+01
      4.789  0.1511E+01  0.8672E+01
      4.865  0.1604E+01  0.8795E+01
      4.940  0.1451E+01  0.8908E+01
      5.016  0.1448E+01  0.9020E+01
      5.092  0.1532E+01  0.9138E+01
      5.168  0.1482E+01  0.9252E+01
      5.244  0.1449E+01  0.9365E+01
      5.320  0.1495E+01  0.9479E+01
      5.396  0.1464E+01  0.9592E+01
      5.472  0.1746E+01  0.9727E+01
      5.548  0.1456E+01  0.9839E+01
      5.624  0.1555E+01  0.9961E+01
      5.700  0.1588E+01  0.1008E+02
      5.776  0.1650E+01  0.1021E+02
      5.852  0.1605E+01  0.1034E+02
      5.928  0.1579E+01  0.1046E+02
      6.004  0.1675E+01  0.1059E+02
      6.080  0.1684E+01  0.1072E+02
      6.156  0.1545E+01  0.1084E+02
      6.232  0.1645E+01  0.1097E+02
      6.308  0.1711E+01  0.1110E+02
      6.384  0.1620E+01  0.1122E+02
      6.460  0.1746E+01  0.1136E+02
      6.535  0.1780E+01  0.1150E+02
      6.611  0.1512E+01  0.1161E+02
      6.687  0.1673E+01  0.1174E+02
      6.763  0.1784E+01  0.1188E+02
      6.839  0.1771E+01  0.1202E+02
      6.915  0.1728E+01  0.1215E+02
      6.991  0.1620E+01  0.1227E+02
      7.067  0.1928E+01  0.1242E+02
      7.143  0.1648E+01  0.1255E+02
      7.219  0.1857E+01  0.1269E+02
      7.295  0.1627E+01  0.1282E+02
      7.371  0.1769E+01  0.1296E+02
      7.447  0.1939E+01  0.1311E+02
      7.523  0.1794E+01  0.1325E+02
      7.599  0.1799E+01  0.1338E+02
      7.675  0.1613E+01  0.1351E+02
      7.751  0.2022E+01  0.1367E+02
      7.827  0.1732E+01  0.1380E+02
      7.903  0.1987E+01  0.1395E+02
      7.979  0.1710E+01  0.1409E+02
      8.054  0.1785E+01  0.1422E+02
      8.130  0.1817E+01  0.1436E+02
      8.206  0.1977E+01  0.1451E+02
      8.282  0.2027E+01  0.1467E+02
      8.358  0.1544E+01  0.1479E+02
      8.434  0.2005E+01  0.1495E+02
      8.510  0.1901E+01  0.1509E+02
      8.586  0.1993E+01  0.1525E+02
      8.662  0.1724E+01  0.1538E+02
      8.738  0.1892E+01  0.1553E+02
      8.814  0.2028E+01  0.1568E+02
      8.890  0.1996E+01  0.1584E+02
      8.966  0.2030E+01  0.1599E+02
      9.042  0.1800E+01  0.1613E+02
      9.118  0.1770E+01  0.1627E+02
      9.194  0.2233E+01  0.1644E+02
      9.270  0.1978E+01  0.1659E+02
      9.346  0.1915E+01  0.1674E+02
      9.422  0.2000E+01  0.1689E+02
      9.498  0.1929E+01  0.1704E+02
      9.573  0.1992E+01  0.1720E+02
      9.649  0.2164E+01  0.1736E+02
      9.725  0.1864E+01  0.1751E+02
      9.801  0.1971E+01  0.1766E+02
      9.877  0.2171E+01  0.1783E+02
      9.953  0.2081E+01  0.1799E+02
     10.029  0.2088E+01  0.1815E+02
     10.105  0.1944E+01  0.1830E+02
     10.181  0.2189E+01  0.1846E+02
     10.257  0.1983E+01  0.1862E+02
     10.333  0.2052E+01  0.1877E+02
     10.409  0.2151E+01  0.1894E+02
     10.485  0.2221E+01  0.1911E+02
     10.561  0.1974E+01  0.1926E+02
     10.637  0.2404E+01  0.1945E+02
     10.713  0.2043E+01  0.1960E+02
     10.789  0.1905E+01  0.1975E+02
     10.865  0.2359E+01  0.1993E+02
     10.941  0.2077E+01  0.2009E+02
     11.017  0.2057E+01  0.2025E+02
     11.093  0.2476E+01  0.2045E+02
     11.168  0.2158E+01  0.2061E+02
     11.244  0.2052E+01  0.2077E+02
     11.320  0.2240E+01  0.2094E+02
     11.396  0.2251E+01  0.2112E+02
     11.472  0.2149E+01  0.2129E+02
     11.548  0.2344E+01  0.2147E+02
     11.624  0.2397E+01  0.2165E+02
     11.700  0.2232E+01  0.2183E+02
     11.776  0.2565E+01  0.2202E+02
     11.852  0.2138E+01  0.2219E+02
     11.928  0.2560E+01  0.2239E+02
     12.004  0.2263E+01  0.2256E+02
     12.080  0.2701E+01  0.2277E+02
     12.156  0.2520E+01  0.2297E+02
     12.232  0.2471E+01  0.2316E+02
     12.308  0.2506E+01  0.2335E+02
     12.384  0.2284E+01  0.2353E+02
     12.460  0.2437E+01  0.2371E+02
     12.536  0.2498E+01  0.2391E+02
     12.612  0.2146E+01  0.2407E+02
     12.687  0.2446E+01  0.2426E+02
     12.763  0.2322E+01  0.2444E+02
     12.839  0.2248E+01  0.2461E+02
     12.915  0.2384E+01  0.2480E+02
     12.991  0.2326E+01  0.2498E+02
     13.067  0.2103E+01  0.2514E+02
     13.143  0.2292E+01  0.2532E+02
     13.219  0.2154E+01  0.2548E+02
     13.295  0.2047E+01  0.2564E+02
     13.371  0.2359E+01  0.2582E+02
     13.447  0.2282E+01  0.2600E+02
     13.523  0.2383E+01  0.2619E+02
     13.599  0.2069E+01  0.2634E+02
     13.675  0.2137E+01  0.2651E+02
     13.751  0.2152E+01  0.2668E+02
     13.827  0.2065E+01  0.2684E+02
     13.903  0.2557E+01  0.2703E+02
     13.979  0.2128E+01  0.2720E+02
     14.055  0.1887E+01  0.2734E+02
     14.131  0.2584E+01  0.2754E+02
     14.206  0.2154E+01  0.2771E+02
     14.282  0.2124E+01  0.2787E+02
     14.358  0.2323E+01  0.2805E+02
     14.434  0.1874E+01  0.2820E+02
     14.510  0.2251E+01  0.2837E+02
     14.586  0.2374E+01  0.2855E+02
     14.662  0.2120E+01  0.2872E+02
     14.738  0.1928E+01  0.2886E+02
     14.814  0.2302E+01  0.2904E+02
     14.890  0.2155E+01  0.2921E+02
     14.966  0.2045E+01  0.2937E+02
     15.042  0.2113E+01  0.2953E+02
     15.118  0.1790E+01  0.2967E+02
     15.194  0.1829E+01  0.2981E+02
     15.270  0.2230E+01  0.2998E+02
     15.346  0.1847E+01  0.3013E+02
     15.422  0.1834E+01  0.3027E+02
     15.498  0.1617E+01  0.3039E+02
     15.574  0.1904E+01  0.3054E+02
     15.650  0.1435E+01  0.3065E+02
     15.726  0.1499E+01  0.3076E+02
     15.801  0.1463E+01  0.3088E+02
     15.877  0.1309E+01  0.3098E+02
     15.953  0.1225E+01  0.3107E+02
     16.029  0.1157E+01  0.3116E+02
     16.105  0.1249E+01  0.3126E+02
     16.181  0.1073E+01  0.3134E+02
     16.257  0.1069E+01  0.3142E+02
     16.333  0.9103E+00  0.3150E+02
     16.409  0.1047E+01  0.3158E+02
     16.485  0.9334E+00  0.3165E+02
     16.561  0.7984E+00  0.3171E+02
     16.637  0.8837E+00  0.3178E+02
     16.713  0.5994E+00  0.3182E+02
     16.789  0.6158E+00  0.3187E+02
     16.865  0.5142E+00  0.3191E+02
     16.941  0.4039E+00  0.3194E+02
     17.017  0.2799E+00  0.3196E+02
     17.093  0.2437E+00  0.3198E+02
     17.169  0.1550E+00  0.3199E+02
     17.245  0.7861E-01  0.3200E+02
     17.320  0.0000E+00  0.3200E+02
     17.396  0.0000E+00  0.3200E+02
     17.472  0.0000E+00  0.3200E+02
     17.548  0.0000E+00  0.3200E+02
     17.624  0.0000E+00  0.3200E+02
     17.700  0.0000E+00  0.3200E+02
     17.776  0.0000E+00  0.3200E+02
     17.852  0.0000E+00  0.3200E+02
     17.928  0.0000E+00  0.3200E+02
     18.004  0.0000E+00  0.3200E+02
     18.080  0.0000E+00  0.3200E+02
     18.156  0.0000E+00  0.3200E+02
     18.232  0.0000E+00  0.3200E+02
