    4    4    1    1
  0.1854118E+02  0.4201449E-09  0.4201449E-09  0.4201449E-09  0.5000000E-15
  1.000000000000000E-004
  CAR 
 unknown system                          
   12 1330   16
 
  0.0000000E+00  0.0000000E+00  0.0000000E+00  0.2143347E-04
   1       -3.5177
   2        4.1930
   3        4.1930
   4        4.1930
   5        5.2295
   6        5.2295
   7        5.2295
   8       11.9146
   9       11.9146
  10       11.9146
  11       11.9146
  12       11.9146
  13       11.9146
  14       12.0617
  15       12.0617
  16       12.0617
 
  0.2777778E-01  0.0000000E+00  0.0000000E+00  0.1286008E-03
   1       -3.5112
   2        4.0327
   3        4.1990
   4        4.1990
   5        5.2359
   6        5.2359
   7        5.4012
   8       11.5545
   9       11.5545
  10       11.8588
  11       11.8588
  12       11.9202
  13       11.9202
  14       12.0680
  15       12.4338
  16       12.4338
 
  0.5555556E-01  0.0000000E+00  0.0000000E+00  0.1286008E-03
   1       -3.4918
   2        3.7011
   3        4.2170
   4        4.2170
   5        5.2550
   6        5.2550
   7        5.7669
   8       11.1420
   9       11.1420
  10       11.7042
  11       11.7042
  12       11.9371
  13       11.9371
  14       12.0872
  15       12.8820
  16       12.8820
 
  0.8333333E-01  0.0000000E+00  0.0000000E+00  0.1286008E-03
   1       -3.4594
   2        3.3257
   3        4.2470
   4        4.2470
   5        5.2868
   6        5.2868
   7        6.1992
   8       10.7396
   9       10.7396
  10       11.4788
  11       11.4788
  12       11.9651
  13       11.9651
  14       12.1190
  15       13.3442
  16       13.3442
 
  0.1111111E+00  0.0000000E+00  0.0000000E+00  0.1286008E-03
   1       -3.4142
   2        2.9423
   3        4.2889
   4        4.2889
   5        5.3314
   6        5.3314
   7        6.6622
   8       10.3486
   9       10.3486
  10       11.2095
  11       11.2095
  12       12.0044
  13       12.0044
  14       12.1636
  15       13.8187
  16       13.8187
 
  0.1388889E+00  0.0000000E+00  0.0000000E+00  0.1286008E-03
   1       -3.3560
   2        2.5617
   3        4.3429
   4        4.3429
   5        5.3886
   6        5.3886
   7        7.1449
   8        9.9695
   9        9.9695
  10       10.9152
  11       10.9152
  12       12.0548
  13       12.0548
  14       12.2210
  15       14.3052
  16       14.3052
 
  0.1666667E+00  0.0000000E+00  0.0000000E+00  0.1286008E-03
   1       -3.2849
   2        2.1884
   3        4.4088
   4        4.4088
   5        5.4585
   6        5.4585
   7        7.6432
   8        9.6024
   9        9.6024
  10       10.6082
  11       10.6082
  12       12.1165
  13       12.1165
  14       12.2910
  15       14.8035
  16       14.8035
 
  0.1944444E+00  0.0000000E+00  0.0000000E+00  0.1286008E-03
   1       -3.2009
   2        1.8241
   3        4.4868
   4        4.4868
   5        5.5410
   6        5.5410
   7        8.1549
   8        9.2472
   9        9.2472
  10       10.2964
  11       10.2964
  12       12.1894
  13       12.1894
  14       12.3738
  15       15.1860
  16       15.3134
 
  0.2222222E+00  0.0000000E+00  0.0000000E+00  0.1286008E-03
   1       -3.1041
   2        1.4701
   3        4.5767
   4        4.5767
   5        5.6360
   6        5.6360
   7        8.6789
   8        8.9041
   9        8.9041
  10        9.9845
  11        9.9845
  12       12.2736
  13       12.2736
  14       12.4692
  15       15.2732
  16       15.8349
 
  0.2500000E+00  0.0000000E+00  0.0000000E+00  0.1286008E-03
   1       -2.9944
   2        1.1268
   3        4.6787
   4        4.6787
   5        5.7436
   6        5.7436
   7        8.5731
   8        8.5731
   9        9.2146
  10        9.6759
  11        9.6759
  12       12.3690
  13       12.3690
  14       12.5772
  15       15.3717
  16       15.9967
 
  0.2777778E+00  0.0000000E+00  0.0000000E+00  0.1286008E-03
   1       -2.8719
   2        0.7947
   3        4.7926
   4        4.7926
   5        5.8636
   6        5.8636
   7        8.2541
   8        8.2541
   9        9.3727
  10        9.3727
  11        9.7614
  12       12.4755
  13       12.4755
  14       12.6979
  15       15.4811
  16       15.7015
 
  0.3055556E+00  0.0000000E+00  0.0000000E+00  0.1286008E-03
   1       -2.7366
   2        0.4742
   3        4.9186
   4        4.9186
   5        5.9959
   6        5.9959
   7        7.9472
   8        7.9472
   9        9.0765
  10        9.0765
  11       10.3188
  12       12.5934
  13       12.5934
  14       12.8312
  15       15.4171
  16       15.4171
 
  0.3333333E+00  0.0000000E+00  0.0000000E+00  0.1286008E-03
   1       -2.5885
   2        0.1653
   3        5.0566
   4        5.0566
   5        6.1405
   6        6.1405
   7        7.6525
   8        7.6525
   9        8.7884
  10        8.7884
  11       10.8866
  12       12.7224
  13       12.7224
  14       12.9769
  15       15.1434
  16       15.1434
 
  0.3611111E+00  0.0000000E+00  0.0000000E+00  0.1286008E-03
   1       -2.4278
   2       -0.1317
   3        5.2066
   4        5.2066
   5        6.2972
   6        6.2972
   7        7.3697
   8        7.3697
   9        8.5093
  10        8.5093
  11       11.4642
  12       12.8627
  13       12.8627
  14       13.1352
  15       14.8806
  16       14.8806
 
  0.3888889E+00  0.0000000E+00  0.0000000E+00  0.1286008E-03
   1       -2.2543
   2       -0.4167
   3        5.3687
   4        5.3687
   5        6.4658
   6        6.4658
   7        7.0991
   8        7.0991
   9        8.2400
  10        8.2400
  11       12.0513
  12       13.0142
  13       13.0142
  14       13.3059
  15       14.6287
  16       14.6287
 
  0.4166667E+00  0.0000000E+00  0.0000000E+00  0.1286008E-03
   1       -2.0683
   2       -0.6896
   3        5.5428
   4        5.5428
   5        6.6461
   6        6.6461
   7        6.8406
   8        6.8406
   9        7.9809
  10        7.9809
  11       12.6472
  12       13.1769
  13       13.1769
  14       13.4889
  15       14.3879
  16       14.3879
 
  0.4444444E+00  0.0000000E+00  0.0000000E+00  0.1286008E-03
   1       -1.8696
   2       -0.9503
   3        5.7289
   4        5.7289
   5        6.5941
   6        6.5941
   7        6.8375
   8        6.8375
   9        7.7331
  10        7.7331
  11       13.2513
  12       13.3508
  13       13.3508
  14       13.6842
  15       14.1582
  16       14.1582
 
  0.4722222E+00  0.0000000E+00  0.0000000E+00  0.1286008E-03
   1       -1.6585
   2       -1.1987
   3        5.9271
   4        5.9271
   5        6.3597
   6        6.3597
   7        7.0378
   8        7.0378
   9        7.4989
  10        7.4989
  11       13.5359
  12       13.5359
  13       13.8624
  14       13.8916
  15       13.9396
  16       13.9396
 
  0.5000000E+00  0.0000000E+00  0.0000000E+00  0.6430041E-04
   1       -1.4348
   2       -1.4348
   3        6.1374
   4        6.1374
   5        6.1374
   6        6.1374
   7        7.1997
   8        7.1997
   9        7.3258
  10        7.3258
  11       13.7322
  12       13.7322
  13       13.7322
  14       13.7322
  15       14.1111
  16       14.1111
 
  0.2777778E-01  0.2777778E-01  0.0000000E+00  0.2572016E-03
   1       -3.5047
   2        4.0388
   3        4.0388
   4        4.2050
   5        5.2422
   6        5.4075
   7        5.4075
   8       11.3218
   9       11.5604
  10       11.5604
  11       11.8644
  12       11.8644
  13       11.9259
  14       12.4398
  15       12.4398
  16       12.5530
 
  0.5555556E-01  0.2777778E-01  0.0000000E+00  0.5144033E-03
   1       -3.4853
   2        3.7072
   3        4.0569
   4        4.2230
   5        5.2613
   6        5.4264
   7        5.7732
   8       10.9529
   9       11.1480
  10       11.5782
  11       11.7098
  12       11.8393
  13       11.8813
  14       12.4580
  15       12.8838
  16       12.8881
 
  0.8333333E-01  0.2777778E-01  0.0000000E+00  0.5144033E-03
   1       -3.4530
   2        3.3318
   3        4.0871
   4        4.2530
   5        5.2932
   6        5.4580
   7        6.2054
   8       10.5697
   9       10.7456
  10       11.4845
  11       11.6078
  12       11.6304
  13       11.9094
  14       12.4882
  15       13.3034
  16       13.3502
 
  0.1111111E+00  0.2777778E-01  0.0000000E+00  0.5144033E-03
   1       -3.4077
   2        2.9484
   3        4.1295
   4        4.2949
   5        5.3377
   6        5.5022
   7        6.6683
   8       10.1893
   9       10.3546
  10       11.2152
  11       11.3645
  12       11.6493
  13       11.9488
  14       12.5306
  15       13.7576
  16       13.8247
 
  0.1388889E+00  0.2777778E-01  0.0000000E+00  0.5144033E-03
   1       -3.3495
   2        2.5679
   3        4.1839
   4        4.3489
   5        5.3949
   6        5.5589
   7        7.1511
   8        9.8166
   9        9.9755
  10       10.9210
  11       11.0703
  12       11.7026
  13       11.9994
  14       12.5851
  15       14.2323
  16       14.3112
 
  0.1666667E+00  0.2777778E-01  0.0000000E+00  0.5144033E-03
   1       -3.2784
   2        2.1946
   3        4.2504
   4        4.4148
   5        5.4648
   6        5.6282
   7        7.6493
   8        9.4536
   9        9.6084
  10       10.6141
  11       10.7626
  12       11.7678
  13       12.0612
  14       12.6517
  15       14.7227
  16       14.8094
 
  0.1944444E+00  0.2777778E-01  0.0000000E+00  0.5144033E-03
   1       -3.1944
   2        1.8304
   3        4.3291
   4        4.4928
   5        5.5473
   6        5.7100
   7        8.1610
   8        9.1011
   9        9.2532
  10       10.3023
  11       10.4499
  12       11.8446
  13       12.1343
  14       12.7305
  15       15.2269
  16       15.2508
 
  0.2222222E+00  0.2777778E-01  0.0000000E+00  0.5144033E-03
   1       -3.0976
   2        1.4763
   3        4.4198
   4        4.5827
   5        5.6424
   6        5.8043
   7        8.6850
   8        8.7598
   9        8.9101
  10        9.9904
  11       10.1374
  12       11.9333
  13       12.2187
  14       12.8214
  15       15.3378
  16       15.7443
 
  0.2500000E+00  0.2777778E-01  0.0000000E+00  0.5144033E-03
   1       -2.9879
   2        1.1331
   3        4.5225
   4        4.6846
   5        5.7499
   6        5.9110
   7        8.4298
   8        8.5791
   9        9.2206
  10        9.6818
  11        9.8285
  12       12.0337
  13       12.3143
  14       12.9244
  15       15.4360
  16       15.7829
 
  0.2777778E+00  0.2777778E-01  0.0000000E+00  0.5144033E-03
   1       -2.8654
   2        0.8010
   3        4.6374
   4        4.7986
   5        5.8699
   6        6.0301
   7        8.1114
   8        8.2601
   9        9.3787
  10        9.5252
  11        9.7674
  12       12.1457
  13       12.4211
  14       13.0396
  15       15.4821
  16       15.5452
 
  0.3055556E+00  0.2777778E-01  0.0000000E+00  0.5144033E-03
   1       -2.7301
   2        0.4805
   3        4.7643
   4        4.9246
   5        6.0022
   6        6.1614
   7        7.8048
   8        7.9533
   9        9.0825
  10        9.2291
  11       10.3248
  12       12.2694
  13       12.5391
  14       13.1670
  15       15.1914
  16       15.3633
 
  0.3333333E+00  0.2777778E-01  0.0000000E+00  0.5144033E-03
   1       -2.5821
   2        0.1717
   3        4.9033
   4        5.0626
   5        6.1467
   6        6.3050
   7        7.5099
   8        7.6585
   9        8.7945
  10        8.9414
  11       10.8925
  12       12.4047
  13       12.6684
  14       13.3065
  15       14.9113
  16       15.0902
 
  0.3611111E+00  0.2777778E-01  0.0000000E+00  0.5144033E-03
   1       -2.4214
   2       -0.1253
   3        5.0544
   4        5.2126
   5        6.3033
   6        6.4606
   7        7.2270
   8        7.3757
   9        8.5155
  10        8.6628
  11       11.4701
  12       12.5515
  13       12.8090
  14       13.4582
  15       14.6417
  16       14.8277
 
  0.3888889E+00  0.2777778E-01  0.0000000E+00  0.5144033E-03
   1       -2.2479
   2       -0.4103
   3        5.2175
   4        5.3747
   5        6.4718
   6        6.6281
   7        6.9561
   8        7.1051
   9        8.2462
  10        8.3940
  11       12.0571
  12       12.7098
  13       12.9607
  14       13.6220
  15       14.3829
  16       14.5761
 
  0.4166667E+00  0.2777778E-01  0.0000000E+00  0.5144033E-03
   1       -2.0619
   2       -0.6832
   3        5.3926
   4        5.5488
   5        6.6468
   6        6.7023
   7        6.8072
   8        6.8466
   9        7.9873
  10        8.1356
  11       12.6530
  12       12.8796
  13       13.1237
  14       13.7979
  15       14.1349
  16       14.3354
 
  0.4444444E+00  0.2777778E-01  0.0000000E+00  0.5144033E-03
   1       -1.8632
   2       -0.9439
   3        5.5798
   4        5.7349
   5        6.4482
   6        6.6001
   7        6.8455
   8        6.9972
   9        7.7399
  10        7.8882
  11       13.0607
  12       13.2564
  13       13.2985
  14       13.8978
  15       13.9859
  16       14.1057
 
  0.4722222E+00  0.2777778E-01  0.0000000E+00  0.5144033E-03
   1       -1.6521
   2       -1.1923
   3        5.7790
   4        5.9331
   5        6.2134
   6        6.3657
   7        7.0471
   8        7.1936
   9        7.5086
  10        7.6532
  11       13.2532
  12       13.4829
  13       13.6718
  14       13.8684
  15       13.8870
  16       14.1859
 
  0.5000000E+00  0.2777778E-01  0.0000000E+00  0.2572016E-03
   1       -1.4284
   2       -1.4284
   3        5.9902
   4        5.9902
   5        6.1434
   6        6.1434
   7        7.2479
   8        7.2479
   9        7.4419
  10        7.4419
  11       13.4569
  12       13.4569
  13       13.6794
  14       13.6794
  15       14.3978
  16       14.3978
 
  0.5555556E-01  0.5555556E-01  0.0000000E+00  0.2572016E-03
   1       -3.4659
   2        3.7256
   3        3.7256
   4        4.2410
   5        5.2804
   6        5.7919
   7        5.7919
   8       10.6100
   9       11.1659
  10       11.1659
  11       11.7268
  12       11.7268
  13       11.9596
  14       12.9061
  15       12.9061
  16       12.9681
 
  0.8333333E-01  0.5555556E-01  0.0000000E+00  0.5144033E-03
   1       -3.4336
   2        3.3503
   3        3.7561
   4        4.2709
   5        5.3123
   6        5.8231
   7        6.2240
   8       10.2403
   9       10.7635
  10       11.1957
  11       11.5017
  12       11.7551
  13       11.8796
  14       12.9362
  15       13.2305
  16       13.3682
 
  0.1111111E+00  0.5555556E-01  0.0000000E+00  0.5144033E-03
   1       -3.3883
   2        2.9670
   3        3.7989
   4        4.3129
   5        5.3568
   6        5.8668
   7        6.6868
   8        9.8681
   9       10.3726
  10       11.2325
  11       11.2375
  12       11.6637
  13       11.7948
  14       12.9783
  15       13.6136
  16       13.8426
 
  0.1388889E+00  0.5555556E-01  0.0000000E+00  0.5144033E-03
   1       -3.3301
   2        2.5866
   3        3.8539
   4        4.3669
   5        5.4140
   6        5.9230
   7        7.1695
   8        9.5007
   9        9.9935
  10       10.9384
  11       11.2911
  12       11.3891
  13       11.8457
  14       13.0324
  15       14.0528
  16       14.3291
 
  0.1666667E+00  0.5555556E-01  0.0000000E+00  0.5144033E-03
   1       -3.2590
   2        2.2133
   3        3.9211
   4        4.4328
   5        5.4839
   6        5.9916
   7        7.6676
   8        9.1411
   9        9.6264
  10       10.6316
  11       11.0900
  12       11.3567
  13       11.9080
  14       13.0985
  15       14.5226
  16       14.8273
 
  0.1944444E+00  0.5555556E-01  0.0000000E+00  0.5144033E-03
   1       -3.1751
   2        1.8491
   3        4.0005
   4        4.5107
   5        5.5663
   6        6.0726
   7        8.1792
   8        8.7910
   9        9.2712
  10       10.3199
  11       10.7816
  12       11.4341
  13       11.9815
  14       13.1767
  15       15.0131
  16       15.3384
 
  0.2222222E+00  0.5555556E-01  0.0000000E+00  0.5144033E-03
   1       -3.0782
   2        1.4951
   3        4.0921
   4        4.6007
   5        5.6613
   6        6.1659
   7        8.4510
   8        8.7031
   9        8.9281
  10       10.0082
  11       10.4715
  12       11.5235
  13       12.0664
  14       13.2669
  15       15.5190
  16       15.5200
 
  0.2500000E+00  0.5555556E-01  0.0000000E+00  0.5144033E-03
   1       -2.9686
   2        1.1519
   3        4.1959
   4        4.7026
   5        5.7689
   6        6.2716
   7        8.1218
   8        8.5971
   9        9.2387
  10        9.6997
  11       10.1642
  12       11.6246
  13       12.1625
  14       13.3691
  15       15.4209
  16       15.6166
 
  0.2777778E+00  0.5555556E-01  0.0000000E+00  0.5144033E-03
   1       -2.8461
   2        0.8199
   3        4.3118
   4        4.8166
   5        5.8888
   6        6.3895
   7        7.8037
   8        8.2781
   9        9.3967
  10        9.7853
  11        9.8623
  12       11.7376
  13       12.2699
  14       13.4833
  15       15.1159
  16       15.4971
 
  0.3055556E+00  0.5555556E-01  0.0000000E+00  0.5144033E-03
   1       -2.7108
   2        0.4994
   3        4.4399
   4        4.9426
   5        6.0210
   6        6.5196
   7        7.4969
   8        7.9713
   9        9.1007
  10        9.5674
  11       10.3427
  12       11.8623
  13       12.3886
  14       13.6095
  15       14.8212
  16       15.2150
 
  0.3333333E+00  0.5555556E-01  0.0000000E+00  0.5144033E-03
   1       -2.5628
   2        0.1906
   3        4.5801
   4        5.0806
   5        6.1655
   6        6.6618
   7        7.2017
   8        7.6765
   9        8.8128
  10        9.2809
  11       10.9103
  12       11.9989
  13       12.5186
  14       13.7477
  15       14.5371
  16       14.9430
 
  0.3611111E+00  0.5555556E-01  0.0000000E+00  0.5144033E-03
   1       -2.4021
   2       -0.1063
   3        4.7325
   4        5.2306
   5        6.3218
   6        6.8160
   7        6.9184
   8        7.3938
   9        8.5339
  10        9.0035
  11       11.4878
  12       12.1471
  13       12.6597
  14       13.8979
  15       14.2637
  16       14.6813
 
  0.3888889E+00  0.5555556E-01  0.0000000E+00  0.5144033E-03
   1       -2.2287
   2       -0.3913
   3        4.8969
   4        5.3927
   5        6.4878
   6        6.6491
   7        6.9819
   8        7.1231
   9        8.2649
  10        8.7359
  11       12.0747
  12       12.3071
  13       12.8121
  14       14.0012
  15       14.0599
  16       14.4301
 
  0.4166667E+00  0.5555556E-01  0.0000000E+00  0.5144033E-03
   1       -2.0426
   2       -0.6642
   3        5.0734
   4        5.5668
   5        6.3830
   6        6.6743
   7        6.8646
   8        7.1591
   9        8.0066
  10        8.4787
  11       12.4787
  12       12.6704
  13       12.9758
  14       13.7498
  15       14.1896
  16       14.2339
 
  0.4444444E+00  0.5555556E-01  0.0000000E+00  0.5144033E-03
   1       -1.8440
   2       -0.9248
   3        5.2620
   4        5.7529
   5        6.1358
   6        6.6181
   7        6.8653
   8        7.3452
   9        7.7617
  10        8.2324
  11       12.6619
  12       13.1499
  13       13.2751
  14       13.5095
  15       13.9598
  16       14.4197
 
  0.4722222E+00  0.5555556E-01  0.0000000E+00  0.5144033E-03
   1       -1.6329
   2       -1.1732
   3        5.4625
   4        5.8996
   5        5.9511
   6        6.3837
   7        7.0683
   8        7.4739
   9        7.5965
  10        7.9975
  11       12.8566
  12       13.2805
  13       13.3361
  14       13.7409
  15       13.8859
  16       14.6172
 
  0.5000000E+00  0.5555556E-01  0.0000000E+00  0.2572016E-03
   1       -1.4093
   2       -1.4093
   3        5.6751
   4        5.6751
   5        6.1614
   6        6.1614
   7        7.2810
   8        7.2810
   9        7.7758
  10        7.7758
  11       13.0629
  12       13.0629
  13       13.5330
  14       13.5330
  15       14.5026
  16       14.5026
 
  0.8333333E-01  0.8333333E-01  0.0000000E+00  0.2572016E-03
   1       -3.4012
   2        3.3811
   3        3.3811
   4        4.3009
   5        5.3441
   6        6.2550
   7        6.2550
   8        9.8767
   9       10.7934
  10       10.7934
  11       11.5302
  12       11.5302
  13       12.0159
  14       13.2555
  15       13.3982
  16       13.3982
 
  0.1111111E+00  0.8333333E-01  0.0000000E+00  0.5144033E-03
   1       -3.3560
   2        2.9979
   3        3.4242
   4        4.3429
   5        5.3886
   6        6.2984
   7        6.7177
   8        9.5078
   9       10.4025
  10       10.8353
  11       11.2613
  12       11.5702
  13       11.9463
  14       13.4401
  15       13.4766
  16       13.8725
 
  0.1388889E+00  0.8333333E-01  0.0000000E+00  0.5144033E-03
   1       -3.2978
   2        2.6176
   3        3.4795
   4        4.3968
   5        5.4458
   6        6.3541
   7        7.2001
   8        9.1423
   9       10.0235
  10       10.8890
  11       10.9674
  12       11.6215
  13       11.7360
  14       13.4941
  15       13.8402
  16       14.3589
 
  0.1666667E+00  0.8333333E-01  0.0000000E+00  0.5144033E-03
   1       -3.2267
   2        2.2444
   3        3.5472
   4        4.4628
   5        5.5156
   6        6.4222
   7        7.6981
   8        8.7839
   9        9.6563
  10       10.6609
  11       10.9548
  12       11.4650
  13       11.6843
  14       13.5600
  15       14.2734
  16       14.8571
 
  0.1944444E+00  0.8333333E-01  0.0000000E+00  0.5144033E-03
   1       -3.1428
   2        1.8803
   3        3.6271
   4        4.5407
   5        5.5980
   6        6.5026
   7        8.2096
   8        8.4343
   9        9.3012
  10       10.3494
  11       11.0324
  12       11.1705
  13       11.7584
  14       13.6379
  15       14.7437
  16       15.3669
 
  0.2222222E+00  0.8333333E-01  0.0000000E+00  0.5144033E-03
   1       -3.0460
   2        1.5264
   3        3.7193
   4        4.6307
   5        5.6930
   6        6.5953
   7        8.0945
   8        8.7334
   9        8.9581
  10       10.0379
  11       10.8683
  12       11.1220
  13       11.8440
  14       13.7278
  15       15.2378
  16       15.3609
 
  0.2500000E+00  0.8333333E-01  0.0000000E+00  0.5144033E-03
   1       -2.9363
   2        1.1833
   3        3.8238
   4        4.7326
   5        5.8004
   6        6.7002
   7        7.7652
   8        8.6271
   9        9.2688
  10        9.7296
  11       10.5659
  12       11.2235
  13       11.9408
  14       13.8296
  15       15.0431
  16       15.5695
 
  0.2777778E+00  0.8333333E-01  0.0000000E+00  0.5144033E-03
   1       -2.8139
   2        0.8514
   3        3.9404
   4        4.8466
   5        5.9203
   6        6.8173
   7        7.4468
   8        8.3082
   9        9.4268
  10        9.8153
  11       10.2674
  12       11.3368
  13       12.0490
  14       13.9433
  15       14.7354
  16       15.2802
 
  0.3055556E+00  0.8333333E-01  0.0000000E+00  0.5144033E-03
   1       -2.6787
   2        0.5309
   3        4.0693
   4        4.9726
   5        6.0524
   6        6.9465
   7        7.1396
   8        8.0013
   9        9.1309
  10        9.9751
  11       10.3724
  12       11.4620
  13       12.1685
  14       14.0690
  15       14.4383
  16       14.9998
 
  0.3333333E+00  0.8333333E-01  0.0000000E+00  0.5144033E-03
   1       -2.5307
   2        0.2222
   3        4.2104
   4        5.1106
   5        6.1965
   6        6.8440
   7        7.0876
   8        7.7065
   9        8.8433
  10        9.6906
  11       10.9398
  12       11.5990
  13       12.2993
  14       14.1520
  15       14.2065
  16       14.7289
 
  0.3611111E+00  0.8333333E-01  0.0000000E+00  0.5144033E-03
   1       -2.3700
   2       -0.0747
   3        4.3636
   4        5.2606
   5        6.3509
   6        6.5618
   7        7.2406
   8        7.4238
   9        8.5648
  10        9.4150
  11       11.5171
  12       11.7479
  13       12.4413
  14       13.8765
  15       14.3560
  16       14.4678
 
  0.3888889E+00  0.8333333E-01  0.0000000E+00  0.5144033E-03
   1       -2.1966
   2       -0.3596
   3        4.5290
   4        5.4227
   5        6.2824
   6        6.5261
   7        7.1531
   8        7.4049
   9        8.2964
  10        9.1491
  11       11.9085
  12       12.1038
  13       12.5945
  14       13.6122
  15       14.2169
  16       14.5172
 
  0.4166667E+00  0.8333333E-01  0.0000000E+00  0.5144033E-03
   1       -2.0106
   2       -0.6324
   3        4.7065
   4        5.5968
   5        6.0232
   6        6.7048
   7        6.8946
   8        7.5788
   9        8.0403
  10        8.8933
  11       12.0809
  12       12.6991
  13       12.7593
  14       13.3591
  15       13.9763
  16       14.6902
 
  0.4444444E+00  0.8333333E-01  0.0000000E+00  0.5144033E-03
   1       -1.8120
   2       -0.8930
   3        4.8961
   4        5.7742
   5        5.7829
   6        6.6481
   7        6.8968
   8        7.7227
   9        7.8365
  10        8.6481
  11       12.2649
  12       12.9343
  13       13.1173
  14       13.3034
  15       13.7463
  16       14.8748
 
  0.4722222E+00  0.8333333E-01  0.0000000E+00  0.5144033E-03
   1       -1.6009
   2       -1.1413
   3        5.0977
   4        5.5368
   5        5.9811
   6        6.4137
   7        7.1004
   8        7.5385
   9        7.9832
  10        8.4141
  11       12.4607
  12       12.8869
  13       13.1209
  14       13.5270
  15       13.9145
  16       15.0711
 
  0.5000000E+00  0.8333333E-01  0.0000000E+00  0.2572016E-03
   1       -1.3773
   2       -1.3773
   3        5.3113
   4        5.3113
   5        6.1914
   6        6.1914
   7        7.3150
   8        7.3150
   9        8.1918
  10        8.1918
  11       12.6680
  12       12.6680
  13       13.3185
  14       13.3185
  15       14.5314
  16       14.5314
 
  0.1111111E+00  0.1111111E+00  0.0000000E+00  0.2572016E-03
   1       -3.3107
   2        3.0412
   3        3.0412
   4        4.3848
   5        5.4331
   6        6.7608
   7        6.7608
   8        9.1402
   9       10.4444
  10       10.4444
  11       11.3016
  12       11.3016
  13       12.0947
  14       13.4691
  15       13.9144
  16       13.9144
 
  0.1388889E+00  0.1111111E+00  0.0000000E+00  0.5144033E-03
   1       -3.2526
   2        2.6611
   3        3.0968
   4        4.4388
   5        5.4902
   6        6.8162
   7        7.2431
   8        8.7753
   9       10.0654
  10       10.4983
  11       11.0081
  12       11.3534
  13       12.0366
  14       13.6728
  15       13.9682
  16       14.4007
 
  0.1666667E+00  0.1111111E+00  0.0000000E+00  0.5144033E-03
   1       -3.1815
   2        2.2880
   3        3.1648
   4        4.5047
   5        5.5600
   6        6.8839
   7        7.7409
   8        8.4170
   9        9.6983
  10       10.5641
  11       10.7018
  12       11.4167
  13       11.8358
  14       14.0306
  15       14.0340
  16       14.8987
 
  0.1944444E+00  0.1111111E+00  0.0000000E+00  0.5144033E-03
   1       -3.0976
   2        1.9241
   3        3.2451
   4        4.5827
   5        5.6424
   6        6.9639
   7        8.0673
   8        8.2521
   9        9.3432
  10       10.3906
  11       10.6419
  12       11.4914
  13       11.5732
  14       14.1117
  15       14.4652
  16       15.3181
 
  0.2222222E+00  0.1111111E+00  0.0000000E+00  0.5144033E-03
   1       -3.0008
   2        1.5702
   3        3.3378
   4        4.6726
   5        5.7373
   6        7.0560
   7        7.7271
   8        8.7757
   9        9.0001
  10       10.0794
  11       10.7316
  12       11.2872
  13       11.5776
  14       14.2013
  15       14.9404
  16       14.9880
 
  0.2500000E+00  0.1111111E+00  0.0000000E+00  0.5144033E-03
   1       -2.8912
   2        1.2272
   3        3.4427
   4        4.7746
   5        5.8446
   6        7.1603
   7        7.3974
   8        8.6691
   9        9.3109
  10        9.7714
  11       10.8333
  12       10.9942
  13       11.6752
  14       14.3028
  15       14.6681
  16       15.3101
 
  0.2777778E+00  0.1111111E+00  0.0000000E+00  0.5144033E-03
   1       -2.7688
   2        0.8954
   3        3.5599
   4        4.8886
   5        5.9643
   6        7.0784
   7        7.2767
   8        8.3502
   9        9.4688
  10        9.8571
  11       10.7016
  12       10.9468
  13       11.7842
  14       14.3585
  15       14.4162
  16       15.0225
 
  0.3055556E+00  0.1111111E+00  0.0000000E+00  0.5144033E-03
   1       -2.6336
   2        0.5751
   3        3.6894
   4        5.0146
   5        6.0961
   6        6.7708
   7        7.4051
   8        8.0433
   9        9.1733
  10       10.4135
  11       10.4140
  12       11.0723
  13       11.9046
  14       14.0597
  15       14.5415
  16       14.7433
 
  0.3333333E+00  0.1111111E+00  0.0000000E+00  0.5144033E-03
   1       -2.4857
   2        0.2664
   3        3.8311
   4        5.1526
   5        6.2385
   6        6.4761
   7        7.5453
   8        7.7485
   9        8.8860
  10       10.1321
  11       10.9812
  12       11.2096
  13       12.0362
  14       13.7718
  15       14.4730
  16       14.6785
 
  0.3611111E+00  0.1111111E+00  0.0000000E+00  0.5144033E-03
   1       -2.3250
   2       -0.0304
   3        3.9850
   4        5.3026
   5        6.1842
   6        6.4018
   7        7.4658
   8        7.6969
   9        8.6082
  10        9.8589
  11       11.3588
  12       11.5582
  13       12.1792
  14       13.4950
  15       14.2122
  16       14.8274
 
  0.3888889E+00  0.1111111E+00  0.0000000E+00  0.5144033E-03
   1       -2.1517
   2       -0.3152
   3        4.1511
   4        5.4647
   5        5.9128
   6        6.5682
   7        7.1952
   8        7.8584
   9        8.3420
  10        9.5949
  11       11.5198
  12       12.1446
  13       12.3333
  14       13.2295
  15       13.9613
  16       14.9879
 
  0.4166667E+00  0.1111111E+00  0.0000000E+00  0.5144033E-03
   1       -1.9658