 running on    4 nodes
 distr:  one band on    1 nodes,    4 groups
 vasp.4.6.28 25Jul05 complex 
 POSCAR found :  1 types and   32 ions

 ----------------------------------------------------------------------------- 
|                                                                             |
|  ADVICE TO THIS USER RUNNING 'VASP/VAMP'   (HEAR YOUR MASTER'S VOICE ...):  |
|                                                                             |
|      You have a (more or less) 'large supercell' and for larger cells       |
|      it might be more efficient to use real space projection operators      |
|      So try LREAL= Auto  in the INCAR   file.                               |
|      Mind: If you want to do an extremely accurate calculations keep the    |
|      reciprocal projection scheme          (i.e. LREAL=.FALSE.)             |
|                                                                             |
 ----------------------------------------------------------------------------- 

 LDA part: xc-table for Pade appr. of Perdew
 POSCAR, INCAR and KPOINTS ok, starting setup
 WARNING: wrap around errors must be expected
 FFT: planning ...           4
 reading WAVECAR
 entering main loop
       N       E                     dE             d eps       ncg     rms          rms(c)
DAV:   1     0.192056041842E+04    0.19206E+04   -0.10714E+05   432   0.853E+02
DAV:   2    -0.820997054832E+01   -0.19288E+04   -0.18264E+04   444   0.320E+02
DAV:   3    -0.106896616724E+03   -0.98687E+02   -0.93565E+02   472   0.690E+01
DAV:   4    -0.109011243794E+03   -0.21146E+01   -0.21002E+01   464   0.102E+01
DAV:   5    -0.109057571634E+03   -0.46328E-01   -0.46309E-01   468   0.126E+00    0.151E+01
DAV:   6    -0.102297152071E+03    0.67604E+01   -0.19686E+01   444   0.138E+01    0.380E+00
DAV:   7    -0.101957776637E+03    0.33938E+00   -0.10100E+00   460   0.264E+00    0.173E+00
DAV:   8    -0.101884937551E+03    0.72839E-01   -0.39531E-02   444   0.552E-01    0.126E-01
DAV:   9    -0.101884915035E+03    0.22516E-04   -0.47094E-03   468   0.201E-01    0.776E-02
DAV:  10    -0.101884895168E+03    0.19867E-04   -0.46725E-04   444   0.561E-02    0.819E-03
DAV:  11    -0.101884901535E+03   -0.63664E-05   -0.11586E-05   252   0.914E-03
   1 F= -.10188490E+03 E0= -.10182760E+03  d E =-.101885E+03
 curvature:   0.00 expect dE= 0.000E+00 dE for cont linesearch  0.000E+00
 trial: gam= 0.00000 g(F)=  0.113E-57 g(S)=  0.000E+00 ort = 0.000E+00 (trialstep = 0.100E+01)
 search vector abs. value=  0.100E-09
 reached required accuracy - stopping structural energy minimisation
 writing wavefunctions

 ----------------------------------------------------------------------------- 
|                                                                             |
|           W    W    AA    RRRRR   N    N  II  N    N   GGGG   !!!           |
|           W    W   A  A   R    R  NN   N  II  NN   N  G    G  !!!           |
|           W    W  A    A  R    R  N N  N  II  N N  N  G       !!!           |
|           W WW W  AAAAAA  RRRRR   N  N N  II  N  N N  G  GGG   !            |
|           WW  WW  A    A  R   R   N   NN  II  N   NN  G    G                |
|           W    W  A    A  R    R  N    N  II  N    N   GGGG   !!!           |
|                                                                             |
|      The partial DOS and the PROCAR file are not evaluated for NPAR/=1      |
|      please rerun with NPAR=1                                               |
|                                                                             |
 ----------------------------------------------------------------------------- 

