 running on    4 nodes
 distr:  one band on    1 nodes,    4 groups
 vasp.4.6.28 25Jul05 complex 
 POSCAR found :  1 types and   32 ions

 ----------------------------------------------------------------------------- 
|                                                                             |
|  ADVICE TO THIS USER RUNNING 'VASP/VAMP'   (HEAR YOUR MASTER'S VOICE ...):  |
|                                                                             |
|      You have a (more or less) 'large supercell' and for larger cells       |
|      it might be more efficient to use real space projection operators      |
|      So try LREAL= Auto  in the INCAR   file.                               |
|      Mind: If you want to do an extremely accurate calculations keep the    |
|      reciprocal projection scheme          (i.e. LREAL=.FALSE.)             |
|                                                                             |
 ----------------------------------------------------------------------------- 

 LDA part: xc-table for Pade appr. of Perdew
 POSCAR, INCAR and KPOINTS ok, starting setup
 WARNING: wrap around errors must be expected
 FFT: planning ...           4
 reading WAVECAR
 entering main loop
       N       E                     dE             d eps       ncg     rms          rms(c)
DAV:   1     0.368910858441E+04    0.36891E+04   -0.16358E+05   424   0.160E+03
DAV:   2     0.111426299795E+03   -0.35777E+04   -0.34179E+04   428   0.482E+02
DAV:   3    -0.102203367190E+03   -0.21363E+03   -0.19528E+03   472   0.118E+02
DAV:   4    -0.108974822088E+03   -0.67715E+01   -0.66899E+01   456   0.216E+01
DAV:   5    -0.109123839710E+03   -0.14902E+00   -0.14884E+00   468   0.267E+00    0.151E+01
DAV:   6    -0.102405250720E+03    0.67186E+01   -0.19905E+01   444   0.153E+01    0.375E+00
DAV:   7    -0.102099999927E+03    0.30525E+00   -0.10513E+00   484   0.283E+00    0.174E+00
DAV:   8    -0.102037581204E+03    0.62419E-01   -0.54243E-02   444   0.848E-01    0.150E-01
DAV:   9    -0.102037798947E+03   -0.21774E-03   -0.61403E-03   476   0.246E-01    0.881E-02
DAV:  10    -0.102037818741E+03   -0.19794E-04   -0.69715E-04   444   0.762E-02    0.102E-02
DAV:  11    -0.102037830198E+03   -0.11457E-04   -0.14710E-05   308   0.107E-02    0.217E-03
DAV:  12    -0.102037827092E+03    0.31061E-05   -0.16917E-06   244   0.436E-03
   1 F= -.10203783E+03 E0= -.10198053E+03  d E =-.102038E+03
 curvature:   0.00 expect dE= 0.000E+00 dE for cont linesearch  0.000E+00
 trial: gam= 0.00000 g(F)=  0.123E-57 g(S)=  0.000E+00 ort = 0.000E+00 (trialstep = 0.100E+01)
 search vector abs. value=  0.100E-09
 reached required accuracy - stopping structural energy minimisation
 writing wavefunctions

 ----------------------------------------------------------------------------- 
|                                                                             |
|           W    W    AA    RRRRR   N    N  II  N    N   GGGG   !!!           |
|           W    W   A  A   R    R  NN   N  II  NN   N  G    G  !!!           |
|           W    W  A    A  R    R  N N  N  II  N N  N  G       !!!           |
|           W WW W  AAAAAA  RRRRR   N  N N  II  N  N N  G  GGG   !            |
|           WW  WW  A    A  R   R   N   NN  II  N   NN  G    G                |
|           W    W  A    A  R    R  N    N  II  N    N   GGGG   !!!           |
|                                                                             |
|      The partial DOS and the PROCAR file are not evaluated for NPAR/=1      |
|      please rerun with NPAR=1                                               |
|                                                                             |
 ----------------------------------------------------------------------------- 

