 running on    8 nodes
 distr:  one band on    1 nodes,    8 groups
 vasp.4.6.28 25Jul05 complex 
 POSCAR found :  1 types and    4 ions
 WARNING: PSMAXN for non-local potential too small
 LDA part: xc-table for Pade appr. of Perdew
 POSCAR, INCAR and KPOINTS ok, starting setup
 FFT: planning ...           1
 reading WAVECAR
 entering main loop
       N       E                     dE             d eps       ncg     rms          rms(c)
DAV:   1     0.572187536110E+03    0.57219E+03   -0.30545E+04 85120   0.224E+03
DAV:   2     0.792003769351E+01   -0.56427E+03   -0.51848E+03 85136   0.480E+02
DAV:   3    -0.129623380793E+02   -0.20882E+02   -0.20363E+02100304   0.108E+02
DAV:   4    -0.131849195988E+02   -0.22258E+00   -0.22240E+00 92184   0.993E+00
DAV:   5    -0.131867336767E+02   -0.18141E-02   -0.18138E-02102080   0.846E-01    0.514E+00
DAV:   6    -0.123661103353E+02    0.82062E+00   -0.21579E+00 95736   0.130E+01    0.122E+00
DAV:   7    -0.123428073570E+02    0.23303E-01   -0.82266E-02 95056   0.188E+00    0.628E-01
DAV:   8    -0.123382923414E+02    0.45150E-02   -0.61878E-03 93136   0.715E-01    0.443E-02
DAV:   9    -0.123384020700E+02   -0.10973E-03   -0.23794E-04100592   0.111E-01    0.265E-02
DAV:  10    -0.123384049785E+02   -0.29084E-05   -0.24789E-05 94672   0.313E-02    0.256E-03
DAV:  11    -0.123384059352E+02   -0.95677E-06   -0.88906E-07 99408   0.673E-03    0.109E-03
DAV:  12    -0.123384054487E+02    0.48657E-06   -0.81093E-08 95544   0.255E-03    0.968E-05
DAV:  13    -0.123384054327E+02    0.15972E-07   -0.47187E-10 63216   0.197E-04    0.322E-05
DAV:  14    -0.123384054434E+02   -0.10706E-07   -0.20763E-10 56176   0.118E-04    0.120E-05
DAV:  15    -0.123384054390E+02    0.44329E-08   -0.39510E-11 55024   0.574E-05
   1 F= -.12338405E+02 E0= -.12338375E+02  d E =-.599174E-04
