   4   4   0   0
  0.2164446E+02  0.4423869E-09  0.4423869E-09  0.4423869E-09  0.5000000E-15
  1.000000000000000E-004
  CAR 
 unknown system                          
     18.74713180     -5.64841708  301      3.05173697      1.00000000
     -5.648  0.0000E+00  0.0000E+00
     -5.567  0.0000E+00  0.0000E+00
     -5.486  0.0000E+00  0.0000E+00
     -5.404  0.0000E+00  0.0000E+00
     -5.323  0.0000E+00  0.0000E+00
     -5.242  0.0000E+00  0.0000E+00
     -5.161  0.0000E+00  0.0000E+00
     -5.079  0.0000E+00  0.0000E+00
     -4.998  0.0000E+00  0.0000E+00
     -4.917  0.0000E+00  0.0000E+00
     -4.835  0.0000E+00  0.0000E+00
     -4.754  0.0000E+00  0.0000E+00
     -4.673  0.0000E+00  0.0000E+00
     -4.591  0.6637E-16  0.5397E-17
     -4.510  0.1751E-01  0.1424E-02
     -4.429  0.1114E+00  0.1067E-01
     -4.347  0.1683E+00  0.2458E-01
     -4.266  0.1998E+00  0.4185E-01
     -4.185  0.2209E+00  0.6115E-01
     -4.103  0.2867E+00  0.8530E-01
     -4.022  0.2908E+00  0.1104E+00
     -3.941  0.3409E+00  0.1391E+00
     -3.859  0.3581E+00  0.1691E+00
     -3.778  0.4361E+00  0.2050E+00
     -3.697  0.4013E+00  0.2399E+00
     -3.615  0.4414E+00  0.2799E+00
     -3.534  0.4236E+00  0.3162E+00
     -3.453  0.5476E+00  0.3623E+00
     -3.371  0.5378E+00  0.4089E+00
     -3.290  0.5879E+00  0.4594E+00
     -3.209  0.5488E+00  0.5064E+00
     -3.128  0.7503E+00  0.5681E+00
     -3.046  0.6756E+00  0.6251E+00
     -2.965  0.7043E+00  0.6871E+00
     -2.884  0.8659E+00  0.7586E+00
     -2.802  0.8797E+00  0.8323E+00
     -2.721  0.8640E+00  0.9081E+00
     -2.640  0.1167E+01  0.1005E+01
     -2.558  0.1179E+01  0.1105E+01
     -2.477  0.1329E+01  0.1221E+01
     -2.396  0.2045E+01  0.1391E+01
     -2.314  0.3201E+01  0.1662E+01
     -2.233  0.3158E+01  0.1930E+01
     -2.152  0.3341E+01  0.2215E+01
     -2.070  0.4659E+01  0.2605E+01
     -1.989  0.5549E+01  0.3076E+01
     -1.908  0.7282E+01  0.3692E+01
     -1.826  0.8988E+01  0.4457E+01
     -1.745  0.1032E+02  0.5328E+01
     -1.664  0.9941E+01  0.6170E+01
     -1.582  0.9523E+01  0.6970E+01
     -1.501  0.9017E+01  0.7744E+01
     -1.420  0.8462E+01  0.8465E+01
     -1.339  0.8245E+01  0.9163E+01
     -1.257  0.7254E+01  0.9780E+01
     -1.176  0.6012E+01  0.1030E+02
     -1.095  0.7817E+01  0.1095E+02
     -1.013  0.9662E+01  0.1177E+02
     -0.932  0.1147E+02  0.1274E+02
     -0.851  0.1230E+02  0.1379E+02
     -0.769  0.1157E+02  0.1477E+02
     -0.688  0.1131E+02  0.1574E+02
     -0.607  0.1148E+02  0.1671E+02
     -0.525  0.1295E+02  0.1780E+02
     -0.444  0.1505E+02  0.1908E+02
     -0.363  0.2035E+02  0.2078E+02
     -0.281  0.1624E+02  0.2220E+02
     -0.200  0.1250E+02  0.2326E+02
     -0.119  0.9801E+01  0.2410E+02
     -0.037  0.9505E+01  0.2491E+02
      0.044  0.9471E+01  0.2573E+02
      0.125  0.9933E+01  0.2657E+02
      0.207  0.1181E+02  0.2756E+02
      0.288  0.1203E+02  0.2859E+02
      0.369  0.1294E+02  0.2969E+02
      0.450  0.1261E+02  0.3077E+02
      0.532  0.1108E+02  0.3171E+02
      0.613  0.1049E+02  0.3261E+02
      0.694  0.9916E+01  0.3345E+02
      0.776  0.9522E+01  0.3427E+02
      0.857  0.1007E+02  0.3513E+02
      0.938  0.1060E+02  0.3603E+02
      1.020  0.1170E+02  0.3703E+02
      1.101  0.1477E+02  0.3828E+02
      1.182  0.1879E+02  0.3987E+02
      1.264  0.1239E+02  0.4095E+02
      1.345  0.7721E+01  0.4161E+02
      1.426  0.3679E+01  0.4192E+02
      1.508  0.1032E+01  0.4202E+02
      1.589  0.1494E+01  0.4215E+02
      1.670  0.1087E+01  0.4224E+02
      1.752  0.1275E+01  0.4235E+02
      1.833  0.1319E+01  0.4246E+02
      1.914  0.1101E+01  0.4255E+02
      1.996  0.1404E+01  0.4267E+02
      2.077  0.9904E+00  0.4276E+02
      2.158  0.1418E+01  0.4288E+02
      2.239  0.8938E+00  0.4296E+02
      2.321  0.1509E+01  0.4308E+02
      2.402  0.9655E+00  0.4317E+02
      2.483  0.1382E+01  0.4328E+02
      2.565  0.1053E+01  0.4337E+02
      2.646  0.1332E+01  0.4349E+02
      2.727  0.1151E+01  0.4358E+02
      2.809  0.1270E+01  0.4369E+02
      2.890  0.1160E+01  0.4379E+02
      2.971  0.1207E+01  0.4389E+02
      3.053  0.1273E+01  0.4400E+02
      3.134  0.1195E+01  0.4410E+02
      3.215  0.1301E+01  0.4421E+02
      3.297  0.1199E+01  0.4432E+02
      3.378  0.1259E+01  0.4442E+02
      3.459  0.1345E+01  0.4454E+02
      3.541  0.1225E+01  0.4464E+02
      3.622  0.1272E+01  0.4475E+02
      3.703  0.1224E+01  0.4485E+02
      3.785  0.1287E+01  0.4496E+02
      3.866  0.1236E+01  0.4506E+02
      3.947  0.1225E+01  0.4517E+02
      4.028  0.1217E+01  0.4527E+02
      4.110  0.1259E+01  0.4538E+02
      4.191  0.1204E+01  0.4548E+02
      4.272  0.1195E+01  0.4559E+02
      4.354  0.1204E+01  0.4569E+02
      4.435  0.1214E+01  0.4579E+02
      4.516  0.1268E+01  0.4590E+02
      4.598  0.1123E+01  0.4600E+02
      4.679  0.1323E+01  0.4611E+02
      4.760  0.1089E+01  0.4621E+02
      4.842  0.1420E+01  0.4632E+02
      4.923  0.1210E+01  0.4643E+02
      5.004  0.1151E+01  0.4653E+02
      5.086  0.1697E+01  0.4667E+02
      5.167  0.1871E+01  0.4683E+02
      5.248  0.1873E+01  0.4699E+02
      5.330  0.1722E+01  0.4714E+02
      5.411  0.1654E+01  0.4728E+02
      5.492  0.1543E+01  0.4741E+02
      5.574  0.1536E+01  0.4754E+02
      5.655  0.1517E+01  0.4767E+02
      5.736  0.1243E+01  0.4778E+02
      5.817  0.1470E+01  0.4790E+02
      5.899  0.1390E+01  0.4802E+02
      5.980  0.1167E+01  0.4812E+02
      6.061  0.1348E+01  0.4823E+02
      6.143  0.1086E+01  0.4833E+02
      6.224  0.1120E+01  0.4842E+02
      6.305  0.1118E+01  0.4852E+02
      6.387  0.1199E+01  0.4862E+02
      6.468  0.1006E+01  0.4871E+02
      6.549  0.9062E+00  0.4879E+02
      6.631  0.1120E+01  0.4888E+02
      6.712  0.1005E+01  0.4897E+02
      6.793  0.7694E+00  0.4903E+02
      6.875  0.1040E+01  0.4912E+02
      6.956  0.1150E+01  0.4922E+02
      7.037  0.1280E+01  0.4933E+02
      7.119  0.1622E+01  0.4946E+02
      7.200  0.1528E+01  0.4959E+02
      7.281  0.1868E+01  0.4975E+02
      7.363  0.1408E+01  0.4987E+02
      7.444  0.1600E+01  0.5000E+02
      7.525  0.1905E+01  0.5017E+02
      7.606  0.1403E+01  0.5028E+02
      7.688  0.1579E+01  0.5042E+02
      7.769  0.1426E+01  0.5054E+02
      7.850  0.1579E+01  0.5067E+02
      7.932  0.1823E+01  0.5083E+02
      8.013  0.1507E+01  0.5096E+02
      8.094  0.1340E+01  0.5107E+02
      8.176  0.1481E+01  0.5119E+02
      8.257  0.1349E+01  0.5131E+02
      8.338  0.1638E+01  0.5145E+02
      8.420  0.1354E+01  0.5156E+02
      8.501  0.1387E+01  0.5168E+02
      8.582  0.1138E+01  0.5178E+02
      8.664  0.1180E+01  0.5187E+02
      8.745  0.1273E+01  0.5198E+02
      8.826  0.1312E+01  0.5209E+02
      8.908  0.1156E+01  0.5219E+02
      8.989  0.1185E+01  0.5230E+02
      9.070  0.1480E+01  0.5242E+02
      9.152  0.1269E+01  0.5253E+02
      9.233  0.1395E+01  0.5264E+02
      9.314  0.1565E+01  0.5278E+02
      9.396  0.1550E+01  0.5291E+02
      9.477  0.1265E+01  0.5301E+02
      9.558  0.1416E+01  0.5313E+02
      9.639  0.1522E+01  0.5326E+02
      9.721  0.1545E+01  0.5340E+02
      9.802  0.1408E+01  0.5351E+02
      9.883  0.1530E+01  0.5364E+02
      9.965  0.1340E+01  0.5376E+02
     10.046  0.1749E+01  0.5390E+02
     10.127  0.1479E+01  0.5403E+02
     10.209  0.1533E+01  0.5416E+02
     10.290  0.1251E+01  0.5426E+02
     10.371  0.1400E+01  0.5438E+02
     10.453  0.1774E+01  0.5453E+02
     10.534  0.1674E+01  0.5467E+02
     10.615  0.1213E+01  0.5478E+02
     10.697  0.1346E+01  0.5489E+02
     10.778  0.1599E+01  0.5503E+02
     10.859  0.1599E+01  0.5517E+02
     10.941  0.1420E+01  0.5529E+02
     11.022  0.1514E+01  0.5542E+02
     11.103  0.1522E+01  0.5555E+02
     11.185  0.1526E+01  0.5567E+02
     11.266  0.1495E+01  0.5580E+02
     11.347  0.1814E+01  0.5595E+02
     11.428  0.1811E+01  0.5610E+02
     11.510  0.1632E+01  0.5624E+02
     11.591  0.1609E+01  0.5638E+02
     11.672  0.1857E+01  0.5654E+02
     11.754  0.1670E+01  0.5668E+02
     11.835  0.2251E+01  0.5687E+02
     11.916  0.1484E+01  0.5700E+02
     11.998  0.1945E+01  0.5716E+02
     12.079  0.1803E+01  0.5732E+02
     12.160  0.2038E+01  0.5749E+02
     12.242  0.2061E+01  0.5767E+02
     12.323  0.2149E+01  0.5785E+02
     12.404  0.1894E+01  0.5802E+02
     12.486  0.2290E+01  0.5821E+02
     12.567  0.1932E+01  0.5837E+02
     12.648  0.2339E+01  0.5857E+02
     12.730  0.2294E+01  0.5876E+02
     12.811  0.1875E+01  0.5892E+02
     12.892  0.2059E+01  0.5910E+02
     12.974  0.2242E+01  0.5929E+02
     13.055  0.1936E+01  0.5945E+02
     13.136  0.2020E+01  0.5962E+02
     13.217  0.2179E+01  0.5980E+02
     13.299  0.1765E+01  0.5996E+02
     13.380  0.2156E+01  0.6014E+02
     13.461  0.1763E+01  0.6029E+02
     13.543  0.1904E+01  0.6045E+02
     13.624  0.2113E+01  0.6063E+02
     13.705  0.1877E+01  0.6079E+02
     13.787  0.1876E+01  0.6094E+02
     13.868  0.1719E+01  0.6109E+02
     13.949  0.2331E+01  0.6128E+02
     14.031  0.1355E+01  0.6140E+02
     14.112  0.1786E+01  0.6155E+02
     14.193  0.1826E+01  0.6170E+02
     14.275  0.1508E+01  0.6183E+02
     14.356  0.1429E+01  0.6195E+02
     14.437  0.1353E+01  0.6207E+02
     14.519  0.1063E+01  0.6216E+02
     14.600  0.1473E+01  0.6228E+02
     14.681  0.9828E+00  0.6236E+02
     14.763  0.9779E+00  0.6245E+02
     14.844  0.1214E+01  0.6255E+02
     14.925  0.8699E+00  0.6263E+02
     15.006  0.8297E+00  0.6270E+02
     15.088  0.1063E+01  0.6279E+02
     15.169  0.8025E+00  0.6285E+02
     15.250  0.7579E+00  0.6292E+02
     15.332  0.9126E+00  0.6300E+02
     15.413  0.6958E+00  0.6306E+02
     15.494  0.6418E+00  0.6311E+02
     15.576  0.7109E+00  0.6317E+02
     15.657  0.4889E+00  0.6321E+02
     15.738  0.7429E+00  0.6328E+02
     15.820  0.4645E+00  0.6332E+02
     15.901  0.4726E+00  0.6336E+02
     15.982  0.6717E+00  0.6342E+02
     16.064  0.4305E+00  0.6345E+02
     16.145  0.2753E+00  0.6348E+02
     16.226  0.6774E+00  0.6353E+02
     16.308  0.2278E+00  0.6355E+02
     16.389  0.4827E+00  0.6359E+02
     16.470  0.4473E+00  0.6363E+02
     16.552  0.2369E+00  0.6365E+02
     16.633  0.5519E+00  0.6370E+02
     16.714  0.2401E+00  0.6372E+02
     16.795  0.3446E+00  0.6375E+02
     16.877  0.3306E+00  0.6378E+02
     16.958  0.2833E+00  0.6380E+02
     17.039  0.3244E+00  0.6383E+02
     17.121  0.2229E+00  0.6385E+02
     17.202  0.3273E+00  0.6387E+02
     17.283  0.2510E+00  0.6390E+02
     17.365  0.3620E+00  0.6393E+02
     17.446  0.4491E+00  0.6396E+02
     17.527  0.3532E+00  0.6399E+02
     17.609  0.5540E-01  0.6400E+02
     17.690  0.1586E-01  0.6400E+02
     17.771  0.0000E+00  0.6400E+02
     17.853  0.0000E+00  0.6400E+02
     17.934  0.0000E+00  0.6400E+02
     18.015  0.0000E+00  0.6400E+02
     18.097  0.0000E+00  0.6400E+02
     18.178  0.0000E+00  0.6400E+02
     18.259  0.0000E+00  0.6400E+02
     18.341  0.0000E+00  0.6400E+02
     18.422  0.0000E+00  0.6400E+02
     18.503  0.0000E+00  0.6400E+02
     18.584  0.0000E+00  0.6400E+02
     18.666  0.0000E+00  0.6400E+02
     18.747  0.0000E+00  0.6400E+02
