    4    4    1    1
  0.2164446E+02  0.4423869E-09  0.4423869E-09  0.4423869E-09  0.5000000E-15
  1.000000000000000E-004
  CAR 
 unknown system                          
   44 1330   32
 
  0.0000000E+00  0.0000000E+00  0.0000000E+00  0.2143347E-04
   1       -4.5395
   2       -2.1587
   3       -2.1587
   4       -2.1587
   5       -1.9633
   6       -1.9633
   7       -1.9633
   8       -0.5971
   9       -0.5971
  10       -0.5971
  11        0.3912
  12        0.3912
  13        1.1430
  14        1.1430
  15        1.1430
  16        1.3838
  17        1.3838
  18        1.3838
  19        1.3838
  20        1.3838
  21        1.3838
  22        4.6956
  23        4.6956
  24        4.6956
  25        7.1803
  26        7.1803
  27        7.1803
  28       12.4474
  29       12.4474
  30       12.4474
  31       12.4474
  32       12.4474
 
  0.2777778E-01  0.0000000E+00  0.0000000E+00  0.1286008E-03
   1       -4.5322
   2       -2.1565
   3       -2.1543
   4       -2.1543
   5       -1.9610
   6       -1.9598
   7       -1.9598
   8       -0.6001
   9       -0.5944
  10       -0.5944
  11        0.3881
  12        0.3925
  13        1.1387
  14        1.1387
  15        1.1415
  16        1.3666
  17        1.3666
  18        1.3784
  19        1.3784
  20        1.3838
  21        1.3838
  22        4.6009
  23        4.7186
  24        4.7186
  25        7.1762
  26        7.1762
  27        7.2881
  28       12.4295
  29       12.4295
  30       12.4304
  31       12.4304
  32       12.4611
 
  0.5555556E-01  0.0000000E+00  0.0000000E+00  0.1286008E-03
   1       -4.5103
   2       -2.1501
   3       -2.1411
   4       -2.1411
   5       -1.9542
   6       -1.9493
   7       -1.9493
   8       -0.6090
   9       -0.5860
  10       -0.5860
  11        0.3788
  12        0.3965
  13        1.1259
  14        1.1259
  15        1.1370
  16        1.3164
  17        1.3164
  18        1.3625
  19        1.3625
  20        1.3838
  21        1.3838
  22        4.3550
  23        4.7863
  24        4.7863
  25        7.1640
  26        7.1640
  27        7.5733
  28       12.3761
  29       12.3761
  30       12.3811
  31       12.3811
  32       12.5017
 
  0.8333333E-01  0.0000000E+00  0.0000000E+00  0.1286008E-03
   1       -4.4738
   2       -2.1398
   3       -2.1193
   4       -2.1193
   5       -1.9427
   6       -1.9318
   7       -1.9318
   8       -0.6237
   9       -0.5721
  10       -0.5721
  11        0.3635
  12        0.4032
  13        1.1046
  14        1.1046
  15        1.1294
  16        1.2371
  17        1.2371
  18        1.3362
  19        1.3362
  20        1.3839
  21        1.3839
  22        4.0239
  23        4.8947
  24        4.8947
  25        7.1441
  26        7.1441
  27        7.9702
  28       12.2887
  29       12.2887
  30       12.3046
  31       12.3046
  32       12.5692
 
  0.1111111E+00  0.0000000E+00  0.0000000E+00  0.1286008E-03
   1       -4.4229
   2       -2.1259
   3       -2.0892
   4       -2.0892
   5       -1.9268
   6       -1.9074
   7       -1.9074
   8       -0.6440
   9       -0.5526
  10       -0.5526
  11        0.3425
  12        0.4125
  13        1.0751
  14        1.0751
  15        1.1190
  16        1.1339
  17        1.1339
  18        1.3000
  19        1.3000
  20        1.3839
  21        1.3839
  22        3.6533
  23        5.0385
  24        5.0385
  25        7.1171
  26        7.1171
  27        8.4332
  28       12.1696
  29       12.1696
  30       12.2076
  31       12.2076
  32       12.6628
 
  0.1388889E+00  0.0000000E+00  0.0000000E+00  0.1286008E-03
   1       -4.3577
   2       -2.1091
   3       -2.0511
   4       -2.0511
   5       -1.9065
   6       -1.8759
   7       -1.8759
   8       -0.6698
   9       -0.5277
  10       -0.5277
  11        0.3159
  12        0.4244
  13        1.0124
  14        1.0124
  15        1.0376
  16        1.0376
  17        1.1056
  18        1.2547
  19        1.2547
  20        1.3840
  21        1.3840
  22        3.2679
  23        5.2121
  24        5.2121
  25        7.0838
  26        7.0838
  27        8.9382
  28       12.0215
  29       12.0215
  30       12.0975
  31       12.0975
  32       12.7818
 
  0.1666667E+00  0.0000000E+00  0.0000000E+00  0.1286008E-03
   1       -4.2785
   2       -2.0902
   3       -2.0056
   4       -2.0056
   5       -1.8819
   6       -1.8375
   7       -1.8375
   8       -0.7007
   9       -0.4974
  10       -0.4974
  11        0.2844
  12        0.4387
  13        0.8776
  14        0.8776
  15        0.9925
  16        0.9925
  17        1.0896
  18        1.2010
  19        1.2010
  20        1.3841
  21        1.3841
  22        2.8810
  23        5.4103
  24        5.4103
  25        7.0453
  26        7.0453
  27        9.4724
  28       11.8474
  29       11.8474
  30       11.9808
  31       11.9808
  32       12.9253
 
  0.1944444E+00  0.0000000E+00  0.0000000E+00  0.1286008E-03
   1       -4.1856
   2       -2.0703
   3       -1.9532
   4       -1.9532
   5       -1.8531
   6       -1.7921
   7       -1.7921
   8       -0.7365
   9       -0.4618
  10       -0.4618
  11        0.2484
  12        0.4554
  13        0.7336
  14        0.7336
  15        0.9404
  16        0.9404
  17        1.0710
  18        1.1398
  19        1.1398
  20        1.3841
  21        1.3841
  22        2.5003
  23        5.6288
  24        5.6288
  25        7.0029
  26        7.0029
  27       10.0289
  28       11.6504
  29       11.6504
  30       11.8631
  31       11.8631
  32       13.0923
 
  0.2222222E+00  0.0000000E+00  0.0000000E+00  0.1286008E-03
   1       -4.0794
   2       -2.0509
   3       -1.8949
   4       -1.8949
   5       -1.8203
   6       -1.7398
   7       -1.7398
   8       -0.7767
   9       -0.4209
  10       -0.4209
  11        0.2086
  12        0.4744
  13        0.5839
  14        0.5839
  15        0.8820
  16        0.8820
  17        1.0501
  18        1.0719
  19        1.0719
  20        1.3842
  21        1.3842
  22        2.1311
  23        5.8639
  24        5.8639
  25        6.9578
  26        6.9578
  27       10.6034
  28       11.4335
  29       11.4335
  30       11.7487
  31       11.7487
  32       13.2814
 
  0.2500000E+00  0.0000000E+00  0.0000000E+00  0.1286008E-03
   1       -3.9605
   2       -2.0340
   3       -1.8317
   4       -1.8317
   5       -1.7837
   6       -1.6806
   7       -1.6806
   8       -0.8209
   9       -0.3750
  10       -0.3750
  11        0.1659
  12        0.4313
  13        0.4313
  14        0.4956
  15        0.8183
  16        0.8183
  17        0.9985
  18        0.9985
  19        1.0269
  20        1.3843
  21        1.3843
  22        1.7776
  23        6.1126
  24        6.1126
  25        6.9115
  26        6.9115
  27       11.1933
  28       11.1995
  29       11.1995
  30       11.6409
  31       11.6409
  32       13.4916
 
  0.2777778E+00  0.0000000E+00  0.0000000E+00  0.1286008E-03
   1       -3.8294
   2       -2.0221
   3       -1.7648
   4       -1.7648
   5       -1.7435
   6       -1.6145
   7       -1.6145
   8       -0.8688
   9       -0.3240
  10       -0.3240
  11        0.1213
  12        0.2777
  13        0.2777
  14        0.5188
  15        0.7507
  16        0.7507
  17        0.9204
  18        0.9204
  19        1.0017
  20        1.3844
  21        1.3844
  22        1.4436
  23        6.3727
  24        6.3727
  25        6.8655
  26        6.8655
  27       10.9510
  28       10.9510
  29       11.5417
  30       11.5417
  31       11.7968
  32       13.7216
 
  0.3055556E+00  0.0000000E+00  0.0000000E+00  0.1286008E-03
   1       -3.6871
   2       -2.0183
   3       -1.6999
   4       -1.6959
   5       -1.6959
   6       -1.5416
   7       -1.5416
   8       -0.9198
   9       -0.2683
  10       -0.2683
  11        0.0761
  12        0.1248
  13        0.1248
  14        0.5438
  15        0.6806
  16        0.6806
  17        0.8387
  18        0.8387
  19        0.9747
  20        1.1329
  21        1.3845
  22        1.3845
  23        6.6421
  24        6.6421
  25        6.8212
  26        6.8212
  27       10.6903
  28       10.6903
  29       11.4528
  30       11.4528
  31       12.4123
  32       13.9699
 
  0.3333333E+00  0.0000000E+00  0.0000000E+00  0.1286008E-03
   1       -3.5347
   2       -2.0267
   3       -1.6531
   4       -1.6269
   5       -1.6269
   6       -1.4620
   7       -1.4620
   8       -0.9734
   9       -0.2080
  10       -0.2080
  11       -0.0261
  12       -0.0261
  13        0.0318
  14        0.5706
  15        0.6103
  16        0.6103
  17        0.7542
  18        0.7542
  19        0.8501
  20        0.9461
  21        1.3846
  22        1.3846
  23        6.7799
  24        6.7799
  25        6.9193
  26        6.9193
  27       10.4196
  28       10.4196
  29       11.3751
  30       11.3751
  31       13.0387
  32       14.2352
 
  0.3611111E+00  0.0000000E+00  0.0000000E+00  0.1286008E-03
   1       -3.3737
   2       -2.0517
   3       -1.6035
   4       -1.5601
   5       -1.5601
   6       -1.3756
   7       -1.3756
   8       -1.0292
   9       -0.1741
  10       -0.1741
  11       -0.1432
  12       -0.1432
  13       -0.0095
  14        0.5421
  15        0.5421
  16        0.5988
  17        0.5998
  18        0.6679
  19        0.6679
  20        0.9162
  21        1.3846
  22        1.3846
  23        6.7428
  24        6.7428
  25        7.2028
  26        7.2028
  27       10.1406
  28       10.1406
  29       11.3090
  30       11.3090
  31       13.6747
  32       14.5162
 
  0.3888889E+00  0.0000000E+00  0.0000000E+00  0.1286008E-03
   1       -3.2060
   2       -2.0980
   3       -1.5513
   4       -1.4985
   5       -1.4985
   6       -1.2827
   7       -1.2827
   8       -1.0868
   9       -0.3183
  10       -0.3183
  11       -0.0744
  12       -0.0744
  13       -0.0456
  14        0.3865
  15        0.4790
  16        0.4790
  17        0.5806
  18        0.5806
  19        0.6284
  20        0.8852
  21        1.3847
  22        1.3847
  23        6.7110
  24        6.7110
  25        7.4914
  26        7.4914
  27        9.8550
  28        9.8550
  29       11.2549
  30       11.2549
  31       14.3189
  32       14.8114
 
  0.4166667E+00  0.0000000E+00  0.0000000E+00  0.1286008E-03
   1       -3.0343
   2       -2.1694
   3       -1.4969
   4       -1.4452
   5       -1.4452
   6       -1.1831
   7       -1.1831
   8       -1.1455
   9       -0.4581
  10       -0.4581
  11       -0.0732
  12       -0.0017
  13       -0.0017
  14        0.2139
  15        0.4244
  16        0.4244
  17        0.4930
  18        0.4930
  19        0.6590
  20        0.8534
  21        1.3848
  22        1.3848
  23        6.6854
  24        6.6854
  25        7.7840
  26        7.7840
  27        9.5643
  28        9.5643
  29       11.2128
  30       11.2128
  31       14.9718
  32       15.1194
 
  0.4444444E+00  0.0000000E+00  0.0000000E+00  0.1286008E-03
   1       -2.8621
   2       -2.2672
   3       -1.4407
   4       -1.4037
   5       -1.4037
   6       -1.2050
   7       -1.0772
   8       -1.0772
   9       -0.5931
  10       -0.5931
  11       -0.0885
  12        0.0744
  13        0.0744
  14        0.0833
  15        0.3818
  16        0.3818
  17        0.4060
  18        0.4060
  19        0.6906
  20        0.8209
  21        1.3848
  22        1.3848
  23        6.6665
  24        6.6665
  25        8.0795
  26        8.0795
  27        9.2700
  28        9.2700
  29       11.1828
  30       11.1828
  31       15.4387
  32       15.4387
 
  0.4722222E+00  0.0000000E+00  0.0000000E+00  0.1286008E-03
   1       -2.6936
   2       -2.3903
   3       -1.3829
   4       -1.3773
   5       -1.3773
   6       -1.2646
   7       -0.9651
   8       -0.9651
   9       -0.7228
  10       -0.7228
  11       -0.0866
  12       -0.0070
  13        0.1537
  14        0.1537
  15        0.3200
  16        0.3200
  17        0.3547
  18        0.3547
  19        0.7228
  20        0.7882
  21        1.3848
  22        1.3848
  23        6.6551
  24        6.6551
  25        8.3769
  26        8.3769
  27        8.9732
  28        8.9732
  29       11.1648
  30       11.1648
  31       15.7679
  32       15.7679
 
  0.5000000E+00  0.0000000E+00  0.0000000E+00  0.6430041E-04
   1       -2.5344
   2       -2.5344
   3       -1.3682
   4       -1.3682
   5       -1.3241
   6       -1.3241
   7       -0.8469
   8       -0.8469
   9       -0.8469
  10       -0.8469
  11       -0.0615
  12       -0.0615
  13        0.2358
  14        0.2358
  15        0.2358
  16        0.2358
  17        0.3454
  18        0.3454
  19        0.7554
  20        0.7554
  21        1.3848
  22        1.3848
  23        6.6512
  24        6.6512
  25        8.6751
  26        8.6751
  27        8.6751
  28        8.6751
  29       11.1588
  30       11.1588
  31       16.1052
  32       16.1052
 
  0.2777778E-01  0.2777778E-01  0.0000000E+00  0.2572016E-03
   1       -4.5249
   2       -2.1521
   3       -2.1521
   4       -2.1499
   5       -1.9575
   6       -1.9575
   7       -1.9563
   8       -0.6013
   9       -0.5933
  10       -0.5916
  11        0.3872
  12        0.3916
  13        1.1345
  14        1.1371
  15        1.1371
  16        1.3532
  17        1.3613
  18        1.3613
  19        1.3784
  20        1.3784
  21        1.3802
  22        4.6235
  23        4.6235
  24        4.7415
  25        7.1720
  26        7.2844
  27        7.2844
  28       12.3533
  29       12.4431
  30       12.4431
  31       12.4440
  32       12.4440
 
  0.5555556E-01  0.2777778E-01  0.0000000E+00  0.5144033E-03
   1       -4.5030
   2       -2.1457
   3       -2.1389
   4       -2.1370
   5       -1.9507
   6       -1.9471
   7       -1.9456
   8       -0.6093
   9       -0.5858
  10       -0.5833
  11        0.3788
  12        0.3949
  13        1.1217
  14        1.1236
  15        1.1320
  16        1.3055
  17        1.3114
  18        1.3455
  19        1.3625
  20        1.3783
  21        1.3785
  22        4.3769
  23        4.6897
  24        4.8086
  25        7.1596
  26        7.2736
  27        7.5704
  28       12.2472
  29       12.3896
  30       12.3948
  31       12.4813
  32       12.4838
 
  0.8333333E-01  0.2777778E-01  0.0000000E+00  0.5144033E-03
   1       -4.4665
   2       -2.1354
   3       -2.1171
   4       -2.1156
   5       -1.9393
   6       -1.9296
   7       -1.9278
   8       -0.6238
   9       -0.5721
  10       -0.5695
  11        0.3638
  12        0.4015
  13        1.1006
  14        1.1007
  15        1.1235
  16        1.2275
  17        1.2334
  18        1.3196
  19        1.3362
  20        1.3779
  21        1.3785
  22        4.0455
  23        4.7954
  24        4.9162
  25        7.1394
  26        7.2563
  27        7.9675
  28       12.1167
  29       12.3021
  30       12.3184
  31       12.4544
  32       12.5521
 
  0.1111111E+00  0.2777778E-01  0.0000000E+00  0.5144033E-03
   1       -4.4157
   2       -2.1215
   3       -2.0870
   4       -2.0860
   5       -1.9234
   6       -1.9051
   7       -1.9030
   8       -0.6440
   9       -0.5527
  10       -0.5503
  11        0.3428
  12        0.4109
  13        1.0649
  14        1.0712
  15        1.1115
  16        1.1255
  17        1.1363
  18        1.2842
  19        1.3000
  20        1.3777
  21        1.3785
  22        3.6754
  23        4.9349
  24        5.0590
  25        7.1120
  26        7.2332
  27        8.4302
  28       11.9668
  29       12.1828
  30       12.2217
  31       12.3955
  32       12.6454
 
  0.1388889E+00  0.2777778E-01  0.0000000E+00  0.5144033E-03
   1       -4.3506
   2       -2.1046
   3       -2.0488
   4       -2.0486
   5       -1.9031
   6       -1.8737
   7       -1.8710
   8       -0.6697
   9       -0.5279
  10       -0.5256
  11        0.3165
  12        0.4229
  13        0.9884
  14        1.0051
  15        1.0339
  16        1.0535
  17        1.0955
  18        1.2403
  19        1.2547
  20        1.3777
  21        1.3786
  22        3.2911
  23        5.1020
  24        5.2316
  25        7.0781
  26        7.2056
  27        8.9341
  28       11.8018
  29       12.0345
  30       12.1120
  31       12.3096
  32       12.7634
 
  0.1666667E+00  0.2777778E-01  0.0000000E+00  0.5144033E-03
   1       -4.2715
   2       -2.0856
   3       -2.0039
   4       -2.0032
   5       -1.8786
   6       -1.8354
   7       -1.8319
   8       -0.7005
   9       -0.4976
  10       -0.4956
  11        0.2851
  12        0.4374
  13        0.8619
  14        0.8713
  15        0.9890
  16        1.0000
  17        1.0746
  18        1.1898
  19        1.2010
  20        1.3778
  21        1.3786
  22        2.9060
  23        5.2908
  24        5.4289
  25        7.0389
  26        7.1754
  27        9.4668
  28       11.6244
  29       11.8602
  30       11.9959
  31       12.2028
  32       12.9063
 
  0.1944444E+00  0.2777778E-01  0.0000000E+00  0.5144033E-03
   1       -4.1787
   2       -2.0656
   3       -1.9526
   4       -1.9508
   5       -1.8499
   6       -1.7901
   7       -1.7859
   8       -0.7361
   9       -0.4619
  10       -0.4604
  11        0.2494
  12        0.4544
  13        0.7200
  14        0.7283
  15        0.9372
  16        0.9459
  17        1.0457
  18        1.1362
  19        1.1397
  20        1.3779
  21        1.3787
  22        2.5280
  23        5.4956
  24        5.6464
  25        6.9955
  26        7.1451
  27       10.0209
  28       11.4361
  29       11.6631
  30       11.8792
  31       12.0824
  32       13.0745
 
  0.2222222E+00  0.2777778E-01  0.0000000E+00  0.5144033E-03
   1       -4.0726
   2       -2.0462
   3       -1.8953
   4       -1.8924
   5       -1.8171
   6       -1.7378
   7       -1.7328
   8       -0.7762
   9       -0.4211
  10       -0.4201
  11        0.2100
  12        0.4737
  13        0.5713
  14        0.5794
  15        0.8791
  16        0.8867
  17        1.0021
  18        1.0718
  19        1.0871
  20        1.3780
  21        1.3787
  22        2.1629
  23        5.7105
  24        5.8807
  25        6.9493
  26        7.1183
  27       10.5924
  28       11.2368
  29       11.4460
  30       11.7660
  31       11.9556
  32       13.2624
 
  0.2500000E+00  0.2777778E-01  0.0000000E+00  0.5144033E-03
   1       -3.9538
   2       -2.0291
   3       -1.8331
   4       -1.8291
   5       -1.7806
   6       -1.6787
   7       -1.6730
   8       -0.8203
   9       -0.3751
  10       -0.3749
  11        0.1678
  12        0.4193
  13        0.4275
  14        0.4951
  15        0.8158
  16        0.8227
  17        0.9386
  18        0.9984
  19        1.0479
  20        1.3781
  21        1.3788
  22        1.8158
  23        5.9282
  24        6.1287
  25        6.9017
  26        7.1007
  27       11.0259
  28       11.1782
  29       11.2118
  30       11.6597
  31       11.8292
  32       13.4710
 
  0.2777778E+00  0.2777778E-01  0.0000000E+00  0.5144033E-03
   1       -3.8228
   2       -2.0171
   3       -1.7671
   4       -1.7621
   5       -1.7405
   6       -1.6128
   7       -1.6065
   8       -0.8680
   9       -0.3251
  10       -0.3242
  11        0.1241
  12        0.2663
  13        0.2746
  14        0.5187
  15        0.7485
  16        0.7549
  17        0.8584
  18        0.9203
  19        1.0143
  20        1.3782
  21        1.3789
  22        1.4925
  23        6.1380
  24        6.3881
  25        6.8542
  26        7.1022
  27       10.8026
  28       10.9632
  29       11.5624
  30       11.7088
  31       11.7759
  32       13.7086
 
  0.3055556E+00  0.2777778E-01  0.0000000E+00  0.5144033E-03
   1       -3.6807
   2       -2.0133
   3       -1.6986
   4       -1.6969
   5       -1.6931
   6       -1.5400
   7       -1.5336
   8       -0.9188
   9       -0.2712
  10       -0.2685
  11        0.0804
  12        0.1141
  13        0.1224
  14        0.5441
  15        0.6788
  16        0.6847
  17        0.7626
  18        0.8386
  19        0.9806
  20        1.2029
  21        1.3783
  22        1.3789
  23        6.3223
  24        6.6569
  25        6.8080
  26        7.1399
  27       10.5669
  28       10.7024
  29       11.4757
  30       11.5986
  31       12.3828
  32       13.9496
 
  0.3333333E+00  0.2777778E-01  0.0000000E+00  0.5144033E-03
   1       -3.5285
   2       -2.0216
   3       -1.6503
   4       -1.6296
   5       -1.6239
   6       -1.4605
   7       -1.4545
   8       -0.9723
   9       -0.2142
  10       -0.2082
  11       -0.0362
  12       -0.0280
  13        0.0392
  14        0.5712
  15        0.6088
  16        0.6142
  17        0.6440
  18        0.7541
  19        0.9209
  20        0.9856
  21        1.3784
  22        1.3790
  23        6.4586
  24        6.7646
  25        6.9336
  26        7.2359
  27       10.3195
  28       10.4316
  29       11.4006
  30       11.5011
  31       12.9955
  32       14.2119
 
  0.3611111E+00  0.2777778E-01  0.0000000E+00  0.5144033E-03
   1       -3.3676
   2       -2.0465
   3       -1.6008
   4       -1.5623
   5       -1.5570
   6       -1.3743
   7       -1.3694
   8       -1.0280
   9       -0.1834
  10       -0.1755
  11       -0.1574
  12       -0.1434
  13        0.0053
  14        0.4924
  15        0.5409
  16        0.5458
  17        0.5999
  18        0.6678
  19        0.7629
  20        0.9290
  21        1.3785
  22        1.3790
  23        6.5375
  24        6.7249
  25        7.2167
  26        7.3995
  27       10.0617
  28       10.1526
  29       11.3375
  30       11.4176
  31       13.6074
  32       14.4919
 
  0.3888889E+00  0.2777778E-01  0.0000000E+00  0.5144033E-03
   1       -3.2002
   2       -2.0928
   3       -1.5487
   4       -1.4996
   5       -1.4952
   6       -1.2814
   7       -1.2781
   8       -1.0854
   9       -0.3267
  10       -0.3192
  11       -0.1138
  12       -0.0746
  13       -0.0059
  14        0.3248
  15        0.4782
  16        0.4824
  17        0.5804
  18        0.6300
  19        0.6339
  20        0.8942
  21        1.3786
  22        1.3790
  23        6.5738
  24        6.6900
  25        7.5049
  26        7.6156
  27        9.7952
  28        9.8670
  29       11.2869
  30       11.3484
  31       14.2026
  32       14.7855
 
  0.4166667E+00  0.2777778E-01  0.0000000E+00  0.5144033E-03
   1       -3.0287
   2       -2.1642
   3       -1.4945
   4       -1.4451
   5       -1.4419
   6       -1.1821
   7       -1.1807
   8       -1.1440
   9       -0.4656
  10       -0.4587
  11       -0.1056
  12       -0.0019
  13        0.0304
  14        0.1731
  15        0.4241
  16        0.4274
  17        0.4929
  18        0.5277
  19        0.6612
  20        0.8605
  21        1.3787
  22        1.3790
  23        6.5883
  24        6.6605
  25        7.7971
  26        7.8630
  27        9.5220
  28        9.5764
  29       11.2490
  30       11.2935
  31       14.7431
  32       15.0917
 
  0.4444444E+00  0.2777778E-01  0.0000000E+00  0.5144033E-03
   1       -2.8566
   2       -2.2621
   3       -1.4384
   4       -1.4024
   5       -1.4004
   6       -1.2033
   7       -1.0769
   8       -1.0764
   9       -0.5994
  10       -0.5933
  11       -0.1113
  12        0.0531
  13        0.0742
  14        0.0964
  15        0.3821
  16        0.3844
  17        0.4058
  18        0.4315
  19        0.6933
  20        0.8268
  21        1.3788
  22        1.3790
  23        6.5945
  24        6.6369
  25        8.0924
  26        8.1280
  27        9.2441
  28        9.2822
  29       11.2237
  30       11.2527
  31       15.1902
  32       15.4090
 
  0.4722222E+00  0.2777778E-01  0.0000000E+00  0.5144033E-03
   1       -2.6883
   2       -2.3851
   3       -1.3808
   4       -1.3750
   5       -1.3740
   6       -1.2628
   7       -0.9668
   8       -0.9645
   9       -0.7278
  10       -0.7227
  11       -0.1071
  12       -0.0313
  13        0.1535
  14        0.1727
  15        0.3198
  16        0.3410
  17        0.3555
  18        0.3567
  19        0.7261
  20        0.7931
  21        1.3789
  22        1.3790
  23        6.5995
  24        6.6192
  25        8.3895
  26        8.4025
  27        8.9633
  28        8.9855
  29       11.2113
  30       11.2256
  31       15.5706
  32       15.7357
 
  0.5000000E+00  0.2777778E-01  0.0000000E+00  0.2572016E-03
   1       -2.5291
   2       -2.5291
   3       -1.3652
   4       -1.3652
   5       -1.3221
   6       -1.3221
   7       -0.8503
   8       -0.8503
   9       -0.8465
  10       -0.8465
  11       -0.0828
  12       -0.0828
  13        0.2356
  14        0.2356
  15        0.2547
  16        0.2547
  17        0.3467
  18        0.3467
  19        0.7595
  20        0.7595
  21        1.3790
  22        1.3790
  23        6.6071
  24        6.6071
  25        8.6820
  26        8.6820
  27        8.6876
  28        8.6876
  29       11.2119
  30       11.2119
  31       15.9251
  32       15.9269
 
  0.5555556E-01  0.5555556E-01  0.0000000E+00  0.2572016E-03
   1       -4.4812
   2       -2.1325
   3       -2.1325
   4       -2.1247
   5       -1.9402
   6       -1.9402
   7       -1.9345
   8       -0.6137
   9       -0.5819
  10       -0.5752
  11        0.3754
  12        0.3934
  13        1.1092
  14        1.1167
  15        1.1167
  16        1.2664
  17        1.2967
  18        1.2967
  19        1.3625
  20        1.3625
  21        1.3694
  22        4.4407
  23        4.4407
  24        4.8741
  25        7.1467
  26        7.5619
  27        7.5619
  28       12.0928
  29       12.4300
  30       12.4300
  31       12.4357
  32       12.4357
 
  0.8333333E-01  0.5555556E-01  0.0000000E+00  0.5144033E-03
   1       -4.4448
   2       -2.1221
   3       -2.1106
   4       -2.1045
   5       -1.9289
   6       -1.9229
   7       -1.9159
   8       -0.6258
   9       -0.5704
  10       -0.5618
  11        0.3630
  12        0.3979
  13        1.0884
  14        1.0887
  15        1.1047
  16        1.1954
  17        1.2228
  18        1.2729
  19        1.3361
  20        1.3625
  21        1.3643
  22        4.1085
  23        4.5420
  24        4.9794
  25        7.1255
  26        7.5483
  27        7.9597
  28       11.9211
  29       12.3421
  30       12.3597
  31       12.4968
  32       12.5035
 
  0.1111111E+00  0.5555556E-01  0.0000000E+00  0.5144033E-03
   1       -4.3941
   2       -2.1080
   3       -2.0804
   4       -2.0765
   5       -1.9131
   6       -1.8985
   7       -1.8898
   8       -0.6449
   9       -0.5520
  10       -0.5431
  11        0.3432
  12        0.4069
  13        1.0385
  14        1.0596
  15        1.0866
  16        1.0984
  17        1.1391
  18        1.2414
  19        1.3000
  20        1.3620
  21        1.3625
  22        3.7393
  23        4.6745
  24        5.1195
  25        7.0967
  26        7.5309
  27        8.4211
  28       11.7376
  29       12.2223
  30       12.2638
  31       12.5791
  32       12.5896
 
  0.1388889E+00  0.5555556E-01  0.0000000E+00  0.5144033E-03
   1       -4.3292
   2       -2.0910
   3       -2.0421
   4       -2.0411
   5       -1.8930
   6       -1.8672
   7       -1.8564
   8       -0.6698
   9       -0.5276
  10       -0.5192
  11        0.3175
  12        0.4191
  13        0.9474
  14        0.9821
  15        1.0229
  16        1.0609
  17        1.0704
  18        1.2042
  19        1.2546
  20        1.3608
  21        1.3625
  22        3.3577
  23        4.8314
  24        5.2893
  25        7.0610
  26        7.5112
  27        8.9220
  28       11.5464
  29       12.0734
  30       12.1555
  31       12.5409
  32       12.7075
 
  0.1666667E+00  0.5555556E-01  0.0000000E+00  0.5144033E-03
   1       -4.2504
   2       -2.0719
   3       -1.9988
   4       -1.9963
   5       -1.8686
   6       -1.8290
   7       -1.8157
   8       -0.7001
   9       -0.4976
  10       -0.4902
  11        0.2869
  12        0.4341
  13        0.8230
  14        0.8518
  15        0.9788
  16        1.0145
  17        1.0247
  18        1.1645
  19        1.2008
  20        1.3603
  21        1.3624
  22        2.9771
  23        5.0063
  24        5.4837
  25        7.0195
  26        7.4914
  27        9.4498
  28       11.3505
  29       11.8985
  30       12.0415
  31       12.4730
  32       12.8496
 
  0.1944444E+00  0.5555556E-01  0.0000000E+00  0.5144033E-03
   1       -4.1579
   2       -2.0517
   3       -1.9501
   4       -1.9437
   5       -1.8401
   6       -1.7839
   7       -1.7677
   8       -0.7352
   9       -0.4621
  10       -0.4563
  11        0.2520
  12        0.4517
  13        0.6833
  14        0.7118
  15        0.9277
  16        0.9584
  17        0.9751
  18        1.1257
  19        1.1395
  20        1.3600
  21        1.3624
  22        2.6057
  23        5.1930
  24        5.6987
  25        6.9734
  26        7.4745
  27        9.9973
  28       11.1516
  29       11.7008
  30       11.9276
  31       12.3811
  32       13.0149
 
  0.2222222E+00  0.5555556E-01  0.0000000E+00  0.5144033E-03
   1       -4.0522
   2       -2.0320
   3       -1.8956
   4       -1.8851
   5       -1.8076
   6       -1.7319
   7       -1.7129
   8       -0.7749
   9       -0.4214
  10       -0.4177
  11        0.2137
  12        0.4717
  13        0.5362
  14        0.5657
  15        0.8705
  16        0.8984
  17        0.9105
  18        1.0716
  19        1.0890
  20        1.3599
  21        1.3624
  22        2.2498
  23        5.3855
  24        5.9305
  25        6.9238
  26        7.4642
  27       10.5597
  28       10.9504
  29       11.4832
  30       11.8182
  31       12.2719
  32       13.2020
 
  0.2500000E+00  0.5555556E-01  0.0000000E+00  0.5144033E-03
   1       -3.9337
   2       -2.0147
   3       -1.8360
   4       -1.8214
   5       -1.7713
   6       -1.6731
   7       -1.6516
   8       -0.8185
   9       -0.3755
  10       -0.3747
  11        0.1731