 running on    2 nodes
 distr:  one band on    1 nodes,    2 groups
 vasp.4.6.28 25Jul05 complex 
 POSCAR found :  1 types and    4 ions
 LDA part: xc-table for Pade appr. of Perdew
 POSCAR, INCAR and KPOINTS ok, starting setup
 FFT: planning ...           1
 reading WAVECAR
 entering main loop
       N       E                     dE             d eps       ncg     rms          rms(c)
DAV:   1     0.311876731773E+03    0.31188E+03   -0.27147E+04  4408   0.324E+03
DAV:   2     0.120149344373E+01   -0.31068E+03   -0.30469E+03  4376   0.462E+02
DAV:   3    -0.176383796876E+02   -0.18840E+02   -0.18367E+02  4466   0.145E+02
DAV:   4    -0.178628036402E+02   -0.22442E+00   -0.22399E+00  4622   0.168E+01
DAV:   5    -0.178639478465E+02   -0.11442E-02   -0.11441E-02  4578   0.805E-01    0.135E+01
DAV:   6    -0.162476171649E+02    0.16163E+01   -0.40308E+01  4504   0.986E+01    0.740E+00
DAV:   7    -0.146560892798E+02    0.15915E+01   -0.75696E+00  4684   0.433E+01    0.833E-01
DAV:   8    -0.146428432482E+02    0.13246E-01   -0.12707E-01  4552   0.380E+00    0.873E-01
DAV:   9    -0.146281958461E+02    0.14647E-01   -0.60087E-02  4520   0.372E+00    0.681E-02
DAV:  10    -0.146282364614E+02   -0.40615E-04   -0.13185E-03  4522   0.442E-01    0.149E-02
DAV:  11    -0.146282318828E+02    0.45786E-05   -0.22162E-05  4600   0.627E-02    0.455E-03
DAV:  12    -0.146282356885E+02   -0.38057E-05   -0.98509E-07  4554   0.137E-02    0.348E-04
DAV:  13    -0.146282364615E+02   -0.77294E-06   -0.20788E-08  3580   0.220E-03    0.403E-04
DAV:  14    -0.146282365359E+02   -0.74409E-07   -0.16363E-08  2258   0.199E-03    0.342E-05
DAV:  15    -0.146282365298E+02    0.60390E-08   -0.12058E-09  2228   0.296E-04
   1 F= -.14628237E+02 E0= -.14628159E+02  d E =-.155041E-03
