   4   4   0   0
  0.1352261E+02  0.3781872E-09  0.3781872E-09  0.3781872E-09  0.5000000E-15
  1.000000000000000E-004
  CAR 
 unknown system                          
     12.49167573     -6.52059362  301      2.70865838      1.00000000
     -6.521  0.0000E+00  0.0000E+00
     -6.457  0.0000E+00  0.0000E+00
     -6.394  0.0000E+00  0.0000E+00
     -6.330  0.0000E+00  0.0000E+00
     -6.267  0.0000E+00  0.0000E+00
     -6.204  0.0000E+00  0.0000E+00
     -6.140  0.0000E+00  0.0000E+00
     -6.077  0.0000E+00  0.0000E+00
     -6.014  0.0000E+00  0.0000E+00
     -5.950  0.0000E+00  0.0000E+00
     -5.887  0.0000E+00  0.0000E+00
     -5.823  0.0000E+00  0.0000E+00
     -5.760  0.0000E+00  0.0000E+00
     -5.697  0.1072E-09  0.6797E-11
     -5.633  0.1825E-01  0.1157E-02
     -5.570  0.1003E+00  0.7515E-02
     -5.507  0.7935E-01  0.1254E-01
     -5.443  0.1508E+00  0.2210E-01
     -5.380  0.1444E+00  0.3125E-01
     -5.316  0.1096E+00  0.3819E-01
     -5.253  0.4380E+00  0.6595E-01
     -5.190  0.4089E+00  0.9188E-01
     -5.126  0.2945E-01  0.9375E-01
     -5.063  0.8297E-02  0.9428E-01
     -5.000  0.2111E+00  0.1077E+00
     -4.936  0.5476E+00  0.1424E+00
     -4.873  0.4383E+00  0.1701E+00
     -4.809  0.4360E+00  0.1978E+00
     -4.746  0.1346E+00  0.2064E+00
     -4.683  0.1846E+00  0.2181E+00
     -4.619  0.3267E+00  0.2388E+00
     -4.556  0.8152E+00  0.2905E+00
     -4.493  0.5098E-06  0.2905E+00
     -4.429  0.1096E+00  0.2975E+00
     -4.366  0.8765E+00  0.3530E+00
     -4.302  0.6516E+00  0.3943E+00
     -4.239  0.4228E+00  0.4212E+00
     -4.176  0.2731E+00  0.4385E+00
     -4.112  0.4407E+00  0.4664E+00
     -4.049  0.7757E+00  0.5156E+00
     -3.986  0.2838E+00  0.5336E+00
     -3.922  0.3515E-02  0.5338E+00
     -3.859  0.4348E+00  0.5613E+00
     -3.796  0.5479E+00  0.5961E+00
     -3.732  0.1316E+01  0.6795E+00
     -3.669  0.5834E+00  0.7164E+00
     -3.605  0.1417E-04  0.7164E+00
     -3.542  0.1312E+01  0.7996E+00
     -3.479  0.8696E+00  0.8549E+00
     -3.415  0.2252E-13  0.8553E+00
     -3.352  0.2076E+00  0.8685E+00
     -3.289  0.8882E+00  0.9248E+00
     -3.225  0.8222E+00  0.9771E+00
     -3.162  0.9102E+00  0.1035E+01
     -3.098  0.5640E+00  0.1071E+01
     -3.035  0.4366E+00  0.1098E+01
     -2.972  0.1314E+01  0.1182E+01
     -2.908  0.1284E-05  0.1182E+01
     -2.845  0.8764E+00  0.1237E+01
     -2.782  0.1314E+01  0.1321E+01
     -2.718  0.1315E+01  0.1404E+01
     -2.655  0.8227E-01  0.1409E+01
     -2.591  0.1235E+01  0.1487E+01
     -2.528  0.9727E+00  0.1549E+01
     -2.465  0.4856E+00  0.1580E+01
     -2.401  0.1155E+01  0.1653E+01
     -2.338  0.1143E+01  0.1725E+01
     -2.275  0.7379E+00  0.1772E+01
     -2.211  0.3948E+00  0.1797E+01
     -2.148  0.3282E+01  0.2005E+01
     -2.084  0.1210E+01  0.2083E+01
     -2.021  0.7615E+00  0.2131E+01
     -1.958  0.1541E+01  0.2229E+01
     -1.894  0.1397E+01  0.2317E+01
     -1.831  0.7780E+00  0.2367E+01
     -1.768  0.2704E+01  0.2538E+01
     -1.704  0.3460E+01  0.2757E+01
     -1.641  0.1617E+01  0.2860E+01
     -1.577  0.4380E+01  0.3137E+01
     -1.514  0.3359E+01  0.3350E+01
     -1.451  0.3317E+01  0.3561E+01
     -1.387  0.5441E+01  0.3906E+01
     -1.324  0.5621E+01  0.4263E+01
     -1.261  0.5269E+01  0.4597E+01
     -1.197  0.6555E+01  0.5012E+01
     -1.134  0.5987E+01  0.5392E+01
     -1.070  0.5305E+01  0.5729E+01
     -1.007  0.8015E+01  0.6237E+01
     -0.944  0.9175E+01  0.6819E+01
     -0.880  0.8776E+01  0.7375E+01
     -0.817  0.1329E+02  0.8217E+01
     -0.754  0.1095E+02  0.8912E+01
     -0.690  0.1070E+02  0.9590E+01
     -0.627  0.8158E+01  0.1011E+02
     -0.563  0.1192E+02  0.1086E+02
     -0.500  0.1062E+02  0.1154E+02
     -0.437  0.9486E+01  0.1214E+02
     -0.373  0.8709E+01  0.1269E+02
     -0.310  0.1526E+02  0.1366E+02
     -0.247  0.1228E+02  0.1444E+02
     -0.183  0.1446E+02  0.1535E+02
     -0.120  0.1595E+02  0.1636E+02
     -0.056  0.1772E+02  0.1749E+02
      0.007  0.1670E+02  0.1855E+02
      0.070  0.1949E+02  0.1978E+02
      0.134  0.1843E+02  0.2095E+02
      0.197  0.2808E+02  0.2273E+02
      0.260  0.1730E+02  0.2383E+02
      0.324  0.1540E+02  0.2480E+02
      0.387  0.1258E+02  0.2560E+02
      0.451  0.1226E+02  0.2638E+02
      0.514  0.1365E+02  0.2724E+02
      0.577  0.1744E+02  0.2835E+02
      0.641  0.1668E+02  0.2941E+02
      0.704  0.1977E+02  0.3066E+02
      0.767  0.1777E+02  0.3179E+02
      0.831  0.1688E+02  0.3286E+02
      0.894  0.1475E+02  0.3379E+02
      0.958  0.1692E+02  0.3486E+02
      1.021  0.1609E+02  0.3589E+02
      1.084  0.2237E+02  0.3730E+02
      1.148  0.2464E+02  0.3887E+02
      1.211  0.2905E+02  0.4071E+02
      1.274  0.1688E+02  0.4178E+02
      1.338  0.2913E+01  0.4196E+02
      1.401  0.1290E+01  0.4205E+02
      1.465  0.6960E+00  0.4209E+02
      1.528  0.2411E+01  0.4224E+02
      1.591  0.2795E+01  0.4242E+02
      1.655  0.1297E+01  0.4250E+02
      1.718  0.8442E+00  0.4256E+02
      1.781  0.1571E+01  0.4266E+02
      1.845  0.1858E+01  0.4277E+02
      1.908  0.1783E+01  0.4289E+02
      1.972  0.2450E+01  0.4304E+02
      2.035  0.4703E+00  0.4307E+02
      2.098  0.1767E+01  0.4318E+02
      2.162  0.1295E+01  0.4327E+02
      2.225  0.4318E+00  0.4329E+02
      2.288  0.1461E+01  0.4339E+02
      2.352  0.1558E+01  0.4348E+02
      2.415  0.1975E+01  0.4361E+02
      2.479  0.2248E+01  0.4375E+02
      2.542  0.1304E+01  0.4383E+02
      2.605  0.1677E+01  0.4394E+02
      2.669  0.5452E+00  0.4398E+02
      2.732  0.9465E+00  0.4404E+02
      2.795  0.4773E+00  0.4407E+02
      2.859  0.4077E-02  0.4407E+02
      2.922  0.2280E+01  0.4421E+02
      2.986  0.2514E+01  0.4437E+02
      3.049  0.1775E+01  0.4448E+02
      3.112  0.4411E+00  0.4451E+02
      3.176  0.1808E+01  0.4463E+02
      3.239  0.8877E+00  0.4468E+02
      3.302  0.1190E+01  0.4476E+02
      3.366  0.7675E+00  0.4481E+02
      3.429  0.7372E+00  0.4485E+02
      3.493  0.1956E+01  0.4498E+02
      3.556  0.1420E+01  0.4507E+02
      3.619  0.4344E+00  0.4509E+02
      3.683  0.1581E+00  0.4510E+02
      3.746  0.1870E+01  0.4522E+02
      3.809  0.6327E+00  0.4526E+02
      3.873  0.1613E+01  0.4536E+02
      3.936  0.2108E+01  0.4550E+02
      4.000  0.1395E+01  0.4559E+02
      4.063  0.8766E+00  0.4564E+02
      4.126  0.3978E+00  0.4567E+02
      4.190  0.1330E+01  0.4575E+02
      4.253  0.1190E+00  0.4576E+02
      4.316  0.2258E+01  0.4590E+02
      4.380  0.7714E+00  0.4595E+02
      4.443  0.4898E+00  0.4598E+02
      4.507  0.1001E+01  0.4605E+02
      4.570  0.7765E+00  0.4610E+02
      4.633  0.6304E+00  0.4614E+02
      4.697  0.3237E+01  0.4634E+02
      4.760  0.8766E+00  0.4640E+02
      4.823  0.0000E+00  0.4640E+02
      4.887  0.2413E+00  0.4641E+02
      4.950  0.2295E+01  0.4656E+02
      5.014  0.1188E+01  0.4663E+02
      5.077  0.4382E+00  0.4666E+02
      5.140  0.3658E+00  0.4668E+02
      5.204  0.9539E+00  0.4674E+02
      5.267  0.8719E+00  0.4680E+02
      5.330  0.8084E+00  0.4685E+02
      5.394  0.5692E+00  0.4689E+02
      5.457  0.3756E+00  0.4691E+02
      5.521  0.1751E+01  0.4702E+02
      5.584  0.1095E+01  0.4709E+02
      5.647  0.6339E+00  0.4713E+02
      5.711  0.2428E+00  0.4715E+02
      5.774  0.3639E+00  0.4717E+02
      5.837  0.1860E+01  0.4729E+02
      5.901  0.1221E+01  0.4736E+02
      5.964  0.1027E+00  0.4737E+02
      6.028  0.9857E+00  0.4743E+02
      6.091  0.9797E+00  0.4750E+02
      6.154  0.6785E+00  0.4754E+02
      6.218  0.3509E+01  0.4776E+02
      6.281  0.4886E+00  0.4779E+02
      6.344  0.4653E+00  0.4782E+02
      6.408  0.8505E+00  0.4788E+02
      6.471  0.1292E+01  0.4796E+02
      6.534  0.1117E+01  0.4803E+02
      6.598  0.4681E+00  0.4806E+02
      6.661  0.1784E+01  0.4817E+02
      6.725  0.1254E+01  0.4825E+02
      6.788  0.1397E+01  0.4834E+02
      6.851  0.1900E+01  0.4846E+02
      6.915  0.8421E+00  0.4851E+02
      6.978  0.6809E+00  0.4856E+02
      7.041  0.6053E+00  0.4859E+02
      7.105  0.2400E+01  0.4875E+02
      7.168  0.3555E+00  0.4877E+02
      7.232  0.4581E+00  0.4880E+02
      7.295  0.1295E+01  0.4888E+02
      7.358  0.9550E+00  0.4894E+02
      7.422  0.4557E+00  0.4897E+02
      7.485  0.1272E+01  0.4905E+02
      7.548  0.2844E+01  0.4923E+02
      7.612  0.8249E+00  0.4928E+02
      7.675  0.8762E+00  0.4934E+02
      7.739  0.5854E-02  0.4934E+02
      7.802  0.6516E+00  0.4938E+02
      7.865  0.6090E+00  0.4942E+02
      7.929  0.2018E+01  0.4955E+02
      7.992  0.2192E+00  0.4956E+02
      8.055  0.4030E-01  0.4956E+02
      8.119  0.1667E+01  0.4967E+02
      8.182  0.2293E+00  0.4968E+02
      8.246  0.2227E+01  0.4982E+02
      8.309  0.1711E-02  0.4982E+02
      8.372  0.1750E+01  0.4994E+02
      8.436  0.1962E+00  0.4995E+02
      8.499  0.2071E+01  0.5008E+02
      8.562  0.5741E+00  0.5012E+02
      8.626  0.8840E+00  0.5017E+02
      8.689  0.0000E+00  0.5017E+02
      8.753  0.1312E-02  0.5017E+02
      8.816  0.7292E+00  0.5022E+02
      8.879  0.1317E+01  0.5030E+02
      8.943  0.1789E+01  0.5041E+02
      9.006  0.6613E+00  0.5046E+02
      9.069  0.6313E+00  0.5050E+02
      9.133  0.8575E+00  0.5055E+02
      9.196  0.7203E-01  0.5056E+02
      9.260  0.8461E+00  0.5061E+02
      9.323  0.1594E+01  0.5071E+02
      9.386  0.9873E+00  0.5077E+02
      9.450  0.4824E+00  0.5080E+02
      9.513  0.9758E+00  0.5087E+02
      9.576  0.3387E+00  0.5089E+02
      9.640  0.2091E+01  0.5102E+02
      9.703  0.2474E+01  0.5118E+02
      9.767  0.1104E+00  0.5118E+02
      9.830  0.8506E+00  0.5124E+02
      9.893  0.1567E+01  0.5134E+02
      9.957  0.2013E+01  0.5146E+02
     10.020  0.7769E+00  0.5151E+02
     10.083  0.1531E+01  0.5161E+02
     10.147  0.5337E-01  0.5161E+02
     10.210  0.8870E-02  0.5161E+02
     10.274  0.1035E+01  0.5168E+02
     10.337  0.7036E+00  0.5172E+02
     10.400  0.6636E+00  0.5177E+02
     10.464  0.2192E+00  0.5178E+02
     10.527  0.4396E+00  0.5181E+02
     10.590  0.6561E+00  0.5185E+02
     10.654  0.1432E+00  0.5186E+02
     10.717  0.3209E+00  0.5188E+02
     10.781  0.8509E+00  0.5193E+02
     10.844  0.2433E-16  0.5193E+02
     10.907  0.3292E+00  0.5195E+02
     10.971  0.4013E+00  0.5198E+02
     11.034  0.0000E+00  0.5198E+02
     11.097  0.0000E+00  0.5198E+02
     11.161  0.0000E+00  0.5198E+02
     11.224  0.3461E-03  0.5198E+02
     11.288  0.2188E+00  0.5199E+02
     11.351  0.0000E+00  0.5199E+02
     11.414  0.0000E+00  0.5199E+02
     11.478  0.0000E+00  0.5199E+02
     11.541  0.0000E+00  0.5199E+02
     11.604  0.6124E-04  0.5199E+02
     11.668  0.1095E+00  0.5200E+02
     11.731  0.0000E+00  0.5200E+02
     11.795  0.0000E+00  0.5200E+02
     11.858  0.0000E+00  0.5200E+02
     11.921  0.0000E+00  0.5200E+02
     11.985  0.0000E+00  0.5200E+02
     12.048  0.0000E+00  0.5200E+02
     12.111  0.0000E+00  0.5200E+02
     12.175  0.0000E+00  0.5200E+02
     12.238  0.0000E+00  0.5200E+02
     12.302  0.0000E+00  0.5200E+02
     12.365  0.0000E+00  0.5200E+02
     12.428  0.0000E+00  0.5200E+02
     12.492  0.0000E+00  0.5200E+02
