    4    4    1    1
  0.1352261E+02  0.3781872E-09  0.3781872E-09  0.3781872E-09  0.5000000E-15
  1.000000000000000E-004
  CAR 
 unknown system                          
   44   84   26
 
  0.0000000E+00  0.0000000E+00  0.0000000E+00  0.5787037E-03
   1       -5.6564
   2       -1.4532
   3       -1.4532
   4       -1.4532
   5       -1.0818
   6       -1.0818
   7       -1.0818
   8        0.0430
   9        0.0430
  10        0.0430
  11        0.7136
  12        0.7136
  13        1.1601
  14        1.1601
  15        1.1601
  16        1.2850
  17        1.2850
  18        1.2850
  19        1.2850
  20        1.2850
  21        1.2850
  22        4.3190
  23        4.3190
  24        4.3190
  25        8.9263
  26        8.9263
 
  0.8333333E-01  0.0000000E+00  0.0000000E+00  0.3472222E-02
   1       -5.5797
   2       -1.4560
   3       -1.4198
   4       -1.4198
   5       -1.0634
   6       -1.0623
   7       -1.0623
   8        0.0230
   9        0.0594
  10        0.0594
  11        0.6955
  12        0.7211
  13        1.1368
  14        1.1368
  15        1.1524
  16        1.1740
  17        1.1740
  18        1.2573
  19        1.2573
  20        1.2850
  21        1.2850
  22        3.7918
  23        4.5003
  24        4.5003
  25        8.9590
  26        8.9590
 
  0.1666667E+00  0.0000000E+00  0.0000000E+00  0.3472222E-02
   1       -5.3510
   2       -1.4797
   3       -1.3243
   4       -1.3243
   5       -1.0093
   6       -1.0034
   7       -1.0034
   8       -0.0352
   9        0.1082
  10        0.1082
  11        0.6434
  12        0.7430
  13        0.9022
  14        0.9022
  15        1.0690
  16        1.0690
  17        1.1297
  18        1.1779
  19        1.1779
  20        1.2851
  21        1.2851
  22        2.7294
  23        4.9830
  24        4.9830
  25        9.0601
  26        9.0601
 
  0.2500000E+00  0.0000000E+00  0.0000000E+00  0.3472222E-02
   1       -4.9750
   2       -1.5798
   3       -1.1817
   4       -1.1817
   5       -0.9228
   6       -0.9041
   7       -0.9041
   8       -0.1274
   9        0.1881
  10        0.1881
  11        0.5640
  12        0.5679
  13        0.5679
  14        0.7780
  15        0.9643
  16        0.9643
  17        1.0568
  18        1.0568
  19        1.0937
  20        1.2853
  21        1.2853
  22        1.6701
  23        5.6675
  24        5.6675
  25        9.2379
  26        9.2379
 
  0.3333333E+00  0.0000000E+00  0.0000000E+00  0.3472222E-02
   1       -4.4613
   2       -1.8651
   3       -1.0200
   4       -1.0200
   5       -0.8092
   6       -0.7630
   7       -0.7630
   8       -0.2468
   9        0.2316
  10        0.2316
  11        0.2967
  12        0.2967
  13        0.4702
  14        0.8237
  15        0.8405
  16        0.8405
  17        0.8758
  18        0.9077
  19        0.9077
  20        1.0470
  21        1.2854
  22        1.2854
  23        6.4912
  24        6.4912
  25        9.5054
  26        9.5054
 
  0.4166667E+00  0.0000000E+00  0.0000000E+00  0.3472222E-02
   1       -3.8287
   2       -2.4113
   3       -0.8836
   4       -0.8836
   5       -0.6756
   6       -0.5785
   7       -0.5785
   8       -0.3845
   9       -0.0785
  10       -0.0785
  11        0.3854
  12        0.4300
  13        0.4300
  14        0.4671
  15        0.7319
  16        0.7319
  17        0.7451
  18        0.7451
  19        0.8772
  20        0.9928
  21        1.2855
  22        1.2855
  23        7.4228
  24        7.4228
  25        9.5511
  26        9.5511
 
  0.5000000E+00  0.0000000E+00  0.0000000E+00  0.1736111E-02
   1       -3.1167
   2       -3.1167
   3       -0.8282
   4       -0.8282
   5       -0.5308
   6       -0.5308
   7       -0.3500
   8       -0.3500
   9       -0.3500
  10       -0.3500
  11        0.3544
  12        0.3544
  13        0.5823
  14        0.5823
  15        0.5823
  16        0.5823
  17        0.6867
  18        0.6867
  19        0.9348
  20        0.9348
  21        1.2856
  22        1.2856
  23        8.4463
  24        8.4463
  25        8.4463
  26        8.4463
 
  0.8333333E-01  0.8333333E-01  0.0000000E+00  0.6944444E-02
   1       -5.5033
   2       -1.4217
   3       -1.4217
   4       -1.3873
   5       -1.0443
   6       -1.0443
   7       -1.0434
   8        0.0122
   9        0.0671
  10        0.0741
  11        0.6907
  12        0.7170
  13        1.0916
  14        1.1037
  15        1.1037
  16        1.1145
  17        1.1663
  18        1.1663
  19        1.2573
  20        1.2573
  21        1.2671
  22        3.9679
  23        3.9679
  24        4.6713
  25        8.9925
  26        9.6559
 
  0.1666667E+00  0.8333333E-01  0.0000000E+00  0.1388889E-01
   1       -5.2755
   2       -1.4426
   3       -1.3235
   4       -1.2944
   5       -0.9913
   6       -0.9865
   7       -0.9864
   8       -0.0402
   9        0.1112
  10        0.1177
  11        0.6456
  12        0.7371
  13        0.8471
  14        0.8504
  15        1.0065
  16        1.0494
  17        1.0771
  18        1.1401
  19        1.1777
  20        1.2572
  21        1.2575
  22        2.9154
  23        4.4242
  24        5.1334
  25        9.0955
  26        9.7894
 
  0.2500000E+00  0.8333333E-01  0.0000000E+00  0.1388889E-01
   1       -4.9010
   2       -1.5376
   3       -1.1766
   4       -1.1554
   5       -0.9064
   6       -0.8910
   7       -0.8891
   8       -0.1291
   9        0.1867
  10        0.1896
  11        0.5142
  12        0.5374
  13        0.5730
  14        0.7762
  15        0.8361
  16        0.9487
  17        0.9715
  18        1.0564
  19        1.0940
  20        1.2553
  21        1.2570
  22        1.9092
  23        5.0522
  24        5.7993
  25        9.2761
  26       10.0222
 
  0.3333333E+00  0.8333333E-01  0.0000000E+00  0.1388889E-01
   1       -4.3897
   2       -1.8161
   3       -1.0089
   4       -0.9956
   5       -0.7951
   6       -0.7585
   7       -0.7508
   8       -0.2453
   9        0.1833
  10        0.2161
  11        0.2663
  12        0.2975
  13        0.5020
  14        0.5732
  15        0.8282
  16        0.8296
  17        0.8476
  18        0.9072
  19        1.0116
  20        1.2550
  21        1.2566
  22        1.2597
  23        5.7909
  24        6.6092
  25        9.5072
  26        9.5986
 
  0.4166667E+00  0.8333333E-01  0.0000000E+00  0.1388889E-01
   1       -3.7606
   2       -2.3549
   3       -0.8651
   4       -0.8574
   5       -0.6644
   6       -0.5899
   7       -0.5704
   8       -0.3797
   9       -0.1183
  10       -0.0834
  11        0.2933
  12        0.3425
  13        0.4302
  14        0.5158
  15        0.7263
  16        0.7370
  17        0.7447
  18        0.8290
  19        0.8900
  20        1.0439
  21        1.2553
  22        1.2562
  23        6.6136
  24        7.5310
  25        8.4898
  26        9.6477
 
  0.5000000E+00  0.8333333E-01  0.0000000E+00  0.6944444E-02
   1       -3.0536
   2       -3.0536
   3       -0.8031
   4       -0.8031
   5       -0.5227
   6       -0.5227
   7       -0.3780
   8       -0.3780
   9       -0.3474
  10       -0.3474
  11        0.2747
  12        0.2747
  13        0.5821
  14        0.5821
  15        0.6450
  16        0.6450
  17        0.6870
  18        0.6870
  19        0.9595
  20        0.9595
  21        1.2557
  22        1.2557
  23        7.5124
  24        7.5124
  25        8.5475
  26        8.5475
 
  0.1666667E+00  0.1666667E+00  0.0000000E+00  0.6944444E-02
   1       -5.0504
   2       -1.3361
   3       -1.3361
   4       -1.2092
   5       -0.9367
   6       -0.9367
   7       -0.9351
   8       -0.0712
   9        0.1373
  10        0.1454
  11        0.6295
  12        0.6877
  13        0.7080
  14        0.7080
  15        0.7442
  16        0.9920
  17        1.0736
  18        1.0736
  19        1.1771
  20        1.1771
  21        1.2140
  22        3.3579
  23        3.3579
  24        5.5518
  25        9.2036
  26       10.5667
 
  0.2500000E+00  0.1666667E+00  0.0000000E+00  0.1388889E-01
   1       -4.6809
   2       -1.4164
   3       -1.1755
   4       -1.0815
   5       -0.8572
   6       -0.8505
   7       -0.8450
   8       -0.1422
   9        0.1859
  10        0.2033
  11        0.3748
  12        0.4420
  13        0.5064
  14        0.5784
  15        0.7903
  16        0.9023
  17        0.9735
  18        1.0372
  19        1.0553
  20        1.1761
  21        1.1891
  22        2.3552
  23        3.9299
  24        6.1747
  25        9.2449
  26        9.4325
 
  0.3333333E+00  0.1666667E+00  0.0000000E+00  0.1388889E-01
   1       -4.1771
   2       -1.6746
   3       -0.9889
   4       -0.9296
   5       -0.7531
   6       -0.7411
   7       -0.7152
   8       -0.2448
   9        0.0588
  10        0.1675
  11        0.2173
  12        0.2864
  13        0.3045
  14        0.5357
  15        0.7958
  16        0.8527
  17        0.8628
  18        0.9061
  19        0.9579
  20        1.1749
  21        1.1783
  22        1.6466
  23        4.5873
  24        6.9502
  25        8.1100
  26        9.6900
 
  0.4166667E+00  0.1666667E+00  0.0000000E+00  0.1388889E-01
   1       -3.5593
   2       -2.1907
   3       -0.8207
   4       -0.7838
   5       -0.6311
   6       -0.6209
   7       -0.5468
   8       -0.3674
   9       -0.2216
  10       -0.0995
  11        0.1579
  12        0.1987
  13        0.4334
  14        0.5665
  15        0.7061
  16        0.7402
  17        0.7441
  18        0.8284
  19        0.9552
  20        1.1739
  21        1.1742
  22        1.2640
  23        5.3232
  24        7.0706
  25        7.8464
  26        9.9324
 
  0.5000000E+00  0.1666667E+00  0.0000000E+00  0.6944444E-02
   1       -2.8683
   2       -2.8683
   3       -0.7331
   4       -0.7331
   5       -0.4994
   6       -0.4994
   7       -0.4550
   8       -0.4550
   9       -0.3404
  10       -0.3404
  11        0.1521
  12        0.1521
  13        0.5829
  14        0.5829
  15        0.6789
  16        0.6789
  17        0.6807
  18        0.6807
  19        1.0745
  20        1.0745
  21        1.1733
  22        1.1733
  23        6.1461
  24        6.1461
  25        8.8445
  26        8.8445
 
  0.2500000E+00  0.2500000E+00  0.0000000E+00  0.6944444E-02
   1       -4.3201
   2       -1.2321
   3       -1.2321
   4       -0.9741
   5       -0.7817
   6       -0.7748
   7       -0.7748
   8       -0.1828
   9        0.1880
  10        0.1911
  11        0.1911
  12        0.2473
  13        0.2830
  14        0.5502
  15        0.8281
  16        0.8525
  17        0.9443
  18        0.9443
  19        1.0538
  20        1.0538
  21        1.1273
  22        2.8754
  23        2.8754
  24        6.7500
  25        7.9623
  26        9.6143
 
  0.3333333E+00  0.2500000E+00  0.0000000E+00  0.1388889E-01
   1       -3.8304
   2       -1.4586
   3       -1.0140
   4       -0.8478
   5       -0.6963
   6       -0.6834
   7       -0.6590
   8       -0.2559
   9       -0.0894
  10        0.0376
  11        0.0823
  12        0.1783
  13        0.3302
  14        0.5184
  15        0.7383
  16        0.8296
  17        0.8708
  18        0.9051
  19        0.9572
  20        1.0527
  21        1.0875
  22        2.0761
  23        3.4604
  24        6.7942
  25        7.4841
  26        9.9245
 
  0.4166667E+00  0.2500000E+00  0.0000000E+00  0.1388889E-01
   1       -3.2336
   2       -1.9355
   3       -0.8064
   4       -0.7047
   5       -0.6367
   6       -0.5771
   7       -0.5106
   8       -0.3535
   9       -0.3309
  10       -0.1302
  11       -0.0042
  12        0.1275
  13        0.4470
  14        0.5410
  15        0.6644
  16        0.7186
  17        0.7454
  18        0.7562
  19        1.0529
  20        1.0662
  21        1.0952
  22        1.5724
  23        4.1234
  24        5.7709
  25        8.3472
  26       10.3549
 
  0.5000000E+00  0.2500000E+00  0.0000000E+00  0.6944444E-02
   1       -2.5734
   2       -2.5734
   3       -0.6676
   4       -0.6676
   5       -0.5337
   6       -0.5337
   7       -0.4641
   8       -0.4641
   9       -0.3322
  10       -0.3322
  11        0.0481
  12        0.0481
  13        0.5887
  14        0.5887
  15        0.6311
  16        0.6311
  17        0.6524
  18        0.6524
  19        1.0564
  20        1.0564
  21        1.2812
  22        1.2812
  23        4.8861
  24        4.8861
  25        9.3204
  26        9.3204
 
  0.3333333E+00  0.3333333E+00  0.0000000E+00  0.6944444E-02
   1       -3.3633
   2       -1.2016
   3       -1.2016
   4       -0.7864
   5       -0.6119
   6       -0.5869
   7       -0.5869
   8       -0.2892
   9       -0.1691
  10       -0.1691
  11       -0.0373
  12        0.1410
  13        0.3876
  14        0.4793
  15        0.6640
  16        0.7629
  17        0.7629
  18        0.9062
  19        0.9062
  20        1.0105
  21        1.1021
  22        2.5620
  23        2.5620
  24        5.6346
  25        8.1786
  26       10.2685
 
  0.4166667E+00  0.3333333E+00  0.0000000E+00  0.1388889E-01
   1       -2.8019
   2       -1.6219
   3       -0.9574
   4       -0.7568
   5       -0.5213
   6       -0.5053
   7       -0.4665
   8       -0.3468
   9       -0.3296
  10       -0.1795
  11       -0.1306
  12        0.0744
  13        0.4801
  14        0.4814
  15        0.6001
  16        0.6574
  17        0.6581
  18        0.7524
  19        0.9122
  20        0.9579
  21        1.2904
  22        1.9397
  23        3.1299
  24        4.6418
  25        9.0082
  26       10.7345
 
  0.5000000E+00  0.3333333E+00  0.0000000E+00  0.6944444E-02
   1       -2.1940
   2       -2.1940
   3       -0.7971
   4       -0.7971
   5       -0.4407
   6       -0.4407
   7       -0.4221
   8       -0.4221
   9       -0.3274
  10       -0.3274
  11       -0.0289
  12       -0.0289
  13        0.5485
  14        0.5485
  15        0.5923
  16        0.5923
  17        0.6064
  18        0.6064
  19        0.9274
  20        0.9274
  21        1.5472
  22        1.5472
  23        3.8130
  24        3.8130
  25        9.9548
  26        9.9548
 
  0.4166667E+00  0.4166667E+00  0.0000000E+00  0.6944444E-02
   1       -2.2969
   2       -1.3022
   3       -1.3022
   4       -0.8626
   5       -0.4209
   6       -0.4209
   7       -0.3951
   8       -0.3553
   9       -0.2482
  10       -0.2219
  11       -0.2219
  12        0.0116
  13        0.4422
  14        0.5337
  15        0.5463
  16        0.5633
  17        0.5633
  18        0.7706
  19        0.7706
  20        0.8690
  21        1.5407
  22        2.3885
  23        2.3885
  24        3.7047
  25        9.8076
  26       11.2451
 
  0.5000000E+00  0.4166667E+00  0.0000000E+00  0.6944444E-02
   1       -1.7727
   2       -1.7727
   3       -1.0383
   4       -1.0383
   5       -0.3814
   6       -0.3814
   7       -0.3318
   8       -0.3318
   9       -0.2982
  10       -0.2982
  11       -0.0918
  12       -0.0918
  13        0.4745
  14        0.4745
  15        0.5123
  16        0.5123
  17        0.6446
  18        0.6446
  19        0.8072
  20        0.8072
  21        1.8829
  22        1.8829
  23        2.9619
  24        2.9619
  25       10.7287
  26       10.7287
 
  0.5000000E+00  0.5000000E+00  0.0000000E+00  0.1736111E-02
   1       -1.3694
   2       -1.3694
   3       -1.3694
   4       -1.3694
   5       -0.3496
   6       -0.3496
   7       -0.3496
   8       -0.3496
   9       -0.1747
  10       -0.1747
  11       -0.1747
  12       -0.1747
  13        0.4578
  14        0.4578
  15        0.4578
  16        0.4578
  17        0.7108
  18        0.7108
  19        0.7108
  20        0.7108
  21        2.3334
  22        2.3334
  23        2.3334
  24        2.3334
  25       11.6275
  26       11.6275
 
  0.8333333E-01  0.8333333E-01  0.8333333E-01  0.4629630E-02
   1       -5.4272
   2       -1.3884
   3       -1.3884
   4       -1.3884
   5       -1.0257
   6       -1.0257
   7       -1.0257
   8        0.0022
   9        0.0808
  10        0.0808
  11        0.7002
  12        0.7002
  13        1.0534
  14        1.0534
  15        1.0534
  16        1.0940
  17        1.0940
  18        1.0940
  19        1.2540
  20        1.2540
  21        1.2540
  22        4.1311
  23        4.1311
  24        4.1311
  25        9.7001
  26        9.7001
 
  0.1666667E+00  0.8333333E-01  0.8333333E-01  0.1388889E-01
   1       -5.2003
   2       -1.4069
   3       -1.2933
   4       -1.2933
   5       -0.9736
   6       -0.9697
   7       -0.9697
   8       -0.0451
   9        0.1184
  10        0.1218
  11        0.6527
  12        0.7280
  13        0.8015
  14        0.8015
  15        0.9373
  16        1.0324
  17        1.0357
  18        1.0357
  19        1.2187
  20        1.2454
  21        1.2454
  22        3.0774
  23        4.5630
  24        4.5630
  25        9.8359
  26        9.8359
 
  0.2500000E+00  0.8333333E-01  0.8333333E-01  0.1388889E-01
   1       -4.8276
   2       -1.4976
   3       -1.1508
   4       -1.1508
   5       -0.8901
   6       -0.8760
   7       -0.8760
   8       -0.1301
   9        0.1853
  10        0.1893
  11        0.4876
  12        0.4876
  13        0.5861
  14        0.7365
  15        0.7721
  16        0.9333
  17        0.9433
  18        0.9434
  19        1.1683
  20        1.2382
  21        1.2382
  22        2.0776
  23        5.1699
  24        5.1699
  25       10.0725
  26       10.0725
 
  0.3333333E+00  0.8333333E-01  0.8333333E-01  0.1388889E-01
   1       -4.3189
   2       -1.7697
   3       -0.9860
   4       -0.9860
   5       -0.7807
   6       -0.7468
   7       -0.7468
   8       -0.2428
   9        0.1723
  10        0.1723
  11        0.2534
  12        0.2817
  13        0.4701
  14        0.5359
  15        0.8072
  16        0.8288
  17        0.8288
  18        0.8294
  19        1.1074
  20        1.2342
  21        1.2342
  22        1.3825
  23        5.8922
  24        5.8922
  25        9.6484
  26        9.6484
 
  0.4166667E+00  0.8333333E-01  0.8333333E-01  0.1388889E-01
   1       -3.6937
   2       -2.3007
   3       -0.8398
   4       -0.8398
   5       -0.6523
   6       -0.5877
   7       -0.5877
   8       -0.3738
   9       -0.1140
  10       -0.1140
  11        0.2588
  12        0.2754
  13        0.3959
  14        0.5851
  15        0.6675
  16        0.7256
  17        0.7256
  18        0.8959
  19        0.9888
  20        1.0392
  21        1.2322
  22        1.2322
  23        6.6991
  24        6.6991
  25        8.5907
  26        8.5907
 
  0.5000000E+00  0.8333333E-01  0.8333333E-01  0.6944444E-02
   1       -2.9922
   2       -2.9922
   3       -0.7774
   4       -0.7774
   5       -0.5135
   6       -0.5135
   7       -0.4413
   8       -0.4413
   9       -0.3075
  10       -0.3075
  11        0.2300
  12        0.2300
  13        0.5270
  14        0.5270
  15        0.6820
  16        0.6820
  17        0.7447
  18        0.7447
  19        0.9673
  20        0.9673
  21        1.2317
  22        1.2317
  23        7.4536
  24        7.4536
  25        7.7543
  26        7.7543
 
  0.1666667E+00  0.1666667E+00  0.8333333E-01  0.1388889E-01
   1       -4.9764
   2       -1.3050
   3       -1.3050
   4       -1.2074
   5       -0.9202
   6       -0.9202
   7       -0.9188
   8       -0.0740
   9        0.1416
  10        0.1462
  11        0.6444
  12        0.6465
  13        0.6670
  14        0.6670
  15        0.7305
  16        0.9568
  17        0.9815
  18        0.9815
  19        1.2139
  20        1.2139
  21        1.2206
  22        3.4841
  23        3.4841
  24        4.9445
  25        9.9784
  26       10.6570
 
  0.2500000E+00  0.1666667E+00  0.8333333E-01  0.2777778E-01
   1       -4.6089
   2       -1.3833
   3       -1.1519
   4       -1.0792
   5       -0.8408
   6       -0.8350
   7       -0.8310
   8       -0.1407
   9        0.1843
  10        0.1969
  11        0.3553
  12        0.4015
  13        0.4656
  14        0.6025
  15        0.7805
  16        0.8718
  17        0.8826
  18        0.9104
  19        1.1666
  20        1.1941
  21        1.1957
  22        2.4643
  23        4.0308
  24        5.5011
  25        9.3749
  26       10.2266
 
  0.3333333E+00  0.1666667E+00  0.8333333E-01  0.2777778E-01
   1       -4.1085
   2       -1.6368
   3       -0.9730
   4       -0.9266
   5       -0.7368
   6       -0.7289
   7       -0.7102
   8       -0.2389
   9        0.0595
  10        0.1366
  11        0.2125
  12        0.2521
  13        0.2768
  14        0.5805
  15        0.7557
  16        0.7753
  17        0.8116
  18        0.8555
  19        1.0972
  20        1.1781
  21        1.1781
  22        1.7127
  23        4.6709
  24        6.1753
  25        8.2242
  26        9.9102
 
  0.4166667E+00  0.1666667E+00  0.8333333E-01  0.2777778E-01
   1       -3.4957
   2       -2.1440
   3       -0.8037
   4       -0.7724
   5       -0.6294
   6       -0.6157
   7       -0.5791
   8       -0.3575
   9       -0.1881
  10       -0.1066
  11        0.1351
  12        0.1880
  13        0.3747
  14        0.6202
  15        0.6500
  16        0.6898
  17        0.7127
  18        0.9464
  19        0.9853
  20        1.1688
  21        1.1692
  22        1.2678
  23        5.3925
  24        6.8120
  25        7.3346
  26        8.8551
 
  0.5000000E+00  0.1666667E+00  0.8333333E-01  0.1388889E-01
   1       -2.8120
   2       -2.8120
   3       -0.7063
   4       -0.7063
   5       -0.5417
   6       -0.5417
   7       -0.4862
   8       -0.4862
   9       -0.2719
  10       -0.2719
  11        0.1367
  12        0.1367
  13        0.4903
  14        0.4903
  15        0.6613
  16        0.6613
  17        0.8088
  18        0.8088
  19        1.0605
  20        1.0605
  21        1.1662
  22        1.1662
  23        6.1923
  24        6.1923
  25        7.9078
  26        7.9078
 
  0.2500000E+00  0.2500000E+00  0.8333333E-01  0.1388889E-01
   1       -4.2511
   2       -1.2122
   3       -1.2122
   4       -0.9775
   5       -0.7646
   6       -0.7579
   7       -0.7579
   8       -0.1765
   9        0.1799
  10        0.1799
  11        0.1858
  12        0.2286
  13        0.2543
  14        0.5871
  15        0.7848
  16        0.8309
  17        0.8309
  18        0.8407
  19        1.1329
  20        1.1329
  21        1.1491
  22        2.9556
  23        2.9556
  24        5.9926
  25        8.0830
  26       10.4921
 
  0.3333333E+00  0.2500000E+00  0.8333333E-01  0.2777778E-01
   1       -3.7659
   2       -1.4379
   3       -1.0141
   4       -0.8624
   5       -0.6774
   6       -0.6622
   7       -0.6450
   8       -0.2437
   9       -0.0736
  10        0.0342
  11        0.0715
  12        0.1760
  13        0.2860
  14        0.5794
  15        0.6981
  16        0.7139
  17        0.7546
  18        0.9447
  19        1.0497
  20        1.0995
  21        1.1099
  22        2.1221
  23        3.5243
  24        6.4573
  25        7.0947
  26       10.3324
 
  0.4166667E+00  0.2500000E+00  0.8333333E-01  0.2777778E-01
   1       -3.1764
   2       -1.9034
   3       -0.8278
   4       -0.7440
   5       -0.6152
   6       -0.5538
   7       -0.5364
   8       -0.3357
   9       -0.2572
  10       -0.1075
  11       -0.0050
  12        0.1252
  13        0.3631
  14        0.5840
  15        0.6289
  16        0.6443
  17        0.6683
  18        0.9302
  19        1.0797
  20        1.0806
  21        1.0846
  22        1.5791
  23        4.1763
  24        5.7842
  25        7.5004
  26        9.2769
 
  0.5000000E+00  0.2500000E+00  0.8333333E-01  0.1388889E-01
   1       -2.5271
   2       -2.5271
   3       -0.7035
   4       -0.7035
   5       -0.5648
   6       -0.5648
   7       -0.4422
   8       -0.4422
   9       -0.2477
  10       -0.2477
  11        0.0466
  12        0.0466
  13        0.4630
  14        0.4630
  15        0.6141
  16        0.6141
  17        0.7791
  18        0.7791
  19        1.0747
  20        1.0747
  21        1.2681
  22        1.2681
  23        4.9275
  24        4.9275
  25        8.3294
  26        8.3294
 
  0.3333333E+00  0.3333333E+00  0.8333333E-01  0.1388889E-01
   1       -3.3058
   2       -1.2099
   3       -1.2099
   4       -0.8254
   5       -0.5861
   6       -0.5572
   7       -0.5572
   8       -0.2683
   9       -0.1481
  10       -0.1481
  11       -0.0203
  12        0.1410
  13        0.3092
  14        0.5714
  15        0.6156
  16        0.6561
  17        0.6561
  18        1.0015
  19        1.0015
  20        1.0453
  21        1.0873
  22        2.5981
  23        2.5981
  24        5.6346
  25        7.3648
  26       10.9028
 
  0.4166667E+00  0.3333333E+00  0.8333333E-01  0.2777778E-01
   1       -2.7556
   2       -1.6146
   3       -1.0046
   4       -0.8202
   5       -0.4953
   6       -0.4663
   7       -0.4407
   8       -0.3166
   9       -0.2694
  10       -0.1256
  11       -0.1180
  12        0.0767
  13        0.3519
  14        0.5382
  15        0.5511
  16        0.5862
  17        0.6226
  18        0.8775
  19        0.9727
  20        0.9960
  21        1.2742
  22        1.9454
  23        3.1611
  24        4.6652
  25        8.0674
  26        9.8445
 
  0.5000000E+00  0.3333333E+00  0.8333333E-01  0.1388889E-01
   1       -2.1647
   2       -2.1647
   3       -0.8702
   4       -0.8702
   5       -0.4302
   6       -0.4302
   7       -0.3846
   8       -0.3846
   9       -0.2352
  10       -0.2352
  11       -0.0233
  12       -0.0233
  13        0.4295
  14        0.4295
  15        0.5384
  16        0.5384
  17        0.7382
  18        0.7382
  19        0.9707
  20        0.9707
  21        1.5349
  22        1.5349
  23        3.8413
  24        3.8413
  25        8.8992
  26        8.8992
 
  0.4166667E+00  0.4166667E+00  0.8333333E-01  0.1388889E-01
   1       -2.2682
   2       -1.3297
   3       -1.3297
   4       -0.9344
   5       -0.3725
   6       -0.3586
   7       -0.3586
   8       -0.3098
   9       -0.2008
  10       -0.2008
  11       -0.1679
  12        0.0179
  13        0.3499
  14        0.4795
  15        0.4834
  16        0.4834
  17        0.6469
  18        0.8515
  19        0.8515
  20        0.9174
  21        1.5244
  22        2.3953
  23        2.3953
  24        3.7234
  25        8.7736
  26       10.5466
 
  0.5000000E+00  0.4166667E+00  0.8333333E-01  0.1388889E-01
   1       -1.7697
   2       -1.7697
   3       -1.0981
   4       -1.0981
   5       -0.3218
   6       -0.3218
   7       -0.2864
   8       -0.2864
   9       -0.2374
  10       -0.2374
  11       -0.0817
  12       -0.0817
  13        0.3934
  14        0.3934
  15        0.4519
  16        0.4519
  17        0.7319
  18        0.7319
  19        0.8652
  20        0.8652
  21        1.8725
  22        1.8725
  23        2.9735
  24        2.9735
  25        9.6012
  26        9.6012
 
  0.5000000E+00  0.5000000E+00  0.8333333E-01  0.3472222E-02
   1       -1.3997
   2       -1.3997
   3       -1.3997
   4       -1.3997
   5       -0.2701
   6       -0.2701
   7       -0.2701
   8       -0.2701
   9       -0.1601
  10       -0.1601
  11       -0.1601
  12       -0.1601
  13        0.3927
  14        0.3927
  15        0.3927
  16        0.3927
  17        0.7776
  18        0.7776
  19        0.7776
  20        0.7776
  21        2.3305
  22        2.3305
  23        2.3305
  24        2.3305
  25       10.4277
  26       10.4277
 
  0.1666667E+00  0.1666667E+00  0.1666667E+00  0.4629630E-02
   1       -4.7561
   2       -1.2172
   3       -1.2172
   4       -1.2172
   5       -0.8699
   6       -0.8699
   7       -0.8699
   8       -0.0924
   9        0.1567
  10        0.1567
  11        0.5189
  12        0.5189
  13        0.5189
  14        0.6944
  15        0.6944
  16        0.8702
  17        0.8702
  18        0.8702
  19        1.2244
  20        1.2244
  21        1.2244
  22        3.8247
  23        3.8247
  24        3.8247
  25       10.9219
  26       10.9219
 
  0.2500000E+00  0.1666667E+00  0.1666667E+00  0.1388889E-01
   1       -4.3952
   2       -1.2915
   3       -1.0888
   4       -1.0888
   5       -0.7900
   6       -0.7863
   7       -0.7863
   8       -0.1422
   9        0.1828
  10        0.1874
  11        0.2906
  12        0.2906
  13        0.3327
  14        0.6554
  15        0.7575
  16        0.7656
  17        0.7919
  18        0.7919
  19        1.2036
  20        1.2036
  21        1.2085
  22        2.7597
  23        4.3134
  24        4.3134
  25        9.6407
  26        9.6407
 
  0.3333333E+00  0.1666667E+00  0.1666667E+00  0.1388889E-01
   1       -3.9052
   2       -1.5321
   3       -0.9406
   4       -0.9406
   5       -0.6856
   6       -0.6827
   7       -0.6827
   8       -0.2238
   9        0.0578
  10        0.0578
  11        0.1530
  12        0.1952
  13        0.2379
  14        0.6347
  15        0.6609
  16        0.7143
  17        0.7143
  18        0.8509
  19        1.1688
  20        1.1744
  21        1.1744
  22        1.9279
  23        4.9045
  24        4.9045
  25        8.4907
  26        8.4907
 
  0.4166667E+00  0.1666667E+00  0.1666667E+00  0.1388889E-01
   1       -3.3084
   2       -2.0114
   3       -0.7906
   4       -0.7906
   5       -0.6103
   6       -0.6103
   7       -0.5672
   8       -0.3278
   9       -0.1202
  10       -0.1202
  11        0.0724
  12        0.1569
  13        0.3102
  14        0.5137
  15        0.6397
  16        0.6397
  17        0.7692
  18        0.9417
  19        1.1075
  20        1.1528
  21        1.1528
  22        1.3607
  23        5.5610
  24        5.5610
  25        7.5003
  26        7.5003
 
  0.5000000E+00  0.1666667E+00  0.1666667E+00  0.6944444E-02
   1       -2.6485
   2       -2.6485
   3       -0.6838
   4       -0.6838
   5       -0.6283
   6       -0.6283
   7       -0.4451
   8       -0.4451
   9       -0.1842
  10       -0.1842
  11        0.0947
  12        0.0947