       N       E                     dE             d eps       ncg     rms          rms(c)
DAV:   1    -0.118977562785E+03   -0.11898E+03   -0.50085E+01  1120   0.894E+00    0.282E-01
DAV:   2    -0.119079853510E+03   -0.10229E+00   -0.11475E+00   920   0.273E+00    0.100E-01
DAV:   3    -0.119080491374E+03   -0.63786E-03   -0.17572E-02   972   0.421E-01    0.453E-02
DAV:   4    -0.119080451465E+03    0.39909E-04   -0.53385E-04   964   0.765E-02    0.213E-02
DAV:   5    -0.119080449095E+03    0.23703E-05   -0.60388E-05   948   0.221E-02
   1 F= -.11908045E+03 E0= -.11907233E+03  d E =-.243447E-01
