       N       E                     dE             d eps       ncg     rms          rms(c)
DAV:   1    -0.118977830789E+03   -0.11898E+03   -0.50472E+01  1112   0.894E+00    0.283E-01
DAV:   2    -0.119079849000E+03   -0.10202E+00   -0.11453E+00   908   0.272E+00    0.998E-02
DAV:   3    -0.119080511727E+03   -0.66273E-03   -0.17364E-02   956   0.423E-01    0.457E-02
DAV:   4    -0.119080452864E+03    0.58863E-04   -0.38117E-04   968   0.760E-02    0.210E-02
DAV:   5    -0.119080449258E+03    0.36067E-05   -0.41090E-05   944   0.214E-02
   1 F= -.11908045E+03 E0= -.11907233E+03  d E =-.243453E-01
