       N       E                     dE             d eps       ncg     rms          rms(c)
DAV:   1     0.140541743127E+03    0.14054E+03   -0.36296E+04   544   0.126E+03
DAV:   2    -0.105216649757E+03   -0.24576E+03   -0.22933E+03   636   0.146E+02
DAV:   3    -0.119421380818E+03   -0.14205E+02   -0.13483E+02   688   0.282E+01
DAV:   4    -0.119748278066E+03   -0.32690E+00   -0.32296E+00   648   0.436E+00
DAV:   5    -0.119752715188E+03   -0.44371E-02   -0.44361E-02   632   0.595E-01    0.499E+00
DAV:   6    -0.119363394835E+03    0.38932E+00   -0.65985E-02   648   0.841E-01    0.310E+00
DAV:   7    -0.119081097625E+03    0.28230E+00   -0.19326E-01   564   0.135E+00    0.133E-01
DAV:   8    -0.119081018675E+03    0.78950E-04   -0.13520E-03   648   0.143E-01    0.329E-02
DAV:   9    -0.119081032151E+03   -0.13476E-04   -0.34474E-05   496   0.170E-02    0.295E-03
DAV:  10    -0.119081025137E+03    0.70136E-05   -0.22675E-06   340   0.586E-03
   1 F= -.11908103E+03 E0= -.11907290E+03  d E =-.119081E+03
