 vasp.4.6.28 25Jul05 complex 
 executed on             LinuxIFC date 2017.01.18  12:48:52
 running on    4 nodes
 distr:  one band on    1 nodes,    4 groups


--------------------------------------------------------------------------------------------------------


 INCAR:
 POTCAR:   PAW_PBE Ag 06Sep2000                   
 POTCAR:   PAW_PBE Ag 06Sep2000                   
   VRHFIN =Ag : s1 d10                                                          
   LEXCH  = PE                                                                  
   EATOM  =  1037.4134 eV,   76.2477 Ry                                         
                                                                                
   TITEL  = PAW_PBE Ag 06Sep2000                                                
   LULTRA =        F    use ultrasoft PP ?                                      
   IUNSCR =        1    unscreen: 0-lin 1-nonlin 2-no                           
   RPACOR =    2.000    partial core radius                                     
   POMASS =  107.868; ZVAL   =   11.000    mass and valenz                      
   RCORE  =    2.400    outmost cutoff radius                                   
   RWIGS  =    2.840; RWIGS  =    1.503    wigner-seitz radius (au A)           
   ENMAX  =  249.846; ENMIN  =  187.385 eV                                      
   RCLOC  =    1.962    cutoff for local pot                                    
   LCOR   =        T    correct aug charges                                     
   LPAW   =        T    paw PP                                                  
   EAUG   =  412.496                                                            
   DEXC   =    -.047                                                            
   RMAX   =    2.917    core radius for proj-oper                               
   RAUG   =    1.300    factor for augmentation sphere                          
   RDEP   =    2.416    radius for radial grids                                 
   QCUT   =   -4.285; QGAM   =    8.570    optimization parameters              
                                                                                
   Description                                                                  
     l     E      TYP  RCUT    TYP  RCUT                                        
     2   .000     23  2.400                                                     
     2   .000     23  2.400                                                     
     0   .000     23  2.400                                                     
     0   .000     23  2.400                                                     
     1  -.200     23  2.400                                                     
     1  1.500     23  2.400                                                     
     3   .000      7   .000                                                     
  local pseudopotential read in
  partial core-charges read in
  atomic valenz-charges read in
  non local Contribution for L=           2  read in
    real space projection operators read in
  non local Contribution for L=           2  read in
    real space projection operators read in
  non local Contribution for L=           0  read in
    real space projection operators read in
  non local Contribution for L=           0  read in
    real space projection operators read in
  non local Contribution for L=           1  read in
    real space projection operators read in
  non local Contribution for L=           1  read in
    real space projection operators read in
    PAW grid and wavefunctions read in
 
   number of l-projection  operators is LMAX  =           6
   number of lm-projection operators is LMMAX =          18
 

 ----------------------------------------------------------------------------- 
|                                                                             |
|  ADVICE TO THIS USER RUNNING 'VASP/VAMP'   (HEAR YOUR MASTER'S VOICE ...):  |
|                                                                             |
|      You have a (more or less) 'large supercell' and for larger cells       |
|      it might be more efficient to use real space projection operators      |
|      So try LREAL= Auto  in the INCAR   file.                               |
|      Mind: If you want to do an extremely accurate calculations keep the    |
|      reciprocal projection scheme          (i.e. LREAL=.FALSE.)             |
|                                                                             |
 ----------------------------------------------------------------------------- 

 PAW_PBE Ag 06Sep2000                   :
 energy of atom  1       EATOM=-1037.4134
 kinetic energy error for atom=    0.0019 (will be added to EATOM!!)
 
 EXHCAR: internal setup
 exchange correlation table for  LEXCH =        8
   RHO(1)=    0.500       N(1)  =     2000
   RHO(2)=  100.500       N(2)  =     4000
 
 POSCAR: No title                                
  positions in direct lattice
  No initial velocities read in
 


--------------------------------------------------------------------------------------------------------


 ion  position               nearest neighbor table
   1  0.750  0.750  0.500-   3 3.09   5 3.09  14 3.09  19 3.09  20 3.09  26 3.09  11 3.09   6 3.09
                            18 3.09  29 3.09  10 3.09   8 3.09
   2  0.750  0.750  0.000-  12 3.08  10 3.09  11 3.09   8 3.09  18 3.09  22 3.09  27 3.09  26 3.09
                             5 3.09  32 3.09   3 3.09  20 3.09
   3  0.750  0.000  0.250-  12 3.08   5 3.09   9 3.09   1 3.09  19 3.09  28 3.09  18 3.09   6 3.09
                            27 3.09  13 3.09   4 3.09   2 3.09
   4  0.750  0.250  0.500-   6 3.09   8 3.09  10 3.09  13 3.09  29 3.09  31 3.09  21 3.09  28 3.09
                            14 3.09  19 3.09   3 3.09  20 3.09
   5  0.000  0.750  0.250-   1 3.09   3 3.09  14 3.09  15 3.09  25 3.09   2 3.09   7 3.09  16 3.09
                            10 3.09  22 3.09   6 3.09  12 3.09
   6  0.000  0.000  0.500-   4 3.09   7 3.09   8 3.09  11 3.09  13 3.09  16 3.09   1 3.09   3 3.09
                            17 3.09  23 3.09  21 3.09   5 3.09
   7  0.250  0.750  0.500-   6 3.09  11 3.09  16 3.09  18 3.09  29 3.09  30 3.09  19 3.09  26 3.09
                             5 3.09  14 3.09  25 3.09  23 3.09
   8  0.750  0.000  0.750-  12 3.08   4 3.09   6 3.09  11 3.09   2 3.09  27 3.09  31 3.09  26 3.09
                            19 3.09  21 3.09   9 3.09   1 3.09
   9  0.750  0.250  0.000-  12 3.08   3 3.09  20 3.09  21 3.09  28 3.09  32 3.09  27 3.09  13 3.09
                            31 3.09  22 3.09  10 3.09   8 3.09
  10  0.750  0.500  0.250-   2 3.09   4 3.09  13 3.09  18 3.09  22 3.09  29 3.09  14 3.09  28 3.09
                             5 3.09  32 3.09   9 3.09   1 3.09
  11  0.000  0.750  0.750-   2 3.09   6 3.09   7 3.09   8 3.09  22 3.09  30 3.09  20 3.09   1 3.09
                            23 3.09  15 3.09  14 3.09  12 3.09
  12  0.998  0.000  0.000-   3 3.08   9 3.08   2 3.08   8 3.08   5 3.09  21 3.09  11 3.09  13 3.09
                            15 3.11  23 3.11  16 3.11  24 3.11
  13  0.000  0.250  0.250-   4 3.09   6 3.09  10 3.09  16 3.09  22 3.09  24 3.09  17 3.09   3 3.09
                             9 3.09  25 3.09  14 3.09  12 3.09
  14  0.000  0.500  0.500-   1 3.09   5 3.09  17 3.09  20 3.09  21 3.09  25 3.09   7 3.09  10 3.09
                             4 3.09  30 3.09  13 3.09  11 3.09
  15  0.250  0.750  0.000-   5 3.09  23 3.09  25 3.09  26 3.09  32 3.09  18 3.09  22 3.09  27 3.09
                            11 3.09  30 3.09  16 3.09  12 3.11
  16  0.250  0.000  0.250-   6 3.09   7 3.09  13 3.09  18 3.09  24 3.09  27 3.09   5 3.09  19 3.09
                            28 3.09  17 3.09  15 3.09  12 3.11
  17  0.250  0.250  0.500-  14 3.09  19 3.09  21 3.09  23 3.09  25 3.09  28 3.09   6 3.09  13 3.09
                            29 3.09  31 3.09  30 3.09  16 3.09
  18  0.500  0.750  0.250-   2 3.09   7 3.09  10 3.09  16 3.09  27 3.09  29 3.09   1 3.09  25 3.09
                             3 3.09  15 3.09  19 3.09  32 3.09
  19  0.500  0.000  0.500-   1 3.09   3 3.09  17 3.09  23 3.09  26 3.09  28 3.09   4 3.09   7 3.09
                             8 3.09  16 3.09  18 3.09  31 3.09
  20  0.750  0.500  0.750-   1 3.09   9 3.09  14 3.09  21 3.09  26 3.09  32 3.09  11 3.09  29 3.09
                            31 3.09  22 3.09   4 3.09   2 3.09
  21  0.000  0.250  0.750-   9 3.09  14 3.09  17 3.09  20 3.09  23 3.09   8 3.09   4 3.09  24 3.09
                            30 3.09  22 3.09   6 3.09  12 3.09
  22  0.000  0.500  0.000-   2 3.09  10 3.09  11 3.09  13 3.09  24 3.09  30 3.09  20 3.09   9 3.09
                            25 3.09  15 3.09  21 3.09   5 3.09
  23  0.250  0.000  0.750-  15 3.09  17 3.09  19 3.09  21 3.09  26 3.09  11 3.09   6 3.09  27 3.09
                            31 3.09  24 3.09   7 3.09  12 3.11
  24  0.250  0.250  0.000-  13 3.09  16 3.09  22 3.09  27 3.09  30 3.09  31 3.09  21 3.09  28 3.09
                            32 3.09  25 3.09  23 3.09  12 3.11
  25  0.250  0.500  0.250-   5 3.09  14 3.09  15 3.09  17 3.09  28 3.09  32 3.09  22 3.09  13 3.09
                            29 3.09  18 3.09  24 3.09   7 3.09
  26  0.500  0.750  0.750-   1 3.09  15 3.09  19 3.09  20 3.09  23 3.09  32 3.09   8 3.09   2 3.09
                            30 3.09   7 3.09  27 3.09  29 3.09
  27  0.500  0.000  0.000-   2 3.09   8 3.09  16 3.09  18 3.09  24 3.09  31 3.09   9 3.09  23 3.09
                            15 3.09   3 3.09  28 3.09  26 3.09
  28  0.500  0.250  0.250-   3 3.09   9 3.09  17 3.09  19 3.09  25 3.09  32 3.09  10 3.09  24 3.09
                            16 3.09   4 3.09  29 3.09  27 3.09
  29  0.500  0.500  0.500-   4 3.09   7 3.09  10 3.09  18 3.09  30 3.09  31 3.09  20 3.09  25 3.09
                            17 3.09   1 3.09  26 3.09  28 3.09
  30  0.250  0.500  0.750-   7 3.09  11 3.09  22 3.09  24 3.09  29 3.09  31 3.09  26 3.09  14 3.09
                            21 3.09  32 3.09  17 3.09  15 3.09
  31  0.500  0.250  0.750-   4 3.09   8 3.09  24 3.09  27 3.09  29 3.09  30 3.09   9 3.09  17 3.09
                            20 3.09  23 3.09  19 3.09  32 3.09
  32  0.500  0.500  0.000-   9 3.09  15 3.09  20 3.09  25 3.09  26 3.09  28 3.09   2 3.09  10 3.09
                            24 3.09  30 3.09  18 3.09  31 3.09
 
  LATTYP: Found a simple cubic cell.
 ALAT       =     8.7439151700
  
  Lattice vectors:
  
 A1 = (   8.7439151700,   0.0000000000,   0.0000000000)
 A2 = (   0.0000001600,   8.7439151700,   0.0000000000)
 A3 = (   0.0000001600,   0.0000001600,   8.7439151700)
 Subroutine PRICEL returns:
 Original cell was already a primitive cell.
 

Analysis of symmetry for initial positions (statically):

 Routine SETGRP: Setting up the symmetry group for a 
 simple cubic supercell.


 Subroutine GETGRP returns: Found  8 space group operations
 (whereof  8 operations were pure point group operations)
 out of a pool of 48 trial point group operations.


The static configuration has the point symmetry C_4v.

Analysis of symmetry for dynamics (positions and initial velocities):

 Subroutine DYNSYM returns: Found  8 space group operations
 (whereof  8 operations were pure point group operations)
 out of a pool of  8 trial space group operations
 (whereof  8 operations were pure point group operations)
 and found also     1 'primitive' translations


The dynamic configuration has the point symmetry C_4v.
 
 
 KPOINTS: Automatic mesh                          

Automatic generation of k-mesh.
 
 Subroutine IBZKPT returns following result:
 ===========================================
 
 Found     40 irreducible k-points:
 
 Following reciprocal coordinates:
            Coordinates               Weight
  0.062500  0.062500  0.062500      8.000000
  0.187500  0.062500  0.062500      8.000000
  0.312500  0.062500  0.062500      8.000000
  0.437500  0.062500  0.062500      8.000000
  0.062500  0.187500  0.062500     16.000000
  0.187500  0.187500  0.062500     16.000000
  0.312500  0.187500  0.062500     16.000000
  0.437500  0.187500  0.062500     16.000000
  0.062500  0.312500  0.062500     16.000000
  0.187500  0.312500  0.062500     16.000000
  0.312500  0.312500  0.062500     16.000000
  0.437500  0.312500  0.062500     16.000000
  0.062500  0.437500  0.062500     16.000000
  0.187500  0.437500  0.062500     16.000000
  0.312500  0.437500  0.062500     16.000000
  0.437500  0.437500  0.062500     16.000000
  0.062500  0.187500  0.187500      8.000000
  0.187500  0.187500  0.187500      8.000000
  0.312500  0.187500  0.187500      8.000000
  0.437500  0.187500  0.187500      8.000000
  0.062500  0.312500  0.187500     16.000000
  0.187500  0.312500  0.187500     16.000000
  0.312500  0.312500  0.187500     16.000000
  0.437500  0.312500  0.187500     16.000000
  0.062500  0.437500  0.187500     16.000000
  0.187500  0.437500  0.187500     16.000000
  0.312500  0.437500  0.187500     16.000000
  0.437500  0.437500  0.187500     16.000000
  0.062500  0.312500  0.312500      8.000000
  0.187500  0.312500  0.312500      8.000000
  0.312500  0.312500  0.312500      8.000000
  0.437500  0.312500  0.312500      8.000000
  0.062500  0.437500  0.312500     16.000000
  0.187500  0.437500  0.312500     16.000000
  0.312500  0.437500  0.312500     16.000000
  0.437500  0.437500  0.312500     16.000000
  0.062500  0.437500  0.437500      8.000000
  0.187500  0.437500  0.437500      8.000000
  0.312500  0.437500  0.437500      8.000000
  0.437500  0.437500  0.437500      8.000000
 
 Following cartesian coordinates:
            Coordinates               Weight
  0.007148  0.007148  0.007148      8.000000
  0.021443  0.007148  0.007148      8.000000
  0.035739  0.007148  0.007148      8.000000
  0.050035  0.007148  0.007148      8.000000
  0.007148  0.021443  0.007148     16.000000
  0.021443  0.021443  0.007148     16.000000
  0.035739  0.021443  0.007148     16.000000
  0.050035  0.021443  0.007148     16.000000
  0.007148  0.035739  0.007148     16.000000
  0.021443  0.035739  0.007148     16.000000
  0.035739  0.035739  0.007148     16.000000
  0.050035  0.035739  0.007148     16.000000
  0.007148  0.050035  0.007148     16.000000
  0.021443  0.050035  0.007148     16.000000
  0.035739  0.050035  0.007148     16.000000
  0.050035  0.050035  0.007148     16.000000
  0.007148  0.021443  0.021443      8.000000
  0.021443  0.021443  0.021443      8.000000
  0.035739  0.021443  0.021443      8.000000
  0.050035  0.021443  0.021443      8.000000
  0.007148  0.035739  0.021443     16.000000
  0.021443  0.035739  0.021443     16.000000
  0.035739  0.035739  0.021443     16.000000
  0.050035  0.035739  0.021443     16.000000
  0.007148  0.050035  0.021443     16.000000
  0.021443  0.050035  0.021443     16.000000
  0.035739  0.050035  0.021443     16.000000
  0.050035  0.050035  0.021443     16.000000
  0.007148  0.035739  0.035739      8.000000
  0.021443  0.035739  0.035739      8.000000
  0.035739  0.035739  0.035739      8.000000
  0.050035  0.035739  0.035739      8.000000
  0.007148  0.050035  0.035739     16.000000
  0.021443  0.050035  0.035739     16.000000
  0.035739  0.050035  0.035739     16.000000
  0.050035  0.050035  0.035739     16.000000
  0.007148  0.050035  0.050035      8.000000
  0.021443  0.050035  0.050035      8.000000
  0.035739  0.050035  0.050035      8.000000
  0.050035  0.050035  0.050035      8.000000
 


--------------------------------------------------------------------------------------------------------




 Dimension of arrays:
   k-Points           NKPTS =     40   number of bands    NBANDS=    212
   number of dos      NEDOS =    301   number of ions     NIONS =     32
   non local maximal  LDIM  =      6   non local SUM 2l+1 LMDIM =     18
   total plane-waves  NPLWV = 343000
   max r-space proj   IRMAX =      1   max aug-charges    IRDMAX= 201992
   dimension x,y,z NGX =    70 NGY =   70 NGZ =   70
   dimension x,y,z NGXF=   140 NGYF=  140 NGZF=  140
   support grid    NGXF=   280 NGYF=  280 NGZF=  280
   ions per type =              32
 NGX,Y,Z   is equivalent  to a cutoff of  13.31, 13.31, 13.31 a.u.
 NGXF,Y,Z  is equivalent  to a cutoff of  26.62, 26.62, 26.62 a.u.


 I would recommend the setting:
   dimension x,y,z NGX =    70 NGY =   70 NGZ =   70
 SYSTEM =  No title                                
 POSCAR =  No title                                

 Startparameter for this run:
   NWRITE =      2    write-flag & timer
   PREC   = accura    medium, high low
   ISTART =      1    job   : 0-new  1-cont  2-samecut
   ICHARG =      0    charge: 1-file 2-atom 10-const
   ISPIN  =      1    spin polarized calculation?
   LNONCOLLINEAR =      F non collinear calculations
   LSORBIT =      F    spin-orbit coupling
   INIWAV =      1    electr: 0-lowe 1-rand  2-diag
   LASPH  =      F    aspherical Exc in radial PAW
   METAGGA=      F    non-selfconsistent MetaGGA calc.

 Electronic Relaxation 1
   ENCUT  =  600.0 eV  44.10 Ry    6.64 a.u.  17.46 17.46 17.46*2*pi/ulx,y,z
   ENINI  =  600.0     initial cutoff
   ENAUG  =  412.5 eV  augmentation charge cutoff
   NELM   =     60;   NELMIN=  2; NELMDL=  0     # of ELM steps 
   EDIFF  = 0.1E-04   stopping-criterion for ELM
   LREAL  =      F    real-space projection
   LCOMPAT=      F    compatible to vasp.4.4
   LREAL_COMPAT= F    compatible to vasp.4.5.1-3
   GGA_COMPAT  = T    GGA compatible to vasp.4.4-vasp.4.6
   LMAXPAW     = -100 max onsite density
   LMAXMIX     =    2 max onsite mixed and CHGCAR
   VOSKOWN=      1    Vosko Wilk Nusair interpolation
   ROPT   =    0.00000
 Ionic relaxation
   EDIFFG = -.2E-01   stopping-criterion for IOM
   NSW    =      0    number of steps for IOM
   NBLOCK =      1;   KBLOCK =      1    inner block; outer block 
   IBRION =     -1    ionic relax: 0-MD 1-quasi-New 2-CG
   NFREE  =      0    steps in history (QN), initial steepest desc. (CG)
   ISIF   =      2    stress and relaxation
   IWAVPR =     10    prediction:  0-non 1-charg 2-wave 3-comb
   ISYM   =      2    0-nonsym 1-usesym 2-fastsym
   LCORR  =      T    Harris-Foulkes like correction to forces

   POTIM  =   0.50    time-step for ionic-motion
   TEIN   =    0.0    initial temperature
   TEBEG  =    0.0;   TEEND  =   0.0 temperature during run
   SMASS  =  -3.00    Nose mass-parameter (am)
   estimated Nose-frequenzy (Omega)   =  0.10E-29 period in steps =****** mass=  -0.175E-26a.u.
   NPACO  =    256;   APACO  = 16.0  distance and # of slots for P.C.
   PSTRESS=    0.0 pullay stress

  Mass of Ions in am
   POMASS = 107.87
  Ionic Valenz
   ZVAL   =  11.00
  Atomic Wigner-Seitz radii
   RWIGS  =   1.34
   NELECT =     352.0000    total number of electrons
   NUPDOWN=      -1.0000    fix difference up-down

 DOS related values:
   EMIN   =  10.00;   EMAX   =-10.00  energy-range for DOS
   ISMEAR =     1;   SIGMA  =   0.20  broadening in eV -4-tet -1-fermi 0-gaus

 Electronic relaxation 2 (details)
   IALGO  =     48    algorithm
   LDIAG  =      T    sub-space diagonalisation
   IMIX   =      4    mixing-type and parameters
     AMIX     =   0.40;   BMIX     =  1.00
     AMIX_MAG =   1.60;   BMIX_MAG =  1.00
     AMIN     =   0.10
     WC   =   100.;   INIMIX=   1;  MIXPRE=   1

 Intra band minimization:
   WEIMIN = 0.0000     energy-eigenvalue tresh-hold
   EBREAK =  0.12E-07  absolut break condition
   DEPER  =   0.30     relativ break condition  

   TIME   =   0.10     timestep for ELM

  volume/ion in A,a.u.               =      20.89       140.98
  Fermi-wavevector in a.u.,eV,Ry     =   1.321954 23.777041  1.747563

 Second variation
   LSECVAR=     F    do a second variation
 
 Write flags
   LWAVE  =      F    write WAVECAR
   LCHARG =      F    write CHGCAR
   LVTOT  =      F    write LOCPOT, local potential
   LELF   =      F    write electronic localiz. function (ELF)
   LORBIT =      0    0 simple, 1 ext, 2 COOP (PROOUT)


 Dipole corrections
   IDIPOL =      0    1-x, 2-y, 3-z
   LDIPOL =      F    correct potential



--------------------------------------------------------------------------------------------------------


 Static calculation
 charge density will be updated during run
 non-spin polarized calculation
 RMM-DIIS sequential band-by-band
 performe sub-space diagonalisation
    before iterative eigenvector-optimisation
 modified Broyden-mixing scheme, WC =      100.0
 initial mixing is a Kerker type mixing with AMIX =  0.4000 and BMIX =      1.0000
 Hartree-type preconditioning will be used
 using additional bands           36
 reciprocal scheme for non local part
 use partial core corrections
 calculate Harris-corrections to forces 
   (improved forces if not selfconsistent)
 use gradient corrections 
 use of overlap-Matrix (Vanderbilt PP)
 Methfessel and Paxton  Order N= 1 SIGMA  =   0.20


--------------------------------------------------------------------------------------------------------


  energy-cutoff  :      600.00
  volume of cell :      668.53
      direct lattice vectors                 reciprocal lattice vectors
     8.743915170  0.000000000  0.000000000     0.114365245 -0.000000002 -0.000000002
     0.000000160  8.743915170  0.000000000     0.000000000  0.114365245 -0.000000002
     0.000000160  0.000000160  8.743915170     0.000000000  0.000000000  0.114365245

  length of vectors
     8.743915170  8.743915170  8.743915170     0.114365245  0.114365245  0.114365245


 
 old parameters found on file WAVECAR:
  energy-cutoff  :      600.00
  volume of cell :      668.53
      direct lattice vectors                 reciprocal lattice vectors
     8.743915170  0.000000000  0.000000000     0.114365245 -0.000000002 -0.000000002
     0.000000160  8.743915170  0.000000000     0.000000000  0.114365245 -0.000000002
     0.000000160  0.000000160  8.743915170     0.000000000  0.000000000  0.114365245

  length of vectors

 
 k-points in units of 2pi/SCALE and weight: Automatic mesh                          
   0.00714783  0.00714783  0.00714783       0.016
   0.02144348  0.00714783  0.00714783       0.016
   0.03573914  0.00714783  0.00714783       0.016
   0.05003479  0.00714783  0.00714783       0.016
   0.00714783  0.02144348  0.00714783       0.031
   0.02144348  0.02144348  0.00714783       0.031
   0.03573914  0.02144348  0.00714783       0.031
   0.05003479  0.02144348  0.00714783       0.031
   0.00714783  0.03573914  0.00714783       0.031
   0.02144348  0.03573914  0.00714783       0.031
   0.03573914  0.03573914  0.00714783       0.031
   0.05003479  0.03573914  0.00714783       0.031
   0.00714783  0.05003479  0.00714783       0.031
   0.02144348  0.05003479  0.00714783       0.031
   0.03573914  0.05003479  0.00714783       0.031
   0.05003479  0.05003479  0.00714783       0.031
   0.00714783  0.02144348  0.02144348       0.016
   0.02144348  0.02144348  0.02144348       0.016
   0.03573914  0.02144348  0.02144348       0.016
   0.05003479  0.02144348  0.02144348       0.016
   0.00714783  0.03573914  0.02144348       0.031
   0.02144348  0.03573914  0.02144348       0.031
   0.03573914  0.03573914  0.02144348       0.031
   0.05003479  0.03573914  0.02144348       0.031
   0.00714783  0.05003479  0.02144348       0.031
   0.02144348  0.05003479  0.02144348       0.031
   0.03573914  0.05003479  0.02144348       0.031
   0.05003479  0.05003479  0.02144348       0.031
   0.00714783  0.03573914  0.03573914       0.016
   0.02144348  0.03573914  0.03573914       0.016
   0.03573914  0.03573914  0.03573914       0.016
   0.05003479  0.03573914  0.03573914       0.016
   0.00714783  0.05003479  0.03573914       0.031
   0.02144348  0.05003479  0.03573914       0.031
   0.03573914  0.05003479  0.03573914       0.031
   0.05003479  0.05003479  0.03573914       0.031
   0.00714783  0.05003479  0.05003479       0.016
   0.02144348  0.05003479  0.05003479       0.016
   0.03573914  0.05003479  0.05003479       0.016
   0.05003479  0.05003479  0.05003479       0.016
 
 k-points in reciprocal lattice and weights: Automatic mesh                          
   0.06250000  0.06250000  0.06250000       0.016
   0.18750000  0.06250000  0.06250000       0.016
   0.31250000  0.06250000  0.06250000       0.016
   0.43750000  0.06250000  0.06250000       0.016
   0.06250000  0.18750000  0.06250000       0.031
   0.18750000  0.18750000  0.06250000       0.031
   0.31250000  0.18750000  0.06250000       0.031
   0.43750000  0.18750000  0.06250000       0.031
   0.06250000  0.31250000  0.06250000       0.031
   0.18750000  0.31250000  0.06250000       0.031
   0.31250000  0.31250000  0.06250000       0.031
   0.43750000  0.31250000  0.06250000       0.031
   0.06250000  0.43750000  0.06250000       0.031
   0.18750000  0.43750000  0.06250000       0.031
   0.31250000  0.43750000  0.06250000       0.031
   0.43750000  0.43750000  0.06250000       0.031
   0.06250000  0.18750000  0.18750000       0.016
   0.18750000  0.18750000  0.18750000       0.016
   0.31250000  0.18750000  0.18750000       0.016
   0.43750000  0.18750000  0.18750000       0.016
   0.06250000  0.31250000  0.18750000       0.031
   0.18750000  0.31250000  0.18750000       0.031
   0.31250000  0.31250000  0.18750000       0.031
   0.43750000  0.31250000  0.18750000       0.031
   0.06250000  0.43750000  0.18750000       0.031
   0.18750000  0.43750000  0.18750000       0.031
   0.31250000  0.43750000  0.18750000       0.031
   0.43750000  0.43750000  0.18750000       0.031
   0.06250000  0.31250000  0.31250000       0.016
   0.18750000  0.31250000  0.31250000       0.016
   0.31250000  0.31250000  0.31250000       0.016
   0.43750000  0.31250000  0.31250000       0.016
   0.06250000  0.43750000  0.31250000       0.031
   0.18750000  0.43750000  0.31250000       0.031
   0.31250000  0.43750000  0.31250000       0.031
   0.43750000  0.43750000  0.31250000       0.031
   0.06250000  0.43750000  0.43750000       0.016
   0.18750000  0.43750000  0.43750000       0.016
   0.31250000  0.43750000  0.43750000       0.016
   0.43750000  0.43750000  0.43750000       0.016
 
 position of ions in fractional coordinates (direct lattice) 
   0.75000000  0.75000000  0.50000000
   0.75000000  0.75000000  0.00000000
   0.75000000  0.00000000  0.25000000
   0.75000000  0.25000000  0.50000000
   0.00000000  0.75000000  0.25000000
   0.00000000  0.00000000  0.50000000
   0.25000000  0.75000000  0.50000000
   0.75000000  0.00000000  0.75000000
   0.75000000  0.25000000  0.00000000
   0.75000000  0.50000000  0.25000000
   0.00000000  0.75000000  0.75000000
   0.99771300  0.00000000  0.00000000
   0.00000000  0.25000000  0.25000000
   0.00000000  0.50000000  0.50000000
   0.25000000  0.75000000  0.00000000
   0.25000000  0.00000000  0.25000000
   0.25000000  0.25000000  0.50000000
   0.50000000  0.75000000  0.25000000
   0.50000000  0.00000000  0.50000000
   0.75000000  0.50000000  0.75000000
   0.00000000  0.25000000  0.75000000
   0.00000000  0.50000000  0.00000000
   0.25000000  0.00000000  0.75000000
   0.25000000  0.25000000  0.00000000
   0.25000000  0.50000000  0.25000000
   0.50000000  0.75000000  0.75000000
   0.50000000  0.00000000  0.00000000
   0.50000000  0.25000000  0.25000000
   0.50000000  0.50000000  0.50000000
   0.25000000  0.50000000  0.75000000
   0.50000000  0.25000000  0.75000000
   0.50000000  0.50000000  0.00000000
 
 position of ions in cartesian coordinates  (Angst):
   6.55793658  6.55793646  4.37195758
   6.55793650  6.55793638  0.00000000
   6.55793642  0.00000004  2.18597879
   6.55793650  2.18597887  4.37195758
   0.00000016  6.55793642  2.18597879
   0.00000008  0.00000008  4.37195758
   2.18597899  6.55793646  4.37195758
   6.55793650  0.00000012  6.55793638
   6.55793642  2.18597879  0.00000000
   6.55793650  4.37195762  2.18597879
   0.00000024  6.55793650  6.55793638
   8.72391784  0.00000000  0.00000000
   0.00000008  2.18597883  2.18597879
   0.00000016  4.37195767  4.37195758
   2.18597891  6.55793638  0.00000000
   2.18597883  0.00000004  2.18597879
   2.18597891  2.18597887  4.37195758
   4.37195774  6.55793642  2.18597879
   4.37195767  0.00000008  4.37195758
   6.55793658  4.37195770  6.55793638
   0.00000016  2.18597891  6.55793638
   0.00000008  4.37195758  0.00000000
   2.18597891  0.00000012  6.55793638
   2.18597883  2.18597879  0.00000000
   2.18597891  4.37195762  2.18597879
   4.37195782  6.55793650  6.55793638
   4.37195758  0.00000000  0.00000000
   4.37195766  2.18597883  2.18597879
   4.37195775  4.37195767  4.37195758
   2.18597899  4.37195770  6.55793638
   4.37195774  2.18597891  6.55793638
   4.37195767  4.37195758  0.00000000
 


--------------------------------------------------------------------------------------------------------


 k-point  1 :  0.06250.06250.0625  plane waves:  22338
 k-point  2 :  0.18750.06250.0625  plane waves:  22335
 k-point  3 :  0.31250.06250.0625  plane waves:  22333
 k-point  4 :  0.43750.06250.0625  plane waves:  22331
 k-point  5 :  0.06250.18750.0625  plane waves:  22335
 k-point  6 :  0.18750.18750.0625  plane waves:  22330
 k-point  7 :  0.31250.18750.0625  plane waves:  22326
 k-point  8 :  0.43750.18750.0625  plane waves:  22316
 k-point  9 :  0.06250.31250.0625  plane waves:  22333
 k-point 10 :  0.18750.31250.0625  plane waves:  22326
 k-point 11 :  0.31250.31250.0625  plane waves:  22328
 k-point 12 :  0.43750.31250.0625  plane waves:  22299
 k-point 13 :  0.06250.43750.0625  plane waves:  22331
 k-point 14 :  0.18750.43750.0625  plane waves:  22316
 k-point 15 :  0.31250.43750.0625  plane waves:  22299
 k-point 16 :  0.43750.43750.0625  plane waves:  22291
 k-point 17 :  0.06250.18750.1875  plane waves:  22330
 k-point 18 :  0.18750.18750.1875  plane waves:  22352
 k-point 19 :  0.31250.18750.1875  plane waves:  22312
 k-point 20 :  0.43750.18750.1875  plane waves:  22292
 k-point 21 :  0.06250.31250.1875  plane waves:  22326
 k-point 22 :  0.18750.31250.1875  plane waves:  22312
 k-point 23 :  0.31250.31250.1875  plane waves:  22318
 k-point 24 :  0.43750.31250.1875  plane waves:  22309
 k-point 25 :  0.06250.43750.1875  plane waves:  22316
 k-point 26 :  0.18750.43750.1875  plane waves:  22292
 k-point 27 :  0.31250.43750.1875  plane waves:  22309
 k-point 28 :  0.43750.43750.1875  plane waves:  22297
 k-point 29 :  0.06250.31250.3125  plane waves:  22328
 k-point 30 :  0.18750.31250.3125  plane waves:  22318
 k-point 31 :  0.31250.31250.3125  plane waves:  22289
 k-point 32 :  0.43750.31250.3125  plane waves:  22285
 k-point 33 :  0.06250.43750.3125  plane waves:  22299
 k-point 34 :  0.18750.43750.3125  plane waves:  22309
 k-point 35 :  0.31250.43750.3125  plane waves:  22285
 k-point 36 :  0.43750.43750.3125  plane waves:  22297
 k-point 37 :  0.06250.43750.4375  plane waves:  22291
 k-point 38 :  0.18750.43750.4375  plane waves:  22297
 k-point 39 :  0.31250.43750.4375  plane waves:  22297
 k-point 40 :  0.43750.43750.4375  plane waves:  22298

 maximum and minimum number of plane-waves per node :  22352 22285

 maximum number of plane-waves:  22352
 maximal index in each direction: 
   IXMAX= 17   IYMAX= 17   IZMAX= 17
   IXMIN=-17   IYMIN=-17   IZMIN=-17

 NGX is ok and might be reduce to  70
 NGY is ok and might be reduce to  70
 NGZ is ok and might be reduce to  70

 parallel 3dFFT wavefunction:
    minimum data exchange during FFTs selected (reduces bandwidth)
 parallel 3dFFT charge:
    minimum data exchange during FFTs selected (reduces bandwidth)

 For storing wavefunctions 3027.44 MBYTES are necessary
 For predicting wavefunctions  162.59 MBYTES are necessary
Broyden mixing: mesh for mixing (old mesh)
   NGX = 35   NGY = 35   NGZ = 35
  (NGX  =140   NGY  =140   NGZ  =140)
 gives a total of  42875 points
 charge density for first step will be calculated from the start-wavefunctions


--------------------------------------------------------------------------------------------------------


 Maximum index for augmentation-charges        48994 (set IRDMAX)


--------------------------------------------------------------------------------------------------------


 initial charge from wavefunction
 First call to EWALD:  gamma=   0.203
 Maximum number of real-space cells 3x 3x 3
 Maximum number of reciprocal cells 3x 3x 3

    FEWALD:  VPU time    0.00: CPU time    0.01


----------------------------------------- Iteration    1(   1)  ---------------------------------------


    POTLOK:  VPU time    0.42: CPU time    0.42
    SETDIJ:  VPU time    0.48: CPU time    0.48
    EDDIAG:  VPU time   33.80: CPU time   33.79
  RMM-DIIS:  VPU time  177.01: CPU time  176.98
    ORTHCH:  VPU time    6.42: CPU time    6.42
    DOS   :  VPU time    0.00: CPU time   -0.00
    CHARGE:  VPU time   13.78: CPU time   13.78
    MIXING:  VPU time    0.01: CPU time    0.01
    ------------------------------------------
      LOOP:  VPU time  232.00: CPU time  231.97

 eigenvalue-minimisations  : 17454
 total energy-change (2. order) :-0.8890811E+02  (-0.5658139E+02)
 number of electron  352.0000010 magnetization 
 augmentation part   172.3632273 magnetization 

 Broyden mixing:
  rms(total) = 0.67923E+00    rms(broyden)= 0.61595E+00
  rms(prec ) = 0.89304E+00
  weight for this iteration     100.00

 Free energy of the ion-electron system (eV)
  ---------------------------------------------------
  alpha Z        PSCENC =      2720.01059718
  Ewald energy   TEWEN  =    -29235.51897310
  -1/2 Hartree   DENC   =     -7068.57704920
  -V(xc)+E(xc)   XCENC  =      -398.33508501
  PAW double counting   =     26777.60518007   -25332.48709093
  entropy T*S    EENTRO =        -0.01290158
  eigenvalues    EBANDS =      -748.76066930
  atomic energy  EATOM  =     33197.16788402
  ---------------------------------------------------
  free energy    TOTEN  =       -88.90810785 eV

  energy without entropy =      -88.89520627  energy(sigma->0) =      -88.90380733


--------------------------------------------------------------------------------------------------------




----------------------------------------- Iteration    1(   2)  ---------------------------------------


    POTLOK:  VPU time    0.42: CPU time    0.42
    SETDIJ:  VPU time    0.48: CPU time    0.48
    EDDIAG:  VPU time   34.27: CPU time   34.28
  RMM-DIIS:  VPU time  184.59: CPU time  184.67
    ORTHCH:  VPU time    6.40: CPU time    6.40
    DOS   :  VPU time    0.00: CPU time   -0.00
    CHARGE:  VPU time   13.70: CPU time   13.71
    MIXING:  VPU time    0.01: CPU time    0.01
    ------------------------------------------
      LOOP:  VPU time  239.94: CPU time  240.04

 eigenvalue-minimisations  : 17776
 total energy-change (2. order) : 0.1278225E+01  (-0.1184791E+01)
 number of electron  352.0000010 magnetization 
 augmentation part   169.4764753 magnetization 

 Broyden mixing:
  rms(total) = 0.12279E+00    rms(broyden)= 0.12277E+00
  rms(prec ) = 0.15199E+00
  weight for this iteration     100.00

 eigenvalues of (default mixing * dielectric matrix)
  average eigenvalue GAMMA=   0.8607
  0.8607

 Free energy of the ion-electron system (eV)
  ---------------------------------------------------
  alpha Z        PSCENC =      2720.01059718
  Ewald energy   TEWEN  =    -29235.51897310
  -1/2 Hartree   DENC   =     -7181.43660783
  -V(xc)+E(xc)   XCENC  =      -370.45968420
  PAW double counting   =     27226.27488447   -25787.19510373
  entropy T*S    EENTRO =        -0.01495812
  eigenvalues    EBANDS =      -656.45792201
  atomic energy  EATOM  =     33197.16788402
  ---------------------------------------------------
  free energy    TOTEN  =       -87.62988333 eV

  energy without entropy =      -87.61492521  energy(sigma->0) =      -87.62489729


--------------------------------------------------------------------------------------------------------




----------------------------------------- Iteration    1(   3)  ---------------------------------------


    POTLOK:  VPU time    0.42: CPU time    0.42
    SETDIJ:  VPU time    0.49: CPU time    0.49
    EDDIAG:  VPU time   34.23: CPU time   34.24
  RMM-DIIS:  VPU time  198.17: CPU time  198.17
    ORTHCH:  VPU time    6.91: CPU time    6.91
    DOS   :  VPU time    0.00: CPU time   -0.00
    CHARGE:  VPU time   17.47: CPU time   17.47
    MIXING:  VPU time    0.01: CPU time    0.02
    ------------------------------------------
      LOOP:  VPU time  257.79: CPU time  257.80

 eigenvalue-minimisations  : 18223
 total energy-change (2. order) : 0.5726417E-02  (-0.1696136E-01)
 number of electron  352.0000010 magnetization 
 augmentation part   169.6049289 magnetization 

 Broyden mixing:
  rms(total) = 0.65007E-01    rms(broyden)= 0.65006E-01
  rms(prec ) = 0.75501E-01
  weight for this iteration     100.00

 eigenvalues of (default mixing * dielectric matrix)
  average eigenvalue GAMMA=   1.6231
  0.9628  2.2834

 Free energy of the ion-electron system (eV)
  ---------------------------------------------------
  alpha Z        PSCENC =      2720.01059718
  Ewald energy   TEWEN  =    -29235.51897310
  -1/2 Hartree   DENC   =     -7170.22520058
  -V(xc)+E(xc)   XCENC  =      -370.84238960
  PAW double counting   =     27319.80228218   -25880.76126427
  entropy T*S    EENTRO =        -0.01488417
  eigenvalues    EBANDS =      -667.24220856
  atomic energy  EATOM  =     33197.16788402
  ---------------------------------------------------
  free energy    TOTEN  =       -87.62415691 eV

  energy without entropy =      -87.60927274  energy(sigma->0) =      -87.61919552


--------------------------------------------------------------------------------------------------------




----------------------------------------- Iteration    1(   4)  ---------------------------------------


    POTLOK:  VPU time    0.49: CPU time    0.49
    SETDIJ:  VPU time    0.58: CPU time    0.58
    EDDIAG:  VPU time   41.10: CPU time   41.09
  RMM-DIIS:  VPU time  219.69: CPU time  219.65
    ORTHCH:  VPU time    7.12: CPU time    7.12
    DOS   :  VPU time    0.00: CPU time   -0.00
    CHARGE:  VPU time   17.71: CPU time   17.71
    MIXING:  VPU time    0.01: CPU time    0.01
    ------------------------------------------
      LOOP:  VPU time  286.78: CPU time  286.73

 eigenvalue-minimisations  : 18121
 total energy-change (2. order) :-0.9064301E-05  (-0.3901703E-02)
 number of electron  352.0000010 magnetization 
 augmentation part   169.7869138 magnetization 

 Broyden mixing:
  rms(total) = 0.19675E-01    rms(broyden)= 0.19675E-01
  rms(prec ) = 0.28179E-01
  weight for this iteration     100.00

 eigenvalues of (default mixing * dielectric matrix)
  average eigenvalue GAMMA=   1.5426
  2.4800  1.0739  1.0739

 Free energy of the ion-electron system (eV)
  ---------------------------------------------------
  alpha Z        PSCENC =      2720.01059718
  Ewald energy   TEWEN  =    -29235.51897310
  -1/2 Hartree   DENC   =     -7161.75292119
  -V(xc)+E(xc)   XCENC  =      -371.12242862
  PAW double counting   =     27458.56695664   -26019.73705222
  entropy T*S    EENTRO =        -0.01480366
  eigenvalues    EBANDS =      -675.22342502
  atomic energy  EATOM  =     33197.16788402
  ---------------------------------------------------
  free energy    TOTEN  =       -87.62416598 eV

  energy without entropy =      -87.60936231  energy(sigma->0) =      -87.61923142


--------------------------------------------------------------------------------------------------------




----------------------------------------- Iteration    1(   5)  ---------------------------------------


    POTLOK:  VPU time    0.49: CPU time    0.49
    SETDIJ:  VPU time    0.58: CPU time    0.58
    EDDIAG:  VPU time   41.13: CPU time   41.12
  RMM-DIIS:  VPU time  216.61: CPU time  216.57
    ORTHCH:  VPU time    6.76: CPU time    6.76
    DOS   :  VPU time    0.00: CPU time   -0.00
    CHARGE:  VPU time   15.89: CPU time   15.89
    MIXING:  VPU time    0.01: CPU time    0.01
    ------------------------------------------
      LOOP:  VPU time  281.55: CPU time  281.51

 eigenvalue-minimisations  : 18155
 total energy-change (2. order) : 0.7138055E-03  (-0.8961065E-03)
 number of electron  352.0000010 magnetization 
 augmentation part   169.6956665 magnetization 

 Broyden mixing:
  rms(total) = 0.57096E-02    rms(broyden)= 0.57093E-02
  rms(prec ) = 0.80075E-02
  weight for this iteration     100.00

 eigenvalues of (default mixing * dielectric matrix)
  average eigenvalue GAMMA=   1.4208
  2.5268  1.2794  0.9384  0.9384

 Free energy of the ion-electron system (eV)
  ---------------------------------------------------
  alpha Z        PSCENC =      2720.01059718
  Ewald energy   TEWEN  =    -29235.51897310
  -1/2 Hartree   DENC   =     -7166.44791687
  -V(xc)+E(xc)   XCENC  =      -370.94870723
  PAW double counting   =     27525.36358329   -26086.88040801
  entropy T*S    EENTRO =        -0.01484639
  eigenvalues    EBANDS =      -670.35466505
  atomic energy  EATOM  =     33197.16788402
  ---------------------------------------------------
  free energy    TOTEN  =       -87.62345217 eV

  energy without entropy =      -87.60860578  energy(sigma->0) =      -87.61850337


--------------------------------------------------------------------------------------------------------




----------------------------------------- Iteration    1(   6)  ---------------------------------------


    POTLOK:  VPU time    0.47: CPU time    0.47
    SETDIJ:  VPU time    0.57: CPU time    0.57
    EDDIAG:  VPU time   38.54: CPU time   38.53
  RMM-DIIS:  VPU time  219.89: CPU time  219.85
    ORTHCH:  VPU time    7.15: CPU time    7.15
    DOS   :  VPU time    0.00: CPU time   -0.00
    CHARGE:  VPU time   17.70: CPU time   17.70
    MIXING:  VPU time    0.01: CPU time    0.01
    ------------------------------------------
      LOOP:  VPU time  284.40: CPU time  284.35

 eigenvalue-minimisations  : 18524
 total energy-change (2. order) : 0.4995301E-04  (-0.1299238E-04)
 number of electron  352.0000010 magnetization 
 augmentation part   169.7015047 magnetization 

 Broyden mixing:
  rms(total) = 0.33796E-02    rms(broyden)= 0.33796E-02
  rms(prec ) = 0.46296E-02
  weight for this iteration     100.00

 eigenvalues of (default mixing * dielectric matrix)
  average eigenvalue GAMMA=   1.4632
  2.5659  1.8183  1.0178  1.0178  0.8960

 Free energy of the ion-electron system (eV)
  ---------------------------------------------------
  alpha Z        PSCENC =      2720.01059718
  Ewald energy   TEWEN  =    -29235.51897310
  -1/2 Hartree   DENC   =     -7166.11847047
  -V(xc)+E(xc)   XCENC  =      -370.95928479
  PAW double counting   =     27526.97326392   -26088.46572857
  entropy T*S    EENTRO =        -0.01484296
  eigenvalues    EBANDS =      -670.69784745
  atomic energy  EATOM  =     33197.16788402
  ---------------------------------------------------
  free energy    TOTEN  =       -87.62340222 eV

  energy without entropy =      -87.60855926  energy(sigma->0) =      -87.61845456


--------------------------------------------------------------------------------------------------------




----------------------------------------- Iteration    1(   7)  ---------------------------------------


    POTLOK:  VPU time    0.49: CPU time    0.49
    SETDIJ:  VPU time    0.57: CPU time    0.57
    EDDIAG:  VPU time   41.11: CPU time   41.10
  RMM-DIIS:  VPU time  244.20: CPU time  244.17
    ORTHCH:  VPU time    7.80: CPU time    7.80
    DOS   :  VPU time    0.00: CPU time   -0.00
    CHARGE:  VPU time   22.15: CPU time   22.15
    MIXING:  VPU time    0.01: CPU time    0.01
    ------------------------------------------
      LOOP:  VPU time  316.42: CPU time  316.38

 eigenvalue-minimisations  : 18257
 total energy-change (2. order) : 0.3367262E-04  (-0.1810207E-04)
 number of electron  352.0000010 magnetization 
 augmentation part   169.7142110 magnetization 

 Broyden mixing:
  rms(total) = 0.42542E-03    rms(broyden)= 0.42534E-03
  rms(prec ) = 0.64730E-03
  weight for this iteration     100.00

 eigenvalues of (default mixing * dielectric matrix)
  average eigenvalue GAMMA=   1.4993
  2.6224  1.9661  1.5842  0.9738  0.9738  0.8752

 Free energy of the ion-electron system (eV)
  ---------------------------------------------------
  alpha Z        PSCENC =      2720.01059718
  Ewald energy   TEWEN  =    -29235.51897310
  -1/2 Hartree   DENC   =     -7165.53873254
  -V(xc)+E(xc)   XCENC  =      -370.97904198
  PAW double counting   =     27526.19764678   -26087.65504734
  entropy T*S    EENTRO =        -0.01483717
  eigenvalues    EBANDS =      -671.29286439
  atomic energy  EATOM  =     33197.16788402
  ---------------------------------------------------
  free energy    TOTEN  =       -87.62336855 eV

  energy without entropy =      -87.60853138  energy(sigma->0) =      -87.61842282


--------------------------------------------------------------------------------------------------------




----------------------------------------- Iteration    1(   8)  ---------------------------------------


    POTLOK:  VPU time    0.58: CPU time    0.58
    SETDIJ:  VPU time    0.71: CPU time    0.71
    EDDIAG:  VPU time   48.80: CPU time   48.80
  RMM-DIIS:  VPU time  151.99: CPU time  151.97
    ORTHCH:  VPU time    7.71: CPU time    7.71
    DOS   :  VPU time    0.00: CPU time   -0.00
    ------------------------------------------
      LOOP:  VPU time  209.86: CPU time  209.84

 eigenvalue-minimisations  : 10220
 total energy-change (2. order) : 0.3539033E-05  (-0.3274819E-06)
 number of electron  352.0000010 magnetization 
 augmentation part   169.7142110 magnetization 

 Free energy of the ion-electron system (eV)
  ---------------------------------------------------
  alpha Z        PSCENC =      2720.01059718
  Ewald energy   TEWEN  =    -29235.51897310
  -1/2 Hartree   DENC   =     -7165.53214234
  -V(xc)+E(xc)   XCENC  =      -370.97899758
  PAW double counting   =     27525.67148026   -26087.12063436
  entropy T*S    EENTRO =        -0.01483683
  eigenvalues    EBANDS =      -671.30774225
  atomic energy  EATOM  =     33197.16788402
  ---------------------------------------------------
  free energy    TOTEN  =       -87.62336501 eV

  energy without entropy =      -87.60852818  energy(sigma->0) =      -87.61841940


--------------------------------------------------------------------------------------------------------




 average (electrostatic) potential at core
  the test charge radii are     1.1249
  (the norm of the test charge is              1.0000)
       1 -42.4441       2 -42.4458       3 -42.4458       4 -42.4441       5 -42.4440
       6 -42.4440       7 -42.4439       8 -42.4458       9 -42.4458      10 -42.4441
      11 -42.4440      12 -42.4441      13 -42.4440      14 -42.4440      15 -42.4423
      16 -42.4423      17 -42.4439      18 -42.4440      19 -42.4440      20 -42.4441
      21 -42.4440      22 -42.4440      23 -42.4423      24 -42.4423      25 -42.4439
      26 -42.4440      27 -42.4440      28 -42.4440      29 -42.4440      30 -42.4439
      31 -42.4440      32 -42.4440
 
 
 
 E-fermi :   1.9514     XC(G=0): -11.0402     alpha+bet : -6.9698
   add alpha+bet to get absolut eigen values

 k-point   1 :       0.0625    0.0625    0.0625
  band No.  band energies     occupation 
      1      -4.4658      2.00000
      2      -3.4034      2.00000
      3      -3.4033      2.00000
      4      -3.4033      2.00000
      5      -3.3983      2.00000
      6      -3.3896      2.00000
      7      -3.3896      2.00000
      8      -3.3896      2.00000
      9      -3.3315      2.00000
     10      -3.3314      2.00000
     11      -3.3314      2.00000
     12      -3.0639      2.00000
     13      -3.0622      2.00000
     14      -3.0607      2.00000
     15      -2.9988      2.00000
     16      -2.9976      2.00000
     17      -2.9963      2.00000
     18      -2.8874      2.00000
     19      -2.8864      2.00000
     20      -2.8855      2.00000
     21      -2.8706      2.00000
     22      -2.8683      2.00000
     23      -2.8682      2.00000
     24      -2.8682      2.00000
     25      -2.8681      2.00000
     26      -2.8659      2.00000
     27      -2.7862      2.00000
     28      -2.7852      2.00000
     29      -2.7842      2.00000
     30      -2.7005      2.00000
     31      -2.6994      2.00000
     32      -2.6982      2.00000
     33      -2.6738      2.00000
     34      -2.6730      2.00000
     35      -2.6720      2.00000
     36      -2.6646      2.00000
     37      -2.6640      2.00000
     38      -2.6631      2.00000
     39      -2.6629      2.00000
     40      -2.6622      2.00000
     41      -2.6615      2.00000
     42      -2.5534      2.00000
     43      -2.5533      2.00000
     44      -2.5524      2.00000
     45      -2.5523      2.00000
     46      -2.5513      2.00000
     47      -2.5512      2.00000
     48      -2.4931      2.00000
     49      -2.4915      2.00000
     50      -2.4913      2.00000
     51      -2.4902      2.00000
     52      -2.4900      2.00000
     53      -2.4892      2.00000
     54      -2.4885      2.00000
     55      -2.4883      2.00000
     56      -2.4874      2.00000
     57      -2.4507      2.00000
     58      -2.4497      2.00000
     59      -2.4485      2.00000
     60      -2.3420      2.00000
     61      -2.3419      2.00000
     62      -2.3408      2.00000
     63      -2.3408      2.00000
     64      -2.3398      2.00000
     65      -2.3397      2.00000
     66      -2.3127      2.00000
     67      -2.3127      2.00000
     68      -2.3126      2.00000
     69      -2.3018      2.00000
     70      -2.3018      2.00000
     71      -2.3010      2.00000
     72      -2.2948      2.00000
     73      -2.2948      2.00000
     74      -2.2947      2.00000
     75      -2.2901      2.00000
     76      -2.2900      2.00000
     77      -2.1724      2.00000
     78      -2.1712      2.00000
     79      -2.1706      2.00000
     80      -2.1706      2.00000
     81      -2.1701      2.00000
     82      -2.1690      2.00000
     83      -2.1509      2.00000
     84      -2.1503      2.00000
     85      -2.1496      2.00000
     86      -2.1146      2.00000
     87      -2.1137      2.00000
     88      -2.1126      2.00000
     89      -1.8572      2.00000
     90      -1.8567      2.00000
     91      -1.8563      2.00000
     92      -1.8111      2.00000
     93      -1.8100      2.00000
     94      -1.8090      2.00000
     95      -1.8014      2.00000
     96      -1.8008      2.00000
     97      -1.7998      2.00000
     98      -1.7993      2.00000
     99      -1.7993      2.00000
    100      -1.7986      2.00000
    101      -1.7981      2.00000
    102      -1.7972      2.00000
    103      -1.7971      2.00000
    104      -1.7526      2.00000
    105      -1.7516      2.00000
    106      -1.7507      2.00000
    107      -1.6567      2.00000
    108      -1.6554      2.00000
    109      -1.6540      2.00000
    110      -1.6210      2.00000
    111      -1.6195      2.00000
    112      -1.6184      2.00000
    113      -1.6139      2.00000
    114      -1.6128      2.00000
    115      -1.6114      2.00000
    116      -1.5808      2.00000
    117      -1.5808      2.00000
    118      -1.5437      2.00000
    119      -1.5423      2.00000
    120      -1.5421      2.00000
    121      -1.5421      2.00000
    122      -1.5419      2.00000
    123      -1.5405      2.00000
    124      -1.5338      2.00000
    125      -1.5328      2.00000
    126      -1.5320      2.00000
    127      -1.5317      2.00000
    128      -1.5310      2.00000
    129      -1.5299      2.00000
    130      -1.4877      2.00000
    131      -1.4862      2.00000
    132      -1.4846      2.00000
    133      -1.4785      2.00000
    134      -1.4777      2.00000
    135      -1.4771      2.00000
    136      -1.3390      2.00000
    137      -1.3383      2.00000
    138      -1.3376      2.00000
    139      -1.2838      2.00000
    140      -1.2834      2.00000
    141      -1.2831      2.00000
    142      -1.1194      2.00000
    143      -1.1181      2.00000
    144      -1.1167      2.00000
    145      -1.0617      2.00000
    146      -1.0614      2.00000
    147      -1.0612      2.00000
    148      -1.0561      2.00000
    149      -1.0560      2.00000
    150      -1.0559      2.00000
    151      -1.0331      2.00000
    152      -1.0331      2.00000
    153      -1.0220      2.00000
    154      -1.0220      2.00000
    155      -1.0219      2.00000
    156      -0.9044      2.00000
    157      -0.9043      2.00000
    158      -0.9043      2.00000
    159      -0.8882      2.00000
    160      -0.8881      2.00000
    161      -0.8879      2.00000
    162      -0.8879      2.00000
    163      -0.8879      2.00000
    164      -0.8877      2.00000
    165      -0.8861      2.00000
    166      -0.8860      2.00000
    167      -0.8859      2.00000
    168       0.7418      2.00000
    169       0.7432      2.00000
    170       0.7446      2.00000
    171       1.2681      2.00002
    172       1.2687      2.00002
    173       1.2701      2.00002
    174       1.2701      2.00002
    175       1.2716      2.00002
    176       1.2722      2.00002
    177       1.7658      2.03195
    178       1.8093      1.92691
    179       1.8107      1.92217
    180       1.8121      1.91736
    181       2.0429      0.30843
    182       2.0430      0.30780
    183       2.0431      0.30731
    184       3.6558     -0.00000
    185       3.6561     -0.00000
    186       3.6565     -0.00000
    187       4.5687     -0.00000
    188       4.5690     -0.00000
    189       4.5693     -0.00000
    190       4.8227     -0.00000
    191       6.6413     -0.00000
    192       6.6419     -0.00000
    193       6.6434     -0.00000
    194       6.6435     -0.00000
    195       6.6450     -0.00000
    196       6.6456     -0.00000
    197       7.2348     -0.00000
    198       7.2350     -0.00000
    199       7.2370     -0.00000
    200       7.2370     -0.00000
    201       7.2390     -0.00000
    202       7.2390     -0.00000
    203       7.3273     -0.00000
    204       7.3275     -0.00000
    205       7.3278     -0.00000
    206       7.9738      0.00000
    207       7.9747      0.00000
    208       7.9751      0.00000
    209       7.9756      0.00000
    210       7.9764      0.00000
    211       8.9968      0.00000
    212       9.3900      0.00000

 k-point   2 :       0.1875    0.0625    0.0625
  band No.  band energies     occupation 
      1      -4.3964      2.00000
      2      -3.3785      2.00000
      3      -3.3765      2.00000
      4      -3.3725      2.00000
      5      -3.3724      2.00000
      6      -3.3594      2.00000
      7      -3.3594      2.00000
      8      -3.3511      2.00000
      9      -3.3131      2.00000
     10      -3.3018      2.00000
     11      -3.3018      2.00000
     12      -3.2518      2.00000
     13      -3.0263      2.00000
     14      -3.0230      2.00000
     15      -3.0227      2.00000
     16      -2.9839      2.00000
     17      -2.9627      2.00000
     18      -2.9627      2.00000
     19      -2.9252      2.00000
     20      -2.9252      2.00000
     21      -2.8633      2.00000
     22      -2.8632      2.00000
     23      -2.8518      2.00000
     24      -2.8518      2.00000
     25      -2.8429      2.00000
     26      -2.8429      2.00000
     27      -2.8350      2.00000
     28      -2.8070      2.00000
     29      -2.8070      2.00000
     30      -2.8020      2.00000
     31      -2.7672      2.00000
     32      -2.7672      2.00000
     33      -2.7398      2.00000
     34      -2.7398      2.00000
     35      -2.7315      2.00000
     36      -2.7314      2.00000
     37      -2.6884      2.00000
     38      -2.6884      2.00000
     39      -2.6841      2.00000
     40      -2.6561      2.00000
     41      -2.6561      2.00000
     42      -2.6521      2.00000
     43      -2.6520      2.00000
     44      -2.5508      2.00000
     45      -2.5508      2.00000
     46      -2.5502      2.00000
     47      -2.5502      2.00000
     48      -2.5031      2.00000
     49      -2.5021      2.00000
     50      -2.5007      2.00000
     51      -2.4998      2.00000
     52      -2.4988      2.00000
     53      -2.4987      2.00000
     54      -2.4534      2.00000
     55      -2.4410      2.00000
     56      -2.4410      2.00000
     57      -2.4192      2.00000
     58      -2.4191      2.00000
     59      -2.4069      2.00000
     60      -2.3551      2.00000
     61      -2.3551      2.00000
     62      -2.3377      2.00000
     63      -2.3377      2.00000
     64      -2.3317      2.00000
     65      -2.3226      2.00000
     66      -2.3226      2.00000
     67      -2.3205      2.00000
     68      -2.2998      2.00000
     69      -2.2873      2.00000
     70      -2.2719      2.00000
     71      -2.2719      2.00000
     72      -2.2705      2.00000
     73      -2.2696      2.00000
     74      -2.2695      2.00000
     75      -2.2690      2.00000
     76      -2.2665      2.00000
     77      -2.2650      2.00000
     78      -2.2650      2.00000
     79      -2.2123      2.00000
     80      -2.2122      2.00000
     81      -2.1600      2.00000
     82      -2.1600      2.00000
     83      -2.1113      2.00000
     84      -2.1113      2.00000
     85      -2.0486      2.00000
     86      -2.0486      2.00000
     87      -2.0108      2.00000
     88      -1.9891      2.00000
     89      -1.9399      2.00000
     90      -1.9288      2.00000
     91      -1.9288      2.00000
     92      -1.9108      2.00000
     93      -1.8819      2.00000
     94      -1.8758      2.00000
     95      -1.8692      2.00000
     96      -1.8691      2.00000
     97      -1.8247      2.00000
     98      -1.8247      2.00000
     99      -1.8030      2.00000
    100      -1.8029      2.00000
    101      -1.7591      2.00000
    102      -1.7591      2.00000
    103      -1.7532      2.00000
    104      -1.7531      2.00000
    105      -1.7282      2.00000
    106      -1.7282      2.00000
    107      -1.7123      2.00000
    108      -1.7122      2.00000
    109      -1.6896      2.00000
    110      -1.6604      2.00000
    111      -1.6604      2.00000
    112      -1.6281      2.00000
    113      -1.6280      2.00000
    114      -1.6019      2.00000
    115      -1.5707      2.00000
    116      -1.5553      2.00000
    117      -1.5553      2.00000
    118      -1.5470      2.00000
    119      -1.5469      2.00000
    120      -1.5404      2.00000
    121      -1.5403      2.00000
    122      -1.5222      2.00000
    123      -1.5046      2.00000
    124      -1.4899      2.00000
    125      -1.4899      2.00000
    126      -1.4842      2.00000
    127      -1.4456      2.00000
    128      -1.4456      2.00000
    129      -1.4300      2.00000
    130      -1.4299      2.00000
    131      -1.4107      2.00000
    132      -1.4107      2.00000
    133      -1.4054      2.00000
    134      -1.3989      2.00000
    135      -1.3988      2.00000
    136      -1.3912      2.00000
    137      -1.2880      2.00000
    138      -1.2880      2.00000
    139      -1.2540      2.00000
    140      -1.2540      2.00000
    141      -1.2283      2.00000
    142      -1.1468      2.00000
    143      -1.1365      2.00000
    144      -1.1365      2.00000
    145      -1.0861      2.00000
    146      -1.0861      2.00000
    147      -1.0714      2.00000
    148      -1.0695      2.00000
    149      -1.0692      2.00000
    150      -1.0365      2.00000
    151      -1.0347      2.00000
    152      -1.0347      2.00000
    153      -0.9925      2.00000
    154      -0.9925      2.00000
    155      -0.9399      2.00000
    156      -0.9358      2.00000
    157      -0.9357      2.00000
    158      -0.9255      2.00000
    159      -0.9255      2.00000
    160      -0.9249      2.00000
    161      -0.9249      2.00000
    162      -0.9181      2.00000
    163      -0.8887      2.00000
    164      -0.8880      2.00000
    165      -0.8879      2.00000
    166      -0.8872      2.00000
    167      -0.5911      2.00000
    168       0.2836      2.00000
    169       0.2836      2.00000
    170       0.7644      2.00000
    171       0.7890      2.00000
    172       0.7891      2.00000
    173       1.3006      2.00004
    174       1.3007      2.00004
    175       1.4684      2.00336
    176       1.8465      1.76639
    177       1.8681      1.64195
    178       1.8681      1.64162
    179       1.9259      1.21435
    180       1.9259      1.21429
    181       2.2066     -0.07016
    182       2.4153     -0.00499
    183       2.4153     -0.00499
    184       3.1228     -0.00000
    185       3.8076     -0.00000
    186       3.8076     -0.00000
    187       4.5933     -0.00000
    188       4.8550     -0.00000
    189       4.8551     -0.00000
    190       5.2699     -0.00000
    191       5.8159     -0.00000
    192       5.8159     -0.00000
    193       6.0554     -0.00000
    194       6.0554     -0.00000
    195       6.3462     -0.00000
    196       6.3462     -0.00000
    197       6.7676     -0.00000
    198       6.7676     -0.00000
    199       7.3462     -0.00000
    200       7.3462     -0.00000
    201       7.3571     -0.00000
    202       7.3571     -0.00000
    203       7.5948      0.00000
    204       7.5949      0.00000
    205       7.9658      0.00000
    206       7.9808      0.00000
    207       8.1574      0.00000
    208       8.1938      0.00000
    209       8.2866      0.00000
    210       8.3070      0.00000
    211       8.4521      0.00000
    212       8.4663      0.00000

 k-point   3 :       0.3125    0.0625    0.0625
  band No.  band energies     occupation 
      1      -4.2597      2.00000
      2      -3.5240      2.00000
      3      -3.3305      2.00000
      4      -3.3242      2.00000
      5      -3.3130      2.00000
      6      -3.3130      2.00000
      7      -3.2997      2.00000
      8      -3.2996      2.00000
      9      -3.2839      2.00000
     10      -3.2769      2.00000
     11      -3.2428      2.00000
     12      -3.2428      2.00000
     13      -3.0979      2.00000
     14      -3.0745      2.00000
     15      -3.0200      2.00000
     16      -3.0200      2.00000
     17      -2.9934      2.00000
     18      -2.9596      2.00000
     19      -2.9595      2.00000
     20      -2.9512      2.00000
     21      -2.9512      2.00000
     22      -2.9393      2.00000
     23      -2.9036      2.00000
     24      -2.9033      2.00000
     25      -2.9020      2.00000
     26      -2.9017      2.00000
     27      -2.8246      2.00000
     28      -2.8246      2.00000
     29      -2.8109      2.00000
     30      -2.8109      2.00000
     31      -2.7948      2.00000
     32      -2.7947      2.00000
     33      -2.7549      2.00000
     34      -2.7548      2.00000
     35      -2.7306      2.00000
     36      -2.7304      2.00000
     37      -2.7221      2.00000
     38      -2.7219      2.00000
     39      -2.7026      2.00000
     40      -2.7026      2.00000
     41      -2.6450      2.00000
     42      -2.6450      2.00000
     43      -2.5874      2.00000
     44      -2.5491      2.00000
     45      -2.5490      2.00000
     46      -2.5399      2.00000
     47      -2.5398      2.00000
     48      -2.5305      2.00000
     49      -2.5296      2.00000
     50      -2.5282      2.00000
     51      -2.5272      2.00000
     52      -2.4942      2.00000
     53      -2.4942      2.00000
     54      -2.4398      2.00000
     55      -2.4185      2.00000
     56      -2.4185      2.00000
     57      -2.4109      2.00000
     58      -2.4109      2.00000
     59      -2.3762      2.00000
     60      -2.3761      2.00000
     61      -2.3644      2.00000
     62      -2.3622      2.00000
     63      -2.3574      2.00000
     64      -2.3456      2.00000
     65      -2.3455      2.00000
     66      -2.3433      2.00000
     67      -2.3433      2.00000
     68      -2.3390      2.00000
     69      -2.3390      2.00000
     70      -2.3325      2.00000
     71      -2.3325      2.00000
     72      -2.3061      2.00000
     73      -2.2834      2.00000
     74      -2.2834      2.00000
     75      -2.2516      2.00000
     76      -2.2316      2.00000
     77      -2.2314      2.00000
     78      -2.2287      2.00000
     79      -2.2285      2.00000
     80      -2.2281      2.00000
     81      -2.2274      2.00000
     82      -2.2179      2.00000
     83      -2.0623      2.00000
     84      -2.0623      2.00000
     85      -2.0352      2.00000
     86      -2.0083      2.00000
     87      -2.0083      2.00000
     88      -1.9974      2.00000
     89      -1.9882      2.00000
     90      -1.9772      2.00000
     91      -1.9772      2.00000
     92      -1.9759      2.00000
     93      -1.8682      2.00000
     94      -1.8682      2.00000
     95      -1.8244      2.00000
     96      -1.8146      2.00000
     97      -1.8145      2.00000
     98      -1.7865      2.00000
     99      -1.7768      2.00000
    100      -1.7767      2.00000
    101      -1.7631      2.00000
    102      -1.7630      2.00000
    103      -1.7600      2.00000
    104      -1.6833      2.00000
    105      -1.6833      2.00000
    106      -1.6683      2.00000
    107      -1.6683      2.00000
    108      -1.6494      2.00000
    109      -1.6494      2.00000
    110      -1.6415      2.00000
    111      -1.6377      2.00000
    112      -1.6376      2.00000
    113      -1.6327      2.00000
    114      -1.6327      2.00000
    115      -1.5597      2.00000
    116      -1.5597      2.00000
    117      -1.5508      2.00000
    118      -1.5419      2.00000
    119      -1.5418      2.00000
    120      -1.5322      2.00000
    121      -1.5322      2.00000
    122      -1.4412      2.00000
    123      -1.4412      2.00000
    124      -1.4407      2.00000
    125      -1.4128      2.00000
    126      -1.4037      2.00000
    127      -1.4037      2.00000
    128      -1.3592      2.00000
    129      -1.3527      2.00000
    130      -1.3396      2.00000
    131      -1.3395      2.00000
    132      -1.3274      2.00000
    133      -1.3274      2.00000
    134      -1.3166      2.00000
    135      -1.3166      2.00000
    136      -1.3106      2.00000
    137      -1.3016      2.00000
    138      -1.3016      2.00000
    139      -1.2778      2.00000
    140      -1.2614      2.00000
    141      -1.2614      2.00000
    142      -1.1798      2.00000
    143      -1.1750      2.00000
    144      -1.1746      2.00000
    145      -1.1731      2.00000
    146      -1.1292      2.00000
    147      -1.1246      2.00000
    148      -1.1246      2.00000
    149      -1.0974      2.00000
    150      -1.0783      2.00000
    151      -1.0783      2.00000
    152      -1.0759      2.00000
    153      -1.0334      2.00000
    154      -1.0334      2.00000
    155      -1.0083      2.00000
    156      -0.9956      2.00000
    157      -0.9956      2.00000
    158      -0.9947      2.00000
    159      -0.9947      2.00000
    160      -0.9774      2.00000
    161      -0.8889      2.00000
    162      -0.8882      2.00000
    163      -0.8881      2.00000
    164      -0.8873      2.00000
    165      -0.6708      2.00000
    166      -0.6708      2.00000
    167      -0.1155      2.00000
    168      -0.1155      2.00000
    169       0.0523      2.00000
    170       0.3609      2.00000
    171       0.3609      2.00000
    172       0.8111      2.00000
    173       1.2129      2.00000
    174       1.3634      2.00026
    175       1.3634      2.00026
    176       1.7576      2.04319
    177       1.7577      2.04315
    178       1.9167      1.28876
    179       2.2150     -0.06856
    180       2.3648     -0.01281
    181       2.5373     -0.00028
    182       2.5373     -0.00028
    183       3.0858     -0.00000
    184       3.0858     -0.00000
    185       4.0922     -0.00000
    186       4.0922     -0.00000
    187       4.9260     -0.00000
    188       4.9298     -0.00000
    189       4.9300     -0.00000
    190       5.3552     -0.00000
    191       5.3553     -0.00000
    192       5.4682     -0.00000
    193       5.4682     -0.00000
    194       5.4847     -0.00000
    195       5.4847     -0.00000
    196       5.8511     -0.00000
    197       6.9499     -0.00000
    198       6.9499     -0.00000
    199       7.0547     -0.00000
    200       7.3841     -0.00000
    201       7.3841     -0.00000
    202       7.5443      0.00000
    203       7.5443      0.00000
    204       7.5933      0.00000
    205       7.5934      0.00000
    206       7.5961      0.00000
    207       7.5963      0.00000
    208       7.9805      0.00000
    209       7.9840      0.00000
    210       8.1545      0.00000
    211       8.4661      0.00000
    212       8.4994      0.00000

 k-point   4 :       0.4375    0.0625    0.0625
  band No.  band energies     occupation 
      1      -4.0603      2.00000
      2      -3.8081      2.00000
      3      -3.2631      2.00000
      4      -3.2419      2.00000
      5      -3.2293      2.00000
      6      -3.2293      2.00000
      7      -3.2240      2.00000
      8      -3.2115      2.00000
      9      -3.2115      2.00000
     10      -3.1903      2.00000
     11      -3.1823      2.00000
     12      -3.1557      2.00000
     13      -3.1553      2.00000
     14      -3.1552      2.00000
     15      -3.1307      2.00000
     16      -3.1277      2.00000
     17      -3.1277      2.00000
     18      -3.0968      2.00000
     19      -3.0968      2.00000
     20      -3.0733      2.00000
     21      -3.0412      2.00000
     22      -3.0412      2.00000
     23      -2.8625      2.00000
     24      -2.8625      2.00000
     25      -2.8353      2.00000
     26      -2.8353      2.00000
     27      -2.7966      2.00000
     28      -2.7965      2.00000
     29      -2.7808      2.00000
     30      -2.7807      2.00000
     31      -2.7742      2.00000
     32      -2.7741      2.00000
     33      -2.7680      2.00000
     34      -2.7680      2.00000
     35      -2.7308      2.00000
     36      -2.7307      2.00000
     37      -2.7201      2.00000
     38      -2.7201      2.00000
     39      -2.6723      2.00000
     40      -2.6722      2.00000
     41      -2.6690      2.00000
     42      -2.6689      2.00000
     43      -2.5994      2.00000
     44      -2.5994      2.00000
     45      -2.5952      2.00000
     46      -2.5951      2.00000
     47      -2.5518      2.00000
     48      -2.5515      2.00000
     49      -2.5501      2.00000
     50      -2.5498      2.00000
     51      -2.5103      2.00000
     52      -2.5103      2.00000
     53      -2.4989      2.00000
     54      -2.4605      2.00000
     55      -2.4605      2.00000
     56      -2.4228      2.00000
     57      -2.4155      2.00000
     58      -2.3907      2.00000
     59      -2.3906      2.00000
     60      -2.3865      2.00000
     61      -2.3850      2.00000
     62      -2.3849      2.00000
     63      -2.3837      2.00000
     64      -2.3837      2.00000
     65      -2.3606      2.00000
     66      -2.3606      2.00000
     67      -2.3385      2.00000
     68      -2.3265      2.00000
     69      -2.3264      2.00000
     70      -2.3194      2.00000
     71      -2.3164      2.00000
     72      -2.3162      2.00000
     73      -2.2718      2.00000
     74      -2.2717      2.00000
     75      -2.2359      2.00000
     76      -2.2358      2.00000
     77      -2.1961      2.00000
     78      -2.1708      2.00000
     79      -2.1707      2.00000
     80      -2.1666      2.00000
     81      -2.1666      2.00000
     82      -2.1657      2.00000
     83      -2.1656      2.00000
     84      -2.1509      2.00000
     85      -2.1376      2.00000
     86      -2.1376      2.00000
     87      -2.1227      2.00000
     88      -2.0894      2.00000
     89      -2.0894      2.00000
     90      -2.0861      2.00000
     91      -2.0855      2.00000
     92      -2.0686      2.00000
     93      -1.7678      2.00000
     94      -1.7677      2.00000
     95      -1.7661      2.00000
     96      -1.7661      2.00000
     97      -1.7425      2.00000
     98      -1.6929      2.00000
     99      -1.6467      2.00000
    100      -1.6467      2.00000
    101      -1.6385      2.00000
    102      -1.6385      2.00000
    103      -1.6292      2.00000
    104      -1.6252      2.00000
    105      -1.6252      2.00000
    106      -1.6207      2.00000
    107      -1.6204      2.00000
    108      -1.6200      2.00000
    109      -1.6197      2.00000
    110      -1.5851      2.00000
    111      -1.5851      2.00000
    112      -1.5841      2.00000
    113      -1.5841      2.00000
    114      -1.5792      2.00000
    115      -1.5792      2.00000
    116      -1.5616      2.00000
    117      -1.5543      2.00000
    118      -1.5542      2.00000
    119      -1.5218      2.00000
    120      -1.5026      2.00000
    121      -1.5026      2.00000
    122      -1.4846      2.00000
    123      -1.4637      2.00000
    124      -1.4637      2.00000
    125      -1.4426      2.00000
    126      -1.4274      2.00000
    127      -1.4274      2.00000
    128      -1.3888      2.00000
    129      -1.3888      2.00000
    130      -1.3811      2.00000
    131      -1.3811      2.00000
    132      -1.3501      2.00000
    133      -1.3058      2.00000
    134      -1.3051      2.00000
    135      -1.3051      2.00000
    136      -1.2372      2.00000
    137      -1.2371      2.00000
    138      -1.2351      2.00000
    139      -1.2241      2.00000
    140      -1.2180      2.00000
    141      -1.2106      2.00000
    142      -1.2105      2.00000
    143      -1.2095      2.00000
    144      -1.2002      2.00000
    145      -1.2002      2.00000
    146      -1.1950      2.00000
    147      -1.1949      2.00000
    148      -1.1483      2.00000
    149      -1.1477      2.00000
    150      -1.1475      2.00000
    151      -1.1377      2.00000
    152      -1.1170      2.00000
    153      -1.1051      2.00000
    154      -1.0897      2.00000
    155      -1.0897      2.00000
    156      -1.0891      2.00000
    157      -1.0890      2.00000
    158      -1.0509      2.00000
    159      -0.8890      2.00000
    160      -0.8882      2.00000
    161      -0.8881      2.00000
    162      -0.8873      2.00000
    163      -0.7670      2.00000
    164      -0.7670      2.00000
    165      -0.4629      2.00000
    166      -0.4629      2.00000
    167      -0.3643      2.00000
    168      -0.3643      2.00000
    169      -0.0214      2.00000
    170      -0.0214      2.00000
    171       0.7781      2.00000
    172       0.8925      2.00000
    173       1.0219      2.00000
    174       1.4609      2.00286
    175       1.4610      2.00286
    176       1.5601      2.01836
    177       1.5945      2.03005
    178       1.5946      2.03008
    179       2.0155      0.48747
    180       2.1275     -0.01579
    181       3.2749     -0.00000
    182       3.2749     -0.00000
    183       3.8213     -0.00000
    184       3.8214     -0.00000
    185       4.0756     -0.00000
    186       4.0756     -0.00000
    187       4.4830     -0.00000
    188       4.4830     -0.00000
    189       4.6183     -0.00000
    190       4.6183     -0.00000
    191       4.9544     -0.00000
    192       4.9544     -0.00000
    193       5.4971     -0.00000
    194       6.0025     -0.00000
    195       6.0026     -0.00000
    196       6.2230     -0.00000
    197       6.5346     -0.00000
    198       6.7569     -0.00000
    199       6.7569     -0.00000
    200       7.2245     -0.00000
    201       7.2246     -0.00000
    202       7.3029     -0.00000
    203       7.4413      0.00000
    204       7.4413      0.00000
    205       7.5156      0.00000
    206       7.5157      0.00000
    207       7.5724      0.00000
    208       7.5724      0.00000
    209       7.8093      0.00000
    210       7.8094      0.00000
    211       8.1441      0.00000
    212       8.1478      0.00000

 k-point   5 :       0.0625    0.1875    0.0625
  band No.  band energies     occupation 
      1      -4.3964      2.00000
      2      -3.3785      2.00000
      3      -3.3765      2.00000
      4      -3.3725      2.00000
      5      -3.3724      2.00000
      6      -3.3595      2.00000
      7      -3.3594      2.00000
      8      -3.3511      2.00000
      9      -3.3131      2.00000
     10      -3.3019      2.00000
     11      -3.3018      2.00000
     12      -3.2518      2.00000
     13      -3.0262      2.00000
     14      -3.0240      2.00000
     15      -3.0219      2.00000
     16      -2.9839      2.00000
     17      -2.9636      2.00000
     18      -2.9618      2.00000
     19      -2.9253      2.00000
     20      -2.9251      2.00000
     21      -2.8639      2.00000
     22      -2.8626      2.00000
     23      -2.8526      2.00000
     24      -2.8511      2.00000
     25      -2.8437      2.00000
     26      -2.8419      2.00000
     27      -2.8350      2.00000
     28      -2.8071      2.00000
     29      -2.8068      2.00000
     30      -2.8020      2.00000
     31      -2.7679      2.00000
     32      -2.7665      2.00000
     33      -2.7401      2.00000
     34      -2.7398      2.00000
     35      -2.7321      2.00000
     36      -2.7306      2.00000
     37      -2.6891      2.00000
     38      -2.6878      2.00000
     39      -2.6841      2.00000
     40      -2.6571      2.00000
     41      -2.6551      2.00000
     42      -2.6526      2.00000
     43      -2.6513      2.00000
     44      -2.5515      2.00000
     45      -2.5508      2.00000
[...]
    108      -1.7279      2.00000
    109      -1.7269      2.00000
    110      -1.7265      2.00000
    111      -1.7265      2.00000
    112      -1.7262      2.00000
    113      -1.7260      2.00000
    114      -1.7251      2.00000
    115      -1.7240      2.00000
    116      -1.6737      2.00000
    117      -1.6722      2.00000
    118      -1.6707      2.00000
    119      -1.6324      2.00000
    120      -1.6322      2.00000
    121      -1.6313      2.00000
    122      -1.6312      2.00000
    123      -1.6303      2.00000
    124      -1.6301      2.00000
    125      -1.6162      2.00000
    126      -1.5718      2.00000
    127      -1.5717      2.00000
    128      -1.5717      2.00000
    129      -1.5398      2.00000
    130      -1.5397      2.00000
    131      -1.5230      2.00000
    132      -1.5220      2.00000
    133      -1.5209      2.00000
    134      -1.5158      2.00000
    135      -1.5145      2.00000
    136      -1.5133      2.00000
    137      -1.4534      2.00000
    138      -1.4523      2.00000
    139      -1.4512      2.00000
    140      -1.4107      2.00000
    141      -1.4107      2.00000
    142      -1.3586      2.00000
    143      -1.3577      2.00000
    144      -1.3568      2.00000
    145      -1.0076      2.00000
    146      -1.0074      2.00000
    147      -1.0071      2.00000
    148      -0.9944      2.00000
    149      -0.9938      2.00000
    150      -0.9937      2.00000
    151      -0.9936      2.00000
    152      -0.9935      2.00000
    153      -0.9935      2.00000
    154      -0.9934      2.00000
    155      -0.9933      2.00000
    156      -0.9933      2.00000
    157      -0.9932      2.00000
    158      -0.9930      2.00000
    159      -0.9925      2.00000
    160      -0.9917      2.00000
    161      -0.9917      2.00000
    162      -0.9914      2.00000
    163      -0.9822      2.00000
    164      -0.9820      2.00000
    165      -0.9818      2.00000
    166      -0.9746      2.00000
    167      -0.9745      2.00000
    168      -0.9743      2.00000
    169       2.0266      0.41109
    170       2.0282      0.40049
    171       2.0297      0.39029
    172       2.3423     -0.01848
    173       2.3439     -0.01803
    174       2.3452     -0.01766
    175       2.3452     -0.01766
    176       2.3465     -0.01730
    177       2.3481     -0.01686
    178       2.6281     -0.00002
    179       2.6287     -0.00002
    180       2.6293     -0.00002
    181       2.8405     -0.00000
    182       2.8413     -0.00000
    183       2.8420     -0.00000
    184       3.1703     -0.00000
    185       3.1722     -0.00000
    186       3.1734     -0.00000
    187       3.1734     -0.00000
    188       3.1746     -0.00000
    189       3.1765     -0.00000
    190       3.4726     -0.00000
    191       3.4742     -0.00000
    192       3.4758     -0.00000
    193       6.2566     -0.00000
    194       6.2574     -0.00000
    195       6.2580     -0.00000
    196       6.5818     -0.00000
    197       6.5827     -0.00000
    198       6.5835     -0.00000
    199       7.0050     -0.00000
    200       7.0053     -0.00000
    201       7.0073     -0.00000
    202       7.0074     -0.00000
    203       7.0094     -0.00000
    204       7.0096     -0.00000
    205       7.3372     -0.00000
    206       7.3377     -0.00000
    207       7.3393     -0.00000
    208       7.3401     -0.00000
    209       7.3414     -0.00000
    210       7.3421     -0.00000
    211       7.7482      0.00000
    212       8.0298      0.00000


--------------------------------------------------------------------------------------------------------


 soft charge-density along one line, spin component           1
         0         1         2         3         4         5         6         7         8         9
 total charge-density along one line
 
 pseudopotential strength for first ion, spin component:           1
-12.630   0.000   0.000   0.000   0.000   0.218  -0.000  -0.000
  0.000 -12.630   0.000   0.000  -0.000  -0.000   0.218  -0.000
  0.000   0.000 -12.623   0.000  -0.000  -0.000  -0.000   0.217
  0.000   0.000   0.000 -12.630   0.000  -0.000  -0.000  -0.000
  0.000  -0.000  -0.000   0.000 -12.623  -0.000   0.000   0.000
  0.218  -0.000  -0.000  -0.000  -0.000   0.441   0.000   0.000
 -0.000   0.218  -0.000  -0.000   0.000   0.000   0.441   0.000
 -0.000  -0.000   0.217  -0.000   0.000   0.000   0.000   0.441
 -0.000  -0.000  -0.000   0.218  -0.000   0.000   0.000   0.000
 -0.000   0.000   0.000  -0.000   0.217   0.000  -0.000  -0.000
 -0.000  -0.000   0.000  -0.000  -0.000   0.000   0.000  -0.000
 -0.000   0.000  -0.000   0.000   0.000   0.000  -0.000   0.000
  0.000  -0.000   0.000   0.000   0.000  -0.000   0.000  -0.000
  0.000  -0.000  -0.000   0.000   0.000  -0.000   0.000   0.000
 -0.000   0.000  -0.000  -0.000   0.000   0.000  -0.000   0.000
 -0.000   0.000  -0.000  -0.000  -0.000   0.000  -0.000   0.000
 -0.000   0.000   0.000  -0.000  -0.000   0.000  -0.000  -0.000
  0.000  -0.000   0.000   0.000  -0.000  -0.000   0.000  -0.000
 total augmentation occupancy for first ion, spin component:           1
  1.944   0.000  -0.001  -0.000  -0.000  -0.036  -0.000  -0.000  -0.000   0.000   0.004  -0.001   0.000  -0.000   0.000   0.000
  0.000   1.946  -0.001  -0.000  -0.001  -0.000  -0.038   0.001   0.000   0.000   0.003  -0.001  -0.000   0.000   0.000   0.000
 -0.001  -0.001   1.968  -0.001  -0.002  -0.000   0.001  -0.059   0.001   0.001   0.011   0.001   0.000  -0.000   0.000   0.000
 -0.000  -0.000  -0.001   1.948  -0.000  -0.000   0.000   0.001  -0.040   0.001   0.002  -0.001  -0.000   0.000  -0.000   0.000
 -0.000  -0.001  -0.002  -0.000   1.962   0.000   0.000   0.001   0.001  -0.055   0.006   0.000  -0.000  -0.000   0.000   0.000
 -0.036  -0.000  -0.000  -0.000   0.000   0.047   0.000   0.001   0.000  -0.000  -0.002   0.001   0.000   0.000  -0.000  -0.000
 -0.000  -0.038   0.001   0.000   0.000   0.000   0.049  -0.001  -0.000   0.001  -0.000   0.001  -0.000  -0.000  -0.000  -0.000
 -0.000   0.001  -0.059   0.001   0.001   0.001  -0.001   0.041  -0.001  -0.001  -0.008   0.000  -0.000   0.000  -0.000   0.000
 -0.000   0.000   0.001  -0.040   0.001   0.000  -0.000  -0.001   0.050  -0.001   0.001   0.001   0.000  -0.000   0.000  -0.000
  0.000   0.000   0.001   0.001  -0.055  -0.000   0.001  -0.001  -0.001   0.039  -0.005   0.000   0.000   0.000   0.000  -0.000
  0.004   0.003   0.011   0.002   0.006  -0.002  -0.000  -0.008   0.001  -0.005   0.945  -0.278   0.000   0.000  -0.000  -0.000
 -0.001  -0.001   0.001  -0.001   0.000   0.001   0.001   0.000   0.001   0.000  -0.278   0.126  -0.000  -0.000   0.000   0.000
  0.000  -0.000   0.000  -0.000  -0.000   0.000  -0.000  -0.000   0.000   0.000   0.000  -0.000   0.076   0.001   0.002  -0.004
 -0.000   0.000  -0.000   0.000  -0.000   0.000  -0.000   0.000  -0.000   0.000   0.000  -0.000   0.001   0.080  -0.001  -0.000
  0.000   0.000   0.000  -0.000   0.000  -0.000  -0.000  -0.000   0.000   0.000  -0.000   0.000   0.002  -0.001   0.078  -0.000
  0.000   0.000   0.000   0.000   0.000  -0.000  -0.000   0.000  -0.000  -0.000  -0.000   0.000  -0.004  -0.000  -0.000   0.000
  0.000  -0.000   0.000   0.000   0.000  -0.000   0.000  -0.000  -0.000  -0.000  -0.000  -0.000  -0.000  -0.004  -0.000   0.000
 -0.000  -0.000  -0.000  -0.000   0.000   0.000   0.000   0.000   0.000  -0.000   0.000  -0.000  -0.000  -0.000  -0.004   0.000


------------------------ aborting loop because EDIFF is reached ----------------------------------------




--------------------------------------------------------------------------------------------------------


    CHARGE:  VPU time   20.42: CPU time   20.42
    FORLOC:  VPU time    0.10: CPU time    0.10
    FORNL :  VPU time  145.77: CPU time  145.75
    STRESS:  VPU time  276.83: CPU time  276.93
    FORCOR:  VPU time    0.65: CPU time    0.65
    FORHAR:  VPU time    0.23: CPU time    0.23
    MIXING:  VPU time    0.01: CPU time    0.01


--------------------------------------------------------------------------------------------------------



  FREE ENERGIE OF THE ION-ELECTRON SYSTEM (eV)
  ---------------------------------------------------
  free  energy   TOTEN  =       -87.623365 eV

  energy  without entropy=      -87.608528  energy(sigma->0) =      -87.618419
 

  FORCE on cell =-STRESS in cart. coord.  units (eV/reduce length):
  Direction    X        Y        Z        XY       YZ       ZX
  --------------------------------------------------------------------------------------
  Alpha Z   2720.01   2720.01   2720.01
  Ewald    -9745.30  -9745.17  -9745.17     -0.00     -0.00     -0.00
  Hartree   2388.54   2388.63   2388.63     -0.00     -0.00     -0.00
  E(xc)    -1851.67  -1851.67  -1851.67     -0.00     -0.00     -0.00
  Local     2940.86   2940.64   2940.64      0.00      0.00      0.00
  n-local  -2169.12  -2172.47  -2165.77      1.95      1.07      0.19
  augment   1335.62   1335.62   1335.62     -0.00     -0.00     -0.00
  Kinetic   4345.62   4340.06   4351.18      1.40     -0.19     -1.78
  -------------------------------------------------------------------------------------
  Total      -35.44    -35.44    -35.44     -0.00     -0.00     -0.00
  in kB      -84.93    -84.95    -84.95     -0.00     -0.00     -0.00
  external pressure =      -84.94 kB  Pullay stress =        0.00 kB


 VOLUME and BASIS-vectors are now :
 -----------------------------------------------------------------------------
  energy-cutoff  :      600.00
  volume of cell :      668.53
      direct lattice vectors                 reciprocal lattice vectors
     8.743915170  0.000000000  0.000000000     0.114365245 -0.000000002 -0.000000002
     0.000000160  8.743915170  0.000000000     0.000000000  0.114365245 -0.000000002
     0.000000160  0.000000160  8.743915170     0.000000000  0.000000000  0.114365245

  length of vectors
     8.743915170  8.743915170  8.743915170     0.114365245  0.114365245  0.114365245


 FORCES acting on ions
    electron-ion (+dipol)            ewald-force                    non-local-force                 convergence-correction
 -----------------------------------------------------------------------------------------------
   0.223E-01 0.136E+00 -.129E-07   -.250E-01 -.136E+00 0.138E-07   0.184E-02 -.568E-03 -.169E-20   0.300E-03 -.216E-03 0.152E-09
   0.863E+00 0.166E+01 -.748E-08   -.856E+00 -.166E+01 0.262E-09   -.103E-01 -.889E-02 -.136E-19   -.142E-02 -.141E-02 -.168E-09
   0.863E+00 -.285E-07 -.166E+01   -.856E+00 0.300E-07 0.166E+01   -.103E-01 0.163E-09 0.889E-02   -.142E-02 0.159E-09 0.141E-02
   0.223E-01 -.136E+00 0.756E-08   -.250E-01 0.136E+00 -.803E-08   0.184E-02 0.568E-03 -.381E-20   0.300E-03 0.216E-03 -.117E-09
   -.106E+01 -.773E-02 0.773E-02   0.107E+01 0.767E-02 -.767E-02   -.117E-02 0.618E-04 -.618E-04   -.666E-03 0.613E-05 -.613E-05
   -.563E+00 0.201E-08 0.370E-07   0.566E+00 -.152E-08 -.410E-07   -.924E-03 0.273E-19 -.169E-20   -.618E-03 0.318E-09 -.576E-09
   0.273E-01 -.136E+00 0.726E-08   -.299E-01 0.135E+00 -.772E-08   0.182E-02 0.584E-03 0.000E+00   0.302E-03 0.173E-03 -.117E-09
   0.863E+00 0.230E-07 0.166E+01   -.856E+00 -.300E-07 -.166E+01   -.103E-01 -.163E-09 -.889E-02   -.142E-02 -.194E-09 -.141E-02
   0.863E+00 -.166E+01 0.181E-08   -.856E+00 0.166E+01 -.262E-09   -.103E-01 0.889E-02 0.136E-19   -.142E-02 0.141E-02 0.133E-09
   0.223E-01 0.505E-08 -.136E+00   -.250E-01 -.555E-08 0.136E+00   0.184E-02 0.104E-10 0.568E-03   0.300E-03 -.113E-09 0.216E-03
   -.106E+01 -.773E-02 -.773E-02   0.107E+01 0.767E-02 0.767E-02   -.117E-02 0.618E-04 0.618E-04   -.666E-03 0.613E-05 0.613E-05
   -.680E+01 0.109E-06 -.136E-06   0.677E+01 -.118E-06 -.118E-06   0.645E-01 -.241E-18 0.000E+00   0.790E-02 0.636E-09 0.636E-09
   -.106E+01 0.773E-02 0.773E-02   0.107E+01 -.767E-02 -.767E-02   -.117E-02 -.618E-04 -.618E-04   -.666E-03 -.613E-05 -.613E-05
   -.235E+00 0.106E-07 0.104E-07   0.233E+00 -.109E-07 -.109E-07   0.241E-02 0.416E-19 0.000E+00   -.822E-03 -.267E-09 -.267E-09
   0.874E+00 -.164E+01 0.170E-08   -.866E+00 0.163E+01 -.236E-09   -.102E-01 0.876E-02 0.000E+00   -.144E-02 0.142E-02 0.134E-09
   0.874E+00 0.226E-07 0.164E+01   -.866E+00 -.295E-07 -.163E+01   -.102E-01 -.160E-09 -.876E-02   -.144E-02 -.158E-09 -.142E-02
   0.273E-01 0.136E+00 -.131E-07   -.299E-01 -.135E+00 0.140E-07   0.182E-02 -.584E-03 0.000E+00   0.302E-03 -.173E-03 0.121E-09
   0.597E+00 0.227E-02 -.227E-02   -.600E+00 -.230E-02 0.230E-02   0.116E-02 0.386E-04 -.386E-04   0.970E-03 -.175E-04 0.175E-04
   0.452E+00 -.198E-08 -.263E-07   -.444E+00 0.151E-08 0.259E-07   -.618E-02 -.235E-19 0.000E+00   -.105E-03 -.292E-09 0.479E-09
   0.223E-01 -.104E-07 0.136E+00   -.250E-01 0.113E-07 -.136E+00   0.184E-02 -.104E-10 -.568E-03   0.300E-03 0.148E-09 -.216E-03
   -.106E+01 0.773E-02 -.773E-02   0.107E+01 -.767E-02 0.767E-02   -.117E-02 -.618E-04 0.618E-04   -.666E-03 -.613E-05 0.613E-05
   -.563E+00 0.383E-07 0.196E-08   0.566E+00 -.410E-07 -.152E-08   -.924E-03 0.289E-21 -.136E-19   -.617E-03 -.576E-09 0.318E-09
   0.874E+00 -.281E-07 -.164E+01   -.866E+00 0.296E-07 0.163E+01   -.102E-01 0.160E-09 0.876E-02   -.144E-02 0.160E-09 0.142E-02
   0.874E+00 0.164E+01 -.740E-08   -.866E+00 -.163E+01 0.288E-09   -.102E-01 -.876E-02 -.136E-19   -.144E-02 -.142E-02 -.132E-09
   0.273E-01 -.107E-07 0.136E+00   -.299E-01 0.115E-07 -.135E+00   0.182E-02 -.107E-10 -.584E-03   0.301E-03 0.118E-09 -.173E-03
   0.597E+00 0.227E-02 0.227E-02   -.600E+00 -.230E-02 -.230E-02   0.116E-02 0.386E-04 0.386E-04   0.970E-03 -.175E-04 -.175E-04
   0.177E+01 -.400E-08 0.253E-06   -.179E+01 0.202E-08 0.202E-08   0.128E-01 -.289E-20 0.136E-19   0.164E-02 -.573E-09 -.572E-09
   0.597E+00 -.227E-02 -.227E-02   -.600E+00 0.230E-02 0.230E-02   0.116E-02 -.386E-04 -.386E-04   0.970E-03 0.175E-04 0.175E-04
   0.218E+00 -.935E-08 -.947E-08   -.218E+00 0.960E-08 0.960E-08   0.521E-04 -.478E-20 0.339E-20   0.582E-03 0.267E-09 0.267E-09
   0.273E-01 0.475E-08 -.136E+00   -.299E-01 -.524E-08 0.135E+00   0.182E-02 0.107E-10 0.584E-03   0.301E-03 -.113E-09 0.173E-03
   0.597E+00 -.227E-02 0.227E-02   -.600E+00 0.230E-02 -.230E-02   0.116E-02 -.386E-04 0.386E-04   0.970E-03 0.175E-04 -.175E-04
   0.452E+00 -.250E-07 -.203E-08   -.444E+00 0.259E-07 0.151E-08   -.618E-02 -.118E-19 0.000E+00   -.105E-03 0.479E-09 -.292E-09
 -----------------------------------------------------------------------------------------------
   0.107E-02 -.381E-10 0.180E-08   -.469E-13 -.391E-12 -.754E-13   -.185E-02 0.176E-17 -.745E-18   0.190E-04 0.345E-10 0.346E-10
 
 
 POSITION                                       TOTAL-FORCE (eV/Angst)
 -----------------------------------------------------------------------------------
      6.55794      6.55794      4.37196        -0.000485     -0.000068      0.000000
      6.55794      6.55794      0.00000        -0.004163     -0.005022      0.000000
      6.55794      0.00000      2.18598        -0.004163      0.000000      0.005022
      6.55794      2.18598      4.37196        -0.000485      0.000068      0.000000
      0.00000      6.55794      2.18598         0.000948      0.000012     -0.000012
      0.00000      0.00000      4.37196         0.000613     -0.000000     -0.000000
      2.18598      6.55794      4.37196        -0.000484      0.000071      0.000000
      6.55794      0.00000      6.55794        -0.004163     -0.000000     -0.005022
      6.55794      2.18598      0.00000        -0.004163      0.005022     -0.000000
      6.55794      4.37196      2.18598        -0.000485      0.000000      0.000068
      0.00000      6.55794      6.55794         0.000948      0.000012      0.000012
      8.72392      0.00000      0.00000         0.034966      0.000000     -0.000000
      0.00000      2.18598      2.18598         0.000948     -0.000012     -0.000012
      0.00000      4.37196      4.37196         0.000047      0.000000      0.000000
      2.18598      6.55794      0.00000        -0.003767      0.004521      0.000000
      2.18598      0.00000      2.18598        -0.003767     -0.000000     -0.004521
      2.18598      2.18598      4.37196        -0.000484     -0.000071     -0.000000
      4.37196      6.55794      2.18598        -0.001156     -0.000008      0.000008
      4.37196      0.00000      4.37196         0.001057      0.000000      0.000000
      6.55794      4.37196      6.55794        -0.000485     -0.000000     -0.000068
      0.00000      2.18598      6.55794         0.000948     -0.000012      0.000012
      0.00000      4.37196      0.00000         0.000613      0.000000     -0.000000
      2.18598      0.00000      6.55794        -0.003767      0.000000      0.004521
      2.18598      2.18598      0.00000        -0.003767     -0.004521      0.000000
      2.18598      4.37196      2.18598        -0.000484     -0.000000     -0.000071
      4.37196      6.55794      6.55794        -0.001156     -0.000008     -0.000008
      4.37196      0.00000      0.00000        -0.002233     -0.000000      0.000000
      4.37196      2.18598      2.18598        -0.001156      0.000008      0.000008
      4.37196      4.37196      4.37196         0.000310     -0.000000      0.000000
      2.18598      4.37196      6.55794        -0.000484      0.000000      0.000071
      4.37196      2.18598      6.55794        -0.001156      0.000008     -0.000008
      4.37196      4.37196      0.00000         0.001057      0.000000      0.000000
 -----------------------------------------------------------------------------------
    total drift:                               -0.000758     -0.000000      0.000000


--------------------------------------------------------------------------------------------------------



 mean value of Nose-termostat <S>:     1.000 mean value of <T> :     0.000
 mean temperature <T/S>/<1/S>  :     0.000

     LOOP+:  VPU time 2552.83: CPU time 2552.81

 ----------------------------------------------------------------------------- 
|                                                                             |
|           W    W    AA    RRRRR   N    N  II  N    N   GGGG   !!!           |
|           W    W   A  A   R    R  NN   N  II  NN   N  G    G  !!!           |
|           W    W  A    A  R    R  N N  N  II  N N  N  G       !!!           |
|           W WW W  AAAAAA  RRRRR   N  N N  II  N  N N  G  GGG   !            |
|           WW  WW  A    A  R   R   N   NN  II  N   NN  G    G                |
|           W    W  A    A  R    R  N    N  II  N    N   GGGG   !!!           |
|                                                                             |
|      The partial DOS and the PROCAR file are not evaluated for NPAR/=1      |
|      please rerun with NPAR=1                                               |
|                                                                             |
 ----------------------------------------------------------------------------- 

  
  
 General timing and accounting informations for this job:
 ========================================================
  
                  Total CPU time used (sec):     2629.622
                            User time (sec):     2567.536
                          System time (sec):       62.087
                         Elapsed time (sec):     2629.640
  
                   Maximum memory used (kb):     3893732.
                   Average memory used (kb):           0.
  
                          Minor page faults:       709698
                          Major page faults:            0
                 Voluntary context switches:          870
