 vasp.4.6.28 25Jul05 complex 
 executed on             LinuxIFC date 2017.01.16  15:18:52
 running on    4 nodes
 distr:  one band on    1 nodes,    4 groups


--------------------------------------------------------------------------------------------------------


 INCAR:
 POTCAR:   PAW_PBE Ag 06Sep2000                   
 POTCAR:   PAW_PBE Ag 06Sep2000                   
   VRHFIN =Ag : s1 d10                                                          
   LEXCH  = PE                                                                  
   EATOM  =  1037.4134 eV,   76.2477 Ry                                         
                                                                                
   TITEL  = PAW_PBE Ag 06Sep2000                                                
   LULTRA =        F    use ultrasoft PP ?                                      
   IUNSCR =        1    unscreen: 0-lin 1-nonlin 2-no                           
   RPACOR =    2.000    partial core radius                                     
   POMASS =  107.868; ZVAL   =   11.000    mass and valenz                      
   RCORE  =    2.400    outmost cutoff radius                                   
   RWIGS  =    2.840; RWIGS  =    1.503    wigner-seitz radius (au A)           
   ENMAX  =  249.846; ENMIN  =  187.385 eV                                      
   RCLOC  =    1.962    cutoff for local pot                                    
   LCOR   =        T    correct aug charges                                     
   LPAW   =        T    paw PP                                                  
   EAUG   =  412.496                                                            
   DEXC   =    -.047                                                            
   RMAX   =    2.917    core radius for proj-oper                               
   RAUG   =    1.300    factor for augmentation sphere                          
   RDEP   =    2.416    radius for radial grids                                 
   QCUT   =   -4.285; QGAM   =    8.570    optimization parameters              
                                                                                
   Description                                                                  
     l     E      TYP  RCUT    TYP  RCUT                                        
     2   .000     23  2.400                                                     
     2   .000     23  2.400                                                     
     0   .000     23  2.400                                                     
     0   .000     23  2.400                                                     
     1  -.200     23  2.400                                                     
     1  1.500     23  2.400                                                     
     3   .000      7   .000                                                     
  local pseudopotential read in
  partial core-charges read in
  atomic valenz-charges read in
  non local Contribution for L=           2  read in
    real space projection operators read in
  non local Contribution for L=           2  read in
    real space projection operators read in
  non local Contribution for L=           0  read in
    real space projection operators read in
  non local Contribution for L=           0  read in
    real space projection operators read in
  non local Contribution for L=           1  read in
    real space projection operators read in
  non local Contribution for L=           1  read in
    real space projection operators read in
    PAW grid and wavefunctions read in
 
   number of l-projection  operators is LMAX  =           6
   number of lm-projection operators is LMMAX =          18
 

 ----------------------------------------------------------------------------- 
|                                                                             |
|  ADVICE TO THIS USER RUNNING 'VASP/VAMP'   (HEAR YOUR MASTER'S VOICE ...):  |
|                                                                             |
|      You have a (more or less) 'large supercell' and for larger cells       |
|      it might be more efficient to use real space projection operators      |
|      So try LREAL= Auto  in the INCAR   file.                               |
|      Mind: If you want to do an extremely accurate calculations keep the    |
|      reciprocal projection scheme          (i.e. LREAL=.FALSE.)             |
|                                                                             |
 ----------------------------------------------------------------------------- 

 PAW_PBE Ag 06Sep2000                   :
 energy of atom  1       EATOM=-1037.4134
 kinetic energy error for atom=    0.0019 (will be added to EATOM!!)
 
 EXHCAR: internal setup
 exchange correlation table for  LEXCH =        8
   RHO(1)=    0.500       N(1)  =     2000
   RHO(2)=  100.500       N(2)  =     4000
 
 POSCAR: No title                                
  positions in direct lattice
  No initial velocities read in
 


--------------------------------------------------------------------------------------------------------


 ion  position               nearest neighbor table
   1  0.750  0.750  0.500-   3 3.09   5 3.09  14 3.09  19 3.09  20 3.09  26 3.09  11 3.09   6 3.09
                            18 3.09  29 3.09  10 3.09   8 3.09
   2  0.750  0.750  0.000-   8 3.09  10 3.09  11 3.09  18 3.09  22 3.09  27 3.09  12 3.09  26 3.09
                             5 3.09  32 3.09   3 3.09  20 3.09
   3  0.750  0.000  0.250-   1 3.09   5 3.09   9 3.09  12 3.09  19 3.09  28 3.09  18 3.09   6 3.09
                            27 3.09  13 3.09   4 3.09   2 3.09
   4  0.750  0.250  0.500-   6 3.09   8 3.09  10 3.09  13 3.09  29 3.09  31 3.09  21 3.09  28 3.09
                            14 3.09  19 3.09   3 3.09  20 3.09
   5  0.000  0.750  0.250-   1 3.09   3 3.09  12 3.09  14 3.09  15 3.09  25 3.09   7 3.09  10 3.09
                            16 3.09   2 3.09  22 3.09   6 3.09
   6  0.000  0.000  0.500-   4 3.09   7 3.09   8 3.09  11 3.09  13 3.09  16 3.09   1 3.09   3 3.09
                            17 3.09  23 3.09  21 3.09   5 3.09
   7  0.250  0.750  0.500-   6 3.09  11 3.09  16 3.09  18 3.09  29 3.09  30 3.09  19 3.09  26 3.09
                             5 3.09  14 3.09  25 3.09  23 3.09
   8  0.750  0.000  0.750-   2 3.09   4 3.09   6 3.09  11 3.09  27 3.09  31 3.09  21 3.09  26 3.09
                            12 3.09  19 3.09   9 3.09   1 3.09
   9  0.750  0.250  0.000-   3 3.09  12 3.09  20 3.09  21 3.09  28 3.09  32 3.09  27 3.09  13 3.09
                            31 3.09  22 3.09  10 3.09   8 3.09
  10  0.750  0.500  0.250-   2 3.09   4 3.09  13 3.09  18 3.09  22 3.09  29 3.09  14 3.09  28 3.09
                             5 3.09  32 3.09   9 3.09   1 3.09
  11  0.000  0.750  0.750-   2 3.09   6 3.09   7 3.09   8 3.09  22 3.09  30 3.09  20 3.09   1 3.09
                            23 3.09  15 3.09  14 3.09  12 3.09
  12  0.000  0.000  0.000-   3 3.09   5 3.09   9 3.09  15 3.09  21 3.09  23 3.09  16 3.09   2 3.09
                             8 3.09  24 3.09  13 3.09  11 3.09
  13  0.000  0.250  0.250-   4 3.09   6 3.09  10 3.09  16 3.09  22 3.09  24 3.09  17 3.09   3 3.09
                             9 3.09  25 3.09  14 3.09  12 3.09
  14  0.000  0.500  0.500-   1 3.09   5 3.09  17 3.09  20 3.09  21 3.09  25 3.09   7 3.09  10 3.09
                             4 3.09  30 3.09  13 3.09  11 3.09
  15  0.250  0.750  0.000-   5 3.09  12 3.09  23 3.09  25 3.09  26 3.09  32 3.09  18 3.09  22 3.09
                            27 3.09  11 3.09  30 3.09  16 3.09
  16  0.250  0.000  0.250-   6 3.09   7 3.09  13 3.09  18 3.09  24 3.09  27 3.09  19 3.09   5 3.09
                            12 3.09  28 3.09  17 3.09  15 3.09
  17  0.250  0.250  0.500-  14 3.09  19 3.09  21 3.09  23 3.09  25 3.09  28 3.09   6 3.09  13 3.09
                            29 3.09  31 3.09  30 3.09  16 3.09
  18  0.500  0.750  0.250-   2 3.09   7 3.09  10 3.09  16 3.09  27 3.09  29 3.09   1 3.09  25 3.09
                             3 3.09  15 3.09  19 3.09  32 3.09
  19  0.500  0.000  0.500-   1 3.09   3 3.09  17 3.09  23 3.09  26 3.09  28 3.09   4 3.09   7 3.09
                             8 3.09  16 3.09  18 3.09  31 3.09
  20  0.750  0.500  0.750-   1 3.09   9 3.09  14 3.09  21 3.09  26 3.09  32 3.09  11 3.09  29 3.09
                            31 3.09  22 3.09   4 3.09   2 3.09
  21  0.000  0.250  0.750-   9 3.09  12 3.09  14 3.09  17 3.09  20 3.09  23 3.09   4 3.09   8 3.09
                            24 3.09  30 3.09  22 3.09   6 3.09
  22  0.000  0.500  0.000-   2 3.09  10 3.09  11 3.09  13 3.09  24 3.09  30 3.09  20 3.09   9 3.09
                            25 3.09  15 3.09  21 3.09   5 3.09
  23  0.250  0.000  0.750-  12 3.09  15 3.09  17 3.09  19 3.09  21 3.09  26 3.09   6 3.09  11 3.09
                            27 3.09  31 3.09  24 3.09   7 3.09
  24  0.250  0.250  0.000-  13 3.09  16 3.09  22 3.09  27 3.09  30 3.09  31 3.09  28 3.09  12 3.09
                            21 3.09  32 3.09  25 3.09  23 3.09
  25  0.250  0.500  0.250-   5 3.09  14 3.09  15 3.09  17 3.09  28 3.09  32 3.09  22 3.09  13 3.09
                            29 3.09  18 3.09  24 3.09   7 3.09
  26  0.500  0.750  0.750-   1 3.09  15 3.09  19 3.09  20 3.09  23 3.09  32 3.09   8 3.09   2 3.09
                            30 3.09   7 3.09  27 3.09  29 3.09
  27  0.500  0.000  0.000-   2 3.09   8 3.09  16 3.09  18 3.09  24 3.09  31 3.09   9 3.09  23 3.09
                            15 3.09   3 3.09  28 3.09  26 3.09
  28  0.500  0.250  0.250-   3 3.09   9 3.09  17 3.09  19 3.09  25 3.09  32 3.09  10 3.09  24 3.09
                            16 3.09   4 3.09  29 3.09  27 3.09
  29  0.500  0.500  0.500-   4 3.09   7 3.09  10 3.09  18 3.09  30 3.09  31 3.09  20 3.09  25 3.09
                            17 3.09   1 3.09  26 3.09  28 3.09
  30  0.250  0.500  0.750-   7 3.09  11 3.09  22 3.09  24 3.09  29 3.09  31 3.09  26 3.09  14 3.09
                            21 3.09  32 3.09  17 3.09  15 3.09
  31  0.500  0.250  0.750-   4 3.09   8 3.09  24 3.09  27 3.09  29 3.09  30 3.09   9 3.09  17 3.09
                            20 3.09  23 3.09  19 3.09  32 3.09
  32  0.500  0.500  0.000-   9 3.09  15 3.09  20 3.09  25 3.09  26 3.09  28 3.09   2 3.09  10 3.09
                            24 3.09  30 3.09  18 3.09  31 3.09
 
  LATTYP: Found a simple cubic cell.
 ALAT       =     8.7439151700
  
  Lattice vectors:
  
 A1 = (   8.7439151700,   0.0000000000,   0.0000000000)
 A2 = (   0.0000001600,   8.7439151700,   0.0000000000)
 A3 = (   0.0000001600,   0.0000001600,   8.7439151700)
 Subroutine PRICEL returns following result:
 
  LATTYP: Found a face centered cubic cell.
 ALAT       =     4.3719576250
  
  Lattice vectors:
  
 A1 = (   2.1859788325,   2.1859787925,   0.0000000000)
 A2 = (   2.1859787525,  -0.0000000400,  -2.1859787925)
 A3 = (   0.0000000000,   2.1859787525,  -2.1859787925)
 
  32 primitive cells build up your supercell.
 

Analysis of symmetry for initial positions (statically):

 Routine SETGRP: Setting up the symmetry group for a 
 simple cubic supercell.


 Subroutine GETGRP returns: Found 48 space group operations
 (whereof 48 operations were pure point group operations)
 out of a pool of 48 trial point group operations.


The static configuration has the point symmetry O_h .

Analysis of symmetry for dynamics (positions and initial velocities):

 Subroutine DYNSYM returns: Found 48 space group operations
 (whereof 48 operations were pure point group operations)
 out of a pool of 48 trial space group operations
 (whereof 48 operations were pure point group operations)
 and found also    32 'primitive' translations


The dynamic configuration has the point symmetry O_h .
 
 
 KPOINTS: Automatic mesh                          

Automatic generation of k-mesh.
 
 Subroutine IBZKPT returns following result:
 ===========================================
 
 Found     20 irreducible k-points:
 
 Following reciprocal coordinates:
            Coordinates               Weight
  0.062500  0.062500  0.062500      8.000000
  0.187500  0.062500  0.062500     24.000000
  0.312500  0.062500  0.062500     24.000000
  0.437500  0.062500  0.062500     24.000000
  0.187500  0.187500  0.062500     24.000000
  0.312500  0.187500  0.062500     48.000000
  0.437500  0.187500  0.062500     48.000000
  0.312500  0.312500  0.062500     24.000000
  0.437500  0.312500  0.062500     48.000000
  0.437500  0.437500  0.062500     24.000000
  0.187500  0.187500  0.187500      8.000000
  0.312500  0.187500  0.187500     24.000000
  0.437500  0.187500  0.187500     24.000000
  0.312500  0.312500  0.187500     24.000000
  0.437500  0.312500  0.187500     48.000000
  0.437500  0.437500  0.187500     24.000000
  0.312500  0.312500  0.312500      8.000000
  0.437500  0.312500  0.312500     24.000000
  0.437500  0.437500  0.312500     24.000000
  0.437500  0.437500  0.437500      8.000000
 
 Following cartesian coordinates:
            Coordinates               Weight
  0.007148  0.007148  0.007148      8.000000
  0.021443  0.007148  0.007148     24.000000
  0.035739  0.007148  0.007148     24.000000
  0.050035  0.007148  0.007148     24.000000
  0.021443  0.021443  0.007148     24.000000
  0.035739  0.021443  0.007148     48.000000
  0.050035  0.021443  0.007148     48.000000
  0.035739  0.035739  0.007148     24.000000
  0.050035  0.035739  0.007148     48.000000
  0.050035  0.050035  0.007148     24.000000
  0.021443  0.021443  0.021443      8.000000
  0.035739  0.021443  0.021443     24.000000
  0.050035  0.021443  0.021443     24.000000
  0.035739  0.035739  0.021443     24.000000
  0.050035  0.035739  0.021443     48.000000
  0.050035  0.050035  0.021443     24.000000
  0.035739  0.035739  0.035739      8.000000
  0.050035  0.035739  0.035739     24.000000
  0.050035  0.050035  0.035739     24.000000
  0.050035  0.050035  0.050035      8.000000
 


--------------------------------------------------------------------------------------------------------




 Dimension of arrays:
   k-Points           NKPTS =     20   number of bands    NBANDS=    212
   number of dos      NEDOS =    301   number of ions     NIONS =     32
   non local maximal  LDIM  =      6   non local SUM 2l+1 LMDIM =     18
   total plane-waves  NPLWV = 343000
   max r-space proj   IRMAX =      1   max aug-charges    IRDMAX= 201992
   dimension x,y,z NGX =    70 NGY =   70 NGZ =   70
   dimension x,y,z NGXF=   140 NGYF=  140 NGZF=  140
   support grid    NGXF=   280 NGYF=  280 NGZF=  280
   ions per type =              32
 NGX,Y,Z   is equivalent  to a cutoff of  13.31, 13.31, 13.31 a.u.
 NGXF,Y,Z  is equivalent  to a cutoff of  26.62, 26.62, 26.62 a.u.


 I would recommend the setting:
   dimension x,y,z NGX =    70 NGY =   70 NGZ =   70
 SYSTEM =  No title                                
 POSCAR =  No title                                

 Startparameter for this run:
   NWRITE =      2    write-flag & timer
   PREC   = accura    medium, high low
   ISTART =      0    job   : 0-new  1-cont  2-samecut
   ICHARG =      2    charge: 1-file 2-atom 10-const
   ISPIN  =      1    spin polarized calculation?
   LNONCOLLINEAR =      F non collinear calculations
   LSORBIT =      F    spin-orbit coupling
   INIWAV =      1    electr: 0-lowe 1-rand  2-diag
   LASPH  =      F    aspherical Exc in radial PAW
   METAGGA=      F    non-selfconsistent MetaGGA calc.

 Electronic Relaxation 1
   ENCUT  =  600.0 eV  44.10 Ry    6.64 a.u.  17.46 17.46 17.46*2*pi/ulx,y,z
   ENINI  =  600.0     initial cutoff
   ENAUG  =  412.5 eV  augmentation charge cutoff
   NELM   =     60;   NELMIN=  2; NELMDL=-12     # of ELM steps 
   EDIFF  = 0.1E-04   stopping-criterion for ELM
   LREAL  =      F    real-space projection
   LCOMPAT=      F    compatible to vasp.4.4
   LREAL_COMPAT= F    compatible to vasp.4.5.1-3
   GGA_COMPAT  = T    GGA compatible to vasp.4.4-vasp.4.6
   LMAXPAW     = -100 max onsite density
   LMAXMIX     =    2 max onsite mixed and CHGCAR
   VOSKOWN=      1    Vosko Wilk Nusair interpolation
   ROPT   =    0.00000
 Ionic relaxation
   EDIFFG = -.2E-01   stopping-criterion for IOM
   NSW    =    100    number of steps for IOM
   NBLOCK =      1;   KBLOCK =    100    inner block; outer block 
   IBRION =      2    ionic relax: 0-MD 1-quasi-New 2-CG
   NFREE  =      1    steps in history (QN), initial steepest desc. (CG)
   ISIF   =      2    stress and relaxation
   IWAVPR =     11    prediction:  0-non 1-charg 2-wave 3-comb
   ISYM   =      2    0-nonsym 1-usesym 2-fastsym
   LCORR  =      T    Harris-Foulkes like correction to forces

   POTIM  =   0.50    time-step for ionic-motion
   TEIN   =    0.0    initial temperature
   TEBEG  =    0.0;   TEEND  =   0.0 temperature during run
   SMASS  =  -3.00    Nose mass-parameter (am)
   estimated Nose-frequenzy (Omega)   =  0.10E-29 period in steps =****** mass=  -0.175E-26a.u.
   NPACO  =    256;   APACO  = 16.0  distance and # of slots for P.C.
   PSTRESS=    0.0 pullay stress

  Mass of Ions in am
   POMASS = 107.87
  Ionic Valenz
   ZVAL   =  11.00
  Atomic Wigner-Seitz radii
   RWIGS  =   1.34
   NELECT =     352.0000    total number of electrons
   NUPDOWN=      -1.0000    fix difference up-down

 DOS related values:
   EMIN   =  10.00;   EMAX   =-10.00  energy-range for DOS
   ISMEAR =     1;   SIGMA  =   0.20  broadening in eV -4-tet -1-fermi 0-gaus

 Electronic relaxation 2 (details)
   IALGO  =     48    algorithm
   LDIAG  =      T    sub-space diagonalisation
   IMIX   =      4    mixing-type and parameters
     AMIX     =   0.40;   BMIX     =  1.00
     AMIX_MAG =   1.60;   BMIX_MAG =  1.00
     AMIN     =   0.10
     WC   =   100.;   INIMIX=   1;  MIXPRE=   1

 Intra band minimization:
   WEIMIN = 0.0010     energy-eigenvalue tresh-hold
   EBREAK =  0.12E-07  absolut break condition
   DEPER  =   0.30     relativ break condition  

   TIME   =   0.10     timestep for ELM

  volume/ion in A,a.u.               =      20.89       140.98
  Fermi-wavevector in a.u.,eV,Ry     =   1.321954 23.777041  1.747563

 Second variation
   LSECVAR=     F    do a second variation
 
 Write flags
   LWAVE  =      T    write WAVECAR
   LCHARG =      F    write CHGCAR
   LVTOT  =      F    write LOCPOT, local potential
   LELF   =      F    write electronic localiz. function (ELF)
   LORBIT =      0    0 simple, 1 ext, 2 COOP (PROOUT)


 Dipole corrections
   IDIPOL =      0    1-x, 2-y, 3-z
   LDIPOL =      F    correct potential



--------------------------------------------------------------------------------------------------------


 conjugate gradient relaxation of ions
 charge density will be updated during run
 non-spin polarized calculation
 RMM-DIIS sequential band-by-band
 performe sub-space diagonalisation
    before iterative eigenvector-optimisation
 modified Broyden-mixing scheme, WC =      100.0
 initial mixing is a Kerker type mixing with AMIX =  0.4000 and BMIX =      1.0000
 Hartree-type preconditioning will be used
 using additional bands           36
 reciprocal scheme for non local part
 use partial core corrections
 calculate Harris-corrections to forces 
   (improved forces if not selfconsistent)
 use gradient corrections 
 use of overlap-Matrix (Vanderbilt PP)
 Methfessel and Paxton  Order N= 1 SIGMA  =   0.20


--------------------------------------------------------------------------------------------------------


  energy-cutoff  :      600.00
  volume of cell :      668.53
      direct lattice vectors                 reciprocal lattice vectors
     8.743915170  0.000000000  0.000000000     0.114365245 -0.000000002 -0.000000002
     0.000000160  8.743915170  0.000000000     0.000000000  0.114365245 -0.000000002
     0.000000160  0.000000160  8.743915170     0.000000000  0.000000000  0.114365245

  length of vectors
     8.743915170  8.743915170  8.743915170     0.114365245  0.114365245  0.114365245


 
 k-points in units of 2pi/SCALE and weight: Automatic mesh                          
   0.00714783  0.00714783  0.00714783       0.016
   0.02144348  0.00714783  0.00714783       0.047
   0.03573914  0.00714783  0.00714783       0.047
   0.05003479  0.00714783  0.00714783       0.047
   0.02144348  0.02144348  0.00714783       0.047
   0.03573914  0.02144348  0.00714783       0.094
   0.05003479  0.02144348  0.00714783       0.094
   0.03573914  0.03573914  0.00714783       0.047
   0.05003479  0.03573914  0.00714783       0.094
   0.05003479  0.05003479  0.00714783       0.047
   0.02144348  0.02144348  0.02144348       0.016
   0.03573914  0.02144348  0.02144348       0.047
   0.05003479  0.02144348  0.02144348       0.047
   0.03573914  0.03573914  0.02144348       0.047
   0.05003479  0.03573914  0.02144348       0.094
   0.05003479  0.05003479  0.02144348       0.047
   0.03573914  0.03573914  0.03573914       0.016
   0.05003479  0.03573914  0.03573914       0.047
   0.05003479  0.05003479  0.03573914       0.047
   0.05003479  0.05003479  0.05003479       0.016
 
 k-points in reciprocal lattice and weights: Automatic mesh                          
   0.06250000  0.06250000  0.06250000       0.016
   0.18750000  0.06250000  0.06250000       0.047
   0.31250000  0.06250000  0.06250000       0.047
   0.43750000  0.06250000  0.06250000       0.047
   0.18750000  0.18750000  0.06250000       0.047
   0.31250000  0.18750000  0.06250000       0.094
   0.43750000  0.18750000  0.06250000       0.094
   0.31250000  0.31250000  0.06250000       0.047
   0.43750000  0.31250000  0.06250000       0.094
   0.43750000  0.43750000  0.06250000       0.047
   0.18750000  0.18750000  0.18750000       0.016
   0.31250000  0.18750000  0.18750000       0.047
   0.43750000  0.18750000  0.18750000       0.047
   0.31250000  0.31250000  0.18750000       0.047
   0.43750000  0.31250000  0.18750000       0.094
   0.43750000  0.43750000  0.18750000       0.047
   0.31250000  0.31250000  0.31250000       0.016
   0.43750000  0.31250000  0.31250000       0.047
   0.43750000  0.43750000  0.31250000       0.047
   0.43750000  0.43750000  0.43750000       0.016
 
 position of ions in fractional coordinates (direct lattice) 
   0.75000000  0.75000000  0.50000000
   0.75000000  0.75000000  0.00000000
   0.75000000  0.00000000  0.25000000
   0.75000000  0.25000000  0.50000000
   0.00000000  0.75000000  0.25000000
   0.00000000  0.00000000  0.50000000
   0.25000000  0.75000000  0.50000000
   0.75000000  0.00000000  0.75000000
   0.75000000  0.25000000  0.00000000
   0.75000000  0.50000000  0.25000000
   0.00000000  0.75000000  0.75000000
   0.00000000  0.00000000  0.00000000
   0.00000000  0.25000000  0.25000000
   0.00000000  0.50000000  0.50000000
   0.25000000  0.75000000  0.00000000
   0.25000000  0.00000000  0.25000000
   0.25000000  0.25000000  0.50000000
   0.50000000  0.75000000  0.25000000
   0.50000000  0.00000000  0.50000000
   0.75000000  0.50000000  0.75000000
   0.00000000  0.25000000  0.75000000
   0.00000000  0.50000000  0.00000000
   0.25000000  0.00000000  0.75000000
   0.25000000  0.25000000  0.00000000
   0.25000000  0.50000000  0.25000000
   0.50000000  0.75000000  0.75000000
   0.50000000  0.00000000  0.00000000
   0.50000000  0.25000000  0.25000000
   0.50000000  0.50000000  0.50000000
   0.25000000  0.50000000  0.75000000
   0.50000000  0.25000000  0.75000000
   0.50000000  0.50000000  0.00000000
 
 position of ions in cartesian coordinates  (Angst):
   6.55793658  6.55793646  4.37195758
   6.55793650  6.55793638  0.00000000
   6.55793642  0.00000004  2.18597879
   6.55793650  2.18597887  4.37195758
   0.00000016  6.55793642  2.18597879
   0.00000008  0.00000008  4.37195758
   2.18597899  6.55793646  4.37195758
   6.55793650  0.00000012  6.55793638
   6.55793642  2.18597879  0.00000000
   6.55793650  4.37195762  2.18597879
   0.00000024  6.55793650  6.55793638
   0.00000000  0.00000000  0.00000000
   0.00000008  2.18597883  2.18597879
   0.00000016  4.37195767  4.37195758
   2.18597891  6.55793638  0.00000000
   2.18597883  0.00000004  2.18597879
   2.18597891  2.18597887  4.37195758
   4.37195774  6.55793642  2.18597879
   4.37195767  0.00000008  4.37195758
   6.55793658  4.37195770  6.55793638
   0.00000016  2.18597891  6.55793638
   0.00000008  4.37195758  0.00000000
   2.18597891  0.00000012  6.55793638
   2.18597883  2.18597879  0.00000000
   2.18597891  4.37195762  2.18597879
   4.37195782  6.55793650  6.55793638
   4.37195758  0.00000000  0.00000000
   4.37195766  2.18597883  2.18597879
   4.37195775  4.37195767  4.37195758
   2.18597899  4.37195770  6.55793638
   4.37195774  2.18597891  6.55793638
   4.37195767  4.37195758  0.00000000
 


--------------------------------------------------------------------------------------------------------


 k-point  1 :  0.06250.06250.0625  plane waves:  22338
 k-point  2 :  0.18750.06250.0625  plane waves:  22335
 k-point  3 :  0.31250.06250.0625  plane waves:  22333
 k-point  4 :  0.43750.06250.0625  plane waves:  22331
 k-point  5 :  0.18750.18750.0625  plane waves:  22330
 k-point  6 :  0.31250.18750.0625  plane waves:  22326
 k-point  7 :  0.43750.18750.0625  plane waves:  22316
 k-point  8 :  0.31250.31250.0625  plane waves:  22328
 k-point  9 :  0.43750.31250.0625  plane waves:  22299
 k-point 10 :  0.43750.43750.0625  plane waves:  22291
 k-point 11 :  0.18750.18750.1875  plane waves:  22352
 k-point 12 :  0.31250.18750.1875  plane waves:  22312
 k-point 13 :  0.43750.18750.1875  plane waves:  22292
 k-point 14 :  0.31250.31250.1875  plane waves:  22318
 k-point 15 :  0.43750.31250.1875  plane waves:  22309
 k-point 16 :  0.43750.43750.1875  plane waves:  22297
 k-point 17 :  0.31250.31250.3125  plane waves:  22289
 k-point 18 :  0.43750.31250.3125  plane waves:  22285
 k-point 19 :  0.43750.43750.3125  plane waves:  22297
 k-point 20 :  0.43750.43750.4375  plane waves:  22298

 maximum and minimum number of plane-waves per node :  22352 22285

 maximum number of plane-waves:  22352
 maximal index in each direction: 
   IXMAX= 17   IYMAX= 17   IZMAX= 17
   IXMIN=-17   IYMIN=-17   IZMIN=-17

 NGX is ok and might be reduce to  70
 NGY is ok and might be reduce to  70
 NGZ is ok and might be reduce to  70

 parallel 3dFFT wavefunction:
    minimum data exchange during FFTs selected (reduces bandwidth)
 parallel 3dFFT charge:
    minimum data exchange during FFTs selected (reduces bandwidth)

 For storing wavefunctions 1513.77 MBYTES are necessary
 For predicting wavefunctions  162.59 MBYTES are necessary
Broyden mixing: mesh for mixing (old mesh)
   NGX = 35   NGY = 35   NGZ = 35
  (NGX  =140   NGY  =140   NGZ  =140)
 gives a total of  42875 points
 initial charge density was supplied:
 charge density of overlapping atoms calculated
 number of electron  352.0000000 magnetization 
 keeping initial charge density in first step


--------------------------------------------------------------------------------------------------------


 Maximum index for augmentation-charges        48994 (set IRDMAX)


--------------------------------------------------------------------------------------------------------


 First call to EWALD:  gamma=   0.203
 Maximum number of real-space cells 3x 3x 3
 Maximum number of reciprocal cells 3x 3x 3

    FEWALD:  VPU time    0.01: CPU time    0.01


----------------------------------------- Iteration    1(   1)  ---------------------------------------


    POTLOK:  VPU time    1.25: CPU time    1.25
    SETDIJ:  VPU time    2.25: CPU time    2.25
    EDDIAG:  VPU time   59.66: CPU time   59.72
  RMM-DIIS:  VPU time  355.65: CPU time  355.95
    ORTHCH:  VPU time    9.45: CPU time    9.46
    DOS   :  VPU time    0.00: CPU time   -0.00
    ------------------------------------------
      LOOP:  VPU time  428.31: CPU time  428.68

 eigenvalue-minimisations  :  4240
 total energy-change (2. order) : 0.3941410E+04  (-0.1621029E+05)
 number of electron  352.0000000 magnetization 
 augmentation part   352.0000000 magnetization 

 Free energy of the ion-electron system (eV)
  ---------------------------------------------------
  alpha Z        PSCENC =      2720.01059718
  Ewald energy   TEWEN  =    -29235.58664048
  -1/2 Hartree   DENC   =     -7503.15041597
  -V(xc)+E(xc)   XCENC  =      -358.25701287
  PAW double counting   =     27861.41421209   -26376.63839568
  entropy T*S    EENTRO =        -0.01173157
  eigenvalues    EBANDS =      3636.46127764
  atomic energy  EATOM  =     33197.16788402
  ---------------------------------------------------
  free energy    TOTEN  =      3941.40977436 eV

  energy without entropy =     3941.42150593  energy(sigma->0) =     3941.41368488


--------------------------------------------------------------------------------------------------------




----------------------------------------- Iteration    1(   2)  ---------------------------------------


    EDDIAG:  VPU time   59.46: CPU time   59.52
  RMM-DIIS:  VPU time  373.95: CPU time  374.27
    ORTHCH:  VPU time    8.49: CPU time    8.49
    DOS   :  VPU time    0.00: CPU time   -0.00
    ------------------------------------------
      LOOP:  VPU time  441.95: CPU time  442.34

 eigenvalue-minimisations  :  4240
 total energy-change (2. order) :-0.3098091E+04  (-0.3438192E+04)
 number of electron  352.0000000 magnetization 
 augmentation part   352.0000000 magnetization 

 Free energy of the ion-electron system (eV)
  ---------------------------------------------------
  alpha Z        PSCENC =      2720.01059718
  Ewald energy   TEWEN  =    -29235.58664048
  -1/2 Hartree   DENC   =     -7503.15041597
  -V(xc)+E(xc)   XCENC  =      -358.25701287
  PAW double counting   =     27861.41421209   -26376.63839568
  entropy T*S    EENTRO =        -0.00349842
  eigenvalues    EBANDS =       538.36158344
  atomic energy  EATOM  =     33197.16788402
  ---------------------------------------------------
  free energy    TOTEN  =       843.31831330 eV

  energy without entropy =      843.32181173  energy(sigma->0) =      843.31947944


--------------------------------------------------------------------------------------------------------




----------------------------------------- Iteration    1(   3)  ---------------------------------------


    EDDIAG:  VPU time   57.89: CPU time   57.94
  RMM-DIIS:  VPU time  360.47: CPU time  360.77
    ORTHCH:  VPU time    9.01: CPU time    9.01
    DOS   :  VPU time    0.00: CPU time   -0.00
    ------------------------------------------
      LOOP:  VPU time  427.41: CPU time  427.78

 eigenvalue-minimisations  :  4240
 total energy-change (2. order) :-0.6476875E+03  (-0.7007717E+03)
 number of electron  352.0000000 magnetization 
 augmentation part   352.0000000 magnetization 

 Free energy of the ion-electron system (eV)
  ---------------------------------------------------
  alpha Z        PSCENC =      2720.01059718
  Ewald energy   TEWEN  =    -29235.58664048
  -1/2 Hartree   DENC   =     -7503.15041597
  -V(xc)+E(xc)   XCENC  =      -358.25701287
  PAW double counting   =     27861.41421209   -26376.63839568
  entropy T*S    EENTRO =        -0.02182119
  eigenvalues    EBANDS =      -109.30756430
  atomic energy  EATOM  =     33197.16788402
  ---------------------------------------------------
  free energy    TOTEN  =       195.63084280 eV

  energy without entropy =      195.65266399  energy(sigma->0) =      195.63811653


--------------------------------------------------------------------------------------------------------




----------------------------------------- Iteration    1(   4)  ---------------------------------------


    EDDIAG:  VPU time   58.28: CPU time   58.34
  RMM-DIIS:  VPU time  367.03: CPU time  367.47
    ORTHCH:  VPU time    9.02: CPU time    9.04
    DOS   :  VPU time    0.00: CPU time   -0.00
    ------------------------------------------
      LOOP:  VPU time  434.39: CPU time  434.90

 eigenvalue-minimisations  :  4240
 total energy-change (2. order) :-0.2020353E+03  (-0.1486912E+03)
 number of electron  352.0000000 magnetization 
 augmentation part   352.0000000 magnetization 

 Free energy of the ion-electron system (eV)
  ---------------------------------------------------
  alpha Z        PSCENC =      2720.01059718
  Ewald energy   TEWEN  =    -29235.58664048
  -1/2 Hartree   DENC   =     -7503.15041597
  -V(xc)+E(xc)   XCENC  =      -358.25701287
  PAW double counting   =     27861.41421209   -26376.63839568
  entropy T*S    EENTRO =        -0.03294955
  eigenvalues    EBANDS =      -311.33173742
  atomic energy  EATOM  =     33197.16788402
  ---------------------------------------------------
  free energy    TOTEN  =        -6.40445868 eV

  energy without entropy =       -6.37150913  energy(sigma->0) =       -6.39347550


--------------------------------------------------------------------------------------------------------




----------------------------------------- Iteration    1(   5)  ---------------------------------------


    EDDIAG:  VPU time   58.30: CPU time   58.47
  RMM-DIIS:  VPU time  359.66: CPU time  360.68
    ORTHCH:  VPU time    8.99: CPU time    9.01
    DOS   :  VPU time    0.00: CPU time   -0.00
    ------------------------------------------
      LOOP:  VPU time  426.99: CPU time  428.21

 eigenvalue-minimisations  :  4240
 total energy-change (2. order) :-0.6730820E+02  (-0.4095577E+02)
 number of electron  352.0000000 magnetization 
 augmentation part   352.0000000 magnetization 

 Free energy of the ion-electron system (eV)
  ---------------------------------------------------
  alpha Z        PSCENC =      2720.01059718
  Ewald energy   TEWEN  =    -29235.58664048
  -1/2 Hartree   DENC   =     -7503.15041597
  -V(xc)+E(xc)   XCENC  =      -358.25701287
  PAW double counting   =     27861.41421209   -26376.63839568
  entropy T*S    EENTRO =         0.00276224
  eigenvalues    EBANDS =      -378.67564881
  atomic energy  EATOM  =     33197.16788402
  ---------------------------------------------------
  free energy    TOTEN  =       -73.71265828 eV

  energy without entropy =      -73.71542052  energy(sigma->0) =      -73.71357903


--------------------------------------------------------------------------------------------------------




----------------------------------------- Iteration    1(   6)  ---------------------------------------


    EDDIAG:  VPU time   58.42: CPU time   58.47
  RMM-DIIS:  VPU time  369.53: CPU time  369.84
    ORTHCH:  VPU time    8.98: CPU time    8.99
    DOS   :  VPU time    0.00: CPU time   -0.00
    ------------------------------------------
      LOOP:  VPU time  436.98: CPU time  437.36

 eigenvalue-minimisations  :  4240
 total energy-change (2. order) :-0.1518852E+02  (-0.1064775E+02)
 number of electron  352.0000000 magnetization 
 augmentation part   352.0000000 magnetization 

 Free energy of the ion-electron system (eV)
  ---------------------------------------------------
  alpha Z        PSCENC =      2720.01059718
  Ewald energy   TEWEN  =    -29235.58664048
  -1/2 Hartree   DENC   =     -7503.15041597
  -V(xc)+E(xc)   XCENC  =      -358.25701287
  PAW double counting   =     27861.41421209   -26376.63839568
  entropy T*S    EENTRO =        -0.00836607
  eigenvalues    EBANDS =      -393.85304430
  atomic energy  EATOM  =     33197.16788402
  ---------------------------------------------------
  free energy    TOTEN  =       -88.90118208 eV

  energy without entropy =      -88.89281601  energy(sigma->0) =      -88.89839339


--------------------------------------------------------------------------------------------------------




----------------------------------------- Iteration    1(   7)  ---------------------------------------


    EDDIAG:  VPU time   58.10: CPU time   58.16
  RMM-DIIS:  VPU time  360.94: CPU time  361.24
    ORTHCH:  VPU time    9.01: CPU time    9.02
    DOS   :  VPU time    0.00: CPU time   -0.00
    ------------------------------------------
      LOOP:  VPU time  428.10: CPU time  428.47

 eigenvalue-minimisations  :  4240
 total energy-change (2. order) :-0.3276805E+01  (-0.2660433E+01)
 number of electron  352.0000000 magnetization 
 augmentation part   352.0000000 magnetization 

 Free energy of the ion-electron system (eV)
  ---------------------------------------------------
  alpha Z        PSCENC =      2720.01059718
  Ewald energy   TEWEN  =    -29235.58664048
  -1/2 Hartree   DENC   =     -7503.15041597
  -V(xc)+E(xc)   XCENC  =      -358.25701287
  PAW double counting   =     27861.41421209   -26376.63839568
  entropy T*S    EENTRO =        -0.00996022
  eigenvalues    EBANDS =      -397.12825477
  atomic energy  EATOM  =     33197.16788402
  ---------------------------------------------------
  free energy    TOTEN  =       -92.17798670 eV

  energy without entropy =      -92.16802648  energy(sigma->0) =      -92.17466662


--------------------------------------------------------------------------------------------------------




----------------------------------------- Iteration    1(   8)  ---------------------------------------


    EDDIAG:  VPU time   58.63: CPU time   58.80
  RMM-DIIS:  VPU time  372.01: CPU time  373.10
    ORTHCH:  VPU time    9.03: CPU time    9.06
    DOS   :  VPU time    0.00: CPU time   -0.00
    ------------------------------------------
      LOOP:  VPU time  439.72: CPU time  441.02

 eigenvalue-minimisations  :  4240
 total energy-change (2. order) :-0.7230312E+00  (-0.6721797E+00)
 number of electron  352.0000000 magnetization 
 augmentation part   352.0000000 magnetization 

 Free energy of the ion-electron system (eV)
  ---------------------------------------------------
  alpha Z        PSCENC =      2720.01059718
  Ewald energy   TEWEN  =    -29235.58664048
  -1/2 Hartree   DENC   =     -7503.15041597
  -V(xc)+E(xc)   XCENC  =      -358.25701287
  PAW double counting   =     27861.41421209   -26376.63839568
  entropy T*S    EENTRO =        -0.00964596
  eigenvalues    EBANDS =      -397.85160023
  atomic energy  EATOM  =     33197.16788402
  ---------------------------------------------------
  free energy    TOTEN  =       -92.90101791 eV

  energy without entropy =      -92.89137195  energy(sigma->0) =      -92.89780259


--------------------------------------------------------------------------------------------------------




----------------------------------------- Iteration    1(   9)  ---------------------------------------


    EDDIAG:  VPU time   58.06: CPU time   58.11
  RMM-DIIS:  VPU time  684.66: CPU time  686.31
    ORTHCH:  VPU time    8.91: CPU time    8.93
    DOS   :  VPU time   -0.00: CPU time   -0.00
    ------------------------------------------
      LOOP:  VPU time  751.68: CPU time  753.42

 eigenvalue-minimisations  :  8479
 total energy-change (2. order) :-0.2374557E+00  (-0.2221988E+00)
 number of electron  352.0000000 magnetization 
 augmentation part   352.0000000 magnetization 

 Free energy of the ion-electron system (eV)
  ---------------------------------------------------
  alpha Z        PSCENC =      2720.01059718
  Ewald energy   TEWEN  =    -29235.58664048
  -1/2 Hartree   DENC   =     -7503.15041597
  -V(xc)+E(xc)   XCENC  =      -358.25701287
  PAW double counting   =     27861.41421209   -26376.63839568
  entropy T*S    EENTRO =        -0.00960218
  eigenvalues    EBANDS =      -398.08909969
  atomic energy  EATOM  =     33197.16788402
  ---------------------------------------------------
  free energy    TOTEN  =       -93.13847358 eV

  energy without entropy =      -93.12887140  energy(sigma->0) =      -93.13527286


--------------------------------------------------------------------------------------------------------




----------------------------------------- Iteration    1(  10)  ---------------------------------------


    EDDIAG:  VPU time   58.05: CPU time   58.11
  RMM-DIIS:  VPU time  674.18: CPU time  674.81
    ORTHCH:  VPU time    7.30: CPU time    7.31
    DOS   :  VPU time    0.00: CPU time   -0.00
    ------------------------------------------
      LOOP:  VPU time  739.59: CPU time  740.34

 eigenvalue-minimisations  :  8486
 total energy-change (2. order) :-0.2200504E-01  (-0.2048923E-01)
 number of electron  352.0000000 magnetization 
 augmentation part   352.0000000 magnetization 

 Free energy of the ion-electron system (eV)
  ---------------------------------------------------
  alpha Z        PSCENC =      2720.01059718
  Ewald energy   TEWEN  =    -29235.58664048
  -1/2 Hartree   DENC   =     -7503.15041597
  -V(xc)+E(xc)   XCENC  =      -358.25701287
  PAW double counting   =     27861.41421209   -26376.63839568
  entropy T*S    EENTRO =        -0.00959637
  eigenvalues    EBANDS =      -398.11111054
  atomic energy  EATOM  =     33197.16788402
  ---------------------------------------------------
  free energy    TOTEN  =       -93.16047862 eV

  energy without entropy =      -93.15088225  energy(sigma->0) =      -93.15727983


--------------------------------------------------------------------------------------------------------




----------------------------------------- Iteration    1(  11)  ---------------------------------------


    EDDIAG:  VPU time   46.86: CPU time   46.90
  RMM-DIIS:  VPU time  645.99: CPU time  646.61
    ORTHCH:  VPU time    8.84: CPU time    8.85
    DOS   :  VPU time    0.00: CPU time   -0.00
    ------------------------------------------
      LOOP:  VPU time  701.75: CPU time  702.41

 eigenvalue-minimisations  :  8211
 total energy-change (2. order) :-0.8755121E-03  (-0.7783394E-03)
 number of electron  352.0000000 magnetization 
 augmentation part   352.0000000 magnetization 

 Free energy of the ion-electron system (eV)
  ---------------------------------------------------
  alpha Z        PSCENC =      2720.01059718
  Ewald energy   TEWEN  =    -29235.58664048
  -1/2 Hartree   DENC   =     -7503.15041597
  -V(xc)+E(xc)   XCENC  =      -358.25701287
  PAW double counting   =     27861.41421209   -26376.63839568
  entropy T*S    EENTRO =        -0.00959648
  eigenvalues    EBANDS =      -398.11198594
  atomic energy  EATOM  =     33197.16788402
  ---------------------------------------------------
  free energy    TOTEN  =       -93.16135414 eV

  energy without entropy =      -93.15175766  energy(sigma->0) =      -93.15815531


--------------------------------------------------------------------------------------------------------




----------------------------------------- Iteration    1(  12)  ---------------------------------------


    EDDIAG:  VPU time   56.74: CPU time   56.89
  RMM-DIIS:  VPU time  458.49: CPU time  459.53
    ORTHCH:  VPU time    6.38: CPU time    6.38
    DOS   :  VPU time    0.00: CPU time   -0.00
    CHARGE:  VPU time   18.22: CPU time   18.22
    MIXING:  VPU time    0.01: CPU time    0.01
    ------------------------------------------
      LOOP:  VPU time  539.88: CPU time  541.10

 eigenvalue-minimisations  :  7164
 total energy-change (2. order) :-0.8568932E-04  (-0.8221838E-04)
 number of electron  352.0000009 magnetization 
 augmentation part   164.5018919 magnetization 

 Broyden mixing:
  rms(total) = 0.13549E+01    rms(broyden)= 0.13549E+01
  rms(prec ) = 0.20362E+01
  weight for this iteration     100.00

 Free energy of the ion-electron system (eV)
  ---------------------------------------------------
  alpha Z        PSCENC =      2720.01059718
  Ewald energy   TEWEN  =    -29235.58664048
  -1/2 Hartree   DENC   =     -7503.15041597
  -V(xc)+E(xc)   XCENC  =      -358.25701287
  PAW double counting   =     27861.41421209   -26376.63839568
  entropy T*S    EENTRO =        -0.00959648
  eigenvalues    EBANDS =      -398.11207163
  atomic energy  EATOM  =     33197.16788402
  ---------------------------------------------------
  free energy    TOTEN  =       -93.16143983 eV

  energy without entropy =      -93.15184334  energy(sigma->0) =      -93.15824100


--------------------------------------------------------------------------------------------------------




----------------------------------------- Iteration    1(  13)  ---------------------------------------


    POTLOK:  VPU time    0.88: CPU time    0.88
    SETDIJ:  VPU time    1.18: CPU time    1.18
    EDDIAG:  VPU time   44.98: CPU time   45.05
  RMM-DIIS:  VPU time  682.94: CPU time  683.89
    ORTHCH:  VPU time    8.88: CPU time    8.91
    DOS   :  VPU time    0.00: CPU time   -0.00
    CHARGE:  VPU time   27.24: CPU time   27.27
    MIXING:  VPU time    0.02: CPU time    0.02
    ------------------------------------------
      LOOP:  VPU time  766.19: CPU time  767.27

 eigenvalue-minimisations  :  8480
 total energy-change (2. order) : 0.5415729E+01  (-0.2330558E+01)
 number of electron  352.0000010 magnetization 
 augmentation part   169.4677830 magnetization 

 Broyden mixing:
  rms(total) = 0.26259E+00    rms(broyden)= 0.26258E+00
  rms(prec ) = 0.34782E+00
  weight for this iteration     100.00

 eigenvalues of (default mixing * dielectric matrix)
  average eigenvalue GAMMA=   1.0172
  1.0172

 Free energy of the ion-electron system (eV)
  ---------------------------------------------------
  alpha Z        PSCENC =      2720.01059718
  Ewald energy   TEWEN  =    -29235.58664048
  -1/2 Hartree   DENC   =     -7225.97410206
  -V(xc)+E(xc)   XCENC  =      -368.40277308
  PAW double counting   =     27396.56525683   -25927.50146996
  entropy T*S    EENTRO =        -0.01488628
  eigenvalues    EBANDS =      -644.00957681
  atomic energy  EATOM  =     33197.16788402
  ---------------------------------------------------
  free energy    TOTEN  =       -87.74571064 eV

  energy without entropy =      -87.73082436  energy(sigma->0) =      -87.74074855


--------------------------------------------------------------------------------------------------------




----------------------------------------- Iteration    1(  14)  ---------------------------------------


    POTLOK:  VPU time    1.22: CPU time    1.23
    SETDIJ:  VPU time    2.08: CPU time    2.08
    EDDIAG:  VPU time   59.78: CPU time   59.83
  RMM-DIIS:  VPU time  713.08: CPU time  713.64
    ORTHCH:  VPU time    8.45: CPU time    8.46
    DOS   :  VPU time    0.00: CPU time   -0.00
    CHARGE:  VPU time   28.61: CPU time   28.63
    MIXING:  VPU time    0.03: CPU time    0.03
    ------------------------------------------
      LOOP:  VPU time  813.31: CPU time  813.95

 eigenvalue-minimisations  :  8480
 total energy-change (2. order) : 0.8049320E-01  (-0.3487531E-01)
 number of electron  352.0000010 magnetization 
 augmentation part   169.7219272 magnetization 

 Broyden mixing:
  rms(total) = 0.14991E+00    rms(broyden)= 0.14991E+00
  rms(prec ) = 0.18677E+00
  weight for this iteration     100.00

 eigenvalues of (default mixing * dielectric matrix)
  average eigenvalue GAMMA=   1.7019
  1.0483  2.3554

 Free energy of the ion-electron system (eV)
  ---------------------------------------------------
  alpha Z        PSCENC =      2720.01059718
  Ewald energy   TEWEN  =    -29235.58664048
  -1/2 Hartree   DENC   =     -7194.95949718
  -V(xc)+E(xc)   XCENC  =      -369.68696959
  PAW double counting   =     27422.43078234   -25967.02532223
  entropy T*S    EENTRO =        -0.01482577
  eigenvalues    EBANDS =      -660.00122573
  atomic energy  EATOM  =     33197.16788402
  ---------------------------------------------------
  free energy    TOTEN  =       -87.66521744 eV

  energy without entropy =      -87.65039167  energy(sigma->0) =      -87.66027552


--------------------------------------------------------------------------------------------------------




----------------------------------------- Iteration    1(  15)  ---------------------------------------


    POTLOK:  VPU time    1.30: CPU time    1.30
    SETDIJ:  VPU time    2.41: CPU time    2.41
    EDDIAG:  VPU time   57.80: CPU time   57.95
  RMM-DIIS:  VPU time  703.51: CPU time  704.53
    ORTHCH:  VPU time    9.16: CPU time    9.17
    DOS   :  VPU time    0.00: CPU time   -0.00
    CHARGE:  VPU time   28.54: CPU time   28.57
    MIXING:  VPU time    0.03: CPU time    0.03
    ------------------------------------------
      LOOP:  VPU time  802.81: CPU time  804.03

 eigenvalue-minimisations  :  8480
 total energy-change (2. order) : 0.4069747E-01  (-0.5597957E-02)
 number of electron  352.0000010 magnetization 
 augmentation part   169.6105698 magnetization 

 Broyden mixing:
  rms(total) = 0.25876E-01    rms(broyden)= 0.25874E-01
  rms(prec ) = 0.39462E-01
  weight for this iteration     100.00

 eigenvalues of (default mixing * dielectric matrix)
  average eigenvalue GAMMA=   1.7523
  2.8393  1.1215  1.2959

 Free energy of the ion-electron system (eV)
  ---------------------------------------------------
  alpha Z        PSCENC =      2720.01059718
  Ewald energy   TEWEN  =    -29235.58664048
  -1/2 Hartree   DENC   =     -7171.73826129
  -V(xc)+E(xc)   XCENC  =      -370.72681358
  PAW double counting   =     27514.25590397   -26075.83898251
  entropy T*S    EENTRO =        -0.01487401
  eigenvalues    EBANDS =      -665.15333325
  atomic energy  EATOM  =     33197.16788402
  ---------------------------------------------------
  free energy    TOTEN  =       -87.62451997 eV

  energy without entropy =      -87.60964595  energy(sigma->0) =      -87.61956196


--------------------------------------------------------------------------------------------------------




----------------------------------------- Iteration    1(  16)  ---------------------------------------


    POTLOK:  VPU time    1.19: CPU time    1.20
    SETDIJ:  VPU time    2.26: CPU time    2.26
    EDDIAG:  VPU time   57.74: CPU time   57.92
  RMM-DIIS:  VPU time  658.55: CPU time  660.88
    ORTHCH:  VPU time    7.23: CPU time    7.25
    DOS   :  VPU time   -0.00: CPU time   -0.00
    CHARGE:  VPU time   22.83: CPU time   22.91
    MIXING:  VPU time    0.02: CPU time    0.02
    ------------------------------------------
      LOOP:  VPU time  749.88: CPU time  752.50

 eigenvalue-minimisations  :  8480
 total energy-change (2. order) :-0.1507244E-04  (-0.2167661E-02)
 number of electron  352.0000010 magnetization 
 augmentation part   169.7586011 magnetization 

 Broyden mixing:
  rms(total) = 0.15170E-01    rms(broyden)= 0.15170E-01
  rms(prec ) = 0.22454E-01
  weight for this iteration     100.00

 eigenvalues of (default mixing * dielectric matrix)
  average eigenvalue GAMMA=   1.8123
  2.8584  2.3899  1.0006  1.0006

 Free energy of the ion-electron system (eV)
  ---------------------------------------------------
  alpha Z        PSCENC =      2720.01059718
  Ewald energy   TEWEN  =    -29235.58664048
  -1/2 Hartree   DENC   =     -7161.07932991
  -V(xc)+E(xc)   XCENC  =      -371.13775225
  PAW double counting   =     27517.34729886   -26080.20740668
  entropy T*S    EENTRO =        -0.01480985
  eigenvalues    EBANDS =      -674.12437592
  atomic energy  EATOM  =     33197.16788402
  ---------------------------------------------------
  free energy    TOTEN  =       -87.62453504 eV

  energy without entropy =      -87.60972518  energy(sigma->0) =      -87.61959842


--------------------------------------------------------------------------------------------------------




----------------------------------------- Iteration    1(  17)  ---------------------------------------


    POTLOK:  VPU time    0.97: CPU time    0.97
    SETDIJ:  VPU time    1.66: CPU time    1.66
    EDDIAG:  VPU time   55.43: CPU time   55.61
  RMM-DIIS:  VPU time  686.70: CPU time  688.23
    ORTHCH:  VPU time    9.39: CPU time    9.40
    DOS   :  VPU time    0.00: CPU time   -0.00
    CHARGE:  VPU time   28.07: CPU time   28.10
    MIXING:  VPU time    0.03: CPU time    0.03
    ------------------------------------------
      LOOP:  VPU time  782.32: CPU time  784.08

 eigenvalue-minimisations  :  8480
 total energy-change (2. order) : 0.7601412E-03  (-0.8951252E-04)
 number of electron  352.0000010 magnetization 
 augmentation part   169.7272056 magnetization 

 Broyden mixing:
  rms(total) = 0.37823E-02    rms(broyden)= 0.37822E-02
  rms(prec ) = 0.55749E-02
  weight for this iteration     100.00

 eigenvalues of (default mixing * dielectric matrix)
  average eigenvalue GAMMA=   1.7815
  2.8613  2.4583  1.0231  1.0231  1.5419

 Free energy of the ion-electron system (eV)
  ---------------------------------------------------
  alpha Z        PSCENC =      2720.01059718
  Ewald energy   TEWEN  =    -29235.58664048
  -1/2 Hartree   DENC   =     -7164.68767118
  -V(xc)+E(xc)   XCENC  =      -371.00727867
  PAW double counting   =     27524.74211364   -26086.30795475
  entropy T*S    EENTRO =        -0.01483129
  eigenvalues    EBANDS =      -671.93999336
  atomic energy  EATOM  =     33197.16788402
  ---------------------------------------------------
  free energy    TOTEN  =       -87.62377490 eV

  energy without entropy =      -87.60894361  energy(sigma->0) =      -87.61883114


--------------------------------------------------------------------------------------------------------




----------------------------------------- Iteration    1(  18)  ---------------------------------------


    POTLOK:  VPU time    1.17: CPU time    1.18
    SETDIJ:  VPU time    2.19: CPU time    2.19
    EDDIAG:  VPU time   58.85: CPU time   58.90
  RMM-DIIS:  VPU time  569.49: CPU time  569.94
    ORTHCH:  VPU time    6.15: CPU time    6.15
    DOS   :  VPU time    0.00: CPU time   -0.00
    CHARGE:  VPU time   17.83: CPU time   17.84
    MIXING:  VPU time    0.02: CPU time    0.02
    ------------------------------------------
      LOOP:  VPU time  655.76: CPU time  656.29

 eigenvalue-minimisations  :  8442
 total energy-change (2. order) : 0.5245817E-04  (-0.1842347E-04)
 number of electron  352.0000010 magnetization 
 augmentation part   169.7142232 magnetization 

 Broyden mixing:
  rms(total) = 0.33691E-03    rms(broyden)= 0.33670E-03
  rms(prec ) = 0.47769E-03
  weight for this iteration     100.00

 eigenvalues of (default mixing * dielectric matrix)
  average eigenvalue GAMMA=   1.8419
  2.8456  2.8456  2.3436  0.9719  1.0224  1.0224

 Free energy of the ion-electron system (eV)
  ---------------------------------------------------
  alpha Z        PSCENC =      2720.01059718
  Ewald energy   TEWEN  =    -29235.58664048
  -1/2 Hartree   DENC   =     -7165.50557735
  -V(xc)+E(xc)   XCENC  =      -370.97795573
  PAW double counting   =     27525.95081178   -26087.41069439
  entropy T*S    EENTRO =        -0.01483760
  eigenvalues    EBANDS =      -671.25730987
  atomic energy  EATOM  =     33197.16788402
  ---------------------------------------------------
  free energy    TOTEN  =       -87.62372244 eV

  energy without entropy =      -87.60888484  energy(sigma->0) =      -87.61877657


--------------------------------------------------------------------------------------------------------




----------------------------------------- Iteration    1(  19)  ---------------------------------------


    POTLOK:  VPU time    0.81: CPU time    0.81
    SETDIJ:  VPU time    1.18: CPU time    1.18
    EDDIAG:  VPU time   37.64: CPU time   37.67
  RMM-DIIS:  VPU time  134.49: CPU time  134.60
    ORTHCH:  VPU time    6.36: CPU time    6.37
    DOS   :  VPU time    0.00: CPU time   -0.00
    ------------------------------------------
      LOOP:  VPU time  180.54: CPU time  180.68

 eigenvalue-minimisations  :  4111
 total energy-change (2. order) : 0.4728034E-05  (-0.3171047E-06)
 number of electron  352.0000010 magnetization 
 augmentation part   169.7142232 magnetization 

 Free energy of the ion-electron system (eV)
  ---------------------------------------------------
  alpha Z        PSCENC =      2720.01059718
  Ewald energy   TEWEN  =    -29235.58664048
  -1/2 Hartree   DENC   =     -7165.59041135
  -V(xc)+E(xc)   XCENC  =      -370.97485060
  PAW double counting   =     27525.46577193   -26086.90591764
  entropy T*S    EENTRO =        -0.01483815
  eigenvalues    EBANDS =      -671.19531262
  atomic energy  EATOM  =     33197.16788402
  ---------------------------------------------------
  free energy    TOTEN  =       -87.62371771 eV

  energy without entropy =      -87.60887956  energy(sigma->0) =      -87.61877166


--------------------------------------------------------------------------------------------------------




 average (electrostatic) potential at core
  the test charge radii are     1.1249
  (the norm of the test charge is              1.0000)
       1 -42.4435       2 -42.4435       3 -42.4435       4 -42.4435       5 -42.4435
       6 -42.4435       7 -42.4435       8 -42.4435       9 -42.4435      10 -42.4435
      11 -42.4435      12 -42.4435      13 -42.4435      14 -42.4435      15 -42.4435
      16 -42.4435      17 -42.4435      18 -42.4435      19 -42.4435      20 -42.4435
      21 -42.4435      22 -42.4435      23 -42.4435      24 -42.4435      25 -42.4435
      26 -42.4435      27 -42.4435      28 -42.4435      29 -42.4435      30 -42.4435
      31 -42.4435      32 -42.4435
 
 
 
 E-fermi :   1.9515     XC(G=0): -11.0401     alpha+bet : -6.9698
   add alpha+bet to get absolut eigen values

 k-point   1 :       0.0625    0.0625    0.0625
  band No.  band energies     occupation 
      1      -4.4657      2.00000
      2      -3.4030      2.00000
      3      -3.4030      2.00000
      4      -3.4030      2.00000
      5      -3.3980      2.00000
      6      -3.3893      2.00000
      7      -3.3893      2.00000
      8      -3.3893      2.00000
      9      -3.3311      2.00000
     10      -3.3311      2.00000
     11      -3.3311      2.00000
     12      -3.0621      2.00000
     13      -3.0621      2.00000
     14      -3.0621      2.00000
     15      -2.9974      2.00000
     16      -2.9974      2.00000
     17      -2.9974      2.00000
     18      -2.8860      2.00000
     19      -2.8860      2.00000
     20      -2.8860      2.00000
     21      -2.8679      2.00000
     22      -2.8679      2.00000
     23      -2.8679      2.00000
     24      -2.8679      2.00000
     25      -2.8679      2.00000
     26      -2.8679      2.00000
     27      -2.7848      2.00000
     28      -2.7848      2.00000
     29      -2.7848      2.00000
     30      -2.6990      2.00000
     31      -2.6990      2.00000
     32      -2.6990      2.00000
     33      -2.6725      2.00000
     34      -2.6725      2.00000
     35      -2.6725      2.00000
     36      -2.6628      2.00000
     37      -2.6628      2.00000
     38      -2.6628      2.00000
     39      -2.6628      2.00000
     40      -2.6628      2.00000
     41      -2.6628      2.00000
     42      -2.5520      2.00000
     43      -2.5520      2.00000
     44      -2.5520      2.00000
     45      -2.5520      2.00000
     46      -2.5520      2.00000
     47      -2.5520      2.00000
     48      -2.4910      2.00000
     49      -2.4910      2.00000
     50      -2.4910      2.00000
     51      -2.4889      2.00000
     52      -2.4889      2.00000
     53      -2.4889      2.00000
     54      -2.4889      2.00000
     55      -2.4889      2.00000
     56      -2.4889      2.00000
     57      -2.4493      2.00000
     58      -2.4493      2.00000
     59      -2.4493      2.00000
     60      -2.3405      2.00000
     61      -2.3405      2.00000
     62      -2.3405      2.00000
     63      -2.3405      2.00000
     64      -2.3405      2.00000
     65      -2.3405      2.00000
     66      -2.3123      2.00000
     67      -2.3123      2.00000
     68      -2.3123      2.00000
     69      -2.3015      2.00000
     70      -2.3015      2.00000
     71      -2.3006      2.00000
     72      -2.2944      2.00000
     73      -2.2944      2.00000
     74      -2.2944      2.00000
     75      -2.2897      2.00000
     76      -2.2897      2.00000
     77      -2.1703      2.00000
     78      -2.1703      2.00000
     79      -2.1703      2.00000
     80      -2.1703      2.00000
     81      -2.1703      2.00000
     82      -2.1703      2.00000
     83      -2.1500      2.00000
     84      -2.1500      2.00000
     85      -2.1500      2.00000
     86      -2.1134      2.00000
     87      -2.1134      2.00000
     88      -2.1134      2.00000
     89      -1.8564      2.00000
     90      -1.8564      2.00000
     91      -1.8564      2.00000
     92      -1.8096      2.00000
     93      -1.8096      2.00000
     94      -1.8096      2.00000
     95      -1.7998      2.00000
     96      -1.7998      2.00000
     97      -1.7998      2.00000
     98      -1.7982      2.00000
     99      -1.7982      2.00000
    100      -1.7982      2.00000
    101      -1.7982      2.00000
    102      -1.7982      2.00000
    103      -1.7982      2.00000
    104      -1.7513      2.00000
    105      -1.7513      2.00000
    106      -1.7513      2.00000
    107      -1.6550      2.00000
    108      -1.6550      2.00000
    109      -1.6550      2.00000
    110      -1.6191      2.00000
    111      -1.6191      2.00000
    112      -1.6191      2.00000
    113      -1.6125      2.00000
    114      -1.6125      2.00000
    115      -1.6125      2.00000
    116      -1.5804      2.00000
    117      -1.5804      2.00000
    118      -1.5416      2.00000
    119      -1.5416      2.00000
    120      -1.5416      2.00000
    121      -1.5416      2.00000
    122      -1.5416      2.00000
    123      -1.5416      2.00000
    124      -1.5316      2.00000
    125      -1.5316      2.00000
    126      -1.5316      2.00000
    127      -1.5316      2.00000
    128      -1.5316      2.00000
    129      -1.5316      2.00000
    130      -1.4859      2.00000
    131      -1.4859      2.00000
    132      -1.4859      2.00000
    133      -1.4775      2.00000
    134      -1.4775      2.00000
    135      -1.4775      2.00000
    136      -1.3379      2.00000
    137      -1.3379      2.00000
    138      -1.3379      2.00000
    139      -1.2831      2.00000
    140      -1.2831      2.00000
    141      -1.2831      2.00000
    142      -1.1179      2.00000
    143      -1.1179      2.00000
    144      -1.1179      2.00000
    145      -1.0610      2.00000
    146      -1.0610      2.00000
    147      -1.0610      2.00000
    148      -1.0556      2.00000
    149      -1.0556      2.00000
    150      -1.0556      2.00000
    151      -1.0327      2.00000
    152      -1.0327      2.00000
    153      -1.0216      2.00000
    154      -1.0216      2.00000
    155      -1.0216      2.00000
    156      -0.9039      2.00000
    157      -0.9039      2.00000
    158      -0.9039      2.00000
    159      -0.8875      2.00000
    160      -0.8875      2.00000
    161      -0.8875      2.00000
    162      -0.8875      2.00000
    163      -0.8875      2.00000
    164      -0.8875      2.00000
    165      -0.8857      2.00000
    166      -0.8857      2.00000
    167      -0.8857      2.00000
    168       0.7434      2.00000
    169       0.7434      2.00000
    170       0.7434      2.00000
    171       1.2703      2.00002
    172       1.2703      2.00002
    173       1.2703      2.00002
    174       1.2703      2.00002
    175       1.2703      2.00002
    176       1.2703      2.00002
    177       1.7658      2.03209
    178       1.8109      1.92203
    179       1.8109      1.92203
    180       1.8109      1.92203
    181       2.0430      0.30851
    182       2.0430      0.30851
    183       2.0430      0.30851
    184       3.6562     -0.00000
    185       3.6562     -0.00000
    186       3.6562     -0.00000
    187       4.5692     -0.00000
    188       4.5692     -0.00000
    189       4.5692     -0.00000
    190       4.8228     -0.00000
    191       6.6435     -0.00000
    192       6.6435     -0.00000
    193       6.6435     -0.00000
    194       6.6435     -0.00000
    195       6.6435     -0.00000
    196       6.6437     -0.00000
    197       7.2371     -0.00000
    198       7.2371     -0.00000
    199       7.2371     -0.00000
    200       7.2371     -0.00000
    201       7.2379     -0.00000
    202       7.2414     -0.00000
    203       7.3277     -0.00000
    204       7.3289     -0.00000
    205       7.3388     -0.00000
    206       7.9754      0.00000
    207       7.9757      0.00000
    208       7.9772      0.00000
    209       7.9779      0.00000
    210       8.0916      0.00000
    211       9.0253      0.00000
    212       9.1487      0.00000

 k-point   2 :       0.1875    0.0625    0.0625
  band No.  band energies     occupation 
      1      -4.3964      2.00000
      2      -3.3782      2.00000
      3      -3.3762      2.00000
      4      -3.3722      2.00000
      5      -3.3722      2.00000
      6      -3.3592      2.00000
      7      -3.3592      2.00000
      8      -3.3508      2.00000
      9      -3.3128      2.00000
     10      -3.3015      2.00000
     11      -3.3015      2.00000
     12      -3.2517      2.00000
     13      -3.0257      2.00000
     14      -3.0229      2.00000
     15      -3.0229      2.00000
     16      -2.9835      2.00000
     17      -2.9624      2.00000
     18      -2.9624      2.00000
     19      -2.9249      2.00000
     20      -2.9249      2.00000
     21      -2.8628      2.00000
     22      -2.8628      2.00000
     23      -2.8515      2.00000
     24      -2.8515      2.00000
     25      -2.8426      2.00000
     26      -2.8426      2.00000
     27      -2.8347      2.00000
     28      -2.8067      2.00000
     29      -2.8067      2.00000
     30      -2.8016      2.00000
     31      -2.7668      2.00000
     32      -2.7668      2.00000
     33      -2.7395      2.00000
     34      -2.7395      2.00000
     35      -2.7312      2.00000
     36      -2.7312      2.00000
     37      -2.6881      2.00000
     38      -2.6881      2.00000
     39      -2.6838      2.00000
     40      -2.6556      2.00000
     41      -2.6556      2.00000
     42      -2.6518      2.00000
     43      -2.6518      2.00000
     44      -2.5502      2.00000
     45      -2.5502      2.00000
     46      -2.5501      2.00000
     47      -2.5501      2.00000
     48      -2.5016      2.00000
     49      -2.5016      2.00000
     50      -2.5003      2.00000
     51      -2.5003      2.00000
     52      -2.4987      2.00000
     53      -2.4987      2.00000
     54      -2.4531      2.00000
     55      -2.4407      2.00000
     56      -2.4407      2.00000
     57      -2.4188      2.00000
     58      -2.4188      2.00000
     59      -2.4067      2.00000
     60      -2.3548      2.00000
     61      -2.3548      2.00000
     62      -2.3374      2.00000
     63      -2.3374      2.00000
     64      -2.3314      2.00000
     65      -2.3222      2.00000
     66      -2.3222      2.00000
     67      -2.3202      2.00000
     68      -2.2995      2.00000
     69      -2.2869      2.00000
     70      -2.2713      2.00000
     71      -2.2713      2.00000
     72      -2.2701      2.00000
     73      -2.2693      2.00000
     74      -2.2693      2.00000
     75      -2.2687      2.00000
     76      -2.2661      2.00000
     77      -2.2648      2.00000
     78      -2.2648      2.00000
     79      -2.2120      2.00000
     80      -2.2120      2.00000
     81      -2.1597      2.00000
     82      -2.1597      2.00000
     83      -2.1110      2.00000
     84      -2.1110      2.00000
     85      -2.0483      2.00000
     86      -2.0483      2.00000
     87      -2.0105      2.00000
     88      -1.9888      2.00000
     89      -1.9395      2.00000
     90      -1.9284      2.00000
     91      -1.9284      2.00000
     92      -1.9105      2.00000
     93      -1.8815      2.00000
     94      -1.8755      2.00000
     95      -1.8688      2.00000
     96      -1.8688      2.00000
     97      -1.8244      2.00000
     98      -1.8244      2.00000
     99      -1.8026      2.00000
    100      -1.8026      2.00000
    101      -1.7588      2.00000
    102      -1.7588      2.00000
    103      -1.7528      2.00000
    104      -1.7528      2.00000
    105      -1.7278      2.00000
    106      -1.7278      2.00000
    107      -1.7119      2.00000
    108      -1.7119      2.00000
    109      -1.6893      2.00000
    110      -1.6600      2.00000
    111      -1.6600      2.00000
    112      -1.6277      2.00000
    113      -1.6277      2.00000
    114      -1.6016      2.00000
    115      -1.5703      2.00000
    116      -1.5549      2.00000
    117      -1.5549      2.00000
    118      -1.5466      2.00000
    119      -1.5466      2.00000
    120      -1.5399      2.00000
    121      -1.5399      2.00000
    122      -1.5219      2.00000
    123      -1.5043      2.00000
    124      -1.4896      2.00000
    125      -1.4896      2.00000
    126      -1.4839      2.00000
    127      -1.4453      2.00000
    128      -1.4453      2.00000
    129      -1.4296      2.00000
    130      -1.4296      2.00000
    131      -1.4104      2.00000
    132      -1.4104      2.00000
    133      -1.4050      2.00000
    134      -1.3985      2.00000
    135      -1.3985      2.00000
    136      -1.3909      2.00000
    137      -1.2876      2.00000
    138      -1.2876      2.00000
    139      -1.2537      2.00000
    140      -1.2537      2.00000
    141      -1.2279      2.00000
    142      -1.1464      2.00000
    143      -1.1361      2.00000
    144      -1.1361      2.00000
    145      -1.0858      2.00000
    146      -1.0858      2.00000
    147      -1.0710      2.00000
    148      -1.0691      2.00000
    149      -1.0689      2.00000
    150      -1.0362      2.00000
    151      -1.0343      2.00000
    152      -1.0343      2.00000
    153      -0.9921      2.00000
    154      -0.9921      2.00000
    155      -0.9395      2.00000
    156      -0.9355      2.00000
    157      -0.9355      2.00000
    158      -0.9251      2.00000
    159      -0.9251      2.00000
    160      -0.9246      2.00000
    161      -0.9246      2.00000
    162      -0.9177      2.00000
    163      -0.8876      2.00000
    164      -0.8876      2.00000
    165      -0.8875      2.00000
    166      -0.8875      2.00000
    167      -0.5910      2.00000
    168       0.2838      2.00000
    169       0.2838      2.00000
    170       0.7646      2.00000
    171       0.7892      2.00000
    172       0.7892      2.00000
    173       1.3009      2.00004
    174       1.3009      2.00004
    175       1.4685      2.00335
    176       1.8468      1.76581
    177       1.8683      1.64151
    178       1.8683      1.64151
    179       1.9259      1.21529
    180       1.9259      1.21529
    181       2.2067     -0.07017
    182       2.4154     -0.00499
    183       2.4154     -0.00499
    184       3.1227     -0.00000
    185       3.8077     -0.00000
    186       3.8077     -0.00000
    187       4.5934     -0.00000
    188       4.8552     -0.00000
    189       4.8552     -0.00000
    190       5.2700     -0.00000
    191       5.8160     -0.00000
    192       5.8160     -0.00000
    193       6.0554     -0.00000
    194       6.0554     -0.00000
    195       6.3463     -0.00000
    196       6.3463     -0.00000
    197       6.7677     -0.00000
    198       6.7678     -0.00000
    199       7.3471     -0.00000
    200       7.3486     -0.00000
    201       7.3575     -0.00000
    202       7.3587     -0.00000
    203       7.5965      0.00000
    204       7.5978      0.00000
    205       7.9769      0.00000
    206       8.0352      0.00000
    207       8.1766      0.00000
    208       8.2917      0.00000
    209       8.3299      0.00000
    210       8.4262      0.00000
    211       8.4974      0.00000
    212       9.1636      0.00000

 k-point   3 :       0.3125    0.0625    0.0625
  band No.  band energies     occupation 
      1      -4.2597      2.00000
      2      -3.5239      2.00000
      3      -3.3302      2.00000
      4      -3.3239      2.00000
      5      -3.3127      2.00000
      6      -3.3127      2.00000
      7      -3.2994      2.00000
      8      -3.2994      2.00000
      9      -3.2836      2.00000
     10      -3.2766      2.00000
     11      -3.2424      2.00000
     12      -3.2424      2.00000
     13      -3.0976      2.00000
     14      -3.0742      2.00000
     15      -3.0196      2.00000
     16      -3.0196      2.00000
     17      -2.9931      2.00000
     18      -2.9592      2.00000
     19      -2.9592      2.00000
     20      -2.9511      2.00000
     21      -2.9511      2.00000
     22      -2.9390      2.00000
     23      -2.9024      2.00000
     24      -2.9024      2.00000
     25      -2.9023      2.00000
     26      -2.9023      2.00000
     27      -2.8243      2.00000
     28      -2.8243      2.00000
     29      -2.8106      2.00000
     30      -2.8106      2.00000
     31      -2.7944      2.00000
     32      -2.7944      2.00000
     33      -2.7546      2.00000
     34      -2.7546      2.00000
     35      -2.7300      2.00000
     36      -2.7300      2.00000
     37      -2.7219      2.00000
     38      -2.7219      2.00000
     39      -2.7023      2.00000
     40      -2.7023      2.00000
     41      -2.6447      2.00000
     42      -2.6447      2.00000
     43      -2.5870      2.00000
     44      -2.5487      2.00000
     45      -2.5487      2.00000
     46      -2.5395      2.00000
     47      -2.5395      2.00000
     48      -2.5292      2.00000
     49      -2.5292      2.00000
     50      -2.5279      2.00000
     51      -2.5279      2.00000
     52      -2.4939      2.00000
     53      -2.4939      2.00000
     54      -2.4395      2.00000
     55      -2.4182      2.00000
     56      -2.4182      2.00000
     57      -2.4106      2.00000
     58      -2.4106      2.00000
     59      -2.3758      2.00000
     60      -2.3758      2.00000
     61      -2.3641      2.00000
     62      -2.3620      2.00000
     63      -2.3570      2.00000
     64      -2.3452      2.00000
     65      -2.3452      2.00000
     66      -2.3430      2.00000
     67      -2.3430      2.00000
     68      -2.3387      2.00000
     69      -2.3387      2.00000
     70      -2.3322      2.00000
     71      -2.3322      2.00000
     72      -2.3058      2.00000
     73      -2.2831      2.00000
     74      -2.2831      2.00000
     75      -2.2512      2.00000
     76      -2.2311      2.00000
     77      -2.2311      2.00000
     78      -2.2283      2.00000
     79      -2.2283      2.00000
     80      -2.2278      2.00000
     81      -2.2271      2.00000
     82      -2.2175      2.00000
     83      -2.0620      2.00000
     84      -2.0620      2.00000
     85      -2.0349      2.00000
     86      -2.0079      2.00000
     87      -2.0079      2.00000
     88      -1.9971      2.00000
     89      -1.9878      2.00000
     90      -1.9768      2.00000
     91      -1.9768      2.00000
     92      -1.9756      2.00000
     93      -1.8679      2.00000
     94      -1.8679      2.00000
     95      -1.8240      2.00000
     96      -1.8142      2.00000
     97      -1.8142      2.00000
     98      -1.7862      2.00000
     99      -1.7764      2.00000
    100      -1.7764      2.00000
    101      -1.7627      2.00000
    102      -1.7627      2.00000
    103      -1.7597      2.00000
    104      -1.6829      2.00000
    105      -1.6829      2.00000
    106      -1.6680      2.00000
    107      -1.6680      2.00000
    108      -1.6490      2.00000
    109      -1.6490      2.00000
    110      -1.6412      2.00000
    111      -1.6373      2.00000
    112      -1.6373      2.00000
    113      -1.6324      2.00000
    114      -1.6324      2.00000
    115      -1.5593      2.00000
    116      -1.5593      2.00000
    117      -1.5504      2.00000
    118      -1.5415      2.00000
    119      -1.5415      2.00000
    120      -1.5319      2.00000
    121      -1.5319      2.00000
    122      -1.4409      2.00000
    123      -1.4409      2.00000
    124      -1.4402      2.00000
    125      -1.4125      2.00000
    126      -1.4034      2.00000
    127      -1.4034      2.00000
    128      -1.3588      2.00000
    129      -1.3524      2.00000
    130      -1.3392      2.00000
    131      -1.3392      2.00000
    132      -1.3270      2.00000
    133      -1.3270      2.00000
    134      -1.3162      2.00000
    135      -1.3162      2.00000
    136      -1.3102      2.00000
    137      -1.3013      2.00000
    138      -1.3013      2.00000
    139      -1.2775      2.00000
    140      -1.2611      2.00000
    141      -1.2611      2.00000
    142      -1.1795      2.00000
    143      -1.1743      2.00000
    144      -1.1743      2.00000
    145      -1.1731      2.00000
    146      -1.1289      2.00000
    147      -1.1242      2.00000
    148      -1.1242      2.00000
    149      -1.0971      2.00000
    150      -1.0779      2.00000
    151      -1.0779      2.00000
    152      -1.0756      2.00000
    153      -1.0331      2.00000
    154      -1.0331      2.00000
    155      -1.0080      2.00000
    156      -0.9952      2.00000
    157      -0.9952      2.00000
    158      -0.9944      2.00000
    159      -0.9944      2.00000
    160      -0.9770      2.00000
    161      -0.8877      2.00000
    162      -0.8877      2.00000
    163      -0.8876      2.00000
    164      -0.8876      2.00000
    165      -0.6706      2.00000
    166      -0.6706      2.00000
    167      -0.1153      2.00000
    168      -0.1153      2.00000
    169       0.0524      2.00000
    170       0.3611      2.00000
    171       0.3611      2.00000
    172       0.8113      2.00000
    173       1.2130      2.00000
    174       1.3636      2.00026
    175       1.3636      2.00026
    176       1.7577      2.04321
    177       1.7577      2.04321
    178       1.9169      1.28858
[...]
    111      -1.7262      2.00000
    112      -1.7262      2.00000
    113      -1.7259      2.00000
    114      -1.7259      2.00000
    115      -1.7259      2.00000
    116      -1.6719      2.00000
    117      -1.6719      2.00000
    118      -1.6719      2.00000
    119      -1.6309      2.00000
    120      -1.6309      2.00000
    121      -1.6309      2.00000
    122      -1.6309      2.00000
    123      -1.6309      2.00000
    124      -1.6309      2.00000
    125      -1.6161      2.00000
    126      -1.5713      2.00000
    127      -1.5713      2.00000
    128      -1.5713      2.00000
    129      -1.5395      2.00000
    130      -1.5395      2.00000
    131      -1.5216      2.00000
    132      -1.5216      2.00000
    133      -1.5216      2.00000
    134      -1.5143      2.00000
    135      -1.5143      2.00000
    136      -1.5143      2.00000
    137      -1.4520      2.00000
    138      -1.4520      2.00000
    139      -1.4520      2.00000
    140      -1.4104      2.00000
    141      -1.4104      2.00000
    142      -1.3574      2.00000
    143      -1.3574      2.00000
    144      -1.3574      2.00000
    145      -1.0069      2.00000
    146      -1.0069      2.00000
    147      -1.0069      2.00000
    148      -0.9930      2.00000
    149      -0.9930      2.00000
    150      -0.9930      2.00000
    151      -0.9930      2.00000
    152      -0.9930      2.00000
    153      -0.9930      2.00000
    154      -0.9930      2.00000
    155      -0.9930      2.00000
    156      -0.9930      2.00000
    157      -0.9930      2.00000
    158      -0.9930      2.00000
    159      -0.9930      2.00000
    160      -0.9913      2.00000
    161      -0.9913      2.00000
    162      -0.9913      2.00000
    163      -0.9816      2.00000
    164      -0.9816      2.00000
    165      -0.9816      2.00000
    166      -0.9741      2.00000
    167      -0.9741      2.00000
    168      -0.9741      2.00000
    169       2.0283      0.40038
    170       2.0283      0.40038
    171       2.0283      0.40038
    172       2.3453     -0.01765
    173       2.3453     -0.01765
    174       2.3453     -0.01765
    175       2.3453     -0.01765
    176       2.3453     -0.01765
    177       2.3453     -0.01765
    178       2.6288     -0.00002
    179       2.6288     -0.00002
    180       2.6288     -0.00002
    181       2.8414     -0.00000
    182       2.8414     -0.00000
    183       2.8414     -0.00000
    184       3.1735     -0.00000
    185       3.1735     -0.00000
    186       3.1735     -0.00000
    187       3.1735     -0.00000
    188       3.1735     -0.00000
    189       3.1735     -0.00000
    190       3.4743     -0.00000
    191       3.4743     -0.00000
    192       3.4743     -0.00000
    193       6.2575     -0.00000
    194       6.2575     -0.00000
    195       6.2575     -0.00000
    196       6.5828     -0.00000
    197       6.5830     -0.00000
    198       6.5838     -0.00000
    199       7.0074     -0.00000
    200       7.0074     -0.00000
    201       7.0079     -0.00000
    202       7.0107     -0.00000
    203       7.0135     -0.00000
    204       7.0298     -0.00000
    205       7.3393     -0.00000
    206       7.3393     -0.00000
    207       7.3442     -0.00000
    208       7.3517     -0.00000
    209       7.3682     -0.00000
    210       7.4557      0.00000
    211       7.8251      0.00000
    212       8.0093      0.00000


--------------------------------------------------------------------------------------------------------


 soft charge-density along one line, spin component           1
         0         1         2         3         4         5         6         7         8         9
 total charge-density along one line
 
 pseudopotential strength for first ion, spin component:           1
-12.630   0.000  -0.000   0.000  -0.000   0.218  -0.000   0.000
  0.000 -12.630   0.000   0.000  -0.000  -0.000   0.218  -0.000
 -0.000   0.000 -12.622   0.000  -0.000   0.000  -0.000   0.216
  0.000   0.000   0.000 -12.630   0.000  -0.000  -0.000  -0.000
 -0.000  -0.000  -0.000   0.000 -12.622   0.000   0.000   0.000
  0.218  -0.000   0.000  -0.000   0.000   0.441   0.000  -0.000
 -0.000   0.218  -0.000  -0.000   0.000   0.000   0.441   0.000
  0.000  -0.000   0.216  -0.000   0.000  -0.000   0.000   0.441
 -0.000  -0.000  -0.000   0.218  -0.000   0.000   0.000   0.000
  0.000   0.000   0.000  -0.000   0.216  -0.000  -0.000  -0.000
 -0.000  -0.000  -0.000  -0.000  -0.000   0.000   0.000   0.000
  0.000   0.000   0.000   0.000   0.000  -0.000  -0.000  -0.000
  0.000  -0.000  -0.000   0.000  -0.000  -0.000   0.000   0.000
  0.000   0.000  -0.000   0.000   0.000  -0.000  -0.000   0.000
  0.000   0.000  -0.000  -0.000   0.000  -0.000  -0.000   0.000
 -0.000   0.000   0.000  -0.000   0.000   0.000  -0.000  -0.000
 -0.000  -0.000   0.000  -0.000  -0.000   0.000   0.000  -0.000
 -0.000  -0.000   0.000   0.000  -0.000   0.000   0.000  -0.000
 total augmentation occupancy for first ion, spin component:           1
  1.943  -0.000  -0.001   0.001   0.001  -0.035   0.000  -0.000  -0.000  -0.001   0.005  -0.001  -0.000   0.000  -0.000  -0.000
 -0.000   1.949  -0.002  -0.000  -0.000   0.000  -0.042   0.002   0.000  -0.001   0.001  -0.001  -0.000  -0.000   0.000  -0.000
 -0.001  -0.002   1.970  -0.001   0.002  -0.000   0.002  -0.060   0.001  -0.001   0.017   0.001   0.000  -0.000   0.000   0.000
  0.001  -0.000  -0.001   1.946   0.001  -0.000   0.000   0.001  -0.037  -0.000   0.003  -0.000  -0.000  -0.000  -0.000  -0.000
  0.001  -0.000   0.002   0.001   1.960  -0.001  -0.001  -0.001  -0.000  -0.053  -0.009  -0.001  -0.000   0.000   0.000  -0.000
 -0.035   0.000  -0.000  -0.000  -0.001   0.047  -0.000   0.001   0.000   0.000  -0.002   0.001   0.000  -0.000   0.000   0.000
  0.000  -0.042   0.002   0.000  -0.001  -0.000   0.052  -0.002   0.000   0.001   0.002   0.001   0.000   0.000  -0.000   0.000
 -0.000   0.002  -0.060   0.001  -0.001   0.001  -0.002   0.042  -0.001   0.000  -0.012   0.001   0.000   0.000  -0.000   0.000
 -0.000   0.000   0.001  -0.037  -0.000   0.000   0.000  -0.001   0.047  -0.000  -0.001   0.001   0.000   0.000   0.000   0.000
 -0.001  -0.001  -0.001  -0.000  -0.053   0.000   0.001   0.000  -0.000   0.038   0.007   0.000   0.000   0.000  -0.000   0.000
  0.005   0.001   0.017   0.003  -0.009  -0.002   0.002  -0.012  -0.001   0.007   0.945  -0.278   0.000  -0.000   0.000   0.000
 -0.001  -0.001   0.001  -0.000  -0.001   0.001   0.001   0.001   0.001   0.000  -0.278   0.126   0.000  -0.000   0.000  -0.000
 -0.000  -0.000   0.000  -0.000  -0.000   0.000   0.000   0.000   0.000   0.000   0.000   0.000   0.078  -0.002   0.003  -0.004
  0.000  -0.000  -0.000  -0.000   0.000  -0.000   0.000   0.000   0.000   0.000  -0.000  -0.000  -0.002   0.082   0.001  -0.000
 -0.000   0.000   0.000  -0.000   0.000   0.000  -0.000  -0.000   0.000  -0.000   0.000   0.000   0.003   0.001   0.076  -0.000
 -0.000  -0.000   0.000  -0.000  -0.000   0.000   0.000   0.000   0.000   0.000   0.000  -0.000  -0.004  -0.000  -0.000   0.000
  0.000  -0.000  -0.000  -0.000   0.000  -0.000   0.000   0.000   0.000  -0.000  -0.000   0.000  -0.000  -0.004  -0.000   0.000
 -0.000   0.000   0.000  -0.000   0.000   0.000  -0.000  -0.000   0.000  -0.000  -0.000  -0.000  -0.000  -0.000  -0.004   0.000


------------------------ aborting loop because EDIFF is reached ----------------------------------------




--------------------------------------------------------------------------------------------------------


    CHARGE:  VPU time   18.43: CPU time   18.44
    FORLOC:  VPU time    0.15: CPU time    0.15
    FORNL :  VPU time   92.56: CPU time   92.63
    STRESS:  VPU time  459.62: CPU time  460.19
    FORCOR:  VPU time    0.93: CPU time    0.93
    FORHAR:  VPU time    0.31: CPU time    0.31
    MIXING:  VPU time    0.02: CPU time    0.02


--------------------------------------------------------------------------------------------------------



  FREE ENERGIE OF THE ION-ELECTRON SYSTEM (eV)
  ---------------------------------------------------
  free  energy   TOTEN  =       -87.623718 eV

  energy  without entropy=      -87.608880  energy(sigma->0) =      -87.618772
 

  FORCE on cell =-STRESS in cart. coord.  units (eV/reduce length):
  Direction    X        Y        Z        XY       YZ       ZX
  --------------------------------------------------------------------------------------
  Alpha Z   2720.01   2720.01   2720.01
  Ewald    -9745.24  -9745.24  -9745.24     -0.00     -0.00     -0.00
  Hartree   2388.52   2388.52   2388.52     -0.00     -0.00     -0.00
  E(xc)    -1851.68  -1851.68  -1851.68     -0.00     -0.00     -0.00
  Local     2940.71   2940.71   2940.71      0.00      0.00      0.00
  n-local  -2174.00  -2169.49  -2163.96      2.31     -0.32      1.22
  augment   1335.57   1335.57   1335.57     -0.00     -0.00     -0.00
  Kinetic   4337.55   4345.09   4354.22      1.96     -2.82      0.29
  -------------------------------------------------------------------------------------
  Total      -35.64    -35.64    -35.64     -0.00     -0.00     -0.00
  in kB      -85.42    -85.42    -85.42     -0.00     -0.00     -0.00
  external pressure =      -85.42 kB  Pullay stress =        0.00 kB


 VOLUME and BASIS-vectors are now :
 -----------------------------------------------------------------------------
  energy-cutoff  :      600.00
  volume of cell :      668.53
      direct lattice vectors                 reciprocal lattice vectors
     8.743915170  0.000000000  0.000000000     0.114365245 -0.000000002 -0.000000002
     0.000000160  8.743915170  0.000000000     0.000000000  0.114365245 -0.000000002
     0.000000160  0.000000160  8.743915170     0.000000000  0.000000000  0.114365245

  length of vectors
     8.743915170  8.743915170  8.743915170     0.114365245  0.114365245  0.114365245


 FORCES acting on ions
    electron-ion (+dipol)            ewald-force                    non-local-force                 convergence-correction
 -----------------------------------------------------------------------------------------------
   0.710E-12 -.176E-10 0.397E-11   -.711E-13 -.222E-13 0.399E-13   0.803E-23 -.731E-23 0.207E-24   0.421E-13 -.116E-13 -.735E-12
   0.704E-12 -.177E-11 -.568E-12   -.586E-13 -.515E-13 0.204E-13   0.224E-22 -.160E-22 -.476E-23   -.892E-13 -.431E-12 0.103E-11
   0.724E-12 -.350E-13 -.713E-11   0.249E-13 0.385E-13 -.213E-13   0.184E-22 0.168E-22 -.553E-23   -.213E-12 -.327E-12 -.991E-13
   0.710E-12 0.429E-11 0.239E-11   -.417E-13 -.136E-12 -.415E-14   0.593E-23 0.103E-22 -.372E-23   0.239E-14 -.363E-13 -.301E-12
   -.362E-13 0.742E-12 0.150E-12   0.119E-13 -.977E-14 -.488E-14   -.522E-23 0.301E-23 -.284E-23   -.257E-13 -.116E-12 -.240E-12
   -.232E-13 -.145E-13 0.456E-12   0.195E-13 -.872E-13 -.550E-13   0.809E-24 -.582E-23 0.941E-23   0.117E-12 -.170E-12 -.409E-12
   0.208E-12 -.146E-11 0.173E-11   0.382E-13 0.653E-13 -.822E-13   0.184E-22 -.370E-23 -.858E-23   -.827E-13 -.149E-13 -.405E-12
   0.712E-12 0.169E-12 0.249E-11   -.808E-13 0.203E-14 0.417E-13   -.504E-23 -.102E-22 -.136E-22   -.105E-13 0.843E-13 -.322E-12
   0.704E-12 -.113E-10 -.765E-12   -.968E-13 0.515E-13 0.474E-13   -.114E-22 0.798E-23 0.207E-24   -.271E-12 0.404E-12 0.644E-12
   0.706E-12 -.145E-11 0.847E-11   0.409E-13 -.293E-14 -.702E-13   -.124E-22 0.462E-23 0.869E-23   -.862E-13 0.389E-12 -.541E-12
   -.236E-13 0.727E-12 0.753E-12   0.455E-13 -.666E-13 -.622E-14   0.974E-23 -.439E-23 -.682E-23   0.298E-12 -.204E-12 -.160E-12
   -.153E-13 -.189E-13 -.237E-13   0.123E-13 0.157E-13 -.542E-13   0.108E-22 0.896E-23 0.491E-23   0.446E-12 -.763E-13 0.761E-12
   -.178E-13 0.175E-12 0.156E-12   0.308E-13 -.613E-13 -.613E-13   0.207E-22 0.109E-22 0.476E-23   0.275E-12 0.853E-13 -.312E-12
   -.231E-13 0.436E-12 0.471E-12   -.212E-13 -.489E-13 -.995E-14   0.557E-23 -.312E-23 0.729E-23   0.125E-12 0.218E-12 -.343E-12
   0.215E-12 0.295E-11 0.110E-11   -.116E-12 -.657E-13 -.420E-13   0.490E-23 0.180E-23 0.760E-23   0.481E-13 -.962E-13 0.711E-12
   0.196E-12 0.131E-13 -.206E-11   -.684E-13 0.140E-13 0.222E-13   0.474E-23 0.805E-23 -.310E-24   0.165E-12 -.190E-13 -.399E-12
   0.211E-12 0.224E-11 0.167E-11   0.107E-13 -.773E-13 0.535E-13   -.148E-22 -.596E-23 0.827E-24   -.458E-13 -.211E-13 -.314E-12
   0.468E-12 -.393E-11 -.519E-12   0.614E-13 0.178E-14 0.275E-13   0.182E-22 0.266E-23 0.465E-23   0.136E-12 0.673E-15 -.376E-12
   0.455E-12 0.344E-14 -.379E-11   0.318E-13 -.176E-13 -.271E-13   0.853E-23 0.212E-23 -.207E-24   -.183E-13 -.105E-12 -.605E-12
   0.695E-12 -.426E-12 -.131E-10   -.115E-13 -.335E-13 0.311E-13   0.361E-23 -.755E-23 -.527E-23   -.207E-13 -.222E-13 0.101E-12
   -.494E-14 0.186E-12 0.748E-12   -.214E-13 -.400E-13 0.133E-14   -.141E-22 0.940E-24 -.517E-25   0.252E-12 0.173E-12 -.305E-13
   -.154E-13 0.441E-12 -.354E-13   0.457E-13 -.133E-13 -.439E-13   -.810E-23 0.437E-23 -.186E-23   0.104E-12 0.113E-12 0.649E-12
   0.207E-12 -.177E-13 0.277E-11   -.142E-13 -.219E-14 -.213E-13   -.110E-22 -.372E-23 0.207E-23   -.353E-13 0.424E-13 0.395E-13
   0.218E-12 -.190E-11 0.115E-11   0.586E-13 0.108E-12 0.943E-13   0.130E-22 0.765E-23 -.455E-23   0.226E-12 0.584E-13 0.679E-12
   0.215E-12 0.423E-12 0.206E-11   0.542E-13 -.309E-13 -.169E-13   0.255E-22 -.118E-22 -.238E-23   0.323E-13 0.925E-13 -.481E-12
   0.457E-12 0.369E-11 0.664E-11   0.111E-12 -.213E-13 0.435E-13   -.423E-23 -.135E-22 -.165E-23   -.187E-12 -.227E-12 -.328E-13
   0.449E-12 0.105E-12 0.308E-11   0.500E-13 0.665E-13 0.418E-13   -.138E-22 -.706E-23 0.114E-22   -.346E-12 0.138E-12 0.970E-12
   0.450E-12 -.365E-11 -.849E-12   0.153E-13 -.355E-13 -.151E-13   -.197E-22 0.155E-22 0.729E-23   -.168E-12 -.483E-13 -.604E-12
   0.456E-12 -.345E-11 -.343E-11   0.102E-12 -.213E-13 -.541E-13   -.971E-23 0.547E-23 -.724E-23   -.290E-13 0.202E-12 -.397E-12
   0.227E-12 0.448E-12 -.138E-11   0.160E-13 -.140E-13 0.844E-13   -.155E-22 0.666E-23 -.372E-23   -.334E-13 0.298E-13 0.118E-12
   0.438E-12 -.282E-11 -.156E-11   -.661E-13 0.409E-13 0.151E-13   0.410E-23 -.891E-23 -.750E-23   -.148E-12 0.181E-12 0.219E-12
   0.449E-12 -.359E-11 0.229E-11   0.809E-13 -.836E-13 -.437E-13   0.262E-22 -.331E-23 -.527E-23   -.105E-13 -.388E-13 0.720E-12
 -----------------------------------------------------------------------------------------------
   0.108E-10 -.364E-10 0.729E-11   0.193E-12 -.539E-12 -.693E-13   0.847E-22 0.550E-23 -.166E-22   0.446E-12 0.245E-12 -.458E-12
 
 
 POSITION                                       TOTAL-FORCE (eV/Angst)
 -----------------------------------------------------------------------------------
      6.55794      6.55794      4.37196         0.000000     -0.000000      0.000000
      6.55794      6.55794      0.00000         0.000000     -0.000000     -0.000000
      6.55794      0.00000      2.18598         0.000000     -0.000000     -0.000000
      6.55794      2.18598      4.37196        -0.000000      0.000000     -0.000000
      0.00000      6.55794      2.18598        -0.000000      0.000000     -0.000000
      0.00000      0.00000      4.37196         0.000000      0.000000      0.000000
      2.18598      6.55794      4.37196        -0.000000     -0.000000     -0.000000
      6.55794      0.00000      6.55794         0.000000      0.000000      0.000000
      6.55794      2.18598      0.00000        -0.000000      0.000000     -0.000000
      6.55794      4.37196      2.18598        -0.000000     -0.000000     -0.000000
      0.00000      6.55794      6.55794        -0.000000     -0.000000      0.000000
      0.00000      0.00000      0.00000        -0.000000     -0.000000     -0.000000
      0.00000      2.18598      2.18598        -0.000000     -0.000000     -0.000000
      0.00000      4.37196      4.37196        -0.000000      0.000000     -0.000000
      2.18598      6.55794      0.00000        -0.000000      0.000000     -0.000000
      2.18598      0.00000      2.18598        -0.000000      0.000000     -0.000000
      2.18598      2.18598      4.37196         0.000000     -0.000000     -0.000000
      4.37196      6.55794      2.18598        -0.000000     -0.000000     -0.000000
      4.37196      0.00000      4.37196        -0.000000     -0.000000     -0.000000
      6.55794      4.37196      6.55794         0.000000      0.000000      0.000000
      0.00000      2.18598      6.55794         0.000000      0.000000      0.000000
      0.00000      4.37196      0.00000        -0.000000      0.000000      0.000000
      2.18598      0.00000      6.55794        -0.000000     -0.000000      0.000000
      2.18598      2.18598      0.00000         0.000000     -0.000000     -0.000000
      2.18598      4.37196      2.18598        -0.000000      0.000000     -0.000000
      4.37196      6.55794      6.55794         0.000000     -0.000000      0.000000
      4.37196      0.00000      0.00000        -0.000000      0.000000     -0.000000
      4.37196      2.18598      2.18598        -0.000000      0.000000      0.000000
      4.37196      4.37196      4.37196         0.000000     -0.000000      0.000000
      2.18598      4.37196      6.55794         0.000000     -0.000000      0.000000
      4.37196      2.18598      6.55794         0.000000     -0.000000      0.000000
      4.37196      4.37196      0.00000         0.000000     -0.000000      0.000000
 -----------------------------------------------------------------------------------
    total drift:                                0.000000     -0.000000      0.000000


--------------------------------------------------------------------------------------------------------




--------------------------------------------------------------------------------------------------------


  
 reached required accuracy - stopping structural energy minimisation
 writing wavefunctions
     LOOP+:  VPU time11527.18: CPU time11551.46

 ----------------------------------------------------------------------------- 
|                                                                             |
|           W    W    AA    RRRRR   N    N  II  N    N   GGGG   !!!           |
|           W    W   A  A   R    R  NN   N  II  NN   N  G    G  !!!           |
|           W    W  A    A  R    R  N N  N  II  N N  N  G       !!!           |
|           W WW W  AAAAAA  RRRRR   N  N N  II  N  N N  G  GGG   !            |
|           WW  WW  A    A  R   R   N   NN  II  N   NN  G    G                |
|           W    W  A    A  R    R  N    N  II  N    N   GGGG   !!!           |
|                                                                             |
|      The partial DOS and the PROCAR file are not evaluated for NPAR/=1      |
|      please rerun with NPAR=1                                               |
|                                                                             |
 ----------------------------------------------------------------------------- 

  
  
 General timing and accounting informations for this job:
 ========================================================
  
                  Total CPU time used (sec):    11693.265
                            User time (sec):    11560.311
                          System time (sec):      132.955
                         Elapsed time (sec):    11717.718
  
                   Maximum memory used (kb):     2127792.
                   Average memory used (kb):           0.
  
                          Minor page faults:       425844
                          Major page faults:            0
                 Voluntary context switches:        14929
