 running on    2 nodes
 distr:  one band on    1 nodes,    2 groups
 vasp.4.6.28 25Jul05 complex 
 POSCAR found :  1 types and    4 ions
 LDA part: xc-table for Pade appr. of Perdew
 generate k-points for:  13  13  13
 POSCAR, INCAR and KPOINTS ok, starting setup
 WARNING: wrap around errors must be expected
 FFT: planning ...           1
 reading WAVECAR
 WARNING: random wavefunctions but no delay for mixing, default for NELMDL
 entering main loop
       N       E                     dE             d eps       ncg     rms          rms(c)
DAV:   1     0.268006788271E+03    0.26801E+03   -0.21056E+04  4392   0.240E+03
DAV:   2    -0.249024764913E+01   -0.27050E+03   -0.26497E+03  4384   0.396E+02
DAV:   3    -0.172777351748E+02   -0.14787E+02   -0.14369E+02  4512   0.123E+02
DAV:   4    -0.174403508835E+02   -0.16262E+00   -0.16214E+00  4642   0.135E+01
DAV:   5    -0.174412731131E+02   -0.92223E-03   -0.92196E-03  4586   0.688E-01    0.133E+01
DAV:   6    -0.160881632479E+02    0.13531E+01   -0.40945E+01  4544   0.972E+01    0.778E+00
DAV:   7    -0.143759597829E+02    0.17122E+01   -0.79842E+00  4706   0.435E+01    0.729E-01
DAV:   8    -0.143713324497E+02    0.46273E-02   -0.16529E-01  4670   0.444E+00    0.950E-01
DAV:   9    -0.143543574706E+02    0.16975E-01   -0.81294E-02  4628   0.422E+00    0.122E-01
DAV:  10    -0.143541915286E+02    0.16594E-03   -0.22669E-03  4686   0.678E-01    0.109E-02
DAV:  11    -0.143541934858E+02   -0.19572E-05   -0.21412E-05  4450   0.436E-02    0.204E-03
DAV:  12    -0.143541954942E+02   -0.20084E-05   -0.57612E-07  4654   0.992E-03    0.192E-03
DAV:  13    -0.143541968708E+02   -0.13765E-05   -0.42474E-07  4622   0.964E-03    0.433E-04
DAV:  14    -0.143541969204E+02   -0.49634E-07   -0.17320E-08  2406   0.210E-03    0.118E-05
DAV:  15    -0.143541969148E+02    0.56070E-08   -0.11825E-09  2260   0.284E-04
   1 F= -.14354197E+02 E0= -.14354134E+02  d E =-.126543E-03
