   4   4   0   0
  0.1431786E+02  0.3854601E-09  0.3854601E-09  0.3854601E-09  0.5000000E-15
  1.000000000000000E-004
  CAR 
 unknown system                          
     11.76276889     -6.51141026  301      2.30083540      1.00000000
     -6.511  0.0000E+00  0.0000E+00
     -6.450  0.0000E+00  0.0000E+00
     -6.390  0.0000E+00  0.0000E+00
     -6.329  0.0000E+00  0.0000E+00
     -6.268  0.0000E+00  0.0000E+00
     -6.207  0.0000E+00  0.0000E+00
     -6.146  0.0000E+00  0.0000E+00
     -6.085  0.0000E+00  0.0000E+00
     -6.024  0.0000E+00  0.0000E+00
     -5.963  0.0000E+00  0.0000E+00
     -5.902  0.0000E+00  0.0000E+00
     -5.841  0.0000E+00  0.0000E+00
     -5.780  0.0000E+00  0.0000E+00
     -5.720  0.3143E-09  0.1914E-10
     -5.659  0.1493E-01  0.9095E-03
     -5.598  0.8948E-01  0.6361E-02
     -5.537  0.1786E+00  0.1725E-01
     -5.476  0.1194E+00  0.2452E-01
     -5.415  0.8937E-01  0.2997E-01
     -5.354  0.3528E+00  0.5146E-01
     -5.293  0.3563E+00  0.7316E-01
     -5.232  0.9447E-02  0.7374E-01
     -5.171  0.1719E+00  0.8421E-01
     -5.110  0.4353E+00  0.1107E+00
     -5.049  0.3583E+00  0.1326E+00
     -4.989  0.3600E+00  0.1545E+00
     -4.928  0.1349E+00  0.1627E+00
     -4.867  0.3467E+00  0.1838E+00
     -4.806  0.7110E+00  0.2271E+00
     -4.745  0.2237E-01  0.2285E+00
     -4.684  0.8653E-01  0.2338E+00
     -4.623  0.7108E+00  0.2771E+00
     -4.562  0.5426E+00  0.3101E+00
     -4.501  0.3631E+00  0.3322E+00
     -4.440  0.3579E+00  0.3541E+00
     -4.379  0.7170E+00  0.3978E+00
     -4.319  0.3587E+00  0.4197E+00
     -4.258  0.3281E-04  0.4197E+00
     -4.197  0.3587E+00  0.4415E+00
     -4.136  0.4494E+00  0.4689E+00
     -4.075  0.1090E+01  0.5353E+00
     -4.014  0.4631E+00  0.5635E+00
     -3.953  0.2803E+00  0.5806E+00
     -3.892  0.9278E+00  0.6371E+00
     -3.831  0.5852E+00  0.6727E+00
     -3.770  0.1313E+00  0.6807E+00
     -3.709  0.7488E+00  0.7263E+00
     -3.648  0.7274E+00  0.7707E+00
     -3.588  0.7278E+00  0.8150E+00
     -3.527  0.4443E+00  0.8421E+00
     -3.466  0.5463E+00  0.8753E+00
     -3.405  0.8883E+00  0.9294E+00
     -3.344  0.1344E+00  0.9376E+00
     -3.283  0.1500E+01  0.1029E+01
     -3.222  0.1001E+01  0.1090E+01
     -3.161  0.2347E+00  0.1104E+01
     -3.100  0.1034E+01  0.1167E+01
     -3.039  0.7144E+00  0.1211E+01
     -2.978  0.5211E+00  0.1243E+01
     -2.917  0.7235E-01  0.1247E+01
     -2.857  0.1596E+01  0.1344E+01
     -2.796  0.1004E+01  0.1405E+01
     -2.735  0.3966E+00  0.1430E+01
     -2.674  0.1941E+01  0.1548E+01
     -2.613  0.1036E+01  0.1611E+01
     -2.552  0.7097E+00  0.1654E+01
     -2.491  0.6970E+00  0.1697E+01
     -2.430  0.1736E+01  0.1802E+01
     -2.369  0.5812E-01  0.1806E+01
     -2.308  0.2092E+01  0.1933E+01
     -2.247  0.1485E+01  0.2024E+01
     -2.187  0.6651E+00  0.2064E+01
     -2.126  0.2376E+01  0.2209E+01
     -2.065  0.2149E+01  0.2340E+01
     -2.004  0.5694E+00  0.2375E+01
     -1.943  0.9511E+00  0.2432E+01
     -1.882  0.3213E+01  0.2628E+01
     -1.821  0.4326E+01  0.2892E+01
     -1.760  0.2117E+01  0.3021E+01
     -1.699  0.2480E+01  0.3172E+01
     -1.638  0.4380E+01  0.3439E+01
     -1.577  0.3952E+01  0.3679E+01
     -1.516  0.6952E+01  0.4103E+01
     -1.456  0.5256E+01  0.4423E+01
     -1.395  0.4881E+01  0.4720E+01
     -1.334  0.8340E+01  0.5228E+01
     -1.273  0.4235E+01  0.5486E+01
     -1.212  0.8113E+01  0.5981E+01
     -1.151  0.9962E+01  0.6588E+01
     -1.090  0.9367E+01  0.7158E+01
     -1.029  0.1165E+02  0.7868E+01
     -0.968  0.1353E+02  0.8692E+01
     -0.907  0.1097E+02  0.9360E+01
     -0.846  0.1028E+02  0.9987E+01
     -0.786  0.1003E+02  0.1060E+02
     -0.725  0.1216E+02  0.1134E+02
     -0.664  0.1184E+02  0.1206E+02
     -0.603  0.9873E+01  0.1266E+02
     -0.542  0.1364E+02  0.1349E+02
     -0.481  0.1352E+02  0.1432E+02
     -0.420  0.2046E+02  0.1556E+02
     -0.359  0.1440E+02  0.1644E+02
     -0.298  0.1687E+02  0.1747E+02
     -0.237  0.2098E+02  0.1875E+02
     -0.176  0.2225E+02  0.2010E+02
     -0.115  0.2189E+02  0.2144E+02
     -0.055  0.2747E+02  0.2311E+02
      0.006  0.1907E+02  0.2427E+02
      0.067  0.1448E+02  0.2515E+02
      0.128  0.1527E+02  0.2608E+02
      0.189  0.1278E+02  0.2686E+02
      0.250  0.1588E+02  0.2783E+02
      0.311  0.2099E+02  0.2911E+02
      0.372  0.2073E+02  0.3037E+02
      0.433  0.1916E+02  0.3154E+02
      0.494  0.1886E+02  0.3269E+02
      0.555  0.1734E+02  0.3374E+02
      0.616  0.1669E+02  0.3476E+02
      0.676  0.2059E+02  0.3601E+02
      0.737  0.1944E+02  0.3720E+02
      0.798  0.3419E+02  0.3928E+02
      0.859  0.2771E+02  0.4097E+02
      0.920  0.1159E+02  0.4168E+02
      0.981  0.4955E+01  0.4198E+02
      1.042  0.2433E+01  0.4213E+02
      1.103  0.5030E+00  0.4216E+02
      1.164  0.1528E+01  0.4225E+02
      1.225  0.3318E+01  0.4245E+02
      1.286  0.1227E+01  0.4253E+02
      1.346  0.8149E+00  0.4258E+02
      1.407  0.1615E+01  0.4268E+02
      1.468  0.1180E+01  0.4275E+02
      1.529  0.3122E+01  0.4294E+02
      1.590  0.1468E+01  0.4303E+02
      1.651  0.1079E+01  0.4309E+02
      1.712  0.1434E+01  0.4318E+02
      1.773  0.4642E+00  0.4321E+02
      1.834  0.1536E+01  0.4330E+02
      1.895  0.5059E+00  0.4333E+02
      1.956  0.4123E+01  0.4358E+02
      2.017  0.1472E+01  0.4367E+02
      2.077  0.1187E+01  0.4375E+02
      2.138  0.7489E+00  0.4379E+02
      2.199  0.1276E+01  0.4387E+02
      2.260  0.1342E+01  0.4395E+02
      2.321  0.1302E+01  0.4403E+02
      2.382  0.3945E+00  0.4405E+02
      2.443  0.4596E+00  0.4408E+02
      2.504  0.2081E+01  0.4421E+02
      2.565  0.1688E+01  0.4431E+02
      2.626  0.2623E+01  0.4447E+02
      2.687  0.1882E+01  0.4459E+02
      2.748  0.6126E+00  0.4462E+02
      2.808  0.7963E+00  0.4467E+02
      2.869  0.1718E+01  0.4478E+02
      2.930  0.2332E+00  0.4479E+02
      2.991  0.2225E-04  0.4479E+02
      3.052  0.1134E+01  0.4486E+02
      3.113  0.1117E+01  0.4493E+02
      3.174  0.2767E+01  0.4510E+02
      3.235  0.2117E+01  0.4523E+02
      3.296  0.7474E+00  0.4527E+02
      3.357  0.1439E+01  0.4536E+02
      3.418  0.1074E+00  0.4537E+02
      3.478  0.1670E+01  0.4547E+02
      3.539  0.1182E+01  0.4554E+02
      3.600  0.8445E+00  0.4559E+02
      3.661  0.1308E+01  0.4567E+02
      3.722  0.7173E+00  0.4571E+02
      3.783  0.3587E+00  0.4574E+02
      3.844  0.1031E+01  0.4580E+02
      3.905  0.1248E+01  0.4587E+02
      3.966  0.7700E+00  0.4592E+02
      4.027  0.1824E+01  0.4603E+02
      4.088  0.1817E+01  0.4614E+02
      4.149  0.1482E+01  0.4623E+02
      4.209  0.1202E+01  0.4631E+02
      4.270  0.5389E+00  0.4634E+02
      4.331  0.6892E+00  0.4638E+02
      4.392  0.1099E+01  0.4645E+02
      4.453  0.9938E+00  0.4651E+02
      4.514  0.1095E+01  0.4658E+02
      4.575  0.2427E+00  0.4659E+02
      4.636  0.1074E+01  0.4666E+02
      4.697  0.6268E+00  0.4669E+02
      4.758  0.4499E+00  0.4672E+02
      4.819  0.1711E+01  0.4683E+02
      4.879  0.8027E+00  0.4688E+02
      4.940  0.7441E+00  0.4692E+02
      5.001  0.9242E+00  0.4698E+02
      5.062  0.1287E+01  0.4706E+02
      5.123  0.9867E+00  0.4712E+02
      5.184  0.1434E+01  0.4720E+02
      5.245  0.7906E+00  0.4725E+02
      5.306  0.5153E+00  0.4728E+02
      5.367  0.1085E+01  0.4735E+02
      5.428  0.3412E+00  0.4737E+02
      5.489  0.2572E+01  0.4753E+02
      5.550  0.7054E+00  0.4757E+02
      5.610  0.1044E+01  0.4763E+02
      5.671  0.5430E+00  0.4767E+02
      5.732  0.8284E+00  0.4772E+02
      5.793  0.1486E+01  0.4781E+02
      5.854  0.1947E+01  0.4792E+02
      5.915  0.1943E+01  0.4804E+02
      5.976  0.1561E+01  0.4814E+02
      6.037  0.5385E-03  0.4814E+02
      6.098  0.1934E+01  0.4826E+02
      6.159  0.1293E+01  0.4833E+02
      6.220  0.8133E+00  0.4838E+02
      6.281  0.2056E+01  0.4851E+02
      6.341  0.7173E+00  0.4855E+02
      6.402  0.3719E-01  0.4856E+02
      6.463  0.3215E+00  0.4858E+02
      6.524  0.1170E+01  0.4865E+02
      6.585  0.1519E+01  0.4874E+02
      6.646  0.2869E+01  0.4891E+02
      6.707  0.1076E+01  0.4898E+02
      6.768  0.6544E+00  0.4902E+02
      6.829  0.8971E-01  0.4902E+02
      6.890  0.1350E+01  0.4911E+02
      6.951  0.9274E+00  0.4916E+02
      7.011  0.8325E+00  0.4921E+02
      7.072  0.1278E+01  0.4929E+02
      7.133  0.8526E+00  0.4934E+02
      7.194  0.1966E+01  0.4946E+02
      7.255  0.4109E-09  0.4946E+02
      7.316  0.1186E+01  0.4954E+02
      7.377  0.9882E+00  0.4960E+02
      7.438  0.8770E+00  0.4965E+02
      7.499  0.1119E+01  0.4972E+02
      7.560  0.1031E+01  0.4978E+02
      7.621  0.3566E+00  0.4980E+02
      7.682  0.3531E+00  0.4982E+02
      7.742  0.1134E+01  0.4989E+02
      7.803  0.1733E+01  0.5000E+02
      7.864  0.3260E+00  0.5002E+02
      7.925  0.9146E+00  0.5007E+02
      7.986  0.4167E+00  0.5010E+02
      8.047  0.6326E+00  0.5014E+02
      8.108  0.7649E+00  0.5018E+02
      8.169  0.1254E+01  0.5026E+02
      8.230  0.1273E+01  0.5034E+02
      8.291  0.1928E+00  0.5035E+02
      8.352  0.1334E+01  0.5043E+02
      8.413  0.1283E+01  0.5051E+02
      8.473  0.1502E+01  0.5060E+02
      8.534  0.1185E+00  0.5061E+02
      8.595  0.1741E+01  0.5071E+02
      8.656  0.1199E+01  0.5079E+02
      8.717  0.1497E+01  0.5088E+02
      8.778  0.5388E+00  0.5091E+02
      8.839  0.7458E+00  0.5096E+02
      8.900  0.1343E+00  0.5097E+02
      8.961  0.1131E+01  0.5103E+02
      9.022  0.1453E+01  0.5112E+02
      9.083  0.1092E+01  0.5119E+02
      9.143  0.2034E+01  0.5131E+02
      9.204  0.1530E+01  0.5141E+02
      9.265  0.1472E+00  0.5142E+02
      9.326  0.1253E+01  0.5149E+02
      9.387  0.1609E+01  0.5159E+02
      9.448  0.4260E+00  0.5162E+02
      9.509  0.1048E+01  0.5168E+02
      9.570  0.9804E+00  0.5174E+02
      9.631  0.2642E+00  0.5176E+02
      9.692  0.1901E+00  0.5177E+02
      9.753  0.3501E+00  0.5179E+02
      9.814  0.7257E+00  0.5183E+02
      9.874  0.3587E+00  0.5185E+02
      9.935  0.0000E+00  0.5185E+02
      9.996  0.1060E-08  0.5185E+02
     10.057  0.5246E+00  0.5189E+02
     10.118  0.2703E+00  0.5190E+02
     10.179  0.3151E+00  0.5192E+02
     10.240  0.3243E+00  0.5194E+02
     10.301  0.1793E+00  0.5195E+02
     10.362  0.3572E+00  0.5197E+02
     10.423  0.1734E+00  0.5198E+02
     10.484  0.6721E-01  0.5199E+02
     10.544  0.0000E+00  0.5199E+02
     10.605  0.0000E+00  0.5199E+02
     10.666  0.0000E+00  0.5199E+02
     10.727  0.0000E+00  0.5199E+02
     10.788  0.0000E+00  0.5199E+02
     10.849  0.0000E+00  0.5199E+02
     10.910  0.1554E-03  0.5199E+02
     10.971  0.1792E+00  0.5200E+02
     11.032  0.0000E+00  0.5200E+02
     11.093  0.0000E+00  0.5200E+02
     11.154  0.0000E+00  0.5200E+02
     11.215  0.0000E+00  0.5200E+02
     11.275  0.0000E+00  0.5200E+02
     11.336  0.0000E+00  0.5200E+02
     11.397  0.0000E+00  0.5200E+02
     11.458  0.0000E+00  0.5200E+02
     11.519  0.0000E+00  0.5200E+02
     11.580  0.0000E+00  0.5200E+02
     11.641  0.0000E+00  0.5200E+02
     11.702  0.0000E+00  0.5200E+02
     11.763  0.0000E+00  0.5200E+02
