    4    4    1    1
  0.1431786E+02  0.3854601E-09  0.3854601E-09  0.3854601E-09  0.5000000E-15
  1.000000000000000E-004
  CAR 
 unknown system                          
   44   84   26
 
  0.0000000E+00  0.0000000E+00  0.0000000E+00  0.4551661E-03
   1       -5.6808
   2       -1.5894
   3       -1.5894
   4       -1.5894
   5       -1.2481
   6       -1.2481
   7       -1.2481
   8       -0.2203
   9       -0.2203
  10       -0.2203
  11        0.3931
  12        0.3931
  13        0.8022
  14        0.8022
  15        0.8022
  16        0.9165
  17        0.9165
  18        0.9165
  19        0.9165
  20        0.9165
  21        0.9165
  22        3.9492
  23        3.9492
  24        3.9492
  25        8.1637
  26        8.1637
 
  0.7692308E-01  0.0000000E+00  0.0000000E+00  0.2730997E-02
   1       -5.6180
   2       -1.5921
   3       -1.5628
   4       -1.5628
   5       -1.2336
   6       -1.2328
   7       -1.2328
   8       -0.2357
   9       -0.2074
  10       -0.2074
  11        0.3791
  12        0.3989
  13        0.7841
  14        0.7841
  15        0.7961
  16        0.8320
  17        0.8320
  18        0.8950
  19        0.8950
  20        0.9166
  21        0.9166
  22        3.4869
  23        4.0919
  24        4.0919
  25        8.1916
  26        8.1916
 
  0.1538462E+00  0.0000000E+00  0.0000000E+00  0.2730997E-02
   1       -5.4306
   2       -1.6108
   3       -1.4862
   4       -1.4862
   5       -1.1912
   6       -1.1866
   7       -1.1866
   8       -0.2811
   9       -0.1692
  10       -0.1692
  11        0.3385
  12        0.4162
  13        0.6174
  14        0.6174
  15        0.7313
  16        0.7313
  17        0.7784
  18        0.8329
  19        0.8329
  20        0.9166
  21        0.9166
  22        2.5361
  23        4.4808
  24        4.4808
  25        8.2772
  26        8.2772
 
  0.2307692E+00  0.0000000E+00  0.0000000E+00  0.2730997E-02
   1       -5.1216
   2       -1.6832
   3       -1.3698
   4       -1.3698
   5       -1.1228
   6       -1.1088
   7       -1.1088
   8       -0.3535
   9       -0.1064
  10       -0.1064
  11        0.2755
  12        0.3421
  13        0.3421
  14        0.4438
  15        0.6484
  16        0.6484
  17        0.7368
  18        0.7368
  19        0.7500
  20        0.9168
  21        0.9168
  22        1.5553
  23        5.0456
  24        5.0456
  25        8.4262
  26        8.4262
 
  0.3076923E+00  0.0000000E+00  0.0000000E+00  0.2730997E-02
   1       -4.6968
   2       -1.8875
   3       -1.2318
   4       -1.2318
   5       -1.0323
   6       -0.9984
   7       -0.9984
   8       -0.4484
   9       -0.0206
  10       -0.0206
  11        0.0553
  12        0.0553
  13        0.1985
  14        0.4803
  15        0.5463
  16        0.5463
  17        0.6162
  18        0.6162
  19        0.7127
  20        0.7620
  21        0.9169
  22        0.9169
  23        5.7359
  24        5.7359
  25        8.6472
  26        8.6472
 
  0.3846154E+00  0.0000000E+00  0.0000000E+00  0.2730997E-02
   1       -4.1674
   2       -2.3065
   3       -1.1015
   4       -1.1015
   5       -0.9244
   6       -0.8543
   7       -0.8543
   8       -0.5599
   9       -0.2171
  10       -0.2171
  11        0.0856
  12        0.0856
  13        0.1216
  14        0.2819
  15        0.4457
  16        0.4457
  17        0.4816
  18        0.4816
  19        0.5236
  20        0.6687
  21        0.9170
  22        0.9170
  23        6.5235
  24        6.5235
  25        8.9503
  26        8.9503
 
  0.4615385E+00  0.0000000E+00  0.0000000E+00  0.2730997E-02
   1       -3.5550
   2       -2.9043
   3       -1.0186
   4       -1.0186
   5       -0.8051
   6       -0.6812
   7       -0.6757
   8       -0.6757
   9       -0.4626
  10       -0.4626
  11        0.0701
  12        0.0925
  13        0.2085
  14        0.2085
  15        0.3428
  16        0.3428
  17        0.3797
  18        0.3797
  19        0.5713
  20        0.6206
  21        0.9170
  22        0.9170
  23        7.3934
  24        7.3934
  25        8.3362
  26        8.3362
 
  0.7692308E-01  0.7692308E-01  0.0000000E+00  0.5461994E-02
   1       -5.5554
   2       -1.5649
   3       -1.5649
   4       -1.5368
   5       -1.2186
   6       -1.2186
   7       -1.2178
   8       -0.2441
   9       -0.2014
  10       -0.1957
  11        0.3753
  12        0.3957
  13        0.7645
  14        0.7645
  15        0.7667
  16        0.7681
  17        0.8205
  18        0.8205
  19        0.8950
  20        0.8950
  21        0.9026
  22        3.6250
  23        3.6250
  24        4.2281
  25        8.2200
  26        8.7935
 
  0.1538462E+00  0.7692308E-01  0.0000000E+00  0.1092399E-01
   1       -5.3686
   2       -1.5816
   3       -1.4865
   4       -1.4622
   5       -1.1768
   6       -1.1731
   7       -1.1728
   8       -0.2850
   9       -0.1668
  10       -0.1608
  11        0.3399
  12        0.4111
  13        0.5735
  14        0.5750
  15        0.6977
  16        0.7157
  17        0.7392
  18        0.7941
  19        0.8327
  20        0.8949
  21        0.8951
  22        2.6784
  23        3.9939
  24        4.6032
  25        8.3072
  26        8.9034
 
  0.2307692E+00  0.7692308E-01  0.0000000E+00  0.1092399E-01
   1       -5.0606
   2       -1.6504
   3       -1.3670
   4       -1.3485
   5       -1.1096
   6       -1.0974
   7       -1.0966
   8       -0.3551
   9       -0.1051
  10       -0.1048
  11        0.2811
  12        0.2991
  13        0.3154
  14        0.4413
  15        0.5751
  16        0.6356
  17        0.6547
  18        0.7365
  19        0.7567
  20        0.8934
  21        0.8948
  22        1.7279
  23        4.5173
  24        5.1545
  25        8.4587
  26        9.0935
 
  0.3076923E+00  0.7692308E-01  0.0000000E+00  0.1092399E-01
   1       -4.6374
   2       -1.8495
   3       -1.2249
   4       -1.2128
   5       -1.0206
   6       -0.9919
   7       -0.9881
   8       -0.4478
   9       -0.0344
  10       -0.0199
  11        0.0152
  12        0.0401
  13        0.2153
  14        0.3774
  15        0.4820
  16        0.5367
  17        0.5524
  18        0.6159
  19        0.7008
  20        0.8931
  21        0.8946
  22        1.0263
  23        5.1439
  24        5.8341
  25        8.6831
  26        9.3430
 
  0.3846154E+00  0.7692308E-01  0.0000000E+00  0.1092399E-01
   1       -4.1103
   2       -2.2625
   3       -1.0893
   4       -1.0819
   5       -0.9146
   6       -0.8578
   7       -0.8466
   8       -0.5570
   9       -0.2518
  10       -0.2238
  11        0.0176
  12        0.0859
  13        0.1401
  14        0.1874
  15        0.4398
  16        0.4509
  17        0.4812
  18        0.5307
  19        0.5726
  20        0.7295
  21        0.8933
  22        0.8943
  23        5.8482
  24        6.6138
  25        8.3597
  26        8.9948
 
  0.4615385E+00  0.7692308E-01  0.0000000E+00  0.1092399E-01
   1       -3.5010
   2       -2.8548
   3       -1.0009
   4       -0.9978
   5       -0.7975
   6       -0.6923
   7       -0.6760
   8       -0.6714
   9       -0.4898
  10       -0.4630
  11        0.0064
  12        0.0171
  13        0.2084
  14        0.2638
  15        0.3425
  16        0.3779
  17        0.3821
  18        0.4003
  19        0.5854
  20        0.6458
  21        0.8936
  22        0.8940
  23        6.6193
  24        7.4554
  25        7.4778
  26        8.4165
 
  0.1538462E+00  0.1538462E+00  0.0000000E+00  0.5461994E-02
   1       -5.1836
   2       -1.4973
   3       -1.4973
   4       -1.3931
   5       -1.1335
   6       -1.1335
   7       -1.1313
   8       -0.3097
   9       -0.1462
  10       -0.1364
  11        0.3270
  12        0.4144
  13        0.4399
  14        0.4651
  15        0.4651
  16        0.6699
  17        0.7385
  18        0.7385
  19        0.8323
  20        0.8323
  21        0.8612
  22        3.0368
  23        3.0368
  24        4.9475
  25        8.3990
  26       10.2703
 
  0.2307692E+00  0.1538462E+00  0.0000000E+00  0.1092399E-01
   1       -4.8787
   2       -1.5556
   3       -1.3683
   4       -1.2881
   5       -1.0699
   6       -1.0624
   7       -1.0608
   8       -0.3665
   9       -0.0991
  10       -0.0942
  11        0.1857
  12        0.2314
  13        0.2842
  14        0.3052
  15        0.4474
  16        0.5973
  17        0.6582
  18        0.7130
  19        0.7357
  20        0.8316
  21        0.8416
  22        2.0967
  23        3.5194
  24        5.4665
  25        8.5582
  26        9.1072
 
  0.3076923E+00  0.1538462E+00  0.0000000E+00  0.1092399E-01
   1       -4.4604
   2       -1.7396
   3       -1.2131
   4       -1.1603
   5       -0.9857
   6       -0.9701
   7       -0.9578
   8       -0.4494
   9       -0.0905
  10       -0.0608
  11       -0.0140
  12       -0.0072
  13        0.1088
  14        0.2380
  15        0.5009
  16        0.5075
  17        0.5586
  18        0.6148
  19        0.6569
  20        0.8307
  21        0.8330
  22        1.3826
  23        4.0833
  24        6.1190
  25        8.0394
  26        8.7940
 
  0.3846154E+00  0.1538462E+00  0.0000000E+00  0.1092399E-01
   1       -3.9404
   2       -2.1346
   3       -1.0608
   4       -1.0280
   5       -0.8856
   6       -0.8649
   7       -0.8240
   8       -0.5501
   9       -0.3436
  10       -0.2449
  11       -0.0530
  12       -0.0510
  13        0.0888
  14        0.2363
  15        0.4203
  16        0.4570
  17        0.4803
  18        0.5605
  19        0.5687
  20        0.8297
  21        0.8298
  22        0.9661
  23        4.7160
  24        6.8777
  25        7.0716
  26        9.1173
 
  0.4615385E+00  0.1538462E+00  0.0000000E+00  0.1092399E-01
   1       -3.3414
   2       -2.7092
   3       -0.9531
   4       -0.9376
   5       -0.7753
   6       -0.7400
   7       -0.6611
   8       -0.6593
   9       -0.5639
  10       -0.4650
  11       -0.1062
  12       -0.0857
  13        0.2095
  14        0.3086
  15        0.3423
  16        0.3691
  17        0.3830
  18        0.4297
  19        0.6516
  20        0.7642
  21        0.8288
  22        0.8290
  23        5.4191
  24        6.2008
  25        7.7261
  26        8.6534
 
  0.2307692E+00  0.2307692E+00  0.0000000E+00  0.5461994E-02
   1       -4.5796
   2       -1.4096
   3       -1.4096
   4       -1.1978
   5       -1.0034
   6       -1.0033
   7       -1.0033
   8       -0.4007
   9       -0.0891
  10       -0.0590
  11        0.0281
  12        0.0281
  13        0.0904
  14        0.2617
  15        0.4877
  16        0.5359
  17        0.6390
  18        0.6390
  19        0.7345
  20        0.7345
  21        0.7933
  22        2.5480
  23        2.5480
  24        5.9484
  25        7.9172
  26        8.7301
 
  0.3076923E+00  0.2307692E+00  0.0000000E+00  0.1092399E-01
   1       -4.1701
   2       -1.5696
   3       -1.2317
   4       -1.0886
   5       -0.9275
   6       -0.9266
   7       -0.9095
   8       -0.4619
   9       -0.2281
  10       -0.1313
  11       -0.0895
  12       -0.0840
  13        0.0071
  14        0.2289
  15        0.4586
  16        0.5445
  17        0.5619
  18        0.5867
  19        0.6137
  20        0.7333
  21        0.7619
  22        1.7765
  23        3.0598
  24        6.5673
  25        6.8389
  26        8.9830
 
  0.3846154E+00  0.2307692E+00  0.0000000E+00  0.1092399E-01
   1       -3.6632
   2       -1.9348
   3       -1.0509
   4       -0.9649
   5       -0.8564
   6       -0.8379
   7       -0.7886
   8       -0.5444
   9       -0.4554
  10       -0.2830
  11       -0.2211
  12       -0.1068
  13        0.1005
  14        0.2297
  15        0.3841
  16        0.4453
  17        0.4801
  18        0.4987
  19        0.6605
  20        0.7325
  21        0.7447
  22        1.2648
  23        3.6351
  24        5.8770
  25        7.2985
  26        9.3275
 
  0.4615385E+00  0.2307692E+00  0.0000000E+00  0.1092399E-01
   1       -3.0833
   2       -2.4776
   3       -0.9072
   4       -0.8456
   5       -0.8140
   6       -0.7398
   7       -0.6519
   8       -0.6414
   9       -0.6396
  10       -0.4708
  11       -0.2175
  12       -0.1629
  13        0.2152
  14        0.2882
  15        0.3442
  16        0.3451
  17        0.3683
  18        0.3885
  19        0.7331
  20        0.7364
  21        0.7870
  22        0.9666
  23        4.2864
  24        5.0291
  25        8.1253
  26        9.0365
 
  0.3076923E+00  0.3076923E+00  0.0000000E+00  0.5461994E-02
   1       -3.7747
   2       -1.3614
   3       -1.3614
   4       -1.0165
   5       -0.8586
   6       -0.8464
   7       -0.8464
   8       -0.4939
   9       -0.3391
  10       -0.3391
  11       -0.2043
  12       -0.1060
  13        0.0538
  14        0.1980
  15        0.3944
  16        0.4973
  17        0.4973
  18        0.6132
  19        0.6132
  20        0.6640
  21        0.7011
  22        2.2163
  23        2.2163
  24        5.7609
  25        7.1534
  26        9.2589
 
  0.3846154E+00  0.3076923E+00  0.0000000E+00  0.1092399E-01
   1       -3.2891
   2       -1.6864
   3       -1.1492
   4       -0.9527
   5       -0.7861
   6       -0.7727
   7       -0.7433
   8       -0.5470
   9       -0.5118
  10       -0.3608
  11       -0.3407
  12       -0.1471
  13        0.1297
  14        0.1882
  15        0.3308
  16        0.4025
  17        0.4157
  18        0.4823
  19        0.6148
  20        0.6592
  21        0.7980
  22        1.6090
  23        2.7186
  24        4.8136
  25        7.8560
  26        9.6313
 
  0.4615385E+00  0.3076923E+00  0.0000000E+00  0.1092399E-01
   1       -2.7409
   2       -2.1792
   3       -0.9825
   4       -0.9186
   5       -0.7284
   6       -0.6938
   7       -0.6448
   8       -0.6207
   9       -0.6161
  10       -0.4837
  11       -0.3049
  12       -0.2204
  13        0.2304
  14        0.2314
  15        0.2994
  16        0.3161
  17        0.3265
  18        0.3517
  19        0.6207
  20        0.6340
  21        0.9714
  22        1.2190
  23        3.3049
  24        3.9977
  25        8.6594
  26        9.5526
 
  0.3846154E+00  0.3846154E+00  0.0000000E+00  0.5461994E-02
   1       -2.8369
   2       -1.4267
   3       -1.4267
   4       -0.9841
   5       -0.6925
   6       -0.6925
   7       -0.6889
   8       -0.5640
   9       -0.4668
  10       -0.4668
  11       -0.4171
  12       -0.1924
  13        0.1550
  14        0.1838
  15        0.2719
  16        0.3273
  17        0.3273
  18        0.4898
  19        0.4898
  20        0.5882
  21        0.9734
  22        2.0155
  23        2.0155
  24        3.8967
  25        8.5322
  26       10.0366
 
  0.4615385E+00  0.3846154E+00  0.0000000E+00  0.1092399E-01
   1       -2.3388
   2       -1.8462
   3       -1.2046
   4       -1.0585
   5       -0.6416
   6       -0.6074
   7       -0.6017
   8       -0.5968
   9       -0.5425
  10       -0.5070
  11       -0.3693
  12       -0.2676
  13        0.1706
  14        0.2376
  15        0.2383
  16        0.2581
  17        0.2651
  18        0.3698
  19        0.5067
  20        0.5379
  21        1.2021
  22        1.5273
  23        2.5127
  24        3.1321
  25        9.3131
  26       10.1882
 
  0.4615385E+00  0.4615385E+00  0.0000000E+00  0.5461994E-02
   1       -1.9162
   2       -1.5236
   3       -1.5236
   4       -1.2555
   5       -0.5891
   6       -0.5891
   7       -0.5869
   8       -0.5426
   9       -0.5014
  10       -0.4258
  11       -0.4258
  12       -0.3297
  13        0.1482
  14        0.1853
  15        0.1853
  16        0.1869
  17        0.3221
  18        0.4040
  19        0.4040
  20        0.4596
  21        1.5028
  22        1.9214
  23        1.9214
  24        2.4441
  25       10.0739
  26       10.9321
 
  0.7692308E-01  0.7692308E-01  0.7692308E-01  0.3641329E-02
   1       -5.4930
   2       -1.5384
   3       -1.5384
   4       -1.5384
   5       -1.2039
   6       -1.2039
   7       -1.2039
   8       -0.2519
   9       -0.1903
  10       -0.1903
  11        0.3825
  12        0.3825
  13        0.7395
  14        0.7395
  15        0.7395
  16        0.7519
  17        0.7519
  18        0.7519
  19        0.8910
  20        0.8910
  21        0.8910
  22        3.7552
  23        3.7552
  24        3.7552
  25        8.8300
  26        8.8300
 
  0.1538462E+00  0.7692308E-01  0.7692308E-01  0.1092399E-01
   1       -5.3068
   2       -1.5534
   3       -1.4621
   4       -1.4621
   5       -1.1627
   6       -1.1595
   7       -1.1595
   8       -0.2891
   9       -0.1604
  10       -0.1573
  11        0.3448
  12        0.4036
  13        0.5368
  14        0.5368
  15        0.6527
  16        0.7064
  17        0.7065
  18        0.7065
  19        0.8601
  20        0.8846
  21        0.8846
  22        2.8074
  23        4.1082
  24        4.1082
  25        8.9414
  26        8.9414
 
  0.2307692E+00  0.7692308E-01  0.7692308E-01  0.1092399E-01
   1       -4.9999
   2       -1.6191
   3       -1.3459
   4       -1.3459
   5       -1.0965
   6       -1.0852
   7       -1.0852
   8       -0.3564
   9       -0.1055
  10       -0.1028
  11        0.2751
  12        0.2751
  13        0.2894
  14        0.4374
  15        0.5024
  16        0.6301
  17        0.6322
  18        0.6322
  19        0.8171
  20        0.8796
  21        0.8796
  22        1.8652
  23        4.6163
  24        4.6163
  25        9.1336
  26        9.1336
 
  0.3076923E+00  0.7692308E-01  0.7692308E-01  0.1092399E-01
   1       -4.5784
   2       -1.8134
   3       -1.2067
   4       -1.2067
   5       -1.0088
   6       -0.9816
   7       -0.9816
   8       -0.4466
   9       -0.0402
  10       -0.0281
  11        0.0028
  12        0.0028
  13        0.2346
  14        0.2841
  15        0.4818
  16        0.5288
  17        0.5368
  18        0.5368
  19        0.7666
  20        0.8766
  21        0.8766
  22        1.1553
  23        5.2309
  24        5.2309
  25        9.3550
  26        9.3552
 
  0.3846154E+00  0.7692308E-01  0.7692308E-01  0.1092399E-01
   1       -4.0537
   2       -2.2203
   3       -1.0707
   4       -1.0707
   5       -0.9044
   6       -0.8518
   7       -0.8518
   8       -0.5534
   9       -0.2541
  10       -0.2541
  11       -0.0066
  12        0.0648
  13        0.0698
  14        0.2341
  15        0.4123
  16        0.4408
  17        0.4408
  18        0.5344
  19        0.7109
  20        0.7410
  21        0.8751
  22        0.8751
  23        5.9254
  24        5.9254
  25        8.4320
  26        8.4320
 
  0.4615385E+00  0.7692308E-01  0.7692308E-01  0.1092399E-01
   1       -3.4480
   2       -2.8065
   3       -0.9800
   4       -0.9800
   5       -0.7893
   6       -0.7000
   7       -0.7000
   8       -0.6699
   9       -0.4768
  10       -0.4768
  11       -0.0278
  12       -0.0275
  13        0.1727
  14        0.2907
  15        0.3324
  16        0.3768
  17        0.3768
  18        0.4983
  19        0.5921
  20        0.6519
  21        0.8744
  22        0.8744
  23        6.6836
  24        6.6836
  25        7.5372
  26        7.5372
 
  0.1538462E+00  0.1538462E+00  0.7692308E-01  0.1092399E-01
   1       -5.1225
   2       -1.4721
   3       -1.4721
   4       -1.3924
   5       -1.1202
   6       -1.1202
   7       -1.1184
   8       -0.3124
   9       -0.1413
  10       -0.1354
  11        0.3390
  12        0.4034
  13        0.4058
  14        0.4319
  15        0.4319
  16        0.6437
  17        0.6671
  18        0.6671
  19        0.8572
  20        0.8572
  21        0.8643
  22        3.1427
  23        3.1427
  24        4.4260
  25        9.0572
  26       10.3431
 
  0.2307692E+00  0.1538462E+00  0.7692308E-01  0.2184797E-01
   1       -4.8190
   2       -1.5287
   3       -1.3481
   4       -1.2864
   5       -1.0568
   6       -1.0500
   7       -1.0490
   8       -0.3663
   9       -0.1001
  10       -0.0956
  11        0.1665
  12        0.1975
  13        0.2700
  14        0.2999
  15        0.4396
  16        0.5745
  17        0.5905
  18        0.6086
  19        0.8180
  20        0.8434
  21        0.8452
  22        2.1939
  23        3.6069
  24        4.8976
  25        9.1543
  26        9.2880
 
  0.3076923E+00  0.1538462E+00  0.7692308E-01  0.2184797E-01
   1       -4.4027
   2       -1.7091
   3       -1.1986
   4       -1.1577
   5       -0.9729
   6       -0.9592
   7       -0.9504
   8       -0.4461
   9       -0.0962
  10       -0.0637
  11       -0.0367
  12       -0.0288
  13        0.0744
  14        0.2652
  15        0.4873
  16        0.4924
  17        0.4956
  18        0.5255
  19        0.7644
  20        0.8317
  21        0.8317
  22        1.4554
  23        4.1578
  24        5.4800
  25        8.1148
  26        9.5619
 
  0.3846154E+00  0.1538462E+00  0.7692308E-01  0.2184797E-01
   1       -3.8858
   2       -2.0979
   3       -1.0480
   4       -1.0220
   5       -0.8735
   6       -0.8616
   7       -0.8325
   8       -0.5440
   9       -0.3329
  10       -0.2629
  11       -0.0767
  12       -0.0609
  13        0.0532
  14        0.2887
  15        0.3722
  16        0.4097
  17        0.4347
  18        0.5639
  19        0.6855
  20        0.8240
  21        0.8246
  22        0.9884
  23        4.7809
  24        6.1364
  25        7.1660
  26        8.6449
 
  0.4615385E+00  0.1538462E+00  0.7692308E-01  0.2184797E-01
   1       -3.2911
   2       -2.6651
   3       -0.9341
   4       -0.9197
   5       -0.7692
   6       -0.7645
   7       -0.7281
   8       -0.6524
   9       -0.5045
  10       -0.4530
  11       -0.1234
  12       -0.0980
  13        0.1489
  14        0.2568
  15        0.3580
  16        0.3676
  17        0.3945
  18        0.5513
  19        0.6438
  20        0.7539
  21        0.8209
  22        0.8212
  23        5.4741
  24        6.2238
  25        6.9592
  26        7.7525
 
  0.2307692E+00  0.2307692E+00  0.7692308E-01  0.1092399E-01
   1       -4.5215
   2       -1.3908
   3       -1.3908
   4       -1.1986
   5       -0.9903
   6       -0.9901
   7       -0.9901
   8       -0.3974
   9       -0.0908
  10       -0.0680
  11        0.0135
  12        0.0135
  13        0.0633
  14        0.2855
  15        0.4785
  16        0.5029
  17        0.5480
  18        0.5480
  19        0.7938
  20        0.7938
  21        0.8081
  22        2.6224
  23        2.6224
  24        5.3252
  25        7.9953
  26        9.4774
 
  0.3076923E+00  0.2307692E+00  0.7692308E-01  0.2184797E-01
   1       -4.1148
   2       -1.5502
   3       -1.2250
   4       -1.0944
   5       -0.9129
   6       -0.9123
   7       -0.8977
   8       -0.4548
   9       -0.2250
  10       -0.1405
  11       -0.1072
  12       -0.0861
  13       -0.0170
  14        0.2665
  15        0.4281
  16        0.4535
  17        0.4833
  18        0.5529
  19        0.7299
  20        0.7684
  21        0.7771
  22        1.8280
  23        3.1208
  24        5.8489
  25        6.9454
  26        9.7894
 
  0.3846154E+00  0.2307692E+00  0.7692308E-01  0.2184797E-01
   1       -3.6120
   2       -1.9089
   3       -1.0573
   4       -0.9794
   5       -0.8446
   6       -0.8212
   7       -0.7915
   8       -0.5334
   9       -0.4255
  10       -0.2827
  11       -0.2258
  12       -0.1095
  13        0.0505
  14        0.2947
  15        0.3424
  16        0.3587
  17        0.4043
  18        0.6406
  19        0.6505
  20        0.7516
  21        0.7561
  22        1.2836
  23        3.6875
  24        5.8618
  25        6.6178
  26        8.9908
 
  0.4615385E+00  0.2307692E+00  0.7692308E-01  0.2184797E-01
   1       -3.0383
   2       -2.4414
   3       -0.9173
   4       -0.8641
   5       -0.8246
   6       -0.7467
   7       -0.7234
   8       -0.6253
   9       -0.5210
  10       -0.4347
  11       -0.2208
  12       -0.1660
  13        0.1329
  14        0.2318
  15        0.3202
  16        0.3385
  17        0.3891
  18        0.5194
  19        0.7443
  20        0.7456
  21        0.7755
  22        0.9610
  23        4.3319
  24        5.0643
  25        7.2987
  26        8.1012
 
  0.3076923E+00  0.3076923E+00  0.7692308E-01  0.1092399E-01
   1       -3.7232
   2       -1.3607
   3       -1.3607
   4       -1.0360
   5       -0.8407
   6       -0.8267
   7       -0.8267
   8       -0.4813
   9       -0.3292
  10       -0.3292
  11       -0.2056
  12       -0.1071
  13        0.0103
  14        0.2534
  15        0.3572
  16        0.4049
  17        0.4049
  18        0.6535
  19        0.6912
  20        0.6912
  21        0.7258
  22        2.2574
  23        2.2574
  24        5.7304
  25        6.5045
  26       10.1236
 
  0.3846154E+00  0.3076923E+00  0.7692308E-01  0.2184797E-01
   1       -3.2437
   2       -1.6786
   3       -1.1757
   4       -0.9907
   5       -0.7657
   6       -0.7468
   7       -0.7236
   8       -0.5286
   9       -0.4761
  10       -0.3521
  11       -0.3177
  12       -0.1470
  13        0.0521
  14        0.2770
  15        0.2941
  16        0.3040
  17        0.3409
  18        0.5942
  19        0.6640
  20        0.6854
  21        0.7861
  22        1.6248
  23        2.7543
  24        4.8358
  25        7.0716
  26        9.4605
 
  0.4615385E+00  0.3076923E+00  0.7692308E-01  0.2184797E-01
   1       -2.7047
   2       -2.1563
   3       -1.0360
   4       -0.9765
   5       -0.7107
   6       -0.6685
   7       -0.6669
   8       -0.5925
   9       -0.5200
  10       -0.4284
  11       -0.3005
  12       -0.2188
  13        0.1145
  14        0.2013
  15        0.2621
  16        0.2821
  17        0.3594
  18        0.4767
  19        0.6538
  20        0.6609
  21        0.9598
  22        1.2149
  23        3.3377
  24        4.0276
  25        7.7750
  26        8.5724
 
  0.3846154E+00  0.3846154E+00  0.7692308E-01  0.1092399E-01
   1       -2.8007
   2       -1.4452
   3       -1.4452
   4       -1.0371
   5       -0.6691
   6       -0.6521
   7       -0.6521
   8       -0.5364
   9       -0.4476
  10       -0.4476
  11       -0.3691
  12       -0.1898
  13        0.0591
  14        0.2308
  15        0.2528
  16        0.2528
  17        0.2878
  18        0.5626
  19        0.5626
  20        0.6225
  21        0.9605
  22        2.0305
  23        2.0305
  24        3.9205
  25        7.6663
  26       10.0449
 
  0.4615385E+00  0.3846154E+00  0.7692308E-01  0.2184797E-01
   1       -2.3167
   2       -1.8437
   3       -1.2508
   4       -1.1176
   5       -0.5981
   6       -0.5909
   7       -0.5599
   8       -0.5599
   9       -0.5027
  10       -0.4385
  11       -0.3607
  12       -0.2627
  13        0.0917
  14        0.1616
  15        0.1937
  16        0.2053
  17        0.3511
  18        0.4517
  19        0.5562
  20        0.5770
  21        1.1908
  22        1.5247
  23        2.5296
  24        3.1527
  25        8.3633
  26        9.1564
 
  0.4615385E+00  0.4615385E+00  0.7692308E-01  0.1092399E-01
   1       -1.9146
   2       -1.5471
   3       -1.5471
   4       -1.3027
   5       -0.5356
   6       -0.5269
   7       -0.5269
   8       -0.4876
   9       -0.4700
  10       -0.4145
  11       -0.4145
  12       -0.3218
  13        0.0877
  14        0.1300
  15        0.1300
  16        0.1396
  17        0.3864
  18        0.4609
  19        0.4609
  20        0.5056
  21        1.4949
  22        1.9230
  23        1.9230
  24        2.4541
  25        9.0550
  26        9.8467
 
  0.1538462E+00  0.1538462E+00  0.1538462E+00  0.3641329E-02
   1       -4.9405
   2       -1.4001
   3       -1.4001
   4       -1.4001
   5       -1.0797
   6       -1.0797
   7       -1.0797
   8       -0.3285
   9       -0.1254
  10       -0.1254
  11        0.3054
  12        0.3054
  13        0.3054
  14        0.3733
  15        0.3733
  16        0.5768
  17        0.5768
  18        0.5768
  19        0.8643
  20        0.8643
  21        0.8643
  22        3.4321
  23        3.4321
  24        3.4321
  25       10.4186
  26       10.4186
 
  0.2307692E+00  0.1538462E+00  0.1538462E+00  0.1092399E-01
   1       -4.6410
   2       -1.4524
   3       -1.2920
   4       -1.2920
   5       -1.0167
   6       -1.0121
   7       -1.0121
   8       -0.3705
   9       -0.0991
  10       -0.0964
  11        0.1022
  12        0.1022
  13        0.1483
  14        0.3357
  15        0.4260
  16        0.4861
  17        0.5124
  18        0.5124
  19        0.8486
  20        0.8486
  21        0.8500
  22        2.4563
  23        3.8538
  24        3.8538
  25        9.3881
  26        9.3881
 
  0.3076923E+00  0.1538462E+00  0.1538462E+00  0.1092399E-01
   1       -4.2311
   2       -1.6234
   3       -1.1629
   4       -1.1629
   5       -0.9332
   6       -0.9231
   7       -0.9231
   8       -0.4387
   9       -0.1158
  10       -0.1158
  11       -0.0740
  12       -0.0519
  13       -0.0285
  14        0.3196
  15        0.3836
  16        0.4458
  17        0.4458
  18        0.4914
  19        0.8180
  20        0.8262
  21        0.8262
  22        1.6669
  23        4.3705
  24        4.3705
  25        8.3276
  26        8.3276
 
  0.3846154E+00  0.1538462E+00  0.1538462E+00  0.1092399E-01
   1       -3.7237
   2       -1.9933
   3       -1.0265
   4       -1.0265
   5       -0.8379
   6       -0.8379
   7       -0.8356
   8       -0.5261
   9       -0.3073
  10       -0.3073
  11       -0.1477
  12       -0.0855
  13        0.0090
  14        0.2782
  15        0.3721
  16        0.3746
  17        0.3746
  18        0.5640
  19        0.7697
  20        0.8082
  21        0.8082
  22        1.1130
  23        4.9602
  24        4.9602
  25        7.3765
  26        7.3765
 
  0.4615385E+00  0.1538462E+00  0.1538462E+00  0.1092399E-01
   1       -3.1431
   2       -2.5370
   3       -0.8974
   4       -0.8974
   5       -0.8162
   6       -0.8162
   7       -0.7309
   8       -0.6257
   9       -0.4265
  10       -0.4265
  11       -0.1704
  12       -0.1322