   4   4   0   0
  0.1872377E+02  0.4215196E-09  0.4215196E-09  0.4215196E-09  0.5000000E-15
  1.000000000000000E-004
  CAR 
 unknown system                          
     20.93022116     -5.50334318  301      4.60207704      1.00000000
     -5.503  0.0000E+00  0.0000E+00
     -5.415  0.0000E+00  0.0000E+00
     -5.327  0.0000E+00  0.0000E+00
     -5.239  0.0000E+00  0.0000E+00
     -5.151  0.0000E+00  0.0000E+00
     -5.063  0.0000E+00  0.0000E+00
     -4.975  0.0000E+00  0.0000E+00
     -4.887  0.0000E+00  0.0000E+00
     -4.798  0.0000E+00  0.0000E+00
     -4.710  0.0000E+00  0.0000E+00
     -4.622  0.0000E+00  0.0000E+00
     -4.534  0.0000E+00  0.0000E+00
     -4.446  0.0000E+00  0.0000E+00
     -4.358  0.5401E-18  0.4759E-19
     -4.270  0.1483E-01  0.1306E-02
     -4.182  0.9834E-01  0.1018E-01
     -4.094  0.1295E+00  0.2218E-01
     -4.005  0.1578E+00  0.3910E-01
     -3.917  0.1965E+00  0.5804E-01
     -3.829  0.2413E+00  0.7982E-01
     -3.741  0.2495E+00  0.1049E+00
     -3.653  0.2407E+00  0.1291E+00
     -3.565  0.3281E+00  0.1607E+00
     -3.477  0.3075E+00  0.1898E+00
     -3.389  0.3616E+00  0.2241E+00
     -3.301  0.3658E+00  0.2588E+00
     -3.212  0.4200E+00  0.2983E+00
     -3.124  0.4242E+00  0.3407E+00
     -3.036  0.4024E+00  0.3816E+00
     -2.948  0.4358E+00  0.4264E+00
     -2.860  0.5450E+00  0.4775E+00
     -2.772  0.5092E+00  0.5269E+00
     -2.684  0.5510E+00  0.5828E+00
     -2.596  0.6159E+00  0.6400E+00
     -2.508  0.6021E+00  0.7021E+00
     -2.419  0.6817E+00  0.7706E+00
     -2.331  0.8389E+00  0.8474E+00
     -2.243  0.7614E+00  0.9203E+00
     -2.155  0.1052E+01  0.1018E+01
     -2.067  0.1112E+01  0.1121E+01
     -1.979  0.1157E+01  0.1235E+01
     -1.891  0.2184E+01  0.1443E+01
     -1.803  0.2633E+01  0.1696E+01
     -1.715  0.2586E+01  0.1949E+01
     -1.626  0.2917E+01  0.2235E+01
     -1.538  0.4160E+01  0.2625E+01
     -1.450  0.4685E+01  0.3087E+01
     -1.362  0.5685E+01  0.3627E+01
     -1.274  0.6950E+01  0.4299E+01
     -1.186  0.7696E+01  0.5059E+01
     -1.098  0.7914E+01  0.5826E+01
     -1.010  0.7561E+01  0.6561E+01
     -0.922  0.7009E+01  0.7243E+01
     -0.833  0.6849E+01  0.7901E+01
     -0.745  0.6543E+01  0.8539E+01
     -0.657  0.6467E+01  0.9174E+01
     -0.569  0.5373E+01  0.9706E+01
     -0.481  0.4712E+01  0.1018E+02
     -0.393  0.5299E+01  0.1068E+02
     -0.305  0.7164E+01  0.1137E+02
     -0.217  0.7198E+01  0.1207E+02
     -0.129  0.8300E+01  0.1288E+02
     -0.040  0.8654E+01  0.1372E+02
      0.048  0.8342E+01  0.1454E+02
      0.136  0.8376E+01  0.1535E+02
      0.224  0.8363E+01  0.1615E+02
      0.312  0.9100E+01  0.1703E+02
      0.400  0.9850E+01  0.1797E+02
      0.488  0.1094E+02  0.1904E+02
      0.576  0.1330E+02  0.2031E+02
      0.664  0.1539E+02  0.2181E+02
      0.753  0.1019E+02  0.2282E+02
      0.841  0.8126E+01  0.2363E+02
      0.929  0.6836E+01  0.2429E+02
      1.017  0.7523E+01  0.2502E+02
      1.105  0.6839E+01  0.2568E+02
      1.193  0.6870E+01  0.2635E+02
      1.281  0.7681E+01  0.2708E+02
      1.369  0.8666E+01  0.2792E+02
      1.457  0.8617E+01  0.2876E+02
      1.546  0.9543E+01  0.2967E+02
      1.634  0.8929E+01  0.3058E+02
      1.722  0.8312E+01  0.3140E+02
      1.810  0.7428E+01  0.3213E+02
      1.898  0.7023E+01  0.3283E+02
      1.986  0.7406E+01  0.3354E+02
      2.074  0.6922E+01  0.3420E+02
      2.162  0.6767E+01  0.3488E+02
      2.251  0.7216E+01  0.3558E+02
      2.339  0.7944E+01  0.3634E+02
      2.427  0.8622E+01  0.3718E+02
      2.515  0.1033E+02  0.3818E+02
      2.603  0.1327E+02  0.3947E+02
      2.691  0.1156E+02  0.4060E+02
      2.779  0.7263E+01  0.4131E+02
      2.867  0.4886E+01  0.4181E+02
      2.955  0.1893E+01  0.4205E+02
      3.044  0.1427E+01  0.4219E+02
      3.132  0.7614E+00  0.4226E+02
      3.220  0.1393E+01  0.4239E+02
      3.308  0.7960E+00  0.4247E+02
      3.396  0.1214E+01  0.4259E+02
      3.484  0.9341E+00  0.4268E+02
      3.572  0.1174E+01  0.4280E+02
      3.660  0.1022E+01  0.4289E+02
      3.748  0.1091E+01  0.4300E+02
      3.837  0.1035E+01  0.4310E+02
      3.925  0.1026E+01  0.4320E+02
      4.013  0.9972E+00  0.4330E+02
      4.101  0.1073E+01  0.4342E+02
      4.189  0.8859E+00  0.4350E+02
      4.277  0.1325E+01  0.4363E+02
      4.365  0.1003E+01  0.4373E+02
      4.453  0.1206E+01  0.4384E+02
      4.541  0.9956E+00  0.4394E+02
      4.630  0.1004E+01  0.4404E+02
      4.718  0.1260E+01  0.4416E+02
      4.806  0.9000E+00  0.4425E+02
      4.894  0.1033E+01  0.4435E+02
      4.982  0.1072E+01  0.4446E+02
      5.070  0.1085E+01  0.4457E+02
      5.158  0.9404E+00  0.4466E+02
      5.246  0.1056E+01  0.4477E+02
      5.334  0.1117E+01  0.4488E+02
      5.423  0.9434E+00  0.4497E+02
      5.511  0.1097E+01  0.4508E+02
      5.599  0.1050E+01  0.4518E+02
      5.687  0.1018E+01  0.4528E+02
      5.775  0.9887E+00  0.4538E+02
      5.863  0.1020E+01  0.4548E+02
      5.951  0.1054E+01  0.4558E+02
      6.039  0.1051E+01  0.4568E+02
      6.127  0.1090E+01  0.4579E+02
      6.216  0.1004E+01  0.4589E+02
      6.304  0.1148E+01  0.4600E+02
      6.392  0.9929E+00  0.4609E+02
      6.480  0.1019E+01  0.4619E+02
      6.568  0.8109E+00  0.4627E+02
      6.656  0.1058E+01  0.4637E+02
      6.744  0.9303E+00  0.4647E+02
      6.832  0.1071E+01  0.4657E+02
      6.920  0.8109E+00  0.4665E+02
      7.009  0.1032E+01  0.4675E+02
      7.097  0.8765E+00  0.4684E+02
      7.185  0.1039E+01  0.4693E+02
      7.273  0.1928E+01  0.4711E+02
      7.361  0.1725E+01  0.4728E+02
      7.449  0.1501E+01  0.4742E+02
      7.537  0.1488E+01  0.4757E+02
      7.625  0.1432E+01  0.4771E+02
      7.713  0.1209E+01  0.4783E+02
      7.802  0.1276E+01  0.4795E+02
      7.890  0.1088E+01  0.4807E+02
      7.978  0.1189E+01  0.4818E+02
      8.066  0.1216E+01  0.4829E+02
      8.154  0.1120E+01  0.4840E+02
      8.242  0.1107E+01  0.4851E+02
      8.330  0.9206E+00  0.4859E+02
      8.418  0.1046E+01  0.4870E+02
      8.506  0.9312E+00  0.4879E+02
      8.595  0.9107E+00  0.4887E+02
      8.683  0.9237E+00  0.4896E+02
      8.771  0.9277E+00  0.4906E+02
      8.859  0.1192E+01  0.4917E+02
      8.947  0.9603E+00  0.4926E+02
      9.035  0.1260E+01  0.4938E+02
      9.123  0.1192E+01  0.4950E+02
      9.211  0.1135E+01  0.4961E+02
      9.299  0.1394E+01  0.4975E+02
      9.388  0.1508E+01  0.4989E+02
      9.476  0.1340E+01  0.5001E+02
      9.564  0.1508E+01  0.5016E+02
      9.652  0.1364E+01  0.5029E+02
      9.740  0.1550E+01  0.5044E+02
      9.828  0.1492E+01  0.5058E+02
      9.916  0.1181E+01  0.5070E+02
     10.004  0.1381E+01  0.5083E+02
     10.092  0.1329E+01  0.5096E+02
     10.181  0.1233E+01  0.5108E+02
     10.269  0.1270E+01  0.5120E+02
     10.357  0.1269E+01  0.5132E+02
     10.445  0.1216E+01  0.5144E+02
     10.533  0.1107E+01  0.5155E+02
     10.621  0.1026E+01  0.5165E+02
     10.709  0.1128E+01  0.5176E+02
     10.797  0.1088E+01  0.5187E+02
     10.885  0.8376E+00  0.5196E+02
     10.974  0.1221E+01  0.5208E+02
     11.062  0.8783E+00  0.5216E+02
     11.150  0.1193E+01  0.5227E+02
     11.238  0.1020E+01  0.5238E+02
     11.326  0.1374E+01  0.5250E+02
     11.414  0.1194E+01  0.5262E+02
     11.502  0.1346E+01  0.5275E+02
     11.590  0.1425E+01  0.5289E+02
     11.678  0.1151E+01  0.5300E+02
     11.767  0.1255E+01  0.5312E+02
     11.855  0.1269E+01  0.5325E+02
     11.943  0.1448E+01  0.5339E+02
     12.031  0.1194E+01  0.5351E+02
     12.119  0.1371E+01  0.5364E+02
     12.207  0.1061E+01  0.5375E+02
     12.295  0.1417E+01  0.5389E+02
     12.383  0.1372E+01  0.5402E+02
     12.471  0.1405E+01  0.5416E+02
     12.560  0.1393E+01  0.5429E+02
     12.648  0.9729E+00  0.5438E+02
     12.736  0.1550E+01  0.5453E+02
     12.824  0.1557E+01  0.5469E+02
     12.912  0.9692E+00  0.5479E+02
     13.000  0.1323E+01  0.5492E+02
     13.088  0.1331E+01  0.5505E+02
     13.176  0.1220E+01  0.5517E+02
     13.264  0.1482E+01  0.5531E+02
     13.353  0.1338E+01  0.5544E+02
     13.441  0.1314E+01  0.5557E+02
     13.529  0.1463E+01  0.5571E+02
     13.617  0.1245E+01  0.5583E+02
     13.705  0.1515E+01  0.5598E+02
     13.793  0.1741E+01  0.5615E+02
     13.881  0.1431E+01  0.5629E+02
     13.969  0.1604E+01  0.5644E+02
     14.057  0.1688E+01  0.5661E+02
     14.146  0.1329E+01  0.5674E+02
     14.234  0.2112E+01  0.5695E+02
     14.322  0.1543E+01  0.5710E+02
     14.410  0.1650E+01  0.5726E+02
     14.498  0.2171E+01  0.5746E+02
     14.586  0.1668E+01  0.5763E+02
     14.674  0.1796E+01  0.5781E+02
     14.762  0.2030E+01  0.5801E+02
     14.851  0.1585E+01  0.5818E+02
     14.939  0.1628E+01  0.5834E+02
     15.027  0.1929E+01  0.5853E+02
     15.115  0.1651E+01  0.5870E+02
     15.203  0.1994E+01  0.5889E+02
     15.291  0.1647E+01  0.5905E+02
     15.379  0.1679E+01  0.5922E+02
     15.467  0.1813E+01  0.5938E+02
     15.555  0.1767E+01  0.5955E+02
     15.644  0.1670E+01  0.5971E+02
     15.732  0.1813E+01  0.5989E+02
     15.820  0.1736E+01  0.6005E+02
     15.908  0.1806E+01  0.6023E+02
     15.996  0.1500E+01  0.6038E+02
     16.084  0.1644E+01  0.6053E+02
     16.172  0.1591E+01  0.6068E+02
     16.260  0.1941E+01  0.6087E+02
     16.348  0.1559E+01  0.6102E+02
     16.437  0.1372E+01  0.6116E+02
     16.525  0.1960E+01  0.6135E+02
     16.613  0.1234E+01  0.6148E+02
     16.701  0.1495E+01  0.6163E+02
     16.789  0.1581E+01  0.6178E+02
     16.877  0.9458E+00  0.6188E+02
     16.965  0.1446E+01  0.6201E+02
     17.053  0.1024E+01  0.6211E+02
     17.141  0.9998E+00  0.6221E+02
     17.230  0.1232E+01  0.6233E+02
     17.318  0.9729E+00  0.6242E+02
     17.406  0.8846E+00  0.6251E+02
     17.494  0.1073E+01  0.6261E+02
     17.582  0.6124E+00  0.6268E+02
     17.670  0.1012E+01  0.6277E+02
     17.758  0.8718E+00  0.6286E+02
     17.846  0.6177E+00  0.6292E+02
     17.934  0.7704E+00  0.6299E+02
     18.023  0.6886E+00  0.6306E+02
     18.111  0.6188E+00  0.6312E+02
     18.199  0.7611E+00  0.6319E+02
     18.287  0.3830E+00  0.6324E+02
     18.375  0.6355E+00  0.6330E+02
     18.463  0.6232E+00  0.6336E+02
     18.551  0.5637E+00  0.6341E+02
     18.639  0.5273E+00  0.6346E+02
     18.727  0.4559E+00  0.6350E+02
     18.816  0.5183E+00  0.6355E+02
     18.904  0.5272E+00  0.6360E+02
     18.992  0.4497E+00  0.6365E+02
     19.080  0.5246E+00  0.6370E+02
     19.168  0.6587E+00  0.6376E+02
     19.256  0.1122E+01  0.6388E+02
     19.344  0.6497E+00  0.6394E+02
     19.432  0.3608E+00  0.6398E+02
     19.520  0.1207E+00  0.6399E+02
     19.609  0.6181E-01  0.6400E+02
     19.697  0.2308E-01  0.6400E+02
     19.785  0.3892E-02  0.6400E+02
     19.873  0.0000E+00  0.6400E+02
     19.961  0.0000E+00  0.6400E+02
     20.049  0.0000E+00  0.6400E+02
     20.137  0.0000E+00  0.6400E+02
     20.225  0.0000E+00  0.6400E+02
     20.313  0.0000E+00  0.6400E+02
     20.402  0.0000E+00  0.6400E+02
     20.490  0.0000E+00  0.6400E+02
     20.578  0.0000E+00  0.6400E+02
     20.666  0.0000E+00  0.6400E+02
     20.754  0.0000E+00  0.6400E+02
     20.842  0.0000E+00  0.6400E+02
     20.930  0.0000E+00  0.6400E+02
