    4    4    1    1
  0.1872377E+02  0.4215196E-09  0.4215196E-09  0.4215196E-09  0.5000000E-15
  1.000000000000000E-004
  CAR 
 unknown system                          
   44 1330   32
 
  0.0000000E+00  0.0000000E+00  0.0000000E+00  0.2143347E-04
   1       -4.3018
   2       -1.6870
   3       -1.6870
   4       -1.6870
   5       -1.4273
   6       -1.4273
   7       -1.4273
   8        0.3310
   9        0.3310
  10        0.3310
  11        1.6161
  12        1.6161
  13        2.5936
  14        2.5936
  15        2.5936
  16        2.9037
  17        2.9037
  18        2.9037
  19        2.9037
  20        2.9037
  21        2.9037
  22        5.8805
  23        5.8805
  24        5.8805
  25        9.6918
  26        9.6918
  27        9.6918
  28       14.4928
  29       14.4928
  30       14.4928
  31       14.4928
  32       14.4928
 
  0.2777778E-01  0.0000000E+00  0.0000000E+00  0.1286008E-03
   1       -4.2935
   2       -1.6843
   3       -1.6817
   4       -1.6817
   5       -1.4244
   6       -1.4229
   7       -1.4229
   8        0.3270
   9        0.3345
  10        0.3345
  11        1.6119
  12        1.6179
  13        2.5878
  14        2.5878
  15        2.5916
  16        2.8769
  17        2.8769
  18        2.8964
  19        2.8964
  20        2.9037
  21        2.9037
  22        5.8023
  23        5.9134
  24        5.9134
  25        9.6854
  26        9.6854
  27        9.7846
  28       14.4762
  29       14.4765
  30       14.4789
  31       14.4789
  32       14.5093
 
  0.5555556E-01  0.0000000E+00  0.0000000E+00  0.1286008E-03
   1       -4.2686
   2       -1.6762
   3       -1.6656
   4       -1.6656
   5       -1.4158
   6       -1.4099
   7       -1.4099
   8        0.3153
   9        0.3451
  10        0.3451
  11        1.5995
  12        1.6230
  13        2.5702
  14        2.5702
  15        2.5856
  16        2.7998
  17        2.7998
  18        2.8747
  19        2.8747
  20        2.9038
  21        2.9038
  22        5.5876
  23        6.0089
  24        6.0089
  25        9.6661
  26        9.6661
  27       10.0429
  28       14.4269
  29       14.4269
  30       14.4387
  31       14.4387
  32       14.5588
 
  0.8333333E-01  0.0000000E+00  0.0000000E+00  0.1286008E-03
   1       -4.2271
   2       -1.6630
   3       -1.6390
   4       -1.6390
   5       -1.4014
   6       -1.3881
   7       -1.3881
   8        0.2958
   9        0.3627
  10        0.3627
  11        1.5789
  12        1.6316
  13        2.5410
  14        2.5410
  15        2.5757
  16        2.6810
  17        2.6810
  18        2.8391
  19        2.8391
  20        2.9038
  21        2.9038
  22        5.2787
  23        6.1581
  24        6.1581
  25        9.6349
  26        9.6349
  27       10.4250
  28       14.3458
  29       14.3458
  30       14.3763
  31       14.3763
  32       14.6407
 
  0.1111111E+00  0.0000000E+00  0.0000000E+00  0.1286008E-03
   1       -4.1693
   2       -1.6452
   3       -1.6022
   4       -1.6022
   5       -1.3815
   6       -1.3576
   7       -1.3576
   8        0.2689
   9        0.3872
  10        0.3872
  11        1.5505
  12        1.6436
  13        2.5006
  14        2.5006
  15        2.5309
  16        2.5309
  17        2.5619
  18        2.7902
  19        2.7902
  20        2.9039
  21        2.9039
  22        4.9143
  23        6.3506
  24        6.3506
  25        9.5927
  26        9.5927
  27       10.8922
  28       14.2341
  29       14.2341
  30       14.2971
  31       14.2971
  32       14.7542
 
  0.1388889E+00  0.0000000E+00  0.0000000E+00  0.1286008E-03
   1       -4.0953
   2       -1.6236
   3       -1.5557
   4       -1.5557
   5       -1.3559
   6       -1.3185
   7       -1.3185
   8        0.2348
   9        0.4187
  10        0.4187
  11        1.5148
  12        1.6588
  13        2.3591
  14        2.3591
  15        2.4493
  16        2.4493
  17        2.5444
  18        2.7290
  19        2.7290
  20        2.9040
  21        2.9040
  22        4.5215
  23        6.5767
  24        6.5767
  25        9.5413
  26        9.5413
  27       11.4181
  28       14.0938
  29       14.0938
  30       14.2072
  31       14.2072
  32       14.8981
 
  0.1666667E+00  0.0000000E+00  0.0000000E+00  0.1286008E-03
   1       -4.0055
   2       -1.5991
   3       -1.5000
   4       -1.5000
   5       -1.3250
   6       -1.2707
   7       -1.2707
   8        0.1939
   9        0.4570
  10        0.4570
  11        1.4722
  12        1.6773
  13        2.1733
  14        2.1733
  15        2.3878
  16        2.3878
  17        2.5234
  18        2.6568
  19        2.6568
  20        2.9041
  21        2.9041
  22        4.1177
  23        6.8287
  24        6.8287
  25        9.4823
  26        9.4823
  27       11.9861
  28       13.9267
  29       13.9267
  30       14.1121
  31       14.1121
  32       15.0711
 
  0.1944444E+00  0.0000000E+00  0.0000000E+00  0.1286008E-03
   1       -3.9002
   2       -1.5732
   3       -1.4360
   4       -1.4360
   5       -1.2888
   6       -1.2142
   7       -1.2142
   8        0.1468
   9        0.5021
  10        0.5021
  11        1.4237
  12        1.6988
  13        1.9790
  14        1.9790
  15        2.3168
  16        2.3168
  17        2.4989
  18        2.5747
  19        2.5747
  20        2.9042
  21        2.9042
  22        3.7140
  23        7.1005
  24        7.1005
  25        9.4180
  26        9.4180
  27       12.5860
  28       13.7352
  29       13.7352
  30       14.0165
  31       14.0165
  32       15.2716
 
  0.2222222E+00  0.0000000E+00  0.0000000E+00  0.1286008E-03
   1       -3.7800
   2       -1.5477
   3       -1.3646
   4       -1.3646
   5       -1.2475
   6       -1.1492
   7       -1.1492
   8        0.0939
   9        0.5538
  10        0.5538
  11        1.3700
  12        1.7233
  13        1.7804
  14        1.7804
  15        2.2375
  16        2.2375
  17        2.4714
  18        2.4841
  19        2.4841
  20        2.9044
  21        2.9044
  22        3.3184
  23        7.3878
  24        7.3878
  25        9.3505
  26        9.3505
  27       13.2113
  28       13.5215
  29       13.5215
  30       13.9239
  31       13.9239
  32       15.4981
 
  0.2500000E+00  0.0000000E+00  0.0000000E+00  0.1286008E-03
   1       -3.6455
   2       -1.5249
   3       -1.2872
   4       -1.2872
   5       -1.2013
   6       -1.0755
   7       -1.0755
   8        0.0358
   9        0.6120
  10        0.6120
  11        1.3122
  12        1.5807
  13        1.5807
  14        1.7505
  15        2.1514
  16        2.1514
  17        2.3864
  18        2.3864
  19        2.4410
  20        2.9045
  21        2.9045
  22        2.9371
  23        7.6872
  24        7.6872
  25        9.2822
  26        9.2822
  27       13.2879
  28       13.2879
  29       13.8371
  30       13.8371
  31       13.8577
  32       15.7488
 
  0.2777778E+00  0.0000000E+00  0.0000000E+00  0.1286008E-03
   1       -3.4976
   2       -1.5077
   3       -1.2052
   4       -1.2052
   5       -1.1505
   6       -0.9934
   7       -0.9934
   8       -0.0269
   9        0.6766
  10        0.6766
  11        1.2517
  12        1.3820
  13        1.3820
  14        1.7804
  15        2.0602
  16        2.0602
  17        2.2830
  18        2.2830
  19        2.4079
  20        2.5755
  21        2.9046
  22        2.9046
  23        7.9961
  24        7.9961
  25        9.2151
  26        9.2151
  27       13.0366
  28       13.0366
  29       13.7577
  30       13.7577
  31       14.5224
  32       16.0218
 
  0.3055556E+00  0.0000000E+00  0.0000000E+00  0.1286008E-03
   1       -3.3372
   2       -1.4999
   3       -1.1207
   4       -1.1207
   5       -1.0953
   6       -0.9027
   7       -0.9027
   8       -0.0935
   9        0.7473
  10        0.7473
  11        1.1859
  12        1.1859
  13        1.1902
  14        1.8127
  15        1.9661
  16        1.9661
  17        2.1753
  18        2.1753
  19        2.2388
  20        2.3725
  21        2.9048
  22        2.9048
  23        8.3126
  24        8.3126
  25        9.1513
  26        9.1513
  27       12.7698
  28       12.7698
  29       13.6868
  30       13.6868
  31       15.2031
  32       16.3154
 
  0.3333333E+00  0.0000000E+00  0.0000000E+00  0.1286008E-03
   1       -3.1659
   2       -1.5060
   3       -1.0361
   4       -1.0360
   5       -1.0360
   6       -0.8036
   7       -0.8036
   8       -0.1634
   9        0.8240
  10        0.8240
  11        0.9937
  12        0.9937
  13        1.1295
  14        1.8472
  15        1.8720
  16        1.8720
  17        1.9324
  18        2.0643
  19        2.0643
  20        2.3352
  21        2.9049
  22        2.9049
  23        8.6349
  24        8.6349
  25        9.0926
  26        9.0926
  27       12.4893
  28       12.4893
  29       13.6251
  30       13.6251
  31       15.8982
  32       16.6277
 
  0.3611111E+00  0.0000000E+00  0.0000000E+00  0.1286008E-03
   1       -2.9854
   2       -1.5310
   3       -0.9731
   4       -0.9541
   5       -0.9541
   6       -0.6962
   7       -0.6962
   8       -0.2361
   9        0.8063
  10        0.8063
  11        0.9063
  12        0.9063
  13        1.0721
  14        1.6619
  15        1.7812
  16        1.7812
  17        1.8837
  18        1.9513
  19        1.9513
  20        2.2961
  21        2.9050
  22        2.9050
  23        8.9615
  24        8.9615
  25        9.0405
  26        9.0405
  27       12.1970
  28       12.1970
  29       13.5728
  30       13.5728
  31       16.6065
  32       16.9568
 
  0.3888889E+00  0.0000000E+00  0.0000000E+00  0.1286008E-03
   1       -2.7981
   2       -1.5799
   3       -0.9068
   4       -0.8784
   5       -0.8784
   6       -0.5806
   7       -0.5806
   8       -0.3107
   9        0.6244
  10        0.6244
  11        0.9941
  12        0.9941
  13        1.0209
  14        1.4326
  15        1.6976
  16        1.6976
  17        1.8375
  18        1.8375
  19        1.9219
  20        2.2556
  21        2.9051
  22        2.9051
  23        8.9963
  24        8.9963
  25        9.2912
  26        9.2912
  27       11.8948
  28       11.8948
  29       13.5301
  30       13.5301
  31       17.3008
  32       17.3014
 
  0.4166667E+00  0.0000000E+00  0.0000000E+00  0.1286008E-03
   1       -2.6069
   2       -1.6567
   3       -0.8376
   4       -0.8130
   5       -0.8130
   6       -0.4567
   7       -0.4567
   8       -0.3867
   9        0.4487
  10        0.4487
  11        0.9796
  12        1.0869
  13        1.0869
  14        1.2484
  15        1.6255
  16        1.6255
  17        1.7237
  18        1.7237
  19        1.9616
  20        2.2141
  21        2.9052
  22        2.9052
  23        8.9609
  24        8.9609
  25        9.6228
  26        9.6228
  27       11.5842
  28       11.5842
  29       13.4970
  30       13.4970
  31       17.6578
  32       17.6578
 
  0.4444444E+00  0.0000000E+00  0.0000000E+00  0.1286008E-03
   1       -2.4159
   2       -1.7629
   3       -0.7658
   4       -0.7622
   5       -0.7622
   6       -0.4634
   7       -0.3249
   8       -0.3249
   9        0.2795
  10        0.2795
  11        0.9527
  12        1.1108
  13        1.1843
  14        1.1843
  15        1.5696
  16        1.5696
  17        1.6109
  18        1.6109
  19        2.0025
  20        2.1719
  21        2.9052
  22        2.9052
  23        8.9351
  24        8.9351
  25        9.9550
  26        9.9550
  27       11.2667
  28       11.2667
  29       13.4735
  30       13.4735
  31       18.0258
  32       18.0258
 
  0.4722222E+00  0.0000000E+00  0.0000000E+00  0.1286008E-03
   1       -2.2298
   2       -1.8971
   3       -0.7297
   4       -0.7297
   5       -0.6920
   6       -0.5403
   7       -0.1851
   8       -0.1851
   9        0.1173
  10        0.1173
  11        0.9457
  12        1.0180
  13        1.2860
  14        1.2860
  15        1.4999
  16        1.4999
  17        1.5340
  18        1.5340
  19        2.0443
  20        2.1293
  21        2.9053
  22        2.9053
  23        8.9195
  24        8.9195
  25       10.2866
  26       10.2866
  27       10.9437
  28       10.9437
  29       13.4594
  30       13.4594
  31       18.4026
  32       18.4026
 
  0.5000000E+00  0.0000000E+00  0.0000000E+00  0.6430041E-04
   1       -2.0547
   2       -2.0547
   3       -0.7185
   4       -0.7185
   5       -0.6166
   6       -0.6166
   7       -0.0376
   8       -0.0376
   9       -0.0376
  10       -0.0376
  11        0.9651
  12        0.9651
  13        1.3913
  14        1.3913
  15        1.3913
  16        1.3913
  17        1.5217
  18        1.5217
  19        2.0867
  20        2.0867
  21        2.9053
  22        2.9053
  23        8.9142
  24        8.9142
  25       10.6166
  26       10.6166
  27       10.6166
  28       10.6166
  29       13.4547
  30       13.4547
  31       18.7859
  32       18.7859
 
  0.2777778E-01  0.2777778E-01  0.0000000E+00  0.2572016E-03
   1       -4.2852
   2       -1.6789
   3       -1.6789
   4       -1.6764
   5       -1.4201
   6       -1.4201
   7       -1.4185
   8        0.3253
   9        0.3358
  10        0.3380
  11        1.6107
  12        1.6167
  13        2.5819
  14        2.5855
  15        2.5855
  16        2.8553
  17        2.8696
  18        2.8696
  19        2.8965
  20        2.8965
  21        2.8990
  22        5.8351
  23        5.8351
  24        5.9459
  25        9.6788
  26        9.7783
  27        9.7783
  28       14.4020
  29       14.4928
  30       14.4928
  31       14.4955
  32       14.4955
 
  0.5555556E-01  0.2777778E-01  0.0000000E+00  0.5144033E-03
   1       -4.2603
   2       -1.6708
   3       -1.6628
   4       -1.6605
   5       -1.4114
   6       -1.4070
   7       -1.4053
   8        0.3147
   9        0.3453
  10        0.3485
  11        1.5995
  12        1.6208
  13        2.5645
  14        2.5670
  15        2.5788
  16        2.7821
  17        2.7929
  18        2.8480
  19        2.8747
  20        2.8964
  21        2.8965
  22        5.6203
  23        5.9299
  24        6.0400
  25        9.6592
  26        9.7597
  27       10.0370
  28       14.3009
  29       14.4434
  30       14.4553
  31       14.5413
  32       14.5425
 
  0.8333333E-01  0.2777778E-01  0.0000000E+00  0.5144033E-03
   1       -4.2189
   2       -1.6575
   3       -1.6362
   4       -1.6344
   5       -1.3971
   6       -1.3853
   7       -1.3832
   8        0.2955
   9        0.3627
  10        0.3659
  11        1.5792
  12        1.6293
  13        2.5349
  14        2.5355
  15        2.5675
  16        2.6659
  17        2.6765
  18        2.8126
  19        2.8391
  20        2.8958
  21        2.8965
  22        5.3118
  23        6.0779
  24        6.1874
  25        9.6275
  26        9.7297
  27       10.4190
  28       14.1782
  29       14.3621
  30       14.3931
  31       14.5252
  32       14.6241
 
  0.1111111E+00  0.2777778E-01  0.0000000E+00  0.5144033E-03
   1       -4.1611
   2       -1.6397
   3       -1.5994
   4       -1.5981
   5       -1.3772
   6       -1.3549
   7       -1.3524
   8        0.2687
   9        0.3871
  10        0.3902
  11        1.5510
  12        1.6414
  13        2.4770
  14        2.4953
  15        2.5180
  16        2.5435
  17        2.5514
  18        2.7644
  19        2.7901
  20        2.8956
  21        2.8966
  22        4.9487
  23        6.2680
  24        6.3780
  25        9.5846
  26        9.6894
  27       10.8856
  28       14.0378
  29       14.2503
  30       14.3142
  31       14.4820
  32       14.7376
 
  0.1388889E+00  0.2777778E-01  0.0000000E+00  0.5144033E-03
   1       -4.0872
   2       -1.6180
   3       -1.5528
   4       -1.5523
   5       -1.3517
   6       -1.3158
   7       -1.3127
   8        0.2348
   9        0.4185
  10        0.4213
  11        1.5154
  12        1.6568
  13        2.3367
  14        2.3483
  15        2.4443
  16        2.4606
  17        2.5297
  18        2.7048
  19        2.7290
  20        2.8956
  21        2.8967
  22        4.5582
  23        6.4904
  24        6.6022
  25        9.5322
  26        9.6407
  27       11.4102
  28       13.8825
  29       14.1097
  30       14.2247
  31       14.4143
  32       14.8810
 
  0.1666667E+00  0.2777778E-01  0.0000000E+00  0.5144033E-03
   1       -3.9975
   2       -1.5935
   3       -1.4976
   4       -1.4970
   5       -1.3209
   6       -1.2680
   7       -1.2643
   8        0.1941
   9        0.4568
  10        0.4592
  11        1.4732
  12        1.6755
  13        2.1552
  14        2.1642
  15        2.3831
  16        2.3946
  17        2.5005
  18        2.6369
  19        2.6567
  20        2.8957
  21        2.8967
  22        4.1582
  23        6.7369
  24        6.8525
  25        9.4721
  26        9.5857
  27       11.9762
  28       13.7140
  29       13.9424
  30       14.1303
  31       14.3277
  32       15.0541
 
  0.1944444E+00  0.2777778E-01  0.0000000E+00  0.5144033E-03
   1       -3.8923
   2       -1.5676
   3       -1.4345
   4       -1.4329
   5       -1.2847
   6       -1.2116
   7       -1.2071
   8        0.1471
   9        0.5019
  10        0.5038
  11        1.4249
  12        1.6973
  13        1.9624
  14        1.9714
  15        2.3126
  16        2.3224
  17        2.4579
  18        2.5672
  19        2.5746
  20        2.8958
  21        2.8968
  22        3.7605
  23        7.0010
  24        7.1229
  25        9.4063
  26        9.5272
  27       12.5731
  28       13.5324
  29       13.7507
  30       14.0357
  31       14.2285
  32       15.2553
 
  0.2222222E+00  0.2777778E-01  0.0000000E+00  0.5144033E-03
   1       -3.7723
   2       -1.5420
   3       -1.3642
   4       -1.3615
   5       -1.2435
   6       -1.1467
   7       -1.1414
   8        0.0944
   9        0.5536
  10        0.5547
  11        1.3717
  12        1.7221
  13        1.7648
  14        1.7742
  15        2.2337
  16        2.2427
  17        2.3901
  18        2.4840
  19        2.5075
  20        2.8959
  21        2.8969
  22        3.3746
  23        7.2774
  24        7.4089
  25        9.3372
  26        9.4682
  27       13.1943
  28       13.3370
  29       13.5368
  30       13.9444
  31       14.1235
  32       15.4795
 
  0.2500000E+00  0.2777778E-01  0.0000000E+00  0.5144033E-03
   1       -3.6379
   2       -1.5190
   3       -1.2878
   4       -1.2839
   5       -1.1974
   6       -1.0732
   7       -1.0672
   8        0.0365
   9        0.6118
  10        0.6120
  11        1.3147
  12        1.5658
  13        1.5757
  14        1.7498
  15        2.1481
  16        2.1564
  17        2.2931
  18        2.3863
  19        2.4601
  20        2.8961
  21        2.8970
  22        3.0098
  23        7.5610
  24        7.7072
  25        9.2670
  26        9.4128
  27       13.1265
  28       13.3030
  29       13.8348
  30       13.8591
  31       14.0188
  32       15.7299
 
  0.2777778E+00  0.2777778E-01  0.0000000E+00  0.5144033E-03
   1       -3.4902
   2       -1.5017
   3       -1.2067
   4       -1.2018
   5       -1.1467
   6       -0.9911
   7       -0.9847
   8       -0.0260
   9        0.6751
  10        0.6764
  11        1.2553
  12        1.3678
  13        1.3779
  14        1.7801
  15        2.0573
  16        2.0651
  17        2.1693
  18        2.2829
  19        2.4151
  20        2.6809
  21        2.8962
  22        2.8971
  23        7.8464
  24        8.0152
  25        9.1977
  26        9.3661
  27       12.8999
  28       13.0516
  29       13.7817
  30       13.9194
  31       14.4905
  32       16.0018
 
  0.3055556E+00  0.2777778E-01  0.0000000E+00  0.5144033E-03
   1       -3.3300
   2       -1.4939
   3       -1.1226
   4       -1.1171
   5       -1.0917
   6       -0.9006
   7       -0.8942
   8       -0.0924
   9        0.7435
  10        0.7471
  11        1.1725
  12        1.1827
  13        1.1958
  14        1.8129
  15        1.9637
  16        1.9710
  17        2.0101
  18        2.1751
  19        2.3413
  20        2.4344
  21        2.8964
  22        2.8972
  23        8.1253
  24        8.3308
  25        9.1314
  26        9.3364
  27       12.6573
  28       12.7846
  29       13.7130
  30       13.8288
  31       15.1568
  32       16.2945
 
  0.3333333E+00  0.2777778E-01  0.0000000E+00  0.5144033E-03
   1       -3.1590
   2       -1.4999
   3       -1.0379
   4       -1.0326
   5       -1.0323
   6       -0.8017
   7       -0.7958
   8       -0.1622
   9        0.8158
  10        0.8238
  11        0.9811
  12        0.9912
  13        1.1390
  14        1.8078
  15        1.8480
  16        1.8701
  17        1.8768
  18        2.0641
  19        2.1678
  20        2.3558
  21        2.8966
  22        2.8973
  23        8.3829
  24        8.6524
  25        9.0698
  26        9.3385
  27       12.3995
  28       12.5040
  29       13.6539
  30       13.7488
  31       15.8250
  32       16.6057
 
  0.3611111E+00  0.2777778E-01  0.0000000E+00  0.5144033E-03
   1       -2.9787
   2       -1.5248
   3       -0.9698
   4       -0.9554
   5       -0.9502
   6       -0.6945
   7       -0.6897
   8       -0.2346
   9        0.7947
  10        0.8045
  11        0.8876
  12        0.9061
  13        1.0916
  14        1.5868
  15        1.7798
  16        1.7858
  17        1.8850
  18        1.9511
  19        2.0124
  20        2.3100
  21        2.8967
  22        2.8973
  23        8.5926
  24        8.9785
  25        9.0142
  26        9.3992
  27       12.1281
  28       12.2117
  29       13.6047
  30       13.6803
  31       16.4717
  32       16.9334
 
  0.3888889E+00  0.2777778E-01  0.0000000E+00  0.5144033E-03
   1       -2.7915
   2       -1.5737
   3       -0.9037
   4       -0.8788
   5       -0.8743
   6       -0.5790
   7       -0.5760
   8       -0.3090
   9        0.6139
  10        0.6232
  11        0.9400
  12        0.9938
  13        1.0751
  14        1.3815
  15        1.6967
  16        1.7019
  17        1.8373
  18        1.8781
  19        1.9239
  20        2.2664
  21        2.8969
  22        2.8974
  23        8.7265
  24        8.9658
  25        9.3077
  26        9.5461
  27       11.8450
  28       11.9095
  29       13.5655
  30       13.6237
  31       17.0347
  32       17.2758
 
  0.4166667E+00  0.2777778E-01  0.0000000E+00  0.5144033E-03
   1       -2.6005
   2       -1.6506
   3       -0.8346
   4       -0.8121
   5       -0.8088
   6       -0.4554
   7       -0.4544
   8       -0.3848
   9        0.4393
  10        0.4479
  11        0.9422
  12        1.0866
  13        1.1238
  14        1.2104
  15        1.6252
  16        1.6293
  17        1.7235
  18        1.7537
  19        1.9643
  20        2.2229
  21        2.8970
  22        2.8974
  23        8.7916
  24        8.9252
  25        9.6388
  26        9.7721
  27       11.5524
  28       11.5989
  29       13.5364
  30       13.5787
  31       17.4829
  32       17.6309
 
  0.4444444E+00  0.2777778E-01  0.0000000E+00  0.5144033E-03
   1       -2.4097
   2       -1.7569
   3       -0.7630
   4       -0.7600
   5       -0.7579
   6       -0.4613
   7       -0.3250
   8       -0.3238
   9        0.2716
  10        0.2792
  11        0.9266
  12        1.0805
  13        1.1841
  14        1.2091
  15        1.5699
  16        1.5728
  17        1.6107
  18        1.6350
  19        2.0059
  20        2.1792
  21        2.8971
  22        2.8974
  23        8.8200
  24        8.8927
  25        9.9706
  26       10.0444
  27       11.2526
  28       11.2815
  29       13.5174
  30       13.5450
  31       17.8795
  32       17.9965
 
  0.4722222E+00  0.2777778E-01  0.0000000E+00  0.5144033E-03
   1       -2.2238
   2       -1.8911
   3       -0.7266
   4       -0.7255
   5       -0.6894
   6       -0.5380
   7       -0.1875
   8       -0.1843
   9        0.1110
  10        0.1174
  11        0.9226
  12        0.9923
  13        1.2857
  14        1.3069
  15        1.4996
  16        1.5210
  17        1.5351
  18        1.5366
  19        2.0485
  20        2.1354
  21        2.8972
  22        2.8973
  23        8.8355
  24        8.8679
  25       10.3020
  26       10.3387
  27       10.9482
  28       10.9587
  29       13.5087
  30       13.5223
  31       18.2615
  32       18.3703
 
  0.5000000E+00  0.2777778E-01  0.0000000E+00  0.2572016E-03
   1       -2.0487
   2       -2.0487
   3       -0.7147
   4       -0.7147
   5       -0.6142
   6       -0.6142
   7       -0.0422
   8       -0.0422
   9       -0.0372
  10       -0.0372
  11        0.9418
  12        0.9418
  13        1.3911
  14        1.3911
  15        1.4114
  16        1.4114
  17        1.5236
  18        1.5236
  19        2.0917
  20        2.0917
  21        2.8973
  22        2.8973
  23        8.8497
  24        8.8497
  25       10.6318
  26       10.6318
  27       10.6422
  28       10.6422
  29       13.5102
  30       13.5102
  31       18.6379
  32       18.6639
 
  0.5555556E-01  0.5555556E-01  0.0000000E+00  0.2572016E-03
   1       -4.2355
   2       -1.6546
   3       -1.6546
   4       -1.6454
   5       -1.3985
   6       -1.3985
   7       -1.3915
   8        0.3085
   9        0.3504
  10        0.3586
  11        1.5948
  12        1.6186
  13        2.5473
  14        2.5574
  15        2.5574
  16        2.7218
  17        2.7727
  18        2.7727
  19        2.8748
  20        2.8748
  21        2.8847
  22        5.7144
  23        5.7144
  24        6.1305
  25        9.6388
  26       10.0195
  27       10.0195
  28       14.1496
  29       14.4925
  30       14.4925
  31       14.5050
  32       14.5051
 
  0.8333333E-01  0.5555556E-01  0.0000000E+00  0.5144033E-03
   1       -4.1942
   2       -1.6413
   3       -1.6279
   4       -1.6205
   5       -1.3842
   6       -1.3768
   7       -1.3686
   8        0.2923
   9        0.3649
  10        0.3755
  11        1.5780
  12        1.6243
  13        2.5161
  14        2.5189
  15        2.5405
  16        2.6167
  17        2.6638
  18        2.7403
  19        2.8390
  20        2.8748
  21        2.8778
  22        5.4064
  23        5.8601
  24        6.2730
  25        9.6055
  26        9.9914
  27       10.4016
  28       13.9838
  29       14.4108
  30       14.4432
  31       14.5738
  32       14.5874
 
  0.1111111E+00  0.5555556E-01  0.0000000E+00  0.5144033E-03
   1       -4.1366
   2       -1.6234
   3       -1.5910
   4       -1.5860
   5       -1.3644
   6       -1.3465
   7       -1.3366
   8        0.2670
   9        0.3881
  10        0.3991
  11        1.5513
  12        1.6358
  13        2.4321
  14        2.4774
  15        2.4794
  16        2.5145
  17        2.5556
  18        2.6978
  19        2.7901
  20        2.8745
  21        2.8748
  22        5.0460
  23        6.0457
  24        6.4582
  25        9.5604
  26        9.9541
  27       10.8664
  28       13.8078
  29       14.2985
  30       14.3652
  31       14.6766
  32       14.6866
 
  0.1388889E+00  0.5555556E-01  0.0000000E+00  0.5144033E-03
   1       -4.0630
   2       -1.6015
   3       -1.5442
   4       -1.5423
   5       -1.3391
   6       -1.3076
   7       -1.2954
   8        0.2340
   9        0.4190
  10        0.4293
  11        1.5167
  12        1.6515
  13        2.2855
  14        2.3146
  15        2.4294
  16        2.4763
  17        2.4783
  18        2.6488
  19        2.7288
  20        2.8729
  21        2.8748
  22        4.6610
  23        6.2608
  24        6.6772
  25        9.5052
  26        9.9097
  27       11.3870
  28       13.6252
  29       14.1573
  30       14.2773
  31       14.6579
  32       14.8292
 
  0.1666667E+00  0.5555556E-01  0.0000000E+00  0.5144033E-03
   1       -3.9736
   2       -1.5768
   3       -1.4901
   4       -1.4883
   5       -1.3084
   6       -1.2601
   7       -1.2453
   8        0.1941
   9        0.4569
  10        0.4659
  11        1.4754
  12        1.6708
  13        2.1072
  14        2.1362
  15        2.3693
  16        2.4093
  17        2.4212
  18        2.5985
  19        2.6565
  20        2.8721
  21        2.8748
  22        4.2693
  23        6.4966
  24        6.9227
  25        9.4415
  26        9.8609
  27       11.9468
  28       13.4380
  29       13.9894
  30       14.1851
  31       14.6110
  32       15.0010
 
  0.1944444E+00  0.5555556E-01  0.0000000E+00  0.5144033E-03
   1       -3.8688
   2       -1.5506
   3       -1.4299
   4       -1.4239
   5       -1.2725
   6       -1.2039
   7       -1.1864
   8        0.1477
   9        0.5018
  10        0.5088
  11        1.4282
  12        1.6934
  13        1.9165
  14        1.9484
  15        2.2999
  16        2.3358
  17        2.3451
  18        2.5506
  19        2.5743
  20        2.8717
  21        2.8748
  22        3.8839
  23        6.7461
  24        7.1889
  25        9.3716
  26        9.8110
  27       12.5348
  28       13.2471
  29       13.7970
  30       14.0935
  31       14.5408
  32       15.1996
 
  0.2222222E+00  0.5555556E-01  0.0000000E+00  0.5144033E-03
   1       -3.7492
   2       -1.5248
   3       -1.3625
   4       -1.3522
   5       -1.2316
   6       -1.1393
   7       -1.1189
   8        0.0956
   9        0.5533
  10        0.5576
  11        1.3765
  12        1.7193
  13        1.7205
  14        1.7553
  15        2.2224
  16        2.2470
  17        2.2556
  18        2.4837
  19        2.5048
  20        2.8716
  21        2.8748
  22        3.5150
  23        7.0033
  24        7.4712
  25        9.2975
  26        9.7639
  27       13.0522
  28       13.1436
  29       13.5825
  30       14.0062
  31       14.4529
  32       15.4240
 
  0.2500000E+00  0.5555556E-01  0.0000000E+00  0.5144033E-03
   1       -3.6153
   2       -1.5015
   3       -1.2888
   4       -1.2742
   5       -1.1859
   6       -1.0661
   7       -1.0433
   8        0.0383
   9        0.6114
  10        0.6119
  11        1.3215