       N       E                     dE             d eps       ncg     rms          rms(c)
DAV:   1     0.597623278390E+03    0.59762E+03   -0.31366E+04 85120   0.230E+03
DAV:   2     0.658635641664E+01   -0.59104E+03   -0.54717E+03 85144   0.503E+02
DAV:   3    -0.138265406528E+02   -0.20413E+02   -0.19978E+02100328   0.113E+02
DAV:   4    -0.140294034751E+02   -0.20286E+00   -0.20272E+00 92880   0.959E+00
DAV:   5    -0.140312021949E+02   -0.17987E-02   -0.17985E-02102048   0.850E-01    0.564E+00
DAV:   6    -0.131193638401E+02    0.91184E+00   -0.20518E+00 96600   0.132E+01    0.145E+00
DAV:   7    -0.130686361511E+02    0.50728E-01   -0.12491E-01 99736   0.260E+00    0.609E-01
DAV:   8    -0.130591659709E+02    0.94702E-02   -0.71684E-03 91952   0.758E-01    0.454E-02
DAV:   9    -0.130592534998E+02   -0.87529E-04   -0.29453E-04101792   0.133E-01    0.281E-02
DAV:  10    -0.130592500827E+02    0.34171E-05   -0.27752E-05 94944   0.345E-02    0.217E-03
DAV:  11    -0.130592513791E+02   -0.12964E-05   -0.62773E-07100384   0.549E-03    0.744E-04
DAV:  12    -0.130592509156E+02    0.46354E-06   -0.38200E-08 92568   0.168E-03    0.116E-04
DAV:  13    -0.130592508441E+02    0.71436E-07   -0.99106E-10 62328   0.239E-04    0.184E-05
DAV:  14    -0.130592508521E+02   -0.79467E-08   -0.92985E-11 55424   0.757E-05
   1 F= -.13059251E+02 E0= -.13059214E+02  d E =-.743344E-04
