       N       E                     dE             d eps       ncg     rms          rms(c)
DAV:   1    -0.968893598629E+02   -0.96889E+02   -0.51634E+02  2684   0.356E+01    0.448E+00
DAV:   2    -0.970475820803E+02   -0.15822E+00   -0.11308E+01  2728   0.932E+00    0.851E-01
DAV:   3    -0.970682749875E+02   -0.20693E-01   -0.27955E-01  2688   0.175E+00    0.539E-01
DAV:   4    -0.970686397977E+02   -0.36481E-03   -0.72454E-03  2972   0.296E-01    0.250E-01
DAV:   5    -0.970688480218E+02   -0.20822E-03   -0.92408E-04  2680   0.122E-01    0.361E-02
DAV:   6    -0.970688305312E+02    0.17491E-04   -0.20933E-04  2712   0.489E-02    0.108E-02
DAV:   7    -0.970688288456E+02    0.16856E-05   -0.91428E-06  1424   0.148E-02
   1 F= -.97068829E+02 E0= -.97040119E+02  d E =-.861288E-01
