       N       E                     dE             d eps       ncg     rms          rms(c)
DAV:   1    -0.968898573603E+02   -0.96890E+02   -0.51637E+02  2684   0.356E+01    0.448E+00
DAV:   2    -0.970480584167E+02   -0.15820E+00   -0.11305E+01  2728   0.932E+00    0.853E-01
DAV:   3    -0.970682707170E+02   -0.20212E-01   -0.27471E-01  2688   0.175E+00    0.538E-01
DAV:   4    -0.970686398702E+02   -0.36915E-03   -0.71221E-03  2952   0.294E-01    0.249E-01
DAV:   5    -0.970688445691E+02   -0.20470E-03   -0.90393E-04  2672   0.120E-01    0.354E-02
DAV:   6    -0.970688303630E+02    0.14206E-04   -0.19204E-04  2700   0.470E-02    0.106E-02
DAV:   7    -0.970688288387E+02    0.15243E-05   -0.90318E-06  1448   0.155E-02
   1 F= -.97068829E+02 E0= -.97040119E+02  d E =-.861291E-01
