 running on    4 nodes
 distr:  one band on    1 nodes,    4 groups
 vasp.4.6.28 25Jul05 complex 
 POSCAR found :  1 types and   32 ions

 ----------------------------------------------------------------------------- 
|                                                                             |
|  ADVICE TO THIS USER RUNNING 'VASP/VAMP'   (HEAR YOUR MASTER'S VOICE ...):  |
|                                                                             |
|      You have a (more or less) 'large supercell' and for larger cells       |
|      it might be more efficient to use real space projection operators      |
|      So try LREAL= Auto  in the INCAR   file.                               |
|      Mind: If you want to do an extremely accurate calculations keep the    |
|      reciprocal projection scheme          (i.e. LREAL=.FALSE.)             |
|                                                                             |
 ----------------------------------------------------------------------------- 

 LDA part: xc-table for Pade appr. of Perdew
 POSCAR, INCAR and KPOINTS ok, starting setup
 FFT: planning ...           4
 reading WAVECAR
 entering main loop
       N       E                     dE             d eps       ncg     rms          rms(c)
DAV:   1     0.391203373638E+04    0.39120E+04   -0.17890E+05  1696   0.181E+03
DAV:   2     0.140758070274E+03   -0.37713E+04   -0.36020E+04  1704   0.497E+02
DAV:   3    -0.946579016041E+02   -0.23542E+03   -0.21424E+03  1920   0.122E+02
DAV:   4    -0.103509416696E+03   -0.88515E+01   -0.87109E+01  1824   0.236E+01
DAV:   5    -0.103709692252E+03   -0.20028E+00   -0.19986E+00  1856   0.318E+00    0.143E+01
DAV:   6    -0.972451328079E+02    0.64646E+01   -0.21432E+01  1796   0.155E+01    0.331E+00
DAV:   7    -0.971009766090E+02    0.14416E+00   -0.74310E-01  1888   0.212E+00    0.181E+00
DAV:   8    -0.970683000787E+02    0.32677E-01   -0.50478E-02  1792   0.839E-01    0.138E-01
DAV:   9    -0.970687490419E+02   -0.44896E-03   -0.37213E-03  1864   0.181E-01    0.776E-02
DAV:  10    -0.970688896018E+02   -0.14056E-03   -0.47277E-04  1768   0.611E-02    0.113E-02
DAV:  11    -0.970689009441E+02   -0.11342E-04   -0.17259E-05  1080   0.134E-02    0.353E-03
DAV:  12    -0.970688967345E+02    0.42096E-05   -0.26050E-06   924   0.593E-03
   1 F= -.97068897E+02 E0= -.97040182E+02  d E =-.970689E+02
 curvature:   0.00 expect dE= 0.000E+00 dE for cont linesearch  0.000E+00
 trial: gam= 0.00000 g(F)=  0.392E-57 g(S)=  0.000E+00 ort = 0.000E+00 (trialstep = 0.100E+01)
 search vector abs. value=  0.100E-09
 reached required accuracy - stopping structural energy minimisation
 writing wavefunctions

 ----------------------------------------------------------------------------- 
|                                                                             |
|           W    W    AA    RRRRR   N    N  II  N    N   GGGG   !!!           |
|           W    W   A  A   R    R  NN   N  II  NN   N  G    G  !!!           |
|           W    W  A    A  R    R  N N  N  II  N N  N  G       !!!           |
|           W WW W  AAAAAA  RRRRR   N  N N  II  N  N N  G  GGG   !            |
|           WW  WW  A    A  R   R   N   NN  II  N   NN  G    G                |
|           W    W  A    A  R    R  N    N  II  N    N   GGGG   !!!           |
|                                                                             |
|      The partial DOS and the PROCAR file are not evaluated for NPAR/=1      |
|      please rerun with NPAR=1                                               |
|                                                                             |
 ----------------------------------------------------------------------------- 

