 running on    4 nodes
 distr:  one band on    1 nodes,    4 groups
 vasp.4.6.28 25Jul05 complex 
 POSCAR found :  1 types and    4 ions
 LDA part: xc-table for Pade appr. of Perdew
 POSCAR, INCAR and KPOINTS ok, starting setup
 FFT: planning ...           1
 reading WAVECAR
 WARNING: random wavefunctions but no delay for mixing, default for NELMDL
 entering main loop
       N       E                     dE             d eps       ncg     rms          rms(c)
DAV:   1     0.111259316264E+02    0.11126E+02   -0.51824E+03  2016   0.103E+03
DAV:   2    -0.139367539264E+02   -0.25063E+02   -0.23394E+02  2472   0.106E+02
DAV:   3    -0.148544992426E+02   -0.91775E+00   -0.89476E+00  2624   0.167E+01
DAV:   4    -0.148640330444E+02   -0.95338E-02   -0.89392E-02  2324   0.185E+00
DAV:   5    -0.148641241868E+02   -0.91142E-04   -0.91141E-04  2492   0.214E-01    0.177E+00
DAV:   6    -0.148149766762E+02    0.49148E-01   -0.83764E-03  2244   0.598E-01    0.109E+00
DAV:   7    -0.147795862282E+02    0.35390E-01   -0.25117E-02  2252   0.980E-01    0.492E-02
DAV:   8    -0.147795762482E+02    0.99800E-05   -0.15978E-04  2412   0.106E-01    0.128E-02
DAV:   9    -0.147795787198E+02   -0.24716E-05   -0.43046E-06  2416   0.129E-02    0.137E-03
DAV:  10    -0.147795772846E+02    0.14352E-05   -0.62573E-08  2520   0.212E-03    0.324E-04
DAV:  11    -0.147795771428E+02    0.14188E-06   -0.14140E-09  1516   0.281E-04    0.360E-05
DAV:  12    -0.147795771856E+02   -0.42825E-07   -0.24807E-10  1400   0.120E-04    0.968E-06
DAV:  13    -0.147795771825E+02    0.31297E-08   -0.39708E-11  1360   0.407E-05
   1 F= -.14779577E+02 E0= -.14779529E+02  d E =-.959481E-04
