   4   4   0   0
  0.1850611E+02  0.4198799E-09  0.4198799E-09  0.4198799E-09  0.5000000E-15
  1.000000000000000E-004
  CAR 
 unknown system                          
     18.13073047     -4.54256469  301      6.89046548      1.00000000
     -4.543  0.0000E+00  0.0000E+00
     -4.467  0.0000E+00  0.0000E+00
     -4.391  0.0000E+00  0.0000E+00
     -4.316  0.0000E+00  0.0000E+00
     -4.240  0.0000E+00  0.0000E+00
     -4.165  0.0000E+00  0.0000E+00
     -4.089  0.0000E+00  0.0000E+00
     -4.014  0.0000E+00  0.0000E+00
     -3.938  0.0000E+00  0.0000E+00
     -3.862  0.0000E+00  0.0000E+00
     -3.787  0.0000E+00  0.0000E+00
     -3.711  0.0000E+00  0.0000E+00
     -3.636  0.0000E+00  0.0000E+00
     -3.560  0.7920E-13  0.5986E-14
     -3.484  0.1531E-01  0.1157E-02
     -3.409  0.9702E-01  0.8490E-02
     -3.333  0.2650E+00  0.2851E-01
     -3.258  0.1279E+00  0.3818E-01
     -3.182  0.3685E+00  0.6605E-01
     -3.107  0.3666E+00  0.9375E-01
     -3.031  0.1808E+00  0.1074E+00
     -2.955  0.4595E+00  0.1424E+00
     -2.880  0.4144E+00  0.1737E+00
     -2.804  0.4321E+00  0.2063E+00
     -2.729  0.3675E+00  0.2350E+00
     -2.653  0.7351E+00  0.2905E+00
     -2.578  0.6616E-01  0.2955E+00
     -2.502  0.7600E+00  0.3530E+00
     -2.426  0.5530E+00  0.3948E+00
     -2.351  0.5326E+00  0.4351E+00
     -2.275  0.9297E+00  0.5053E+00
     -2.200  0.3675E+00  0.5336E+00
     -2.124  0.8164E-01  0.5397E+00
     -2.049  0.7267E+00  0.5947E+00
     -1.973  0.1103E+01  0.6794E+00
     -1.897  0.4900E+00  0.7164E+00
     -1.822  0.9662E+00  0.7895E+00
     -1.746  0.7350E+00  0.8553E+00
     -1.671  0.4900E-02  0.8557E+00
     -1.595  0.7145E+00  0.9097E+00
     -1.519  0.9340E+00  0.9803E+00
     -1.444  0.7385E+00  0.1036E+01
     -1.368  0.6534E+00  0.1086E+01
     -1.293  0.1268E+01  0.1181E+01
     -1.217  0.6470E-03  0.1182E+01
     -1.142  0.9038E+00  0.1250E+01
     -1.066  0.1659E+01  0.1375E+01
     -0.990  0.3677E+00  0.1404E+01
     -0.915  0.6191E+00  0.1451E+01
     -0.839  0.1561E+01  0.1569E+01
     -0.764  0.1492E-04  0.1571E+01
     -0.688  0.2348E+00  0.1588E+01
     -0.613  0.1915E+01  0.1733E+01
     -0.537  0.7351E+00  0.1795E+01
     -0.461  0.4549E+00  0.1830E+01
     -0.386  0.2316E+01  0.2005E+01
     -0.310  0.6775E-05  0.2017E+01
     -0.235  0.7711E+00  0.2076E+01
     -0.159  0.1004E+01  0.2152E+01
     -0.083  0.1102E+01  0.2240E+01
     -0.008  0.3236E-01  0.2242E+01
      0.068  0.2202E+01  0.2408E+01
      0.143  0.2214E-06  0.2434E+01
      0.219  0.1233E+00  0.2443E+01
      0.294  0.2515E+01  0.2633E+01
      0.370  0.6728E+00  0.2691E+01
      0.446  0.7612E+00  0.2749E+01
      0.521  0.1944E+01  0.2895E+01
      0.597  0.2354E+00  0.2913E+01
      0.672  0.5616E+00  0.2956E+01
      0.748  0.1974E+01  0.3105E+01
      0.823  0.1446E+01  0.3214E+01
      0.899  0.3875E+00  0.3243E+01
      0.975  0.1929E+01  0.3389E+01
      1.050  0.2561E+00  0.3409E+01
      1.126  0.3917E+00  0.3438E+01
      1.201  0.2102E+01  0.3597E+01
      1.277  0.1208E+01  0.3693E+01
      1.352  0.7570E+00  0.3750E+01
      1.428  0.2087E+01  0.3908E+01
      1.504  0.3517E+00  0.3943E+01
      1.579  0.4287E+00  0.3976E+01
      1.655  0.3565E+01  0.4245E+01
      1.730  0.9320E+00  0.4332E+01
      1.806  0.2443E-01  0.4334E+01
      1.882  0.1948E+01  0.4481E+01
      1.957  0.2586E-05  0.4499E+01
      2.033  0.4267E+00  0.4531E+01
      2.108  0.2152E+01  0.4694E+01
      2.184  0.1103E+01  0.4791E+01
      2.259  0.9267E+00  0.4861E+01
      2.335  0.2798E+01  0.5072E+01
      2.411  0.6876E-02  0.5076E+01
      2.486  0.1752E+01  0.5208E+01
      2.562  0.1713E+01  0.5351E+01
      2.637  0.1179E+01  0.5442E+01
      2.713  0.8683E+00  0.5508E+01
      2.788  0.2426E+01  0.5695E+01
      2.864  0.3675E+00  0.5723E+01
      2.940  0.9985E+00  0.5799E+01
      3.015  0.1516E+01  0.5917E+01
      3.091  0.1522E+01  0.6033E+01
      3.166  0.1987E+01  0.6184E+01
      3.242  0.1596E+01  0.6307E+01
      3.318  0.2580E+00  0.6326E+01
      3.393  0.1489E+01  0.6439E+01
      3.469  0.1905E+01  0.6593E+01
      3.544  0.7180E+00  0.6647E+01
      3.620  0.2508E+01  0.6837E+01
      3.695  0.1681E+01  0.6979E+01
      3.771  0.3941E-01  0.6983E+01
      3.847  0.2580E+01  0.7178E+01
      3.922  0.1104E+01  0.7272E+01
      3.998  0.1486E+01  0.7384E+01
      4.073  0.1793E+01  0.7520E+01
      4.149  0.1837E+01  0.7661E+01
      4.224  0.6928E+00  0.7713E+01
      4.300  0.2468E+01  0.7901E+01
      4.376  0.1303E+01  0.7999E+01
      4.451  0.2197E+01  0.8165E+01
      4.527  0.1103E+01  0.8262E+01
      4.602  0.7351E+00  0.8317E+01
      4.678  0.5090E+00  0.8356E+01
      4.753  0.2693E+01  0.8563E+01
      4.829  0.2213E+01  0.8734E+01
      4.905  0.2170E+00  0.8751E+01
      4.980  0.3040E+01  0.8981E+01
      5.056  0.9021E+00  0.9049E+01
      5.131  0.1585E+01  0.9169E+01
      5.207  0.1741E+01  0.9305E+01
      5.283  0.2126E+01  0.9466E+01
      5.358  0.8760E+00  0.9542E+01
      5.434  0.1447E+01  0.9651E+01
      5.509  0.1838E+00  0.9677E+01
      5.585  0.1726E+01  0.9808E+01
      5.660  0.2712E+01  0.1001E+02
      5.736  0.8562E+00  0.1008E+02
      5.812  0.2015E+01  0.1023E+02
      5.887  0.2717E+01  0.1044E+02
      5.963  0.4088E+00  0.1047E+02
      6.038  0.1316E+01  0.1057E+02
      6.114  0.2308E+01  0.1074E+02
      6.189  0.7717E+00  0.1080E+02
      6.265  0.3226E+01  0.1105E+02
      6.341  0.1580E+01  0.1118E+02
      6.416  0.7958E+00  0.1124E+02
      6.492  0.1054E+01  0.1132E+02
      6.567  0.1826E+01  0.1146E+02
      6.643  0.1216E+01  0.1155E+02
      6.719  0.3080E+01  0.1180E+02
      6.794  0.1970E+01  0.1195E+02
      6.870  0.4947E+00  0.1199E+02
      6.945  0.4149E+01  0.1230E+02
      7.021  0.7149E+00  0.1236E+02
      7.096  0.1772E+01  0.1249E+02
      7.172  0.1909E+01  0.1264E+02
      7.248  0.1290E+01  0.1275E+02
      7.323  0.6047E+00  0.1279E+02
      7.399  0.2253E+01  0.1296E+02
      7.474  0.1394E+01  0.1307E+02
      7.550  0.7820E+00  0.1313E+02
      7.625  0.2476E+01  0.1331E+02
      7.701  0.1441E+01  0.1342E+02
      7.777  0.3451E+01  0.1368E+02
      7.852  0.2180E+01  0.1385E+02
      7.928  0.1080E+01  0.1393E+02
      8.003  0.1947E+01  0.1409E+02
      8.079  0.1881E+01  0.1424E+02
      8.154  0.1571E+01  0.1436E+02
      8.230  0.4100E+01  0.1467E+02
      8.306  0.9960E+00  0.1476E+02
      8.381  0.1220E+01  0.1485E+02
      8.457  0.1702E+01  0.1498E+02
      8.532  0.1372E+01  0.1508E+02
      8.608  0.1728E+01  0.1521E+02
      8.684  0.2578E+01  0.1541E+02
      8.759  0.1455E+01  0.1552E+02
      8.835  0.2386E+01  0.1570E+02
      8.910  0.1554E+01  0.1582E+02
      8.986  0.1354E+01  0.1592E+02
      9.061  0.3256E+01  0.1617E+02
      9.137  0.1666E+01  0.1630E+02
      9.213  0.1585E+01  0.1642E+02
      9.288  0.1990E+01  0.1657E+02
      9.364  0.2044E+01  0.1673E+02
      9.439  0.1346E+01  0.1683E+02
      9.515  0.1718E+01  0.1696E+02
      9.590  0.2095E+01  0.1712E+02
      9.666  0.1607E+01  0.1725E+02
      9.742  0.3807E+01  0.1753E+02
      9.817  0.2926E+01  0.1776E+02
      9.893  0.9776E+00  0.1784E+02
      9.968  0.3569E+01  0.1811E+02
     10.044  0.6174E-03  0.1811E+02
     10.119  0.1873E+01  0.1825E+02
     10.195  0.3238E+01  0.1851E+02
     10.271  0.1725E+01  0.1864E+02
     10.346  0.1839E+01  0.1879E+02
     10.422  0.1865E+01  0.1893E+02
     10.497  0.1768E+01  0.1906E+02
     10.573  0.2025E+01  0.1922E+02
     10.649  0.3212E+01  0.1946E+02
     10.724  0.4424E+00  0.1951E+02
     10.800  0.2643E+01  0.1971E+02
     10.875  0.2684E+01  0.1991E+02
     10.951  0.1857E+00  0.1992E+02
     11.026  0.2554E+01  0.2012E+02
     11.102  0.3270E+01  0.2037E+02
     11.178  0.3351E+01  0.2062E+02
     11.253  0.2856E+01  0.2084E+02
     11.329  0.7350E+00  0.2090E+02
     11.404  0.1120E+01  0.2099E+02
     11.480  0.2574E+01  0.2118E+02
     11.555  0.2258E+01  0.2135E+02
     11.631  0.3027E+01  0.2159E+02
     11.707  0.2045E+01  0.2174E+02
     11.782  0.1837E+00  0.2177E+02
     11.858  0.7866E+00  0.2182E+02
     11.933  0.2049E+01  0.2198E+02
     12.009  0.2126E+01  0.2215E+02
     12.085  0.1416E+01  0.2225E+02
     12.160  0.1036E+01  0.2233E+02
     12.236  0.1242E+01  0.2242E+02
     12.311  0.1676E+01  0.2255E+02
     12.387  0.3842E+00  0.2258E+02
     12.462  0.1559E+01  0.2270E+02
     12.538  0.1106E+01  0.2278E+02
     12.614  0.5923E+00  0.2283E+02
     12.689  0.1108E+01  0.2291E+02
     12.765  0.1278E+01  0.2301E+02
     12.840  0.2645E-12  0.2301E+02
     12.916  0.3675E+00  0.2304E+02
     12.991  0.1032E+01  0.2311E+02
     13.067  0.1032E+01  0.2320E+02
     13.143  0.7186E+00  0.2326E+02
     13.218  0.9034E-01  0.2327E+02
     13.294  0.7366E+00  0.2332E+02
     13.369  0.4879E+00  0.2336E+02
     13.445  0.0000E+00  0.2336E+02
     13.520  0.2628E+00  0.2338E+02
     13.596  0.4509E+00  0.2341E+02
     13.672  0.3701E+00  0.2344E+02
     13.747  0.7354E+00  0.2350E+02
     13.823  0.8191E+00  0.2356E+02
     13.898  0.0000E+00  0.2356E+02
     13.974  0.0000E+00  0.2356E+02
     14.050  0.1131E+00  0.2357E+02
     14.125  0.6219E+00  0.2362E+02
     14.201  0.7351E+00  0.2367E+02
     14.276  0.0000E+00  0.2367E+02
     14.352  0.3618E+00  0.2370E+02
     14.427  0.1223E+00  0.2371E+02
     14.503  0.0000E+00  0.2371E+02
     14.579  0.2544E-02  0.2371E+02
     14.654  0.1100E+01  0.2379E+02
     14.730  0.5034E-02  0.2379E+02
     14.805  0.3625E+00  0.2382E+02
     14.881  0.0000E+00  0.2382E+02
     14.956  0.0000E+00  0.2382E+02
     15.032  0.0000E+00  0.2382E+02
     15.108  0.6937E-15  0.2382E+02
     15.183  0.7964E+00  0.2388E+02
     15.259  0.3019E+00  0.2390E+02
     15.334  0.0000E+00  0.2390E+02
     15.410  0.0000E+00  0.2390E+02
     15.486  0.0000E+00  0.2390E+02
     15.561  0.6146E-02  0.2390E+02
     15.637  0.3614E+00  0.2393E+02
     15.712  0.3677E+00  0.2396E+02
     15.788  0.1224E+00  0.2397E+02
     15.863  0.0000E+00  0.2397E+02
     15.939  0.0000E+00  0.2397E+02
     16.015  0.0000E+00  0.2397E+02
     16.090  0.2400E-02  0.2397E+02
     16.166  0.3651E+00  0.2400E+02
     16.241  0.0000E+00  0.2400E+02
     16.317  0.0000E+00  0.2400E+02
     16.392  0.0000E+00  0.2400E+02
     16.468  0.0000E+00  0.2400E+02
     16.544  0.0000E+00  0.2400E+02
     16.619  0.0000E+00  0.2400E+02
     16.695  0.0000E+00  0.2400E+02
     16.770  0.0000E+00  0.2400E+02
     16.846  0.0000E+00  0.2400E+02
     16.921  0.0000E+00  0.2400E+02
     16.997  0.0000E+00  0.2400E+02
     17.073  0.3113E-05  0.2400E+02
     17.148  0.6125E-01  0.2400E+02
     17.224  0.0000E+00  0.2400E+02
     17.299  0.0000E+00  0.2400E+02
     17.375  0.0000E+00  0.2400E+02
     17.451  0.0000E+00  0.2400E+02
     17.526  0.0000E+00  0.2400E+02
     17.602  0.0000E+00  0.2400E+02
     17.677  0.0000E+00  0.2400E+02
     17.753  0.0000E+00  0.2400E+02
     17.828  0.0000E+00  0.2400E+02
     17.904  0.0000E+00  0.2400E+02
     17.980  0.0000E+00  0.2400E+02
     18.055  0.0000E+00  0.2400E+02
     18.131  0.0000E+00  0.2400E+02
