    4    4    1    1
  0.1850611E+02  0.4198799E-09  0.4198799E-09  0.4198799E-09  0.5000000E-15
  1.000000000000000E-004
  CAR 
 unknown system                          
   12   84   12
 
  0.0000000E+00  0.0000000E+00  0.0000000E+00  0.5787037E-03
   1       -3.5120
   2        4.2064
   3        4.2064
   4        4.2064
   5        5.2480
   6        5.2480
   7        5.2480
   8       11.9406
   9       11.9406
  10       11.9406
  11       11.9406
  12       11.9406
 
  0.8333333E-01  0.0000000E+00  0.0000000E+00  0.3472222E-02
   1       -3.4537
   2        3.3393
   3        4.2604
   4        4.2604
   5        5.3054
   6        5.3054
   7        6.2176
   8       10.7605
   9       10.7605
  10       11.5047
  11       11.5047
  12       11.9911
 
  0.1666667E+00  0.0000000E+00  0.0000000E+00  0.3472222E-02
   1       -3.2789
   2        2.2009
   3        4.4225
   4        4.4225
   5        5.4773
   6        5.4773
   7        7.6630
   8        9.6219
   9        9.6219
  10       10.6335
  11       10.6335
  12       12.1427
 
  0.2500000E+00  0.0000000E+00  0.0000000E+00  0.3472222E-02
   1       -2.9880
   2        1.1382
   3        4.6926
   4        4.6926
   5        5.7627
   6        5.7627
   7        8.5914
   8        8.5914
   9        9.2362
  10        9.7002
  11        9.7002
  12       12.3953
 
  0.3333333E+00  0.0000000E+00  0.0000000E+00  0.3472222E-02
   1       -2.5817
   2        0.1756
   3        5.0709
   4        5.0709
   5        6.1600
   6        6.1600
   7        7.6697
   8        7.6697
   9        8.8119
  10        8.8119
  11       10.9103
  12       12.7492
 
  0.4166667E+00  0.0000000E+00  0.0000000E+00  0.3472222E-02
   1       -2.0608
   2       -0.6804
   3        5.5577
   4        5.5577
   5        6.6660
   6        6.6660
   7        6.8569
   8        6.8569
   9        8.0037
  10        8.0037
  11       12.6732
  12       13.2041
 
  0.5000000E+00  0.0000000E+00  0.0000000E+00  0.1736111E-02
   1       -1.4265
   2       -1.4265
   3        6.1529
   4        6.1529
   5        6.1529
   6        6.1529
   7        7.2148
   8        7.2148
   9        7.3533
  10        7.3533
  11       13.7599
  12       13.7599
 
  0.8333333E-01  0.8333333E-01  0.0000000E+00  0.6944444E-02
   1       -3.3954
   2        3.3947
   3        3.3947
   4        4.3144
   5        5.3627
   6        6.2735
   7        6.2735
   8        9.8977
   9       10.8144
  10       10.8144
  11       11.5561
  12       11.5561
 
  0.1666667E+00  0.8333333E-01  0.0000000E+00  0.1388889E-01
   1       -3.2207
   2        2.2570
   3        3.5610
   4        4.4765
   5        5.5345
   6        6.4409
   7        7.7180
   8        8.8038
   9        9.6759
  10       10.6862
  11       10.9760
  12       11.4902
 
  0.2500000E+00  0.8333333E-01  0.0000000E+00  0.1388889E-01
   1       -2.9299
   2        1.1947
   3        3.8379
   4        4.7466
   5        5.8196
   6        6.7192
   7        7.7840
   8        8.6455
   9        9.2905
  10        9.7540
  11       10.5900
  12       11.2450
 
  0.3333333E+00  0.8333333E-01  0.0000000E+00  0.1388889E-01
   1       -2.5237
   2        0.2325
   3        4.2250
   4        5.1250
   5        6.2160
   6        6.8619
   7        7.1070
   8        7.7238
   9        8.8669
  10        9.7137
  11       10.9635
  12       11.6211
 
  0.4166667E+00  0.8333333E-01  0.0000000E+00  0.1388889E-01
   1       -2.0030
   2       -0.6231
   3        4.7216
   4        5.6117
   5        6.0396
   6        6.7254
   7        6.9110
   8        7.5979
   9        8.0639
  10        8.9155
  11       12.1036
  12       12.7258
 
  0.5000000E+00  0.8333333E-01  0.0000000E+00  0.6944444E-02
   1       -1.3690
   2       -1.3690
   3        5.3271
   4        5.3271
   5        6.2070
   6        6.2070
   7        7.3358
   8        7.3358
   9        8.2136
  10        8.2136
  11       12.6915
  12       12.6915
 
  0.1666667E+00  0.1666667E+00  0.0000000E+00  0.6944444E-02
   1       -3.0462
   2        2.4253
   3        2.4253
   4        4.6385
   5        5.7057
   6        7.7116
   7        7.8829
   8        7.8829
   9        9.8380
  10        9.8380
  11       10.8442
  12       10.8442
 
  0.2500000E+00  0.1666667E+00  0.0000000E+00  0.1388889E-01
   1       -2.7557
   2        1.3643
   3        2.7054
   4        4.9087
   5        5.9896
   6        6.6879
   7        8.1566
   8        8.8077
   9        9.4527
  10        9.9154
  11       10.1080
  12       11.1069
 
  0.3333333E+00  0.1666667E+00  0.0000000E+00  0.1388889E-01
   1       -2.3500
   2        0.4032
   3        3.0969
   4        5.2872
   5        5.7559
   6        6.3888
   7        7.8861
   8        8.5343
   9        9.0348
  10       10.4857
  11       11.0876
  12       11.1216
 
  0.4166667E+00  0.1666667E+00  0.0000000E+00  0.1388889E-01
   1       -1.8299
   2       -0.4515
   3        3.5990
   4        4.9305
   5        5.7739
   6        6.8937
   7        7.0733
   8        8.2163
   9        9.0349
  10       10.3143
  11       10.9707
  12       11.9410
 
  0.5000000E+00  0.1666667E+00  0.0000000E+00  0.6944444E-02
   1       -1.1965
   2       -1.1965
   3        4.2107
   4        4.2107
   5        6.3693
   6        6.3693
   7        7.5053
   8        7.5053
   9        9.6249
  10        9.6249
  11       11.5626
  12       11.5626
 
  0.2500000E+00  0.2500000E+00  0.0000000E+00  0.6944444E-02
   1       -2.4658
   2        1.6467
   3        1.6467
   4        5.1790
   5        5.6544
   6        6.2759
   7        9.0781
   8        9.0781
   9        9.7192
  10        9.7192
  11       10.1859
  12       10.1859
 
  0.3333333E+00  0.2500000E+00  0.0000000E+00  0.1388889E-01
   1       -2.0609
   2        0.6873
   3        2.0411
   4        4.7201
   5        5.5575
   6        6.6699
   7        8.1566
   8        9.2956
   9        9.4565
  10       10.1045
  11       10.5520
  12       11.3905
 
  0.4166667E+00  0.2500000E+00  0.0000000E+00  0.1388889E-01
   1       -1.5417
   2       -0.1658
   3        2.5470
   4        3.8883
   5        6.0444
   6        7.1737
   7        7.3439
   8        8.4938
   9        9.9427
  10       10.5828
  11       11.0296
  12       11.2371
 
  0.5000000E+00  0.2500000E+00  0.0000000E+00  0.6944444E-02
   1       -0.9095
   2       -0.9095
   3        3.1632
   4        3.1632
   5        6.6398
   6        6.6398
   7        7.7834
   8        7.7834
   9       10.5364
  10       10.5364
  11       11.1606
  12       11.1606
 
  0.3333333E+00  0.3333333E+00  0.0000000E+00  0.6944444E-02
   1       -1.6570
   2        1.0843
   3        1.0843
   4        3.7795
   5        5.9361
   6        7.0625
   7        8.5353
   8        8.5353
   9        9.6762
  10        9.6762
  11       11.1285
  12       11.7580
 
  0.4166667E+00  0.3333333E+00  0.0000000E+00  0.1388889E-01
   1       -1.1391
   2        0.2333
   3        1.5933
   4        2.9427
   5        6.4231
   6        7.5638
   7        7.7226
   8        8.8771
   9        9.0221
  10       10.1595
  11       10.3191
  12       11.4259
 
  0.5000000E+00  0.3333333E+00  0.0000000E+00  0.6944444E-02
   1       -0.5085
   2       -0.5085
   3        2.2133
   4        2.2133
   5        7.0186
   6        7.0186
   7        8.1703
   8        8.1703
   9        9.6168
  10        9.6168
  11       10.7443
  12       10.7443
 
  0.4166667E+00  0.4166667E+00  0.0000000E+00  0.6944444E-02
   1       -0.6230
   2        0.7450
   3        0.7450
   4        2.1016
   5        6.9102
   6        8.0617
   7        8.2097
   8        8.2097
   9        9.3660
  10        9.3660
  11        9.5081
  12       10.6467
 
  0.5000000E+00  0.4166667E+00  0.0000000E+00  0.6944444E-02
   1        0.0056
   2        0.0056
   3        1.3683
   4        1.3683
   5        7.5057
   6        7.5057
   7        8.6640
   8        8.6640
   9        8.8049
  10        8.8049
  11        9.9574
  12        9.9574
 
  0.5000000E+00  0.5000000E+00  0.0000000E+00  0.1736111E-02
   1        0.6317
   2        0.6317
   3        0.6317
   4        0.6317
   5        8.1011
   6        8.1011
   7        8.1011
   8        8.1011
   9        9.2613
  10        9.2613
  11        9.2613
  12        9.2613
 
  0.8333333E-01  0.8333333E-01  0.8333333E-01  0.4629630E-02
   1       -3.3371
   2        3.4502
   3        3.4502
   4        3.4502
   5        6.3293
   6        6.3293
   7        6.3293
   8        9.9515
   9        9.9515
  10        9.9515
  11       12.0925
  12       12.0925
 
  0.1666667E+00  0.8333333E-01  0.8333333E-01  0.1388889E-01
   1       -3.1625
   2        2.3131
   3        3.6164
   4        3.6164
   5        6.4966
   6        6.4966
   7        7.7730
   8        8.8580
   9        8.8580
  10       10.1131
  11       11.5422
  12       11.5422
 
  0.2500000E+00  0.8333333E-01  0.8333333E-01  0.1388889E-01
   1       -2.8718
   2        1.2513
   3        3.8932
   4        3.8932
   5        6.7745
   6        6.7745
   7        7.8388
   8        7.8388
   9        9.3444
  10       10.3822
  11       10.6432
  12       10.6432
 
  0.3333333E+00  0.8333333E-01  0.8333333E-01  0.1388889E-01
   1       -2.4658
   2        0.2894
   3        4.2802
   4        4.2802
   5        6.9117
   6        6.9117
   7        7.1670
   8        7.1670
   9        9.7677
  10        9.7677
  11       10.7562
  12       11.0182
 
  0.4166667E+00  0.8333333E-01  0.8333333E-01  0.1388889E-01
   1       -1.9453
   2       -0.5659
   3        4.7767
   4        4.7767
   5        6.0952
   6        6.0952
   7        7.6597
   8        7.6597
   9        8.9705
  10        8.9705
  11       11.2393
  12       12.5167
 
  0.5000000E+00  0.8333333E-01  0.8333333E-01  0.6944444E-02
   1       -1.3115
   2       -1.3115
   3        5.3739
   4        5.3739
   5        5.3904
   6        5.3904
   7        8.2107
   8        8.2107
   9        8.3178
  10        8.3178
  11       11.8263
  12       11.8263
 
  0.1666667E+00  0.1666667E+00  0.8333333E-01  0.1388889E-01
   1       -2.9880
   2        2.4814
   3        2.4814
   4        3.7826
   5        6.6634
   6        7.7665
   7        7.9374
   8        7.9374
   9        9.0208
  10        9.0208
  11       11.6985
  12       11.6985
 
  0.2500000E+00  0.1666667E+00  0.8333333E-01  0.2777778E-01
   1       -2.6977
   2        1.4208
   3        2.7614
   4        4.0592
   5        6.7364
   6        6.9471
   7        7.9966
   8        8.2169
   9        9.2868
  10        9.5112
  11       10.8026
  12       11.9475
 
  0.3333333E+00  0.1666667E+00  0.8333333E-01  0.2777778E-01
   1       -2.2921
   2        0.4601
   3        3.1528
   4        4.4459
   5        5.8117
   6        7.0783
   7        7.3306
   8        8.5948
   9        9.6681
  10        9.9297
  11       11.1407
  12       11.1772
 
  0.4166667E+00  0.1666667E+00  0.8333333E-01  0.2777778E-01
   1       -1.7722
   2       -0.3943
   3        3.6547
   4        4.9417
   5        4.9864
   6        6.2597
   7        7.8260
   8        9.0540
   9        9.1624
  10       10.1533
  11       10.3680
  12       11.4397
 
  0.5000000E+00  0.1666667E+00  0.8333333E-01  0.1388889E-01
   1       -1.1391
   2       -1.1391
   3        4.2662
   4        4.2662
   5        5.5471
   6        5.5471
   7        8.4264
   8        8.4264
   9        9.6794
  10        9.6794
  11       10.7443
  12       10.7443
 
  0.2500000E+00  0.2500000E+00  0.8333333E-01  0.1388889E-01
   1       -2.4079
   2        1.7031
   3        1.7031
   4        4.3354
   5        5.7102
   6        7.2202
   7        8.2722
   8        8.2722
   9        9.7780
  10        9.7780
  11       11.0679
  12       11.0679
 
  0.3333333E+00  0.2500000E+00  0.8333333E-01  0.2777778E-01
   1       -2.0031
   2        0.7441
   3        2.0974
   4        4.7216
   5        4.7756
   6        7.3514
   7        7.6067
   8        8.6525
   9       10.1308
  10       10.2208
  11       11.2366
  12       11.4171
 
  0.4166667E+00  0.2500000E+00  0.8333333E-01  0.2777778E-01
   1       -1.4841
   2       -0.1088
   3        2.6031
   4        3.9440
   5        5.2174
   6        6.5336
   7        8.1010
   8        9.1401
   9        9.4006
  10       10.4340
  11       10.6367
  12       11.8767
 
  0.5000000E+00  0.2500000E+00  0.8333333E-01  0.1388889E-01
   1       -0.8522
   2       -0.8522
   3        3.2191
   4        3.2191
   5        5.8217
   6        5.8217
   7        8.7006
   8        8.7006
   9        9.7344
  10        9.7344
  11       11.2139
  12       11.2139
 
  0.3333333E+00  0.3333333E+00  0.8333333E-01  0.1388889E-01
   1       -1.5994
   2        1.1409
   3        1.1409
   4        3.8353
   5        5.1073
   6        7.7331
   7        7.7331
   8        7.9919
   9       10.3293
  10       10.5700
  11       10.5700
  12       11.8110
 
  0.4166667E+00  0.3333333E+00  0.8333333E-01  0.2777778E-01
   1       -1.0817
   2        0.2902
   3        1.6497
   4        2.9987
   5        5.6022
   6        6.9164
   7        8.2227
   8        8.4845
   9        9.5224
  10        9.7796
  11       11.0494
  12       12.2776
 
  0.5000000E+00  0.3333333E+00  0.8333333E-01  0.1388889E-01
   1       -0.4514
   2       -0.4514
   3        2.2695
   4        2.2695
   5        6.2056
   6        6.2056
   7        8.8196
   8        8.8196
   9        9.0818
  10        9.0818
  11       11.6301
  12       11.6301
 
  0.4166667E+00  0.4166667E+00  0.8333333E-01  0.1388889E-01
   1       -0.5658
   2        0.8018
   3        0.8018
   4        2.1578
   5        6.0961
   6        7.4078
   7        7.4078
   8        8.7123
   9        8.9747
  10       10.2631
  11       10.2631
  12       11.5336
 
  0.5000000E+00  0.4166667E+00  0.8333333E-01  0.1388889E-01
   1        0.0626
   2        0.0626
   3        1.4248
   4        1.4248
   5        6.6984
   6        6.6984
   7        8.0068
   8        8.0068
   9        9.5690
  10        9.5690
  11       10.8492
  12       10.8492
 
  0.5000000E+00  0.5000000E+00  0.8333333E-01  0.3472222E-02
   1        0.6885
   2        0.6885
   3        0.6885
   4        0.6885
   5        7.2991
   6        7.2991
   7        7.2991
   8        7.2991
   9       10.1595
  10       10.1595
  11       10.1595
  12       10.1595
 
  0.1666667E+00  0.1666667E+00  0.1666667E+00  0.4629630E-02
   1       -2.8138
   2        2.6494
   3        2.6494
   4        2.6494
   5        7.9226
   6        7.9226
   7        7.9226
   8        8.1095
   9        8.1095
  10        8.1095
  11       12.5484
  12       12.5484
 
  0.2500000E+00  0.1666667E+00  0.1666667E+00  0.1388889E-01
   1       -2.5238
   2        1.5902
   3        2.9292
   4        2.9292
   5        6.9048
   6        6.9048
   7        8.2003
   8        8.3779
   9        8.3779
  10        9.6710
  11       12.0654
  12       12.1020
 
  0.3333333E+00  0.1666667E+00  0.1666667E+00  0.1388889E-01
   1       -2.1187
   2        0.6305
   3        3.3202
   4        3.3202
   5        5.9770
   6        5.9770
   7        8.5810
   8        8.7593
   9        8.7593
  10       11.1648
  11       11.2997
  12       11.3016
 
  0.4166667E+00  0.1666667E+00  0.1666667E+00  0.1388889E-01
   1       -1.5993
   2       -0.2229
   3        3.8217
   4        3.8217
   5        5.1518
   6        5.1518
   7        9.0690
   8        9.2467
   9        9.2467
  10       10.3628
  11       10.5291
  12       10.5291
 
  0.5000000E+00  0.1666667E+00  0.1666667E+00  0.6944444E-02
   1       -0.9669
   2       -0.9669
   3        4.4296
   4        4.4296
   5        4.4358
   6        4.4358
   7        9.6634
   8        9.6634
   9        9.7970
  10        9.7970
  11        9.8817
  12        9.8817
 
  0.2500000E+00  0.2500000E+00  0.1666667E+00  0.1388889E-01
   1       -2.2343
   2        1.8721
   3        1.8721
   4        3.2086
   5        5.8757
   6        7.1787
   7        7.1787
   8        8.6509
   9        9.9406
  10        9.9406
  11       11.0669
  12       12.3618
 
  0.3333333E+00  0.2500000E+00  0.1666667E+00  0.2777778E-01
   1       -1.8300
   2        0.9142
   3        2.2661
   4        3.5990
   5        4.9418
   6        6.2521
   7        7.5614
   8        9.0317
   9       10.1603
  10       10.3160
  11       11.5641
  12       11.6016
 
  0.4166667E+00  0.2500000E+00  0.1666667E+00  0.2777778E-01
   1       -1.3116
   2        0.0623
   3        2.7713
   4        4.0947
   5        4.1160
   6        5.4280
   7        8.0521
   8        9.3534
   9        9.5185
  10       10.7634
  11       10.8273
  12       12.0337
 
  0.5000000E+00  0.2500000E+00  0.1666667E+00  0.1388889E-01
   1       -0.6803
   2       -0.6803
   3        3.3867
   4        3.3867
   5        4.7099
   6        4.7099
   7        8.6499
   8        8.6499
   9       10.1077
  10       10.1077
  11       11.3735
  12       11.3735
 
  0.3333333E+00  0.3333333E+00  0.1666667E+00  0.1388889E-01
   1       -1.4267
   2        1.3106
   3        1.3106
   4        3.9823
   5        4.0087
   6        6.6365
   7        6.6365
   8        9.2487
   9        9.4114
  10       11.9274
  11       11.9298
  12       11.9738
 
  0.4166667E+00  0.3333333E+00  0.1666667E+00  0.2777778E-01
   1       -0.9096
   2        0.4608
   3        1.8189
   4        3.1665
   5        4.4885
   6        5.8141
   7        7.1296
   8        8.4375
   9        9.8965
  10       11.1672
  11       12.4037
  12       12.4337
 
  0.5000000E+00  0.3333333E+00  0.1666667E+00  0.1388889E-01
   1       -0.2799
   2       -0.2799
   3        2.4380
   4        2.4380
   5        5.0974
   6        5.0974
   7        7.7304
   8        7.7304
   9       10.4838
  10       10.4838
  11       12.9770
  12       12.9784
 
  0.4166667E+00  0.4166667E+00  0.1666667E+00  0.1388889E-01
   1       -0.3942
   2        0.9718
   3        0.9718
   4        2.3265
   5        4.9870
   6        6.3092
   7        6.3092
   8        7.6227
   9       10.3793
  10       11.6436
  11       11.6436
  12       12.8904
 
  0.5000000E+00  0.4166667E+00  0.1666667E+00  0.1388889E-01
   1        0.2334
   2        0.2334
   3        1.5942
   4        1.5942
   5        5.5943
   6        5.5943
   7        6.9126
   8        6.9126
   9       10.9638
  10       10.9638
  11       12.2200
  12       12.2200
 
  0.5000000E+00  0.5000000E+00  0.1666667E+00  0.3472222E-02
   1        0.8587
   2        0.8587
   3        0.8587
   4        0.8587
   5        6.1999
   6        6.1999
   7        6.1999
   8        6.1999
   9       11.5446
  10       11.5446
  11       11.5446
  12       11.5446
 
  0.2500000E+00  0.2500000E+00  0.2500000E+00  0.4629630E-02
   1       -1.9454
   2        2.1536
   3        2.1536
   4        2.1536
   5        6.1511
   6        6.1511
   7        6.1511
   8       10.0621
   9       10.2098
  10       10.2098
  11       10.2098
  12       13.3088
 
  0.3333333E+00  0.2500000E+00  0.2500000E+00  0.1388889E-01
   1       -1.5418
   2        1.1974
   3        2.5469
   4        2.5469
   5        5.2186
   6        5.2186
   7        6.5359
   8        9.1501
   9       10.5847
  10       10.5847
  11       11.8657
  12       12.9838
 
  0.4166667E+00  0.2500000E+00  0.2500000E+00  0.1388889E-01
   1       -1.0244
   2        0.3470
   3        3.0512
   4        3.0512
   5        4.3892
   6        4.3892
   7        7.0295
   8        8.3384
   9       11.0623
  10       11.0623
  11       12.2963
  12       12.2963
 
  0.5000000E+00  0.2500000E+00  0.2500000E+00  0.6944444E-02
   1       -0.3943
   2       -0.3943
   3        3.6475
   4        3.6475
   5        3.6843
   6        3.6843
   7        7.6308
   8        7.6308
   9       11.6175
  10       11.6175
  11       11.6578
  12       11.6578
 
  0.3333333E+00  0.3333333E+00  0.2500000E+00  0.1388889E-01
   1       -1.1393
   2        1.5931
   3        1.5931
   4        2.9391
   5        4.2809
   6        5.6054
   7        5.6054
   8        8.2331
   9       10.9582
  10       12.2319
  11       12.2319
  12       13.3449
 
  0.4166667E+00  0.3333333E+00  0.2500000E+00  0.2777778E-01
   1       -0.6231
   2        0.7448
   3        2.1005
   4        3.4208
   5        3.4682
   6        4.7777
   7        6.1015
   8        7.4172
   9       11.4341
  10       12.6618
  11       12.6951
  12       13.8051
 
  0.5000000E+00  0.3333333E+00  0.2500000E+00  0.1388889E-01
   1        0.0054
   2        0.0054
   3        2.7184
   4        2.7184
   5        4.0564
   6        4.0564
   7        6.7059
   8        6.7059
   9       12.0068
  10       12.0068
  11       13.2406
  12       13.2406
 
  0.4166667E+00  0.4166667E+00  0.2500000E+00  0.1388889E-01
   1       -0.1087
   2        1.2549
   3        1.2549
   4        2.6070
   5        3.9453
   6        5.2760
   7        5.2760
   8        6.5975
   9       11.9076
  10       13.1284
  11       13.1284
  12       14.3367
 
  0.5000000E+00  0.4166667E+00  0.2500000E+00  0.1388889E-01
   1        0.5178
   2        0.5178
   3        1.8762
   4        1.8762
   5        4.5565
   6        4.5565
   7        5.8831
   8        5.8831
   9       12.4772
  10       12.4772
  11       13.6903
  12       13.6903
 
  0.5000000E+00  0.5000000E+00  0.2500000E+00  0.3472222E-02
   1        1.1419
   2        1.1419
   3        1.1419
   4        1.1419
   5        5.1659
   6        5.1659
   7        5.1659
   8        5.1659
   9       13.0431
  10       13.0431
  11       13.0431
  12       13.0431
 
  0.3333333E+00  0.3333333E+00  0.3333333E+00  0.4629630E-02
   1       -0.7377
   2        1.9878
   3        1.9878
   4        1.9878
   5        4.6698
   6        4.6698
   7        4.6698
   8        7.3113
   9       12.5967
  10       12.5967
  11       12.5967
  12       14.3730
 
  0.4166667E+00  0.3333333E+00  0.3333333E+00  0.1388889E-01
   1       -0.2229
   2        1.1417
   3        2.4937
   4        2.4937
   5        3.8377
   6        3.8377
   7        5.1685
   8        6.4911
   9       13.0578
  10       13.0578
  11       14.1706
  12       14.1716
 
  0.5000000E+00  0.3333333E+00  0.3333333E+00  0.6944444E-02
   1        0.4040
   2        0.4040
   3        3.0791
   4        3.0791
   5        3.1433
   6        3.1433
   7        5.7761
   8        5.7761
   9       13.5850
  10       13.5850
  11       13.6175
  12       13.6175
 
  0.4166667E+00  0.4166667E+00  0.3333333E+00  0.1388889E-01
   1        0.2902
   2        1.6504
   3        1.6504
   4        2.9647
   5        3.0349
   6        4.3385
   7        4.3385
   8        5.6671
   9       13.5165
  10       14.6151
  11       14.6151
  12       14.7453
 
  0.5000000E+00  0.4166667E+00  0.3333333E+00  0.1388889E-01
   1        0.9152
   2        0.9152
   3        2.2698
   4        2.2698
   5        3.6154
   6        3.6154
   7        4.9488
   8        4.9488
   9       14.0567
  10       14.0567
  11       15.1666
  12       15.1897
 
  0.5000000E+00  0.5000000E+00  0.3333333E+00  0.3472222E-02
   1        1.5377
   2        1.5377
   3        1.5377
   4        1.5377
   5        4.2278
   6        4.2278
   7        4.2278
   8        4.2278
   9       14.5960
  10       14.5960
  11       14.5960
  12       14.5960
 
  0.4166667E+00  0.4166667E+00  0.4166667E+00  0.4629630E-02
   1        0.8017
   2        2.1572
   3        2.1572
   4        2.1572
   5        3.5049
   6        3.5049
   7        3.5049
   8        4.8393
   9       15.1632
  10       15.1632
  11       15.1632
  12       15.7336
 
  0.5000000E+00  0.4166667E+00  0.4166667E+00  0.6944444E-02
   1        1.4246
   2        1.4246
   3        2.7351
   4        2.7351
   5        2.8178
   6        2.8178
   7        4.1178
   8        4.1178
   9       15.5761
  10       15.5761
  11       15.6794
  12       15.6794
 
  0.5000000E+00  0.5000000E+00  0.4166667E+00  0.3472222E-02
   1        2.0447
   2        2.0447
   3        2.0447
   4        2.0447
   5        3.3938
   6        3.3938
   7        3.3938
   8        3.3938
   9       16.1077
  10       16.1077
  11       16.1077
  12       16.1077
 
  0.5000000E+00  0.5000000E+00  0.5000000E+00  0.5787037E-03
   1        2.6200
   2        2.6200
   3        2.6200
   4        2.6200
   5        2.7092
   6        2.7092
   7        2.7092
   8        2.7092
   9       17.1001
  10       17.1001
  11       17.1001
  12       17.1001
