<?xml version="1.0" encoding="ISO-8859-1"?>
<modeling>
 <generator>
  <i name="program" type="string">vasp</i>
  <i name="version" type="string">4.6.28 </i>
  <i name="subversion" type="string">25Jul05 complex  parallel</i>
  <i name="platform" type="string">LinuxIFC</i>
  <i name="date" type="string">2017 01 08</i>
  <i name="time" type="string">10:01:18</i>
 </generator>
 <incar>
  <i type="string" name="PREC">accurate</i>
  <i type="int" name="IALGO">    38</i>
  <i type="logical" name="ADDGRID"> T  </i>
  <i name="EDIFF">      0.00000001</i>
  <i type="int" name="IBRION">    -1</i>
  <i name="ENCUT">    750.00000000</i>
  <i type="logical" name="LREAL"> F  </i>
  <i type="int" name="ISMEAR">     0</i>
  <i name="SIGMA">      0.01000000</i>
  <i type="logical" name="LWAVE"> F  </i>
  <i type="logical" name="LCHARG"> F  </i>
 </incar>
 <kpoints>
  <generation param="Gamma">
   <v type="int" name="divisions">      12      12      12</v>
   <v name="usershift">      0.00000000      0.00000000      0.00000000</v>
   <v name="genvec1">      0.08333333      0.00000000      0.00000000</v>
   <v name="genvec2">      0.00000000      0.08333333      0.00000000</v>
   <v name="genvec3">      0.00000000      0.00000000      0.08333333</v>
   <v name="shift">      0.00000000      0.00000000      0.00000000</v>
  </generation>
  <varray name="kpointlist" >
   <v>       0.00000000      0.00000000      0.00000000</v>
   <v>       0.08333333      0.00000000      0.00000000</v>
   <v>       0.16666667      0.00000000      0.00000000</v>
   <v>       0.25000000      0.00000000      0.00000000</v>
   <v>       0.33333333      0.00000000      0.00000000</v>
   <v>       0.41666667      0.00000000      0.00000000</v>
   <v>       0.50000000      0.00000000      0.00000000</v>
   <v>       0.08333333      0.08333333      0.00000000</v>
   <v>       0.16666667      0.08333333      0.00000000</v>
   <v>       0.25000000      0.08333333      0.00000000</v>
   <v>       0.33333333      0.08333333      0.00000000</v>
   <v>       0.41666667      0.08333333      0.00000000</v>
   <v>       0.50000000      0.08333333      0.00000000</v>
   <v>       0.16666667      0.16666667      0.00000000</v>
   <v>       0.25000000      0.16666667      0.00000000</v>
   <v>       0.33333333      0.16666667      0.00000000</v>
   <v>       0.41666667      0.16666667      0.00000000</v>
   <v>       0.50000000      0.16666667      0.00000000</v>
   <v>       0.25000000      0.25000000      0.00000000</v>
   <v>       0.33333333      0.25000000      0.00000000</v>
   <v>       0.41666667      0.25000000      0.00000000</v>
   <v>       0.50000000      0.25000000      0.00000000</v>
   <v>       0.33333333      0.33333333      0.00000000</v>
   <v>       0.41666667      0.33333333      0.00000000</v>
   <v>       0.50000000      0.33333333      0.00000000</v>
   <v>       0.41666667      0.41666667      0.00000000</v>
   <v>       0.50000000      0.41666667      0.00000000</v>
   <v>       0.50000000      0.50000000      0.00000000</v>
   <v>       0.08333333      0.08333333      0.08333333</v>
   <v>       0.16666667      0.08333333      0.08333333</v>
   <v>       0.25000000      0.08333333      0.08333333</v>
   <v>       0.33333333      0.08333333      0.08333333</v>
   <v>       0.41666667      0.08333333      0.08333333</v>
   <v>       0.50000000      0.08333333      0.08333333</v>
   <v>       0.16666667      0.16666667      0.08333333</v>
   <v>       0.25000000      0.16666667      0.08333333</v>
   <v>       0.33333333      0.16666667      0.08333333</v>
   <v>       0.41666667      0.16666667      0.08333333</v>
   <v>       0.50000000      0.16666667      0.08333333</v>
   <v>       0.25000000      0.25000000      0.08333333</v>
   <v>       0.33333333      0.25000000      0.08333333</v>
   <v>       0.41666667      0.25000000      0.08333333</v>
   <v>       0.50000000      0.25000000      0.08333333</v>
   <v>       0.33333333      0.33333333      0.08333333</v>
   <v>       0.41666667      0.33333333      0.08333333</v>
   <v>       0.50000000      0.33333333      0.08333333</v>
   <v>       0.41666667      0.41666667      0.08333333</v>
   <v>       0.50000000      0.41666667      0.08333333</v>
   <v>       0.50000000      0.50000000      0.08333333</v>
   <v>       0.16666667      0.16666667      0.16666667</v>
   <v>       0.25000000      0.16666667      0.16666667</v>
   <v>       0.33333333      0.16666667      0.16666667</v>
   <v>       0.41666667      0.16666667      0.16666667</v>
   <v>       0.50000000      0.16666667      0.16666667</v>
   <v>       0.25000000      0.25000000      0.16666667</v>
   <v>       0.33333333      0.25000000      0.16666667</v>
   <v>       0.41666667      0.25000000      0.16666667</v>
   <v>       0.50000000      0.25000000      0.16666667</v>
   <v>       0.33333333      0.33333333      0.16666667</v>
   <v>       0.41666667      0.33333333      0.16666667</v>
   <v>       0.50000000      0.33333333      0.16666667</v>
   <v>       0.41666667      0.41666667      0.16666667</v>
   <v>       0.50000000      0.41666667      0.16666667</v>
   <v>       0.50000000      0.50000000      0.16666667</v>
   <v>       0.25000000      0.25000000      0.25000000</v>
   <v>       0.33333333      0.25000000      0.25000000</v>
   <v>       0.41666667      0.25000000      0.25000000</v>
   <v>       0.50000000      0.25000000      0.25000000</v>
   <v>       0.33333333      0.33333333      0.25000000</v>
   <v>       0.41666667      0.33333333      0.25000000</v>
   <v>       0.50000000      0.33333333      0.25000000</v>
   <v>       0.41666667      0.41666667      0.25000000</v>
   <v>       0.50000000      0.41666667      0.25000000</v>
   <v>       0.50000000      0.50000000      0.25000000</v>
   <v>       0.33333333      0.33333333      0.33333333</v>
   <v>       0.41666667      0.33333333      0.33333333</v>
   <v>       0.50000000      0.33333333      0.33333333</v>
   <v>       0.41666667      0.41666667      0.33333333</v>
   <v>       0.50000000      0.41666667      0.33333333</v>
   <v>       0.50000000      0.50000000      0.33333333</v>
   <v>       0.41666667      0.41666667      0.41666667</v>
   <v>       0.50000000      0.41666667      0.41666667</v>
   <v>       0.50000000      0.50000000      0.41666667</v>
   <v>       0.50000000      0.50000000      0.50000000</v>
  </varray>
  <varray name="weights" >
   <v>       0.00057870</v>
   <v>       0.00347222</v>
   <v>       0.00347222</v>
   <v>       0.00347222</v>
   <v>       0.00347222</v>
   <v>       0.00347222</v>
   <v>       0.00173611</v>
   <v>       0.00694444</v>
   <v>       0.01388889</v>
   <v>       0.01388889</v>
   <v>       0.01388889</v>
   <v>       0.01388889</v>
   <v>       0.00694444</v>
   <v>       0.00694444</v>
   <v>       0.01388889</v>
   <v>       0.01388889</v>
   <v>       0.01388889</v>
   <v>       0.00694444</v>
   <v>       0.00694444</v>
   <v>       0.01388889</v>
   <v>       0.01388889</v>
   <v>       0.00694444</v>
   <v>       0.00694444</v>
   <v>       0.01388889</v>
   <v>       0.00694444</v>
   <v>       0.00694444</v>
   <v>       0.00694444</v>
   <v>       0.00173611</v>
   <v>       0.00462963</v>
   <v>       0.01388889</v>
   <v>       0.01388889</v>
   <v>       0.01388889</v>
   <v>       0.01388889</v>
   <v>       0.00694444</v>
   <v>       0.01388889</v>
   <v>       0.02777778</v>
   <v>       0.02777778</v>
   <v>       0.02777778</v>
   <v>       0.01388889</v>
   <v>       0.01388889</v>
   <v>       0.02777778</v>
   <v>       0.02777778</v>
   <v>       0.01388889</v>
   <v>       0.01388889</v>
   <v>       0.02777778</v>
   <v>       0.01388889</v>
   <v>       0.01388889</v>
   <v>       0.01388889</v>
   <v>       0.00347222</v>
   <v>       0.00462963</v>
   <v>       0.01388889</v>
   <v>       0.01388889</v>
   <v>       0.01388889</v>
   <v>       0.00694444</v>
   <v>       0.01388889</v>
   <v>       0.02777778</v>
   <v>       0.02777778</v>
   <v>       0.01388889</v>
   <v>       0.01388889</v>
   <v>       0.02777778</v>
   <v>       0.01388889</v>
   <v>       0.01388889</v>
   <v>       0.01388889</v>
   <v>       0.00347222</v>
   <v>       0.00462963</v>
   <v>       0.01388889</v>
   <v>       0.01388889</v>
   <v>       0.00694444</v>
   <v>       0.01388889</v>
   <v>       0.02777778</v>
   <v>       0.01388889</v>
   <v>       0.01388889</v>
   <v>       0.01388889</v>
   <v>       0.00347222</v>
   <v>       0.00462963</v>
   <v>       0.01388889</v>
   <v>       0.00694444</v>
   <v>       0.01388889</v>
   <v>       0.01388889</v>
   <v>       0.00347222</v>
   <v>       0.00462963</v>
   <v>       0.00694444</v>
   <v>       0.00347222</v>
   <v>       0.00057870</v>
  </varray>
 </kpoints>
 <parameters>
  <separator name="general" >
   <i type="string" name="SYSTEM">unknown system</i>
   <i type="logical" name="LCOMPAT"> F  </i>
  </separator>
  <separator name="electronic" >
   <i type="string" name="PREC">accura</i>
   <i name="ENMAX">    750.00000000</i>
   <i name="ENAUG">    291.05200000</i>
   <i name="EDIFF">      0.00000001</i>
   <i type="int" name="IALGO">    38</i>
   <i type="int" name="IWAVPR">    10</i>
   <i type="int" name="NBANDS">    10</i>
   <i name="NELECT">     12.00000000</i>
   <separator name="electronic smearing" >
    <i type="int" name="ISMEAR">     0</i>
    <i name="SIGMA">      0.01000000</i>
   </separator>
   <separator name="electronic projectors" >
    <i type="logical" name="LREAL"> F  </i>
    <v name="ROPT">      0.00000000</v>
    <i type="int" name="LMAXPAW">  -100</i>
    <i type="int" name="LMAXMIX">     2</i>
   </separator>
   <separator name="electronic startup" >
    <i type="int" name="ISTART">     0</i>
    <i type="int" name="ICHARG">     2</i>
    <i type="int" name="INIWAV">     1</i>
   </separator>
   <separator name="electronic spin" >
    <i type="int" name="ISPIN">     1</i>
    <i type="logical" name="LNONCOLLINEAR"> F  </i>
    <v name="MAGMOM">      1.00000000      1.00000000      1.00000000      1.00000000</v>
    <i name="NUPDOWN">     -1.00000000</i>
    <i type="logical" name="LSORBIT"> F  </i>
    <v name="SAXIS">      0.00000000      0.00000000      1.00000000</v>
    <i type="logical" name="LSPIRAL"> F  </i>
    <v name="QSPIRAL">      0.00000000      0.00000000      0.00000000</v>
    <i type="logical" name="LZEROZ"> F  </i>
   </separator>
   <separator name="electronic exchange-correlation" >
    <i type="string" name="GGA">--</i>
    <i type="int" name="VOSKOWN">     0</i>
    <i type="logical" name="LASPH"> F  </i>
    <i type="logical" name="LMETAGGA"> F  </i>
    <i type="string" name="GGA2">--</i>
   </separator>
   <separator name="electronic convergence" >
    <i type="int" name="NELM">    60</i>
    <i type="int" name="NELMDL">     0</i>
    <i type="int" name="NELMIN">     2</i>
    <i name="ENINI">    750.00000000</i>
    <separator name="electronic convergence detail" >
     <i type="logical" name="LDIAG"> T  </i>
     <i name="WEIMIN">      0.00000000</i>
     <i name="EBREAK">      0.00000000</i>
     <i name="DEPER">      0.30000000</i>
     <i type="int" name="NRMM">     4</i>
     <i name="TIME">      0.10000000</i>
    </separator>
   </separator>
   <separator name="electronic mixer" >
    <i name="AMIX">      0.40000000</i>
    <i name="BMIX">      1.00000000</i>
    <i name="AMIN">      0.10000000</i>
    <i name="AMIX_MAG">      1.60000000</i>
    <i name="BMIX_MAG">      1.00000000</i>
    <separator name="electronic mixer details" >
     <i type="int" name="IMIX">     4</i>
     <i type="int" name="MAXMIX">   -45</i>
     <i name="WC">    100.00000000</i>
     <i type="int" name="INIMIX">     1</i>
     <i type="int" name="MIXPRE">     1</i>
     <i type="int" name="MREMOVE">     5</i>
    </separator>
   </separator>
   <separator name="electronic dipolcorrection" >
    <i type="int" name="IDIPOL">     0</i>
    <i type="logical" name="LDIPOL"> F  </i>
    <v name="DIPOL">   -100.00000000</v>
    <i name="EFIELD">      0.00000000</i>
   </separator>
  </separator>
  <separator name="grids" >
   <i type="int" name="NGX">    40</i>
   <i type="int" name="NGY">    40</i>
   <i type="int" name="NGZ">    40</i>
   <i type="int" name="NGXF">    80</i>
   <i type="int" name="NGYF">    80</i>
   <i type="int" name="NGZF">    80</i>
   <i type="logical" name="ADDGRID"> T  </i>
  </separator>
  <separator name="ionic" >
   <i type="int" name="NSW">     0</i>
   <i type="int" name="IBRION">    -1</i>
   <i type="int" name="ISIF">     2</i>
   <i name="PSTRESS">      0.00000000</i>
   <i name="EDIFFG">      0.00000010</i>
   <i type="int" name="NFREE">     0</i>
   <i name="POTIM">      0.50000000</i>
   <i name="SMASS">     -3.00000000</i>
  </separator>
  <separator name="ionic md" >
   <i name="TEBEG">      0.00010000</i>
   <i name="TEEND">      0.00010000</i>
   <i type="int" name="NBLOCK">     1</i>
   <i type="int" name="KBLOCK">     1</i>
   <i type="int" name="NPACO">   256</i>
   <i name="APACO">     16.00000000</i>
  </separator>
  <separator name="symmetry" >
   <i type="int" name="ISYM">     2</i>
   <i name="SYMPREC">      0.00001000</i>
  </separator>
  <separator name="dos" >
   <i type="logical" name="LORBIT"> F  </i>
   <v name="RWIGS">     -1.00000000</v>
   <i type="int" name="NEDOS">   301</i>
   <i name="EMIN">     10.00000000</i>
   <i name="EMAX">    -10.00000000</i>
  </separator>
  <separator name="writing" >
   <i type="int" name="NWRITE">     2</i>
   <i type="logical" name="LWAVE"> F  </i>
   <i type="logical" name="LCHARG"> F  </i>
   <i type="logical" name="LPARD"> F  </i>
   <i type="logical" name="LVTOT"> F  </i>
   <i type="logical" name="LELF"> F  </i>
   <i type="logical" name="LOPTICS"> F  </i>
   <i name="STM">      0.00000000</i>
  </separator>
  <separator name="performance" >
   <i type="int" name="NPAR">     4</i>
   <i type="int" name="NSIM">     4</i>
   <i type="int" name="NBLK">   256</i>
   <i type="logical" name="LPLANE"> T  </i>
   <i type="logical" name="LCRITICAL_MEM"> F  </i>
   <i type="logical" name="LSCALAPACK"> F  </i>
   <i type="logical" name="LSCALU"> F  </i>
   <i type="logical" name="LASYNC"> F  </i>
  </separator>
  <separator name="miscellaneous" >
   <i type="int" name="IDIOT">     3</i>
   <i type="logical" name="LMUSIC"> F  </i>
   <v name="POMASS">     26.98200000</v>
   <i type="logical" name="LCORR"> T  </i>
  </separator>
  <i type="logical" name="LREAL_COMPAT"> F  </i>
  <i type="logical" name="GGA_COMPAT"> T  </i>
  <i type="logical" name="LBERRY"> F  </i>
  <i type="int" name="ICORELEVEL">     0</i>
  <i type="logical" name="LDAU"> F  </i>
  <i type="int" name="I_CONSTRAINED_M">     0</i>
 </parameters>
 <atominfo>
  <atoms>       4</atoms>
  <types>       1</types>
  <array name="atoms" >
   <dimension dim="1">ion</dimension>
   <field type="string">element</field>
   <field type="int">atomtype</field>
   <set>
    <rc><c>Al</c><c>   1</c></rc>
    <rc><c>Al</c><c>   1</c></rc>
    <rc><c>Al</c><c>   1</c></rc>
    <rc><c>Al</c><c>   1</c></rc>
   </set>
  </array>
  <array name="atomtypes" >
   <dimension dim="1">type</dimension>
   <field type="int">atomspertype</field>
   <field type="string">element</field>
   <field>mass</field>
   <field>valence</field>
   <field type="string">pseudopotential</field>
   <set>
    <rc><c>   4</c><c>Al</c><c>     26.98200000</c><c>      3.00000000</c><c> PAW_PBE Al 04Jan2001                   </c></rc>
   </set>
  </array>
 </atominfo>
 <structure name="initialpos" >
  <crystal>
   <varray name="basis" >
    <v>       4.19879862      0.00000000      0.00000000</v>
    <v>       0.00000000      4.19879862      0.00000000</v>
    <v>       0.00000000      0.00000000      4.19879862</v>
   </varray>
   <i name="volume">     74.02444139</i>
   <varray name="rec_basis" >
    <v>       0.23816336      0.00000000      0.00000000</v>
    <v>       0.00000000      0.23816336      0.00000000</v>
    <v>       0.00000000      0.00000000      0.23816336</v>
   </varray>
  </crystal>
  <varray name="positions" >
   <v>       0.50000000      0.50000000      0.00000000</v>
   <v>       0.50000000      0.00000000      0.50000000</v>
   <v>       0.00000000      0.50000000      0.50000000</v>
   <v>       0.00000000      0.00000000      0.00000000</v>
  </varray>
 </structure>
 <calculation>
  <scstep>
   <time name="dav">    3.13    3.14</time>
   <time name="total">    3.36    3.37</time>
   <energy>
    <i name="alphaZ">     -0.72598984</i>
    <i name="ewald">   -283.02826687</i>
    <i name="hartreedc">     -0.63577539</i>
    <i name="XCdc">   -105.76608337</i>
    <i name="pawpsdc">    142.21701965</i>
    <i name="pawaedc">    -14.39593217</i>
    <i name="eentropy">     -0.00024485</i>
    <i name="bandstr">     59.30681788</i>
    <i name="atom">    214.15438658</i>
    <i name="e_fr_energy">     11.12593163</i>
    <i name="e_wo_entrp">     11.12617648</i>
    <i name="e_0_energy">     11.12605405</i>
   </energy>
  </scstep>
  <scstep>
   <time name="dav">    3.57    3.57</time>
   <time name="total">    3.57    3.58</time>
   <energy>
    <i name="e_fr_energy">    -13.93675393</i>
    <i name="e_wo_entrp">    -13.93654548</i>
    <i name="e_0_energy">    -13.93664971</i>
   </energy>
  </scstep>
  <scstep>
   <time name="dav">    3.76    3.76</time>
   <time name="total">    3.76    3.76</time>
   <energy>
    <i name="e_fr_energy">    -14.85449924</i>
    <i name="e_wo_entrp">    -14.85411965</i>
    <i name="e_0_energy">    -14.85430945</i>
   </energy>
  </scstep>
  <scstep>
   <time name="dav">    3.42    3.43</time>
   <time name="total">    3.43    3.43</time>
   <energy>
    <i name="e_fr_energy">    -14.86403304</i>
    <i name="e_wo_entrp">    -14.86389594</i>
    <i name="e_0_energy">    -14.86396449</i>
   </energy>
  </scstep>
  <scstep>
   <time name="dav">    3.58    3.59</time>
   <time name="total">    3.89    3.90</time>
   <energy>
    <i name="e_fr_energy">    -14.86412419</i>
    <i name="e_wo_entrp">    -14.86398710</i>
    <i name="e_0_energy">    -14.86405564</i>
   </energy>
  </scstep>
  <scstep>
   <time name="dav">    3.31    3.31</time>
   <time name="total">    3.80    3.81</time>
   <energy>
    <i name="e_fr_energy">    -14.81497668</i>
    <i name="e_wo_entrp">    -14.81484865</i>
    <i name="e_0_energy">    -14.81491266</i>
   </energy>
  </scstep>
  <scstep>
   <time name="dav">    2.88    2.88</time>
   <time name="total">    3.31    3.32</time>
   <energy>
    <i name="e_fr_energy">    -14.77958623</i>
    <i name="e_wo_entrp">    -14.77948917</i>
    <i name="e_0_energy">    -14.77953770</i>
   </energy>
  </scstep>
  <scstep>
   <time name="dav">    2.32    2.33</time>
   <time name="total">    2.74    2.74</time>
   <energy>
    <i name="e_fr_energy">    -14.77957625</i>
    <i name="e_wo_entrp">    -14.77947971</i>
    <i name="e_0_energy">    -14.77952798</i>
   </energy>
  </scstep>
  <scstep>
   <time name="dav">    2.34    2.34</time>
   <time name="total">    2.76    2.76</time>
   <energy>
    <i name="e_fr_energy">    -14.77957872</i>
    <i name="e_wo_entrp">    -14.77948274</i>
    <i name="e_0_energy">    -14.77953073</i>
   </energy>
  </scstep>
  <scstep>
   <time name="dav">    2.40    2.41</time>
   <time name="total">    2.82    2.82</time>
   <energy>
    <i name="e_fr_energy">    -14.77957728</i>
    <i name="e_wo_entrp">    -14.77948132</i>
    <i name="e_0_energy">    -14.77952930</i>
   </energy>
  </scstep>
  <scstep>
   <time name="dav">    1.82    1.82</time>
   <time name="total">    2.25    2.26</time>
   <energy>
    <i name="e_fr_energy">    -14.77957714</i>
    <i name="e_wo_entrp">    -14.77948120</i>
    <i name="e_0_energy">    -14.77952917</i>
   </energy>
  </scstep>
  <scstep>
   <time name="dav">    2.47    2.47</time>
   <time name="total">    2.99    3.00</time>
   <energy>
    <i name="e_fr_energy">    -14.77957719</i>
    <i name="e_wo_entrp">    -14.77948124</i>
    <i name="e_0_energy">    -14.77952921</i>
   </energy>
  </scstep>
  <scstep>
   <time name="dav">    2.44    2.45</time>
   <time name="total">    2.68    2.68</time>
   <energy>
    <i name="alphaZ">     -0.72598984</i>
    <i name="ewald">   -283.02826687</i>
    <i name="hartreedc">     -0.39898842</i>
    <i name="XCdc">   -105.43021304</i>
    <i name="pawpsdc">    141.51423537</i>
    <i name="pawaedc">    -13.68224857</i>
    <i name="eentropy">     -0.00009595</i>
    <i name="bandstr">     32.81760355</i>
    <i name="atom">    214.15438658</i>
    <i name="e_fr_energy">    -14.77957718</i>
    <i name="e_wo_entrp">    -14.77948123</i>
    <i name="e_0_energy">    -14.77952921</i>
   </energy>
  </scstep>
  <structure>
   <crystal>
    <varray name="basis" >
     <v>       4.19879862      0.00000000      0.00000000</v>
     <v>       0.00000000      4.19879862      0.00000000</v>
     <v>       0.00000000      0.00000000      4.19879862</v>
    </varray>
    <i name="volume">     74.02444139</i>
    <varray name="rec_basis" >
     <v>       0.23816336      0.00000000      0.00000000</v>
     <v>       0.00000000      0.23816336      0.00000000</v>
     <v>       0.00000000      0.00000000      0.23816336</v>
    </varray>
   </crystal>
   <varray name="positions" >
    <v>       0.50000000      0.50000000      0.00000000</v>
    <v>       0.50000000      0.00000000      0.50000000</v>
    <v>       0.00000000      0.50000000      0.50000000</v>
    <v>       0.00000000      0.00000000      0.00000000</v>
   </varray>
  </structure>
  <varray name="forces" >
   <v>       0.00000000      0.00000000      0.00000000</v>
   <v>      -0.00000000     -0.00000000     -0.00000000</v>
   <v>      -0.00000000     -0.00000000      0.00000000</v>
   <v>      -0.00000000     -0.00000000     -0.00000000</v>
  </varray>
  <varray name="stress" >
   <v>     -67.55524548      0.00000000     -0.00000000</v>
   <v>       0.00000000    -67.55524548     -0.00000000</v>
   <v>       0.00000000      0.00000000    -67.55524548</v>
  </varray>
  <energy>
   <i name="e_fr_energy">    -14.77957718</i>
   <i name="e_wo_entrp">    -14.77952921</i>
   <i name="e_0_energy">     -0.00009595</i>
  </energy>
  <eigenvalues>
   <array>
    <dimension dim="1">band</dimension>
    <dimension dim="2">kpoint</dimension>
    <dimension dim="3">spin</dimension>
    <field>eigene</field>
    <field>occ</field>
    <set>
     <set comment="spin 1">
      <set comment="kpoint 1">
       <r>  -3.5120  1.0000</r>
       <r>   4.2064  1.0000</r>
       <r>   4.2064  1.0000</r>
       <r>   4.2064  1.0000</r>
       <r>   5.2480  1.0000</r>
       <r>   5.2480  1.0000</r>
       <r>   5.2480  1.0000</r>
       <r>  11.9406  0.0000</r>
       <r>  11.9406  0.0000</r>
       <r>  11.9406  0.0000</r>
       <r>  11.9406  0.0000</r>
       <r>  11.9406  0.0000</r>
      </set>
      <set comment="kpoint 2">
       <r>  -3.4537  1.0000</r>
       <r>   3.3393  1.0000</r>
       <r>   4.2604  1.0000</r>
       <r>   4.2604  1.0000</r>
       <r>   5.3054  1.0000</r>
       <r>   5.3054  1.0000</r>
       <r>   6.2176  1.0000</r>
       <r>  10.7605  0.0000</r>
       <r>  10.7605  0.0000</r>
       <r>  11.5047  0.0000</r>
       <r>  11.5047  0.0000</r>
       <r>  11.9911  0.0000</r>
      </set>
      <set comment="kpoint 3">
       <r>  -3.2789  1.0000</r>
       <r>   2.2009  1.0000</r>
       <r>   4.4225  1.0000</r>
       <r>   4.4225  1.0000</r>
       <r>   5.4773  1.0000</r>
       <r>   5.4773  1.0000</r>
       <r>   7.6630  0.0000</r>
       <r>   9.6219  0.0000</r>
       <r>   9.6219  0.0000</r>
       <r>  10.6335  0.0000</r>
       <r>  10.6335  0.0000</r>
       <r>  12.1427  0.0000</r>
      </set>
      <set comment="kpoint 4">
       <r>  -2.9880  1.0000</r>
       <r>   1.1382  1.0000</r>
       <r>   4.6926  1.0000</r>
       <r>   4.6926  1.0000</r>
       <r>   5.7627  1.0000</r>
       <r>   5.7627  1.0000</r>
       <r>   8.5914  0.0000</r>
       <r>   8.5914  0.0000</r>
       <r>   9.2362  0.0000</r>
       <r>   9.7002  0.0000</r>
       <r>   9.7002  0.0000</r>
       <r>  12.3953  0.0000</r>
      </set>
      <set comment="kpoint 5">
       <r>  -2.5817  1.0000</r>
       <r>   0.1756  1.0000</r>
       <r>   5.0709  1.0000</r>
       <r>   5.0709  1.0000</r>
       <r>   6.1600  1.0000</r>
       <r>   6.1600  1.0000</r>
       <r>   7.6697  0.0000</r>
       <r>   7.6697  0.0000</r>
       <r>   8.8119  0.0000</r>
       <r>   8.8119  0.0000</r>
       <r>  10.9103  0.0000</r>
       <r>  12.7492  0.0000</r>
      </set>
      <set comment="kpoint 6">
       <r>  -2.0608  1.0000</r>
       <r>  -0.6804  1.0000</r>
       <r>   5.5577  1.0000</r>
       <r>   5.5577  1.0000</r>
       <r>   6.6660  1.0000</r>
       <r>   6.6660  1.0000</r>
       <r>   6.8569  1.0000</r>
       <r>   6.8569  1.0000</r>
       <r>   8.0037  0.0000</r>
       <r>   8.0037  0.0000</r>
       <r>  12.6732  0.0000</r>
       <r>  13.2041  0.0000</r>
      </set>
      <set comment="kpoint 7">
       <r>  -1.4265  1.0000</r>
       <r>  -1.4265  1.0000</r>
       <r>   6.1529  1.0000</r>
       <r>   6.1529  1.0000</r>
       <r>   6.1529  1.0000</r>
       <r>   6.1529  1.0000</r>
       <r>   7.2148  0.0000</r>
       <r>   7.2148  0.0000</r>
       <r>   7.3533  0.0000</r>
       <r>   7.3533  0.0000</r>
       <r>  13.7599  0.0000</r>
       <r>  13.7599  0.0000</r>
      </set>
      <set comment="kpoint 8">
       <r>  -3.3954  1.0000</r>
       <r>   3.3947  1.0000</r>
       <r>   3.3947  1.0000</r>
       <r>   4.3144  1.0000</r>
       <r>   5.3627  1.0000</r>
       <r>   6.2735  1.0000</r>
       <r>   6.2735  1.0000</r>
       <r>   9.8977  0.0000</r>
       <r>  10.8144  0.0000</r>
       <r>  10.8144  0.0000</r>
       <r>  11.5561  0.0000</r>
       <r>  11.5561  0.0000</r>
      </set>
      <set comment="kpoint 9">
       <r>  -3.2207  1.0000</r>
       <r>   2.2570  1.0000</r>
       <r>   3.5610  1.0000</r>
       <r>   4.4765  1.0000</r>
       <r>   5.5345  1.0000</r>
       <r>   6.4409  1.0000</r>
       <r>   7.7180  0.0000</r>
       <r>   8.8038  0.0000</r>
       <r>   9.6759  0.0000</r>
       <r>  10.6862  0.0000</r>
       <r>  10.9760  0.0000</r>
       <r>  11.4902  0.0000</r>
      </set>
      <set comment="kpoint 10">
       <r>  -2.9299  1.0000</r>
       <r>   1.1947  1.0000</r>
       <r>   3.8379  1.0000</r>
       <r>   4.7466  1.0000</r>
       <r>   5.8196  1.0000</r>
       <r>   6.7192  1.0000</r>
       <r>   7.7840  0.0000</r>
       <r>   8.6455  0.0000</r>
       <r>   9.2905  0.0000</r>
       <r>   9.7540  0.0000</r>
       <r>  10.5900  0.0000</r>
       <r>  11.2450  0.0000</r>
      </set>
      <set comment="kpoint 11">
       <r>  -2.5237  1.0000</r>
       <r>   0.2325  1.0000</r>
       <r>   4.2250  1.0000</r>
       <r>   5.1250  1.0000</r>
       <r>   6.2160  1.0000</r>
       <r>   6.8619  1.0000</r>
       <r>   7.1070  0.0000</r>
       <r>   7.7238  0.0000</r>
       <r>   8.8669  0.0000</r>
       <r>   9.7137  0.0000</r>
       <r>  10.9635  0.0000</r>
       <r>  11.6211  0.0000</r>
      </set>
      <set comment="kpoint 12">
       <r>  -2.0030  1.0000</r>
       <r>  -0.6231  1.0000</r>
       <r>   4.7216  1.0000</r>
       <r>   5.6117  1.0000</r>
       <r>   6.0396  1.0000</r>
       <r>   6.7254  1.0000</r>
       <r>   6.9110  0.0018</r>
       <r>   7.5979  0.0000</r>
       <r>   8.0639  0.0000</r>
       <r>   8.9155  0.0000</r>
       <r>  12.1036  0.0000</r>
       <r>  12.7258  0.0000</r>
      </set>
      <set comment="kpoint 13">
       <r>  -1.3690  1.0000</r>
       <r>  -1.3690  1.0000</r>
       <r>   5.3271  1.0000</r>
       <r>   5.3271  1.0000</r>
       <r>   6.2070  1.0000</r>
       <r>   6.2070  1.0000</r>
       <r>   7.3358  0.0000</r>
       <r>   7.3358  0.0000</r>
       <r>   8.2136  0.0000</r>
       <r>   8.2136  0.0000</r>
       <r>  12.6915  0.0000</r>
       <r>  12.6915  0.0000</r>
      </set>
      <set comment="kpoint 14">
       <r>  -3.0462  1.0000</r>
       <r>   2.4253  1.0000</r>
       <r>   2.4253  1.0000</r>
       <r>   4.6385  1.0000</r>
       <r>   5.7057  1.0000</r>
       <r>   7.7116  0.0000</r>
       <r>   7.8829  0.0000</r>
       <r>   7.8829  0.0000</r>
       <r>   9.8380  0.0000</r>
       <r>   9.8380  0.0000</r>
       <r>  10.8442  0.0000</r>
       <r>  10.8442  0.0000</r>
      </set>
      <set comment="kpoint 15">
       <r>  -2.7557  1.0000</r>
       <r>   1.3643  1.0000</r>
       <r>   2.7054  1.0000</r>
       <r>   4.9087  1.0000</r>
       <r>   5.9896  1.0000</r>
       <r>   6.6879  1.0000</r>
       <r>   8.1566  0.0000</r>
       <r>   8.8077  0.0000</r>
       <r>   9.4527  0.0000</r>
       <r>   9.9154  0.0000</r>
       <r>  10.1080  0.0000</r>
       <r>  11.1069  0.0000</r>
      </set>
      <set comment="kpoint 16">
       <r>  -2.3500  1.0000</r>
       <r>   0.4032  1.0000</r>
       <r>   3.0969  1.0000</r>
       <r>   5.2872  1.0000</r>
       <r>   5.7559  1.0000</r>
       <r>   6.3888  1.0000</r>
       <r>   7.8861  0.0000</r>
       <r>   8.5343  0.0000</r>
       <r>   9.0348  0.0000</r>
       <r>  10.4857  0.0000</r>
       <r>  11.0876  0.0000</r>
       <r>  11.1216  0.0000</r>
      </set>
      <set comment="kpoint 17">
       <r>  -1.8299  1.0000</r>
       <r>  -0.4515  1.0000</r>
       <r>   3.5990  1.0000</r>
       <r>   4.9305  1.0000</r>
       <r>   5.7739  1.0000</r>
       <r>   6.8937  0.3241</r>
       <r>   7.0733  0.0000</r>
       <r>   8.2163  0.0000</r>
       <r>   9.0349  0.0000</r>
       <r>  10.3143  0.0000</r>
       <r>  10.9707  0.0000</r>
       <r>  11.9410  0.0000</r>
      </set>
      <set comment="kpoint 18">
       <r>  -1.1965  1.0000</r>
       <r>  -1.1965  1.0000</r>
       <r>   4.2107  1.0000</r>
       <r>   4.2107  1.0000</r>
       <r>   6.3693  1.0000</r>
       <r>   6.3693  1.0000</r>
       <r>   7.5053  0.0000</r>
       <r>   7.5053  0.0000</r>
       <r>   9.6249  0.0000</r>
       <r>   9.6249  0.0000</r>
       <r>  11.5626  0.0000</r>
       <r>  11.5626  0.0000</r>
      </set>
      <set comment="kpoint 19">
       <r>  -2.4658  1.0000</r>
       <r>   1.6467  1.0000</r>
       <r>   1.6467  1.0000</r>
       <r>   5.1790  1.0000</r>
       <r>   5.6544  1.0000</r>
       <r>   6.2759  1.0000</r>
       <r>   9.0781  0.0000</r>
       <r>   9.0781  0.0000</r>
       <r>   9.7192  0.0000</r>
       <r>   9.7192  0.0000</r>
       <r>  10.1859  0.0000</r>
       <r>  10.1859  0.0000</r>
      </set>
      <set comment="kpoint 20">
       <r>  -2.0609  1.0000</r>
       <r>   0.6873  1.0000</r>
       <r>   2.0411  1.0000</r>
       <r>   4.7201  1.0000</r>
       <r>   5.5575  1.0000</r>
       <r>   6.6699  1.0000</r>
       <r>   8.1566  0.0000</r>
       <r>   9.2956  0.0000</r>
       <r>   9.4565  0.0000</r>
       <r>  10.1045  0.0000</r>
       <r>  10.5520  0.0000</r>
       <r>  11.3905  0.0000</r>
      </set>
      <set comment="kpoint 21">
       <r>  -1.5417  1.0000</r>
       <r>  -0.1658  1.0000</r>
       <r>   2.5470  1.0000</r>
       <r>   3.8883  1.0000</r>
       <r>   6.0444  1.0000</r>
       <r>   7.1737  0.0000</r>
       <r>   7.3439  0.0000</r>
       <r>   8.4938  0.0000</r>
       <r>   9.9427  0.0000</r>
       <r>  10.5828  0.0000</r>
       <r>  11.0296  0.0000</r>
       <r>  11.2371  0.0000</r>
      </set>
      <set comment="kpoint 22">
       <r>  -0.9095  1.0000</r>
       <r>  -0.9095  1.0000</r>
       <r>   3.1632  1.0000</r>
       <r>   3.1632  1.0000</r>
       <r>   6.6398  1.0000</r>
       <r>   6.6398  1.0000</r>
       <r>   7.7834  0.0000</r>
       <r>   7.7834  0.0000</r>
       <r>  10.5364  0.0000</r>
       <r>  10.5364  0.0000</r>
       <r>  11.1606  0.0000</r>
       <r>  11.1606  0.0000</r>
      </set>
      <set comment="kpoint 23">
       <r>  -1.6570  1.0000</r>
       <r>   1.0843  1.0000</r>
       <r>   1.0843  1.0000</r>
       <r>   3.7795  1.0000</r>
       <r>   5.9361  1.0000</r>
       <r>   7.0625  0.0000</r>
       <r>   8.5353  0.0000</r>
       <r>   8.5353  0.0000</r>
       <r>   9.6762  0.0000</r>
       <r>   9.6762  0.0000</r>
       <r>  11.1285  0.0000</r>
       <r>  11.7580  0.0000</r>
      </set>
      <set comment="kpoint 24">
       <r>  -1.1391  1.0000</r>
       <r>   0.2333  1.0000</r>
       <r>   1.5933  1.0000</r>
       <r>   2.9427  1.0000</r>
       <r>   6.4231  1.0000</r>
       <r>   7.5638  0.0000</r>
       <r>   7.7226  0.0000</r>
       <r>   8.8771  0.0000</r>
       <r>   9.0221  0.0000</r>
       <r>  10.1595  0.0000</r>
       <r>  10.3191  0.0000</r>
       <r>  11.4259  0.0000</r>
      </set>
      <set comment="kpoint 25">
       <r>  -0.5085  1.0000</r>
       <r>  -0.5085  1.0000</r>
       <r>   2.2133  1.0000</r>
       <r>   2.2133  1.0000</r>
       <r>   7.0186  0.0000</r>
       <r>   7.0186  0.0000</r>
       <r>   8.1703  0.0000</r>
       <r>   8.1703  0.0000</r>
       <r>   9.6168  0.0000</r>
       <r>   9.6168  0.0000</r>
       <r>  10.7443  0.0000</r>
       <r>  10.7443  0.0000</r>
      </set>
      <set comment="kpoint 26">
       <r>  -0.6230  1.0000</r>
       <r>   0.7450  1.0000</r>
       <r>   0.7450  1.0000</r>
       <r>   2.1016  1.0000</r>
       <r>   6.9102  0.0027</r>
       <r>   8.0617  0.0000</r>
       <r>   8.2097  0.0000</r>
       <r>   8.2097  0.0000</r>
       <r>   9.3660  0.0000</r>
       <r>   9.3660  0.0000</r>
       <r>   9.5081  0.0000</r>
       <r>  10.6467  0.0000</r>
      </set>
      <set comment="kpoint 27">
       <r>   0.0056  1.0000</r>
       <r>   0.0056  1.0000</r>
       <r>   1.3683  1.0000</r>
       <r>   1.3683  1.0000</r>
       <r>   7.5057  0.0000</r>
       <r>   7.5057  0.0000</r>
       <r>   8.6640  0.0000</r>
       <r>   8.6640  0.0000</r>
       <r>   8.8049  0.0000</r>
       <r>   8.8049  0.0000</r>
       <r>   9.9574  0.0000</r>
       <r>   9.9574  0.0000</r>
      </set>
      <set comment="kpoint 28">
       <r>   0.6317  1.0000</r>
       <r>   0.6317  1.0000</r>
       <r>   0.6317  1.0000</r>
       <r>   0.6317  1.0000</r>
       <r>   8.1011  0.0000</r>
       <r>   8.1011  0.0000</r>
       <r>   8.1011  0.0000</r>
       <r>   8.1011  0.0000</r>
       <r>   9.2613  0.0000</r>
       <r>   9.2613  0.0000</r>
       <r>   9.2613  0.0000</r>
       <r>   9.2613  0.0000</r>
      </set>
      <set comment="kpoint 29">
       <r>  -3.3371  1.0000</r>
       <r>   3.4502  1.0000</r>
       <r>   3.4502  1.0000</r>
       <r>   3.4502  1.0000</r>
       <r>   6.3293  1.0000</r>
       <r>   6.3293  1.0000</r>
       <r>   6.3293  1.0000</r>
       <r>   9.9515  0.0000</r>
       <r>   9.9515  0.0000</r>
       <r>   9.9515  0.0000</r>
       <r>  12.0925  0.0000</r>
       <r>  12.0925  0.0000</r>
      </set>
      <set comment="kpoint 30">
       <r>  -3.1625  1.0000</r>
       <r>   2.3131  1.0000</r>
       <r>   3.6164  1.0000</r>
       <r>   3.6164  1.0000</r>
       <r>   6.4966  1.0000</r>
       <r>   6.4966  1.0000</r>
       <r>   7.7730  0.0000</r>
       <r>   8.8580  0.0000</r>
       <r>   8.8580  0.0000</r>
       <r>  10.1131  0.0000</r>
       <r>  11.5422  0.0000</r>
       <r>  11.5422  0.0000</r>
      </set>
      <set comment="kpoint 31">
       <r>  -2.8718  1.0000</r>
       <r>   1.2513  1.0000</r>
       <r>   3.8932  1.0000</r>
       <r>   3.8932  1.0000</r>
       <r>   6.7745  1.0000</r>
       <r>   6.7745  1.0000</r>
       <r>   7.8388  0.0000</r>
       <r>   7.8388  0.0000</r>
       <r>   9.3444  0.0000</r>
       <r>  10.3822  0.0000</r>
       <r>  10.6432  0.0000</r>
       <r>  10.6432  0.0000</r>
      </set>
      <set comment="kpoint 32">
       <r>  -2.4658  1.0000</r>
       <r>   0.2894  1.0000</r>
       <r>   4.2802  1.0000</r>
       <r>   4.2802  1.0000</r>
       <r>   6.9117  0.0014</r>
       <r>   6.9117  0.0014</r>
       <r>   7.1670  0.0000</r>
       <r>   7.1670  0.0000</r>
       <r>   9.7677  0.0000</r>
       <r>   9.7677  0.0000</r>
       <r>  10.7562  0.0000</r>
       <r>  11.0182  0.0000</r>
      </set>
      <set comment="kpoint 33">
       <r>  -1.9453  1.0000</r>
       <r>  -0.5659  1.0000</r>
       <r>   4.7767  1.0000</r>
       <r>   4.7767  1.0000</r>
       <r>   6.0952  1.0000</r>
       <r>   6.0952  1.0000</r>
       <r>   7.6597  0.0000</r>
       <r>   7.6597  0.0000</r>
       <r>   8.9705  0.0000</r>
       <r>   8.9705  0.0000</r>
       <r>  11.2393  0.0000</r>
       <r>  12.5167  0.0000</r>
      </set>
      <set comment="kpoint 34">
       <r>  -1.3115  1.0000</r>
       <r>  -1.3115  1.0000</r>
       <r>   5.3739  1.0000</r>
       <r>   5.3739  1.0000</r>
       <r>   5.3904  1.0000</r>
       <r>   5.3904  1.0000</r>
       <r>   8.2107  0.0000</r>
       <r>   8.2107  0.0000</r>
       <r>   8.3178  0.0000</r>
       <r>   8.3178  0.0000</r>
       <r>  11.8263  0.0000</r>
       <r>  11.8263  0.0000</r>
      </set>
      <set comment="kpoint 35">
       <r>  -2.9880  1.0000</r>
       <r>   2.4814  1.0000</r>
       <r>   2.4814  1.0000</r>
       <r>   3.7826  1.0000</r>
       <r>   6.6634  1.0000</r>
       <r>   7.7665  0.0000</r>
       <r>   7.9374  0.0000</r>
       <r>   7.9374  0.0000</r>
       <r>   9.0208  0.0000</r>
       <r>   9.0208  0.0000</r>
       <r>  11.6985  0.0000</r>
       <r>  11.6985  0.0000</r>
      </set>
      <set comment="kpoint 36">
       <r>  -2.6977  1.0000</r>
       <r>   1.4208  1.0000</r>
       <r>   2.7614  1.0000</r>
       <r>   4.0592  1.0000</r>
       <r>   6.7364  1.0000</r>
       <r>   6.9471  0.0000</r>
       <r>   7.9966  0.0000</r>
       <r>   8.2169  0.0000</r>
       <r>   9.2868  0.0000</r>
       <r>   9.5112  0.0000</r>
       <r>  10.8026  0.0000</r>
       <r>  11.9475  0.0000</r>
      </set>
      <set comment="kpoint 37">
       <r>  -2.2921  1.0000</r>
       <r>   0.4601  1.0000</r>
       <r>   3.1528  1.0000</r>
       <r>   4.4459  1.0000</r>
       <r>   5.8117  1.0000</r>
       <r>   7.0783  0.0000</r>
       <r>   7.3306  0.0000</r>
       <r>   8.5948  0.0000</r>
       <r>   9.6681  0.0000</r>
       <r>   9.9297  0.0000</r>
       <r>  11.1407  0.0000</r>
       <r>  11.1772  0.0000</r>
      </set>
      <set comment="kpoint 38">
       <r>  -1.7722  1.0000</r>
       <r>  -0.3943  1.0000</r>
       <r>   3.6547  1.0000</r>
       <r>   4.9417  1.0000</r>
       <r>   4.9864  1.0000</r>
       <r>   6.2597  1.0000</r>
       <r>   7.8260  0.0000</r>
       <r>   9.0540  0.0000</r>
       <r>   9.1624  0.0000</r>
       <r>  10.1533  0.0000</r>
       <r>  10.3680  0.0000</r>
       <r>  11.4397  0.0000</r>
      </set>
      <set comment="kpoint 39">
       <r>  -1.1391  1.0000</r>
       <r>  -1.1391  1.0000</r>
       <r>   4.2662  1.0000</r>
       <r>   4.2662  1.0000</r>
       <r>   5.5471  1.0000</r>
       <r>   5.5471  1.0000</r>
       <r>   8.4264  0.0000</r>
       <r>   8.4264  0.0000</r>
       <r>   9.6794  0.0000</r>
       <r>   9.6794  0.0000</r>
       <r>  10.7443  0.0000</r>
       <r>  10.7443  0.0000</r>
      </set>
      <set comment="kpoint 40">
       <r>  -2.4079  1.0000</r>
       <r>   1.7031  1.0000</r>
       <r>   1.7031  1.0000</r>
       <r>   4.3354  1.0000</r>
       <r>   5.7102  1.0000</r>
       <r>   7.2202  0.0000</r>
       <r>   8.2722  0.0000</r>
       <r>   8.2722  0.0000</r>
       <r>   9.7780  0.0000</r>
       <r>   9.7780  0.0000</r>
       <r>  11.0679  0.0000</r>
       <r>  11.0679  0.0000</r>
      </set>
      <set comment="kpoint 41">
       <r>  -2.0031  1.0000</r>
       <r>   0.7441  1.0000</r>
       <r>   2.0974  1.0000</r>
       <r>   4.7216  1.0000</r>
       <r>   4.7756  1.0000</r>
       <r>   7.3514  0.0000</r>
       <r>   7.6067  0.0000</r>
       <r>   8.6525  0.0000</r>
       <r>  10.1308  0.0000</r>
       <r>  10.2208  0.0000</r>
       <r>  11.2366  0.0000</r>
       <r>  11.4171  0.0000</r>
      </set>
      <set comment="kpoint 42">
       <r>  -1.4841  1.0000</r>
       <r>  -0.1088  1.0000</r>
       <r>   2.6031  1.0000</r>
       <r>   3.9440  1.0000</r>
       <r>   5.2174  1.0000</r>
       <r>   6.5336  1.0000</r>
       <r>   8.1010  0.0000</r>
       <r>   9.1401  0.0000</r>
       <r>   9.4006  0.0000</r>
       <r>  10.4340  0.0000</r>
       <r>  10.6367  0.0000</r>
       <r>  11.8767  0.0000</r>
      </set>
      <set comment="kpoint 43">
       <r>  -0.8522  1.0000</r>
       <r>  -0.8522  1.0000</r>
       <r>   3.2191  1.0000</r>
       <r>   3.2191  1.0000</r>
       <r>   5.8217  1.0000</r>
       <r>   5.8217  1.0000</r>
       <r>   8.7006  0.0000</r>
       <r>   8.7006  0.0000</r>
       <r>   9.7344  0.0000</r>
       <r>   9.7344  0.0000</r>
       <r>  11.2139  0.0000</r>
       <r>  11.2139  0.0000</r>
      </set>
      <set comment="kpoint 44">
       <r>  -1.5994  1.0000</r>
       <r>   1.1409  1.0000</r>
       <r>   1.1409  1.0000</r>
       <r>   3.8353  1.0000</r>
       <r>   5.1073  1.0000</r>
       <r>   7.7331  0.0000</r>
       <r>   7.7331  0.0000</r>
       <r>   7.9919  0.0000</r>
       <r>  10.3293  0.0000</r>
       <r>  10.5700  0.0000</r>
       <r>  10.5700  0.0000</r>
       <r>  11.8110  0.0000</r>
      </set>
      <set comment="kpoint 45">
       <r>  -1.0817  1.0000</r>
       <r>   0.2902  1.0000</r>
       <r>   1.6497  1.0000</r>
       <r>   2.9987  1.0000</r>
       <r>   5.6022  1.0000</r>
       <r>   6.9164  0.0001</r>
       <r>   8.2227  0.0000</r>
       <r>   8.4845  0.0000</r>
       <r>   9.5224  0.0000</r>
       <r>   9.7796  0.0000</r>
       <r>  11.0494  0.0000</r>
       <r>  12.2776  0.0000</r>
      </set>
      <set comment="kpoint 46">
       <r>  -0.4514  1.0000</r>
       <r>  -0.4514  1.0000</r>
       <r>   2.2695  1.0000</r>
       <r>   2.2695  1.0000</r>
       <r>   6.2056  1.0000</r>
       <r>   6.2056  1.0000</r>
       <r>   8.8196  0.0000</r>
       <r>   8.8196  0.0000</r>
       <r>   9.0818  0.0000</r>
       <r>   9.0818  0.0000</r>
       <r>  11.6301  0.0000</r>
       <r>  11.6301  0.0000</r>
      </set>
      <set comment="kpoint 47">
       <r>  -0.5658  1.0000</r>
       <r>   0.8018  1.0000</r>
       <r>   0.8018  1.0000</r>
       <r>   2.1578  1.0000</r>
       <r>   6.0961  1.0000</r>
       <r>   7.4078  0.0000</r>
       <r>   7.4078  0.0000</r>
       <r>   8.7123  0.0000</r>
       <r>   8.9747  0.0000</r>
       <r>  10.2631  0.0000</r>
       <r>  10.2631  0.0000</r>
       <r>  11.5336  0.0000</r>
      </set>
      <set comment="kpoint 48">
       <r>   0.0626  1.0000</r>
       <r>   0.0626  1.0000</r>
       <r>   1.4248  1.0000</r>
       <r>   1.4248  1.0000</r>
       <r>   6.6984  1.0000</r>
       <r>   6.6984  1.0000</r>
       <r>   8.0068  0.0000</r>
       <r>   8.0068  0.0000</r>
       <r>   9.5690  0.0000</r>
       <r>   9.5690  0.0000</r>
       <r>  10.8492  0.0000</r>
       <r>  10.8492  0.0000</r>
      </set>
      <set comment="kpoint 49">
       <r>   0.6885  1.0000</r>
       <r>   0.6885  1.0000</r>
       <r>   0.6885  1.0000</r>
       <r>   0.6885  1.0000</r>
       <r>   7.2991  0.0000</r>
       <r>   7.2991  0.0000</r>
       <r>   7.2991  0.0000</r>
       <r>   7.2991  0.0000</r>
       <r>  10.1595  0.0000</r>
       <r>  10.1595  0.0000</r>
       <r>  10.1595  0.0000</r>
       <r>  10.1595  0.0000</r>
      </set>
      <set comment="kpoint 50">
       <r>  -2.8138  1.0000</r>
       <r>   2.6494  1.0000</r>
       <r>   2.6494  1.0000</r>
       <r>   2.6494  1.0000</r>
       <r>   7.9226  0.0000</r>
       <r>   7.9226  0.0000</r>
       <r>   7.9226  0.0000</r>
       <r>   8.1095  0.0000</r>
       <r>   8.1095  0.0000</r>
       <r>   8.1095  0.0000</r>
       <r>  12.5484  0.0000</r>
       <r>  12.5484  0.0000</r>
      </set>
      <set comment="kpoint 51">
       <r>  -2.5238  1.0000</r>
       <r>   1.5902  1.0000</r>
       <r>   2.9292  1.0000</r>
       <r>   2.9292  1.0000</r>
       <r>   6.9048  0.0215</r>
       <r>   6.9048  0.0215</r>
       <r>   8.2003  0.0000</r>
       <r>   8.3779  0.0000</r>
       <r>   8.3779  0.0000</r>
       <r>   9.6710  0.0000</r>
       <r>  12.0654  0.0000</r>
       <r>  12.1020  0.0000</r>
      </set>
      <set comment="kpoint 52">
       <r>  -2.1187  1.0000</r>
       <r>   0.6305  1.0000</r>
       <r>   3.3202  1.0000</r>
       <r>   3.3202  1.0000</r>
       <r>   5.9770  1.0000</r>
       <r>   5.9770  1.0000</r>
       <r>   8.5810  0.0000</r>
       <r>   8.7593  0.0000</r>
       <r>   8.7593  0.0000</r>
       <r>  11.1648  0.0000</r>
       <r>  11.2997  0.0000</r>
       <r>  11.3016  0.0000</r>
      </set>
      <set comment="kpoint 53">
       <r>  -1.5993  1.0000</r>
       <r>  -0.2229  1.0000</r>
       <r>   3.8217  1.0000</r>
       <r>   3.8217  1.0000</r>
       <r>   5.1518  1.0000</r>
       <r>   5.1518  1.0000</r>
       <r>   9.0690  0.0000</r>
       <r>   9.2467  0.0000</r>
       <r>   9.2467  0.0000</r>
       <r>  10.3628  0.0000</r>
       <r>  10.5291  0.0000</r>
       <r>  10.5291  0.0000</r>
      </set>
      <set comment="kpoint 54">
       <r>  -0.9669  1.0000</r>
       <r>  -0.9669  1.0000</r>
       <r>   4.4296  1.0000</r>
       <r>   4.4296  1.0000</r>
       <r>   4.4358  1.0000</r>
       <r>   4.4358  1.0000</r>
       <r>   9.6634  0.0000</r>
       <r>   9.6634  0.0000</r>
       <r>   9.7970  0.0000</r>
       <r>   9.7970  0.0000</r>
       <r>   9.8817  0.0000</r>
       <r>   9.8817  0.0000</r>
      </set>
      <set comment="kpoint 55">
       <r>  -2.2343  1.0000</r>
       <r>   1.8721  1.0000</r>
       <r>   1.8721  1.0000</r>
       <r>   3.2086  1.0000</r>
       <r>   5.8757  1.0000</r>
       <r>   7.1787  0.0000</r>
       <r>   7.1787  0.0000</r>
       <r>   8.6509  0.0000</r>
       <r>   9.9406  0.0000</r>
       <r>   9.9406  0.0000</r>
       <r>  11.0669  0.0000</r>
       <r>  12.3618  0.0000</r>
      </set>
      <set comment="kpoint 56">
       <r>  -1.8300  1.0000</r>
       <r>   0.9142  1.0000</r>
       <r>   2.2661  1.0000</r>
       <r>   3.5990  1.0000</r>
       <r>   4.9418  1.0000</r>
       <r>   6.2521  1.0000</r>
       <r>   7.5614  0.0000</r>
       <r>   9.0317  0.0000</r>
       <r>  10.1603  0.0000</r>
       <r>  10.3160  0.0000</r>
       <r>  11.5641  0.0000</r>
       <r>  11.6016  0.0000</r>
      </set>
      <set comment="kpoint 57">
       <r>  -1.3116  1.0000</r>
       <r>   0.0623  1.0000</r>
       <r>   2.7713  1.0000</r>
       <r>   4.0947  1.0000</r>
       <r>   4.1160  1.0000</r>
       <r>   5.4280  1.0000</r>
       <r>   8.0521  0.0000</r>
       <r>   9.3534  0.0000</r>
       <r>   9.5185  0.0000</r>
       <r>  10.7634  0.0000</r>
       <r>  10.8273  0.0000</r>
       <r>  12.0337  0.0000</r>
      </set>
      <set comment="kpoint 58">
       <r>  -0.6803  1.0000</r>
       <r>  -0.6803  1.0000</r>
       <r>   3.3867  1.0000</r>
       <r>   3.3867  1.0000</r>
       <r>   4.7099  1.0000</r>
       <r>   4.7099  1.0000</r>
       <r>   8.6499  0.0000</r>
       <r>   8.6499  0.0000</r>
       <r>  10.1077  0.0000</r>
       <r>  10.1077  0.0000</r>
       <r>  11.3735  0.0000</r>
       <r>  11.3735  0.0000</r>
      </set>
      <set comment="kpoint 59">
       <r>  -1.4267  1.0000</r>
       <r>   1.3106  1.0000</r>
       <r>   1.3106  1.0000</r>
       <r>   3.9823  1.0000</r>
       <r>   4.0087  1.0000</r>
       <r>   6.6365  1.0000</r>
       <r>   6.6365  1.0000</r>
       <r>   9.2487  0.0000</r>
       <r>   9.4114  0.0000</r>
       <r>  11.9274  0.0000</r>
       <r>  11.9298  0.0000</r>
       <r>  11.9738  0.0000</r>
      </set>
      <set comment="kpoint 60">
       <r>  -0.9096  1.0000</r>
       <r>   0.4608  1.0000</r>
       <r>   1.8189  1.0000</r>
       <r>   3.1665  1.0000</r>
       <r>   4.4885  1.0000</r>
       <r>   5.8141  1.0000</r>
       <r>   7.1296  0.0000</r>
       <r>   8.4375  0.0000</r>
       <r>   9.8965  0.0000</r>
       <r>  11.1672  0.0000</r>
       <r>  12.4037  0.0000</r>
       <r>  12.4337  0.0000</r>
      </set>
      <set comment="kpoint 61">
       <r>  -0.2799  1.0000</r>
       <r>  -0.2799  1.0000</r>
       <r>   2.4380  1.0000</r>
       <r>   2.4380  1.0000</r>
       <r>   5.0974  1.0000</r>
       <r>   5.0974  1.0000</r>
       <r>   7.7304  0.0000</r>
       <r>   7.7304  0.0000</r>
       <r>  10.4838  0.0000</r>
       <r>  10.4838  0.0000</r>
       <r>  12.9770  0.0000</r>
       <r>  12.9784  0.0000</r>
      </set>
      <set comment="kpoint 62">
       <r>  -0.3942  1.0000</r>
       <r>   0.9718  1.0000</r>
       <r>   0.9718  1.0000</r>
       <r>   2.3265  1.0000</r>
       <r>   4.9870  1.0000</r>
       <r>   6.3092  1.0000</r>
       <r>   6.3092  1.0000</r>
       <r>   7.6227  0.0000</r>
       <r>  10.3793  0.0000</r>
       <r>  11.6436  0.0000</r>
       <r>  11.6436  0.0000</r>
       <r>  12.8904  0.0000</r>
      </set>
      <set comment="kpoint 63">
       <r>   0.2334  1.0000</r>
       <r>   0.2334  1.0000</r>
       <r>   1.5942  1.0000</r>
       <r>   1.5942  1.0000</r>
       <r>   5.5943  1.0000</r>
       <r>   5.5943  1.0000</r>
       <r>   6.9126  0.0009</r>
       <r>   6.9126  0.0009</r>
       <r>  10.9638  0.0000</r>
       <r>  10.9638  0.0000</r>
       <r>  12.2200  0.0000</r>
       <r>  12.2200  0.0000</r>
      </set>
      <set comment="kpoint 64">
       <r>   0.8587  1.0000</r>
       <r>   0.8587  1.0000</r>
       <r>   0.8587  1.0000</r>
       <r>   0.8587  1.0000</r>
       <r>   6.1999  1.0000</r>
       <r>   6.1999  1.0000</r>
       <r>   6.1999  1.0000</r>
       <r>   6.1999  1.0000</r>
       <r>  11.5446  0.0000</r>
       <r>  11.5446  0.0000</r>
       <r>  11.5446  0.0000</r>
       <r>  11.5446  0.0000</r>
      </set>
      <set comment="kpoint 65">
       <r>  -1.9454  1.0000</r>
       <r>   2.1536  1.0000</r>
       <r>   2.1536  1.0000</r>
       <r>   2.1536  1.0000</r>
       <r>   6.1511  1.0000</r>
       <r>   6.1511  1.0000</r>
       <r>   6.1511  1.0000</r>
       <r>  10.0621  0.0000</r>
       <r>  10.2098  0.0000</r>
       <r>  10.2098  0.0000</r>
       <r>  10.2098  0.0000</r>
       <r>  13.3088  0.0000</r>
      </set>
      <set comment="kpoint 66">
       <r>  -1.5418  1.0000</r>
       <r>   1.1974  1.0000</r>
       <r>   2.5469  1.0000</r>
       <r>   2.5469  1.0000</r>
       <r>   5.2186  1.0000</r>
       <r>   5.2186  1.0000</r>
       <r>   6.5359  1.0000</r>
       <r>   9.1501  0.0000</r>
       <r>  10.5847  0.0000</r>
       <r>  10.5847  0.0000</r>
       <r>  11.8657  0.0000</r>
       <r>  12.9838  0.0000</r>
      </set>
      <set comment="kpoint 67">
       <r>  -1.0244  1.0000</r>
       <r>   0.3470  1.0000</r>
       <r>   3.0512  1.0000</r>
       <r>   3.0512  1.0000</r>
       <r>   4.3892  1.0000</r>
       <r>   4.3892  1.0000</r>
       <r>   7.0295  0.0000</r>
       <r>   8.3384  0.0000</r>
       <r>  11.0623  0.0000</r>
       <r>  11.0623  0.0000</r>
       <r>  12.2963  0.0000</r>
       <r>  12.2963  0.0000</r>
      </set>
      <set comment="kpoint 68">
       <r>  -0.3943  1.0000</r>
       <r>  -0.3943  1.0000</r>
       <r>   3.6475  1.0000</r>
       <r>   3.6475  1.0000</r>
       <r>   3.6843  1.0000</r>
       <r>   3.6843  1.0000</r>
       <r>   7.6308  0.0000</r>
       <r>   7.6308  0.0000</r>
       <r>  11.6175  0.0000</r>
       <r>  11.6175  0.0000</r>
       <r>  11.6578  0.0000</r>
       <r>  11.6578  0.0000</r>
      </set>
      <set comment="kpoint 69">
       <r>  -1.1393  1.0000</r>
       <r>   1.5931  1.0000</r>
       <r>   1.5931  1.0000</r>
       <r>   2.9391  1.0000</r>
       <r>   4.2809  1.0000</r>
       <r>   5.6054  1.0000</r>
       <r>   5.6054  1.0000</r>
       <r>   8.2331  0.0000</r>
       <r>  10.9582  0.0000</r>
       <r>  12.2319  0.0000</r>
       <r>  12.2319  0.0000</r>
       <r>  13.3449  0.0000</r>
      </set>
      <set comment="kpoint 70">
       <r>  -0.6231  1.0000</r>
       <r>   0.7448  1.0000</r>
       <r>   2.1005  1.0000</r>
       <r>   3.4208  1.0000</r>
       <r>   3.4682  1.0000</r>
       <r>   4.7777  1.0000</r>
       <r>   6.1015  1.0000</r>
       <r>   7.4172  0.0000</r>
       <r>  11.4341  0.0000</r>
       <r>  12.6618  0.0000</r>
       <r>  12.6951  0.0000</r>
       <r>  13.8051  0.0000</r>
      </set>
      <set comment="kpoint 71">
       <r>   0.0054  1.0000</r>
       <r>   0.0054  1.0000</r>
       <r>   2.7184  1.0000</r>
       <r>   2.7184  1.0000</r>
       <r>   4.0564  1.0000</r>
       <r>   4.0564  1.0000</r>
       <r>   6.7059  1.0000</r>
       <r>   6.7059  1.0000</r>
       <r>  12.0068  0.0000</r>
       <r>  12.0068  0.0000</r>
       <r>  13.2406  0.0000</r>
       <r>  13.2406  0.0000</r>
      </set>
      <set comment="kpoint 72">
       <r>  -0.1087  1.0000</r>
       <r>   1.2549  1.0000</r>
       <r>   1.2549  1.0000</r>
       <r>   2.6070  1.0000</r>
       <r>   3.9453  1.0000</r>
       <r>   5.2760  1.0000</r>
       <r>   5.2760  1.0000</r>
       <r>   6.5975  1.0000</r>
       <r>  11.9076  0.0000</r>
       <r>  13.1284  0.0000</r>
       <r>  13.1284  0.0000</r>
       <r>  14.3367  0.0000</r>
      </set>
      <set comment="kpoint 73">
       <r>   0.5178  1.0000</r>
       <r>   0.5178  1.0000</r>
       <r>   1.8762  1.0000</r>
       <r>   1.8762  1.0000</r>
       <r>   4.5565  1.0000</r>
       <r>   4.5565  1.0000</r>
       <r>   5.8831  1.0000</r>
       <r>   5.8831  1.0000</r>
       <r>  12.4772  0.0000</r>
       <r>  12.4772  0.0000</r>
       <r>  13.6903  0.0000</r>
       <r>  13.6903  0.0000</r>
      </set>
      <set comment="kpoint 74">
       <r>   1.1419  1.0000</r>
       <r>   1.1419  1.0000</r>
       <r>   1.1419  1.0000</r>
       <r>   1.1419  1.0000</r>
       <r>   5.1659  1.0000</r>
       <r>   5.1659  1.0000</r>
       <r>   5.1659  1.0000</r>
       <r>   5.1659  1.0000</r>
       <r>  13.0431  0.0000</r>
       <r>  13.0431  0.0000</r>
       <r>  13.0431  0.0000</r>
       <r>  13.0431  0.0000</r>
      </set>
      <set comment="kpoint 75">
       <r>  -0.7377  1.0000</r>
       <r>   1.9878  1.0000</r>
       <r>   1.9878  1.0000</r>
       <r>   1.9878  1.0000</r>
       <r>   4.6698  1.0000</r>
       <r>   4.6698  1.0000</r>
       <r>   4.6698  1.0000</r>
       <r>   7.3113  0.0000</r>
       <r>  12.5967  0.0000</r>
       <r>  12.5967  0.0000</r>
       <r>  12.5967  0.0000</r>
       <r>  14.3730  0.0000</r>
      </set>
      <set comment="kpoint 76">
       <r>  -0.2229  1.0000</r>
       <r>   1.1417  1.0000</r>
       <r>   2.4937  1.0000</r>
       <r>   2.4937  1.0000</r>
       <r>   3.8377  1.0000</r>
       <r>   3.8377  1.0000</r>
       <r>   5.1685  1.0000</r>
       <r>   6.4911  1.0000</r>
       <r>  13.0578  0.0000</r>
       <r>  13.0578  0.0000</r>
       <r>  14.1706  0.0000</r>
       <r>  14.1716  0.0000</r>
      </set>
      <set comment="kpoint 77">
       <r>   0.4040  1.0000</r>
       <r>   0.4040  1.0000</r>
       <r>   3.0791  1.0000</r>
       <r>   3.0791  1.0000</r>
       <r>   3.1433  1.0000</r>
       <r>   3.1433  1.0000</r>
       <r>   5.7761  1.0000</r>
       <r>   5.7761  1.0000</r>
       <r>  13.5850  0.0000</r>
       <r>  13.5850  0.0000</r>
       <r>  13.6175  0.0000</r>
       <r>  13.6175  0.0000</r>
      </set>
      <set comment="kpoint 78">
       <r>   0.2902  1.0000</r>
       <r>   1.6504  1.0000</r>
       <r>   1.6504  1.0000</r>
       <r>   2.9647  1.0000</r>
       <r>   3.0349  1.0000</r>
       <r>   4.3385  1.0000</r>
       <r>   4.3385  1.0000</r>
       <r>   5.6671  1.0000</r>
       <r>  13.5165  0.0000</r>
       <r>  14.6151  0.0000</r>
       <r>  14.6151  0.0000</r>
       <r>  14.7453  0.0000</r>
      </set>
      <set comment="kpoint 79">
       <r>   0.9152  1.0000</r>
       <r>   0.9152  1.0000</r>
       <r>   2.2698  1.0000</r>
       <r>   2.2698  1.0000</r>
       <r>   3.6154  1.0000</r>
       <r>   3.6154  1.0000</r>
       <r>   4.9488  1.0000</r>
       <r>   4.9488  1.0000</r>
       <r>  14.0567  0.0000</r>
       <r>  14.0567  0.0000</r>
       <r>  15.1666  0.0000</r>
       <r>  15.1897  0.0000</r>
      </set>
      <set comment="kpoint 80">
       <r>   1.5377  1.0000</r>
       <r>   1.5377  1.0000</r>
       <r>   1.5377  1.0000</r>
       <r>   1.5377  1.0000</r>
       <r>   4.2278  1.0000</r>
       <r>   4.2278  1.0000</r>
       <r>   4.2278  1.0000</r>
       <r>   4.2278  1.0000</r>
       <r>  14.5960  0.0000</r>
       <r>  14.5960  0.0000</r>
       <r>  14.5960  0.0000</r>
       <r>  14.5960  0.0000</r>
      </set>
      <set comment="kpoint 81">
       <r>   0.8017  1.0000</r>
       <r>   2.1572  1.0000</r>
       <r>   2.1572  1.0000</r>
       <r>   2.1572  1.0000</r>
       <r>   3.5049  1.0000</r>
       <r>   3.5049  1.0000</r>
       <r>   3.5049  1.0000</r>
       <r>   4.8393  1.0000</r>
       <r>  15.1632  0.0000</r>
       <r>  15.1632  0.0000</r>
       <r>  15.1632  0.0000</r>
       <r>  15.7336  0.0000</r>
      </set>
      <set comment="kpoint 82">
       <r>   1.4246  1.0000</r>
       <r>   1.4246  1.0000</r>
       <r>   2.7351  1.0000</r>
       <r>   2.7351  1.0000</r>
       <r>   2.8178  1.0000</r>
       <r>   2.8178  1.0000</r>
       <r>   4.1178  1.0000</r>
       <r>   4.1178  1.0000</r>
       <r>  15.5761  0.0000</r>
       <r>  15.5761  0.0000</r>
       <r>  15.6794  0.0000</r>
       <r>  15.6794  0.0000</r>
      </set>
      <set comment="kpoint 83">
       <r>   2.0447  1.0000</r>
       <r>   2.0447  1.0000</r>
       <r>   2.0447  1.0000</r>
       <r>   2.0447  1.0000</r>
       <r>   3.3938  1.0000</r>
       <r>   3.3938  1.0000</r>
       <r>   3.3938  1.0000</r>
       <r>   3.3938  1.0000</r>
       <r>  16.1077  0.0000</r>
       <r>  16.1077  0.0000</r>
       <r>  16.1077  0.0000</r>
       <r>  16.1077  0.0000</r>
      </set>
      <set comment="kpoint 84">
       <r>   2.6200  1.0000</r>
       <r>   2.6200  1.0000</r>
       <r>   2.6200  1.0000</r>
       <r>   2.6200  1.0000</r>
       <r>   2.7092  1.0000</r>
       <r>   2.7092  1.0000</r>
       <r>   2.7092  1.0000</r>
       <r>   2.7092  1.0000</r>
       <r>  17.1001  0.0000</r>
       <r>  17.1001  0.0000</r>
       <r>  17.1001  0.0000</r>
       <r>  17.1001  0.0000</r>
      </set>
     </set>
    </set>
   </array>
  </eigenvalues>
 </calculation>
 <structure name="finalpos" >
  <crystal>
   <varray name="basis" >
    <v>       4.19879862      0.00000000      0.00000000</v>
    <v>       0.00000000      4.19879862      0.00000000</v>
    <v>       0.00000000      0.00000000      4.19879862</v>
   </varray>
   <i name="volume">     74.02444139</i>
   <varray name="rec_basis" >
    <v>       0.23816336      0.00000000      0.00000000</v>
    <v>       0.00000000      0.23816336      0.00000000</v>
    <v>       0.00000000      0.00000000      0.23816336</v>
   </varray>
  </crystal>
  <varray name="positions" >
   <v>       0.50000000      0.50000000      0.00000000</v>
   <v>       0.50000000      0.00000000      0.50000000</v>
   <v>       0.00000000      0.50000000      0.50000000</v>
   <v>       0.00000000      0.00000000      0.00000000</v>
  </varray>
 </structure>
</modeling>
