   4   4   0   0
  0.1695037E+02  0.4077679E-09  0.4077679E-09  0.4077679E-09  0.5000000E-15
  1.000000000000000E-004
  CAR 
 unknown system                          
     19.95068940     -4.33192918  301      7.70813462      1.00000000
     -4.332  0.0000E+00  0.0000E+00
     -4.251  0.0000E+00  0.0000E+00
     -4.170  0.0000E+00  0.0000E+00
     -4.089  0.0000E+00  0.0000E+00
     -4.008  0.0000E+00  0.0000E+00
     -3.927  0.0000E+00  0.0000E+00
     -3.846  0.0000E+00  0.0000E+00
     -3.765  0.0000E+00  0.0000E+00
     -3.684  0.0000E+00  0.0000E+00
     -3.603  0.0000E+00  0.0000E+00
     -3.523  0.0000E+00  0.0000E+00
     -3.442  0.0000E+00  0.0000E+00
     -3.361  0.0000E+00  0.0000E+00
     -3.280  0.2310E-14  0.1870E-15
     -3.199  0.1430E-01  0.1157E-02
     -3.118  0.9105E-01  0.8528E-02
     -3.037  0.2578E+00  0.2939E-01
     -2.956  0.8578E-01  0.3819E-01
     -2.875  0.3456E+00  0.6617E-01
     -2.794  0.3407E+00  0.9375E-01
     -2.713  0.1714E+00  0.1076E+00
     -2.632  0.4295E+00  0.1424E+00
     -2.551  0.4829E+00  0.1815E+00
     -2.470  0.3167E+00  0.2071E+00
     -2.389  0.3434E+00  0.2350E+00
     -2.308  0.6862E+00  0.2905E+00
     -2.227  0.8418E-01  0.2973E+00
     -2.146  0.6864E+00  0.3530E+00
     -2.066  0.5641E+00  0.3987E+00
     -1.985  0.6220E+00  0.4490E+00
     -1.904  0.6864E+00  0.5058E+00
     -1.823  0.3432E+00  0.5336E+00
     -1.742  0.3153E+00  0.5591E+00
     -1.661  0.4290E+00  0.5961E+00
     -1.580  0.1052E+01  0.6812E+00
     -1.499  0.4356E+00  0.7164E+00
     -1.418  0.1030E+01  0.7998E+00
     -1.337  0.6864E+00  0.8553E+00
     -1.256  0.1418E+00  0.8668E+00
     -1.175  0.6863E+00  0.9248E+00
     -1.094  0.7009E+00  0.9815E+00
     -1.013  0.1010E+01  0.1063E+01
     -0.932  0.3431E+00  0.1098E+01
     -0.851  0.1030E+01  0.1182E+01
     -0.770  0.2634E+00  0.1203E+01
     -0.690  0.1372E+01  0.1321E+01
     -0.609  0.6915E+00  0.1377E+01
     -0.528  0.5989E+00  0.1425E+01
     -0.447  0.1029E+01  0.1515E+01
     -0.366  0.6864E+00  0.1571E+01
     -0.285  0.8704E-01  0.1578E+01
     -0.204  0.7720E+00  0.1642E+01
     -0.123  0.1215E+01  0.1741E+01
     -0.042  0.9447E+00  0.1817E+01
      0.039  0.1029E+01  0.1906E+01
      0.120  0.1373E+01  0.2017E+01
      0.201  0.5703E+00  0.2064E+01
      0.282  0.6863E+00  0.2128E+01
      0.363  0.3874E+00  0.2160E+01
      0.444  0.9853E+00  0.2240E+01
      0.525  0.1030E+01  0.2323E+01
      0.606  0.1373E+01  0.2434E+01
      0.686  0.8193E-01  0.2441E+01
      0.767  0.1373E+01  0.2552E+01
      0.848  0.1415E+01  0.2667E+01
      0.929  0.9639E+00  0.2745E+01
      1.010  0.1373E+01  0.2858E+01
      1.091  0.6863E+00  0.2913E+01
      1.172  0.5088E+00  0.2954E+01
      1.253  0.6873E+00  0.3010E+01
      1.334  0.1987E+01  0.3171E+01
      1.415  0.8695E+00  0.3242E+01
      1.496  0.1374E+01  0.3353E+01
      1.577  0.6852E+00  0.3409E+01
      1.658  0.3430E+00  0.3436E+01
      1.739  0.1484E+01  0.3556E+01
      1.820  0.1467E+01  0.3675E+01
      1.901  0.6863E+00  0.3749E+01
      1.982  0.8292E+00  0.3816E+01
      2.062  0.1573E+01  0.3943E+01
      2.143  0.3433E+00  0.3971E+01
      2.224  0.2366E+01  0.4163E+01
      2.305  0.2093E+01  0.4332E+01
      2.386  0.2745E-03  0.4332E+01
      2.467  0.1321E+01  0.4439E+01
      2.548  0.4883E+00  0.4499E+01
      2.629  0.3525E+00  0.4527E+01
      2.710  0.1830E+01  0.4676E+01
      2.791  0.1030E+01  0.4791E+01
      2.872  0.8039E+00  0.4856E+01
      2.953  0.2574E+01  0.5071E+01
      3.034  0.2039E-01  0.5077E+01
      3.115  0.1788E+01  0.5222E+01
      3.196  0.1578E+01  0.5353E+01
      3.277  0.1179E+01  0.5448E+01
      3.358  0.1257E+01  0.5550E+01
      3.439  0.1430E+01  0.5696E+01
      3.519  0.3427E+00  0.5723E+01
      3.600  0.1642E+01  0.5856E+01
      3.681  0.7001E+00  0.5919E+01
      3.762  0.1675E+01  0.6055E+01
      3.843  0.1709E+01  0.6195E+01
      3.924  0.1369E+01  0.6307E+01
      4.005  0.7592E+00  0.6368E+01
      4.086  0.2013E+01  0.6532E+01
      4.167  0.3432E+00  0.6564E+01
      4.248  0.1374E+01  0.6675E+01
      4.329  0.2794E+01  0.6901E+01
      4.410  0.6283E+00  0.6953E+01
      4.491  0.8579E+00  0.7022E+01
      4.572  0.2173E+01  0.7198E+01
      4.653  0.1933E+01  0.7354E+01
      4.734  0.9643E+00  0.7437E+01
      4.815  0.1684E+01  0.7575E+01
      4.895  0.3862E+00  0.7609E+01
      4.976  0.2311E+01  0.7796E+01
      5.057  0.1846E+01  0.7952E+01
      5.138  0.1749E+01  0.8094E+01
      5.219  0.1028E+01  0.8182E+01
      5.300  0.1241E+01  0.8282E+01
      5.381  0.9170E+00  0.8357E+01
      5.462  0.2113E+01  0.8530E+01
      5.543  0.1661E+01  0.8670E+01
      5.624  0.1787E+01  0.8823E+01
      5.705  0.5402E+00  0.8870E+01
      5.786  0.1687E+01  0.9007E+01
      5.867  0.1472E+01  0.9126E+01
      5.948  0.1654E+01  0.9274E+01
      6.029  0.1716E+01  0.9437E+01
      6.110  0.1374E+01  0.9549E+01
      6.191  0.1814E+00  0.9563E+01
      6.271  0.1227E+01  0.9665E+01
      6.352  0.1513E+01  0.9788E+01
      6.433  0.2712E+01  0.1001E+02
      6.514  0.1081E+01  0.1010E+02
      6.595  0.3594E+00  0.1015E+02
      6.676  0.2381E+01  0.1035E+02
      6.757  0.1481E+01  0.1047E+02
      6.838  0.1374E+01  0.1058E+02
      6.919  0.1560E+01  0.1071E+02
      7.000  0.1336E+01  0.1082E+02
      7.081  0.2068E+01  0.1098E+02
      7.162  0.2114E+01  0.1116E+02
      7.243  0.6864E+00  0.1123E+02
      7.324  0.2284E+00  0.1124E+02
      7.405  0.2679E+01  0.1146E+02
      7.486  0.9164E+00  0.1154E+02
      7.567  0.2548E+01  0.1174E+02
      7.647  0.1157E+01  0.1184E+02
      7.728  0.2670E+01  0.1206E+02
      7.809  0.2420E+01  0.1225E+02
      7.890  0.8616E+00  0.1232E+02
      7.971  0.1747E+01  0.1248E+02
      8.052  0.1268E+01  0.1259E+02
      8.133  0.6202E+00  0.1264E+02
      8.214  0.2227E+01  0.1282E+02
      8.295  0.1765E+01  0.1296E+02
      8.376  0.1526E+01  0.1309E+02
      8.457  0.5212E+00  0.1313E+02
      8.538  0.1408E+01  0.1325E+02
      8.619  0.2736E+01  0.1347E+02
      8.700  0.2137E+01  0.1365E+02
      8.781  0.1980E+01  0.1382E+02
      8.862  0.2031E+01  0.1399E+02
      8.943  0.1373E+01  0.1410E+02
      9.024  0.1670E+01  0.1424E+02
      9.104  0.7351E+00  0.1432E+02
      9.185  0.2894E+01  0.1455E+02
      9.266  0.1797E+01  0.1470E+02
      9.347  0.1008E+01  0.1478E+02
      9.428  0.2320E+01  0.1497E+02
      9.509  0.6964E+00  0.1504E+02
      9.590  0.2525E+01  0.1524E+02
      9.671  0.1659E+01  0.1539E+02
      9.752  0.1419E+01  0.1552E+02
      9.833  0.2626E+01  0.1574E+02
      9.914  0.9800E-01  0.1575E+02
      9.995  0.1759E+01  0.1589E+02
     10.076  0.2535E+01  0.1610E+02
     10.157  0.2358E+01  0.1631E+02
     10.238  0.1077E+01  0.1640E+02
     10.319  0.1593E+01  0.1653E+02
     10.400  0.1831E+01  0.1669E+02
     10.480  0.2068E+01  0.1686E+02
     10.561  0.1324E+01  0.1698E+02
     10.642  0.1722E+01  0.1714E+02
     10.723  0.2396E+01  0.1733E+02
     10.804  0.1815E+01  0.1748E+02
     10.885  0.2625E+01  0.1769E+02
     10.966  0.1889E+01  0.1785E+02
     11.047  0.1373E+01  0.1797E+02
     11.128  0.2149E+01  0.1815E+02
     11.209  0.2704E+01  0.1838E+02
     11.290  0.4846E+00  0.1844E+02
     11.371  0.1220E+01  0.1855E+02
     11.452  0.2103E+01  0.1873E+02
     11.533  0.3370E+01  0.1901E+02
     11.614  0.6504E+00  0.1909E+02
     11.695  0.7472E+00  0.1915E+02
     11.776  0.3010E+01  0.1942E+02
     11.856  0.2783E+01  0.1964E+02
     11.937  0.4631E+00  0.1969E+02
     12.018  0.2260E+01  0.1987E+02
     12.099  0.9277E+00  0.1996E+02
     12.180  0.2200E+01  0.2015E+02
     12.261  0.2173E+01  0.2034E+02
     12.342  0.5033E+01  0.2074E+02
     12.423  0.1292E+01  0.2085E+02
     12.504  0.1213E+01  0.2095E+02
     12.585  0.1106E+01  0.2105E+02
     12.666  0.1760E+01  0.2121E+02
     12.747  0.1686E+01  0.2135E+02
     12.828  0.2849E+01  0.2158E+02
     12.909  0.1057E+01  0.2167E+02
     12.990  0.1705E+01  0.2181E+02
     13.071  0.1113E+01  0.2191E+02
     13.152  0.1030E+01  0.2200E+02
     13.232  0.2514E+01  0.2220E+02
     13.313  0.6867E+00  0.2226E+02
     13.394  0.9148E+00  0.2233E+02
     13.475  0.1373E+01  0.2244E+02
     13.556  0.1245E+01  0.2254E+02
     13.637  0.9471E+00  0.2264E+02
     13.718  0.1656E+01  0.2278E+02
     13.799  0.6985E+00  0.2284E+02
     13.880  0.1023E+01  0.2292E+02
     13.961  0.3939E+00  0.2295E+02
     14.042  0.2248E-08  0.2295E+02
     14.123  0.6864E+00  0.2301E+02
     14.204  0.3432E+00  0.2304E+02
     14.285  0.1018E+01  0.2312E+02
     14.366  0.1029E+01  0.2320E+02
     14.447  0.6863E+00  0.2326E+02
     14.528  0.9830E-01  0.2327E+02
     14.609  0.6749E+00  0.2332E+02
     14.689  0.4565E+00  0.2336E+02
     14.770  0.2959E-01  0.2336E+02
     14.851  0.6568E+00  0.2341E+02
     14.932  0.0000E+00  0.2341E+02
     15.013  0.6869E+00  0.2347E+02
     15.094  0.1052E+01  0.2356E+02
     15.175  0.3453E-01  0.2356E+02
     15.256  0.0000E+00  0.2356E+02
     15.337  0.1899E-09  0.2356E+02
     15.418  0.6864E+00  0.2362E+02
     15.499  0.9947E-04  0.2362E+02
     15.580  0.6863E+00  0.2367E+02
     15.661  0.9467E-03  0.2367E+02
     15.742  0.3853E+00  0.2370E+02
     15.823  0.7136E-01  0.2371E+02
     15.904  0.1008E-12  0.2371E+02
     15.985  0.1030E+01  0.2379E+02
     16.065  0.0000E+00  0.2379E+02
     16.146  0.2402E+00  0.2381E+02
     16.227  0.0000E+00  0.2382E+02
     16.308  0.0000E+00  0.2382E+02
     16.389  0.0000E+00  0.2382E+02
     16.470  0.0000E+00  0.2382E+02
     16.551  0.1636E-01  0.2382E+02
     16.632  0.1013E+01  0.2390E+02
     16.713  0.0000E+00  0.2390E+02
     16.794  0.0000E+00  0.2390E+02
     16.875  0.0000E+00  0.2390E+02
     16.956  0.0000E+00  0.2390E+02
     17.037  0.3383E+00  0.2393E+02
     17.118  0.3388E+00  0.2396E+02
     17.199  0.1116E+00  0.2397E+02
     17.280  0.0000E+00  0.2397E+02
     17.361  0.0000E+00  0.2397E+02
     17.441  0.0000E+00  0.2397E+02
     17.522  0.0000E+00  0.2397E+02
     17.603  0.3414E+00  0.2400E+02
     17.684  0.0000E+00  0.2400E+02
     17.765  0.0000E+00  0.2400E+02
     17.846  0.0000E+00  0.2400E+02
     17.927  0.0000E+00  0.2400E+02
     18.008  0.0000E+00  0.2400E+02
     18.089  0.0000E+00  0.2400E+02
     18.170  0.0000E+00  0.2400E+02
     18.251  0.0000E+00  0.2400E+02
     18.332  0.0000E+00  0.2400E+02
     18.413  0.0000E+00  0.2400E+02
     18.494  0.0000E+00  0.2400E+02
     18.575  0.0000E+00  0.2400E+02
     18.656  0.0000E+00  0.2400E+02
     18.737  0.0000E+00  0.2400E+02
     18.818  0.9036E-06  0.2400E+02
     18.898  0.5720E-01  0.2400E+02
     18.979  0.0000E+00  0.2400E+02
     19.060  0.0000E+00  0.2400E+02
     19.141  0.0000E+00  0.2400E+02
     19.222  0.0000E+00  0.2400E+02
     19.303  0.0000E+00  0.2400E+02
     19.384  0.0000E+00  0.2400E+02
     19.465  0.0000E+00  0.2400E+02
     19.546  0.0000E+00  0.2400E+02
     19.627  0.0000E+00  0.2400E+02
     19.708  0.0000E+00  0.2400E+02
     19.789  0.0000E+00  0.2400E+02
     19.870  0.0000E+00  0.2400E+02
     19.951  0.0000E+00  0.2400E+02
