    4    4    1    1
  0.1695037E+02  0.4077679E-09  0.4077679E-09  0.4077679E-09  0.5000000E-15
  1.000000000000000E-004
  CAR 
 unknown system                          
   12   84   12
 
  0.0000000E+00  0.0000000E+00  0.0000000E+00  0.5787037E-03
   1       -3.2282
   2        4.8626
   3        4.8626
   4        4.8626
   5        6.1241
   6        6.1241
   7        6.1241
   8       12.9723
   9       12.9723
  10       12.9730
  11       13.1915
  12       13.1915
 
  0.8333333E-01  0.0000000E+00  0.0000000E+00  0.3472222E-02
   1       -3.1664
   2        3.9965
   3        4.9193
   4        4.9193
   5        6.1843
   6        6.1843
   7        7.0977
   8       11.7612
   9       11.7612
  10       12.7543
  11       12.7543
  12       13.0333
 
  0.1666667E+00  0.0000000E+00  0.0000000E+00  0.3472222E-02
   1       -2.9811
   2        2.8083
   3        5.0896
   4        5.0896
   5        6.3641
   6        6.3641
   7        8.6084
   8       10.5619
   9       10.5619
  10       11.8601
  11       11.8601
  12       13.2161
 
  0.2500000E+00  0.0000000E+00  0.0000000E+00  0.3472222E-02
   1       -2.6727
   2        1.6901
   3        5.3736
   4        5.3736
   5        6.6613
   6        6.6613
   7        9.4764
   8        9.4764
   9       10.2633
  10       10.8916
  11       10.8916
  12       13.5203
 
  0.3333333E+00  0.0000000E+00  0.0000000E+00  0.3472222E-02
   1       -2.2421
   2        0.6745
   3        5.7713
   4        5.7713
   5        7.0694
   6        7.0694
   7        8.5058
   8        8.5058
   9        9.9714
  10        9.9714
  11       12.0286
  12       13.9455
 
  0.4166667E+00  0.0000000E+00  0.0000000E+00  0.3472222E-02
   1       -1.6904
   2       -0.2299
   3        6.2832
   4        6.2832
   5        7.5658
   6        7.5658
   7        7.6502
   8        7.6502
   9        9.1591
  10        9.1591
  11       13.8932
  12       14.5007
 
  0.5000000E+00  0.0000000E+00  0.0000000E+00  0.1736111E-02
   1       -1.0190
   2       -1.0190
   3        6.9094
   4        6.9094
   5        6.9094
   6        6.9094
   7        7.9385
   8        7.9385
   9        8.6799
  10        8.6799
  11       15.0924
  12       15.1002
 
  0.8333333E-01  0.8333333E-01  0.0000000E+00  0.6944444E-02
   1       -3.1046
   2        4.0549
   3        4.0549
   4        4.9761
   5        6.2442
   6        7.1561
   7        7.1561
   8       10.9067
   9       11.8184
  10       11.8184
  11       12.8083
  12       12.8083
 
  0.1666667E+00  0.8333333E-01  0.0000000E+00  0.1388889E-01
   1       -2.9193
   2        2.8675
   3        4.2297
   4        5.1464
   5        6.4231
   6        7.3307
   7        8.6653
   8        9.7654
   9       10.6191
  10       11.9163
  11       11.9901
  12       12.7062
 
  0.2500000E+00  0.8333333E-01  0.0000000E+00  0.1388889E-01
   1       -2.6111
   2        1.7498
   3        4.5207
   4        5.4304
   5        6.7167
   6        7.6188
   7        8.6992
   8        9.5335
   9       10.3180
  10       10.9508
  11       11.7625
  12       12.2760
 
  0.3333333E+00  0.8333333E-01  0.0000000E+00  0.1388889E-01
   1       -2.1807
   2        0.7347
   3        4.9272
   4        5.8282
   5        7.0957
   6        7.7639
   7        8.0112
   8        8.5628
   9       10.0381
  10       10.8462
  11       12.0779
  12       12.6755
 
  0.4166667E+00  0.8333333E-01  0.0000000E+00  0.1388889E-01
   1       -1.6293
   2       -0.1693
   3        5.4481
   4        6.3401
   5        6.8089
   6        7.7072
   7        7.7099
   8        8.4433
   9        9.2812
  10       10.0190
  11       13.1878
  12       13.8829
 
  0.5000000E+00  0.8333333E-01  0.0000000E+00  0.6944444E-02
   1       -0.9582
   2       -0.9582
   3        6.0806
   4        6.0806
   5        6.9663
   6        6.9663
   7        8.2762
   8        8.2762
   9        9.3352
  10        9.3352
  11       13.8119
  12       13.8119
 
  0.1666667E+00  0.1666667E+00  0.0000000E+00  0.6944444E-02
   1       -2.7343
   2        3.0448
   3        3.0448
   4        5.3168
   5        6.5972
   6        8.6393
   7        8.8345
   8        8.8345
   9       10.7904
  10       10.7904
  11       12.0853
  12       12.0853
 
  0.2500000E+00  0.1666667E+00  0.0000000E+00  0.1388889E-01
   1       -2.4265
   2        1.9289
   3        3.3400
   4        5.6008
   5        6.8578
   6        7.6049
   7        9.1093
   8        9.7048
   9       10.4774
  10       11.0760
  11       11.1317
  12       12.3700
 
  0.3333333E+00  0.1666667E+00  0.0000000E+00  0.1388889E-01
   1       -1.9967
   2        0.9151
   3        3.7522
   4        5.9987
   5        6.5132
   6        7.3897
   7        8.7340
   8        9.4389
   9       10.2778
  10       11.4754
  11       12.1859
  12       12.2715
 
  0.4166667E+00  0.1666667E+00  0.0000000E+00  0.1388889E-01
   1       -1.4459
   2        0.0122
   3        4.2804
   4        5.6745
   5        6.5108
   6        7.8781
   7        7.8886
   8        9.2078
   9       10.1770
  10       11.4597
  11       11.9883
  12       13.1814
 
  0.5000000E+00  0.1666667E+00  0.0000000E+00  0.6944444E-02
   1       -0.7756
   2       -0.7756
   3        4.9226
   4        4.9226
   5        7.1372
   6        7.1372
   7        8.5155
   8        8.5155
   9       10.7446
  10       10.7446
  11       12.6143
  12       12.6143
 
  0.2500000E+00  0.2500000E+00  0.0000000E+00  0.6944444E-02
   1       -2.1194
   2        2.2268
   3        2.2268
   4        5.8850
   5        6.4070
   6        7.2762
   7        9.9901
   8        9.9901
   9       10.6957
  10       10.6957
  11       11.4743
  12       11.4743
 
  0.3333333E+00  0.2500000E+00  0.0000000E+00  0.1388889E-01
   1       -1.6905
   2        1.2152
   3        2.6429
   4        5.4560
   5        6.2831
   6        7.6610
   7        9.0192
   8       10.3548
   9       10.3896
  10       11.2887
  11       11.6963
  12       12.6217
 
  0.4166667E+00  0.2500000E+00  0.0000000E+00  0.1388889E-01
   1       -1.1408
   2        0.3143
   3        3.1762
   4        4.5868
   5        6.7954
   6        8.1632
   7        8.1853
   8        9.5597
   9       10.9029
  10       11.7457
  11       12.2432
  12       12.2700
 
  0.5000000E+00  0.2500000E+00  0.0000000E+00  0.6944444E-02
   1       -0.4720
   2       -0.4720
   3        3.8250
   4        3.8250
   5        7.4220
   6        7.4220
   7        8.8226
   8        8.8226
   9       11.5298
  10       11.5298
  11       12.3453
  12       12.3453
 
  0.3333333E+00  0.3333333E+00  0.0000000E+00  0.6944444E-02
   1       -1.2628
   2        1.6345
   3        1.6345
   4        4.4731
   5        6.6815
   6        8.0708
   7        9.4185
   8        9.4185
   9       10.8112
  10       10.8112
  11       12.1552
  12       12.9775
 
  0.4166667E+00  0.3333333E+00  0.0000000E+00  0.1388889E-01
   1       -0.7147
   2        0.7362
   3        2.1718
   4        3.5939
   5        7.1940
   6        8.5623
   7        8.5982
   8        9.9319
   9        9.9785
  10       11.3006
  11       11.3342
  12       12.6771
 
  0.5000000E+00  0.3333333E+00  0.0000000E+00  0.6944444E-02
   1       -0.0478
   2       -0.0478
   3        2.8256
   4        2.8256
   5        7.8208
   6        7.8208
   7        9.2366
   8        9.2366
   9       10.5593
  10       10.5593
  11       11.9562
  12       11.9562
 
  0.4166667E+00  0.4166667E+00  0.0000000E+00  0.6944444E-02
   1       -0.1687
   2        1.2768
   3        1.2768
   4        2.7081
   5        7.7068
   6        9.0756
   7        9.0756
   8        9.1247
   9       10.4448
  10       10.5005
  11       10.5005
  12       11.8559
 
  0.5000000E+00  0.4166667E+00  0.0000000E+00  0.6944444E-02
   1        0.4958
   2        0.4958
   3        1.9348
   4        1.9348
   5        8.3339
   6        8.3339
   7        9.7031
   8        9.7031
   9        9.7607
  10        9.7607
  11       11.1275
  12       11.1275
 
  0.5000000E+00  0.5000000E+00  0.0000000E+00  0.1736111E-02
   1        1.1573
   2        1.1573
   3        1.1573
   4        1.1573
   5        8.9613
   6        8.9613
   7        8.9613
   8        8.9613
   9       10.3927
  10       10.3927
  11       10.3927
  12       10.3927
 
  0.8333333E-01  0.8333333E-01  0.8333333E-01  0.4629630E-02
   1       -3.0428
   2        4.1132
   3        4.1132
   4        4.1132
   5        7.2142
   6        7.2142
   7        7.2142
   8       10.9641
   9       10.9641
  10       10.9641
  11       13.3505
  12       13.3505
 
  0.1666667E+00  0.8333333E-01  0.8333333E-01  0.1388889E-01
   1       -2.8577
   2        2.9266
   3        4.2879
   4        4.2879
   5        7.3873
   6        7.3873
   7        8.7212
   8        9.8241
   9        9.8241
  10       11.1366
  11       12.7612
  12       12.7612
 
  0.2500000E+00  0.8333333E-01  0.8333333E-01  0.1388889E-01
   1       -2.5496
   2        1.8095
   3        4.5788
   4        4.5788
   5        7.6667
   6        7.6667
   7        8.7645
   8        8.7645
   9       10.3676
  10       11.4278
  11       11.8195
  12       11.8195
 
  0.3333333E+00  0.8333333E-01  0.8333333E-01  0.1388889E-01
   1       -2.1194
   2        0.7948
   3        4.9849
   4        4.9849
   5        7.7070
   6        7.7070
   7        8.1574
   8        8.1574
   9       10.9061
  10       10.9061
  11       11.7790
  12       12.1765
 
  0.4166667E+00  0.8333333E-01  0.8333333E-01  0.1388889E-01
   1       -1.5681
   2       -0.1088
   3        5.5041
   4        5.5041
   5        6.8957
   6        6.8957
   7        8.6100
   8        8.6100
   9       10.0895
  10       10.0895
  11       12.3161
  12       13.6725
 
  0.5000000E+00  0.8333333E-01  0.8333333E-01  0.6944444E-02
   1       -0.8973
   2       -0.8973
   3        6.0576
   4        6.0576
   5        6.2327
   6        6.2327
   7        9.0210
   8        9.0210
   9        9.5680
  10        9.5680
  11       12.9406
  12       12.9406
 
  0.1666667E+00  0.1666667E+00  0.8333333E-01  0.1388889E-01
   1       -2.6727
   2        3.1039
   3        3.1039
   4        4.4624
   5        7.5498
   6        8.7058
   7        8.8835
   8        8.8835
   9       10.0044
  10       10.0044
  11       12.9263
  12       12.9263
 
  0.2500000E+00  0.1666667E+00  0.8333333E-01  0.2777778E-01
   1       -2.3651
   2        1.9885
   3        3.3989
   4        4.7526
   5        7.5144
   6        7.9611
   7        8.8494
   8        9.2514
   9       10.2160
  10       10.6062
  11       11.9910
  12       13.1912
 
  0.3333333E+00  0.1666667E+00  0.8333333E-01  0.2777778E-01
   1       -1.9354
   2        0.9751
   3        3.8109
   4        5.1566
   5        6.6098
   6        7.9294
   7        8.2992
   8        9.5864
   9       10.6603
  10       11.0916
  11       12.3144
  12       12.3282
 
  0.4166667E+00  0.1666667E+00  0.8333333E-01  0.2777778E-01
   1       -1.3849
   2        0.0727
   3        4.3386
   4        5.6131
   5        5.8136
   6        7.0737
   7        8.8089
   8        9.9215
   9       10.4287
  10       11.1777
  11       11.5189
  12       12.5397
 
  0.5000000E+00  0.1666667E+00  0.8333333E-01  0.1388889E-01
   1       -0.7149
   2       -0.7149
   3        4.9787
   4        4.9787
   5        6.3284
   6        6.3284
   7        9.4195
   8        9.4195
   9       10.8138
  10       10.8138
  11       11.8039
  12       11.8039
 
  0.2500000E+00  0.2500000E+00  0.8333333E-01  0.1388889E-01
   1       -2.0580
   2        2.2863
   3        2.2863
   4        5.0406
   5        6.5054
   6        8.1871
   7        9.1877
   8        9.1877
   9       10.8341
  10       10.8341
  11       12.2824
  12       12.2824
 
  0.3333333E+00  0.2500000E+00  0.8333333E-01  0.2777778E-01
   1       -1.6293
   2        1.2752
   3        2.7023
   4        5.3860
   5        5.5914
   6        8.2228
   7        8.5875
   8        9.5943
   9       11.0655
  10       11.5295
  11       12.3268
  12       12.4347
 
  0.4166667E+00  0.2500000E+00  0.8333333E-01  0.2777778E-01
   1       -1.0799
   2        0.3746
   3        3.2353
   4        4.6431
   5        5.9827
   6        7.3634
   7        9.1054
   8       10.1110
   9       10.4519
  10       11.4786
  11       11.8125
  12       13.1002
 
  0.5000000E+00  0.2500000E+00  0.8333333E-01  0.1388889E-01
   1       -0.4113
   2       -0.4113
   3        3.8835
   4        3.8835
   5        6.6154
   6        6.6154
   7        9.7322
   8        9.7322
   9       10.7393
  10       10.7393
  11       12.4036
  12       12.4036
 
  0.3333333E+00  0.3333333E+00  0.8333333E-01  0.1388889E-01
   1       -1.2018
   2        1.6943
   3        1.6943
   4        4.5296
   5        5.8671
   6        8.6270
   7        8.6270
   8        8.9935
   9       11.3686
  10       11.6930
  11       11.6930
  12       13.0404
 
  0.4166667E+00  0.3333333E+00  0.8333333E-01  0.2777778E-01
   1       -0.6540
   2        0.7963
   3        2.2314
   4        3.6526
   5        6.3849
   6        7.7675
   7        9.1444
   8        9.5129
   9       10.5167
  10       10.8739
  11       12.2174
  12       13.5193
 
  0.5000000E+00  0.3333333E+00  0.8333333E-01  0.1388889E-01
   1        0.0127
   2        0.0127
   3        2.8849
   4        2.8849
   5        7.0193
   6        7.0193
   7        9.7746
   8        9.7746
   9       10.1419
  10       10.1419
  11       12.8357
  12       12.8357
 
  0.4166667E+00  0.4166667E+00  0.8333333E-01  0.1388889E-01
   1       -0.1082
   2        1.3368
   3        1.3368
   4        2.7675
   5        6.9043
   6        8.2857
   7        8.2857
   8        9.6618
   9       10.0318
  10       11.3912
  11       11.3912
  12       12.7360
 
  0.5000000E+00  0.4166667E+00  0.8333333E-01  0.1388889E-01
   1        0.5560
   2        0.5560
   3        1.9945
   4        1.9945
   5        7.5384
   6        7.5384
   7        8.9176
   8        8.9176
   9       10.6596
  10       10.6596
  11       12.0128
  12       12.0128
 
  0.5000000E+00  0.5000000E+00  0.8333333E-01  0.3472222E-02
   1        1.2173
   2        1.2173
   3        1.2173
   4        1.2173
   5        8.1716
   6        8.1716
   7        8.1716
   8        8.1716
   9       11.2846
  10       11.2846
  11       11.2846
  12       11.2846
 
  0.1666667E+00  0.1666667E+00  0.1666667E+00  0.4629630E-02
   1       -2.4881
   2        3.2810
   3        3.2810
   4        3.2810
   5        8.7646
   6        8.7646
   7        8.7646
   8        9.1661
   9        9.1661
  10        9.1661
  11       13.8280
  12       13.8280
 
  0.2500000E+00  0.1666667E+00  0.1666667E+00  0.1388889E-01
   1       -2.1808
   2        2.1673
   3        3.5756
   4        3.5756
   5        7.7586
   6        7.7586
   7        9.1217
   8        9.3873
   9        9.3873
  10       10.7439
  11       13.2141
  12       13.3439
 
  0.3333333E+00  0.1666667E+00  0.1666667E+00  0.1388889E-01
   1       -1.7517
   2        1.1553
   3        3.9867
   4        3.9867
   5        6.7906
   6        6.7906
   7        9.5306
   8        9.7788
   9        9.7788
  10       12.2633
  11       12.4961
  12       12.4989
 
  0.4166667E+00  0.1666667E+00  0.1666667E+00  0.1388889E-01
   1       -1.2018
   2        0.2539
   3        4.5117
   4        4.5117
   5        5.9274
   6        5.9274
   7       10.0482
   8       10.2750
   9       10.2750
  10       11.4161
  11       11.7021
  12       11.7021
 
  0.5000000E+00  0.1666667E+00  0.1666667E+00  0.6944444E-02
   1       -0.5326
   2       -0.5326
   3        5.0602
   4        5.0602
   5        5.2657
   6        5.2657
   7       10.6770
   8       10.6770
   9       10.7084
  10       10.7084
  11       11.1660
  12       11.1660
 
  0.2500000E+00  0.2500000E+00  0.1666667E+00  0.1388889E-01
   1       -1.8741
   2        2.4647
   3        2.4647
   4        3.8692
   5        6.6867
   6        8.0550
   7        8.0550
   8        9.6713
   9       11.0214
  10       11.0214
  11       12.1625
  12       13.6189
 
  0.3333333E+00  0.2500000E+00  0.1666667E+00  0.2777778E-01
   1       -1.4459
   2        1.4550
   3        2.8801
   4        4.2776
   5        5.7098
   6        7.0823
   7        8.4612
   8       10.0709
   9       11.2063
  10       11.4030
  11       12.7642
  12       12.7883
 
  0.4166667E+00  0.2500000E+00  0.1666667E+00  0.2777778E-01
   1       -0.8972
   2        0.5555
   3        3.4122
   4        4.7198
   5        4.9213
   6        6.2162
   7        8.9802
   8       10.3546
   9       10.5802
  10       11.7355
  11       12.1505
  12       13.2673
 
  0.5000000E+00  0.2500000E+00  0.1666667E+00  0.1388889E-01
   1       -0.2294
   2       -0.2294
   3        4.0578
   4        4.0578
   5        5.4632
   6        5.4632
   7        9.6118
   8        9.6118
   9       11.1879
  10       11.1879
  11       12.5831
  12       12.5831
 
  0.3333333E+00  0.3333333E+00  0.1666667E+00  0.1388889E-01
   1       -1.0190
   2        1.8736
   3        1.8736
   4        4.6058
   5        4.8049
   6        7.4886
   7        7.4886
   8       10.2452
   9       10.4730
  10       12.9862
  11       12.9862
  12       13.3354
 
  0.4166667E+00  0.3333333E+00  0.1666667E+00  0.2777778E-01
   1       -0.4718
   2        0.9767
   3        2.4100
   4        3.8274
   5        5.2299
   6        6.6228
   7        8.0092
   8        9.3894
   9       10.9849
  10       12.3133
  11       13.6288
  12       13.6931
 
  0.5000000E+00  0.3333333E+00  0.1666667E+00  0.1388889E-01
   1        0.1941
   2        0.1941
   3        3.0625
   4        3.0625
   5        5.8685
   6        5.8685
   7        8.6433
   8        8.6433
   9       11.6022
  10       11.6022
  11       14.2414
  12       14.2419
 
  0.4166667E+00  0.4166667E+00  0.1666667E+00  0.1388889E-01
   1        0.0733
   2        1.5166
   3        1.5166
   4        2.9453
   5        5.7522
   6        7.1449
   7        7.1449
   8        8.5303
   9       11.4968
  10       12.8308
  11       12.8308
  12       14.1534
 
  0.5000000E+00  0.4166667E+00  0.1666667E+00  0.1388889E-01
   1        0.7368
   2        0.7368
   3        2.1735
   4        2.1735
   5        6.3917
   6        6.3917
   7        7.7813
   8        7.7813
   9       12.1143
  10       12.1143
  11       13.4438
  12       13.4438
 
  0.5000000E+00  0.5000000E+00  0.1666667E+00  0.3472222E-02
   1        1.3972
   2        1.3972
   3        1.3972
   4        1.3972
   5        7.0299
   6        7.0299
   7        7.0299
   8        7.0299
   9       12.7298
  10       12.7298
  11       12.7298
  12       12.7298
 
  0.2500000E+00  0.2500000E+00  0.2500000E+00  0.4629630E-02
   1       -1.5682
   2        2.7616
   3        2.7616
   4        2.7616
   5        6.9789
   6        6.9789
   7        6.9789
   8       11.1059
   9       11.3081
  10       11.3081
  11       11.3081
  12       14.6252
 
  0.3333333E+00  0.2500000E+00  0.2500000E+00  0.1388889E-01
   1       -1.1408
   2        1.7541
   3        3.1759
   4        3.1759
   5        5.9993
   6        5.9993
   7        7.3857
   8       10.1446
   9       11.7019
  10       11.7019
  11       13.0530
  12       14.2717
 
  0.4166667E+00  0.2500000E+00  0.2500000E+00  0.1388889E-01
   1       -0.5932
   2        0.8565
   3        3.7052
   4        3.7052
   5        5.1286
   6        5.1286
   7        7.9070
   8        9.2884
   9       12.1953
  10       12.1953
  11       13.5528
  12       13.5528
 
  0.5000000E+00  0.2500000E+00  0.2500000E+00  0.6944444E-02
   1        0.0732
   2        0.0732
   3        4.2651
   4        4.2651
   5        4.4547
   6        4.4547
   7        8.5417
   8        8.5417
   9       12.6438
  10       12.6438
  11       13.0158
  12       13.0158
 
  0.3333333E+00  0.3333333E+00  0.2500000E+00  0.1388889E-01
   1       -0.7147
   2        2.1719
   3        2.1719
   4        3.5875
   5        5.0152
   6        6.4069
   7        6.4069
   8        9.1786
   9       12.1000
  10       13.4347
  11       13.4347
  12       14.6562
 
  0.4166667E+00  0.3333333E+00  0.2500000E+00  0.2777778E-01
   1       -0.1687
   2        1.2770
   3        2.7070
   4        4.0367
   5        4.2179
   6        5.5356
   7        6.9303
   8        8.3183
   9       12.6021
  10       13.7737
  11       14.0829
  12       15.0770
 
  0.5000000E+00  0.3333333E+00  0.2500000E+00  0.1388889E-01
   1        0.4958
   2        0.4958
   3        3.3568
   4        3.3568
   5        4.7775
   6        4.7775
   7        7.5680
   8        7.5680
   9       13.1997
  10       13.1997
  11       14.5424
  12       14.5424
 
  0.4166667E+00  0.4166667E+00  0.2500000E+00  0.1388889E-01
   1        0.3754
   2        1.8157
   3        1.8157
   4        3.2400
   5        4.6601
   6        6.0606
   7        6.0606
   8        7.4542
   9       13.1060
  10       14.3947
  11       14.3947
  12       15.6804
 
  0.5000000E+00  0.4166667E+00  0.2500000E+00  0.1388889E-01
   1        1.0375
   2        1.0375
   3        2.4711
   4        2.4711
   5        5.3025
   6        5.3025
   7        6.7008
   8        6.7008
   9       13.7085
  10       13.7085
  11       14.9964
  12       14.9964
 
  0.5000000E+00  0.5000000E+00  0.2500000E+00  0.3472222E-02
   1        1.6966
   2        1.6966
   3        1.6966
   4        1.6966
   5        5.9447
   6        5.9447
   7        5.9447
   8        5.9447
   9       14.3101
  10       14.3101
  11       14.3101
  12       14.3101
 
  0.3333333E+00  0.3333333E+00  0.3333333E+00  0.4629630E-02
   1       -0.2898
   2        2.5883
   3        2.5883
   4        2.5883
   5        5.4227
   6        5.4227
   7        5.4227
   8        8.2079
   9       13.8295
  10       13.8295
  11       13.8295
  12       15.7439
 
  0.4166667E+00  0.3333333E+00  0.3333333E+00  0.1388889E-01
   1        0.2547
   2        1.6962
   3        3.1208
   4        3.1208
   5        4.5474
   6        4.5474
   7        5.9482
   8        7.3432
   9       14.3145
  10       14.3145
  11       15.5235
  12       15.5265
 
  0.5000000E+00  0.3333333E+00  0.3333333E+00  0.6944444E-02
   1        0.9173
   2        0.9173
   3        3.6938
   4        3.6938
   5        3.8598
   6        3.8598
   7        6.5891
   8        6.5891
   9       14.7800
  10       14.7800
  11       15.0279
  12       15.0279
 
  0.4166667E+00  0.4166667E+00  0.3333333E+00  0.1388889E-01
   1        0.7972
   2        2.2334
   3        2.2334
   4        3.5793
   5        3.7397
   6        5.0737
   7        5.0737
   8        6.4746
   9       14.8078
  10       15.9552
  11       15.9553
  12       16.1427
 
  0.5000000E+00  0.4166667E+00  0.3333333E+00  0.1388889E-01
   1        1.4575
   2        1.4575
   3        2.8859
   4        2.8859
   5        4.3124
   6        4.3124
   7        5.7171
   8        5.7171
   9       15.3809
  10       15.3809
  11       16.5715
  12       16.5741
 
  0.5000000E+00  0.5000000E+00  0.3333333E+00  0.3472222E-02
   1        2.1147
   2        2.1147
   3        2.1147
   4        2.1147
   5        4.9570
   6        4.9570
   7        4.9570
   8        4.9570
   9       15.9579
  10       15.9579
  11       15.9579
  12       15.9579
 
  0.4166667E+00  0.4166667E+00  0.4166667E+00  0.4629630E-02
   1        1.3378
   2        2.7676
   3        2.7676
   4        2.7676
   5        4.1958
   6        4.1958
   7        4.1958
   8        5.6019
   9       16.5631
  10       16.5631
  11       16.5631
  12       17.1847
 
  0.5000000E+00  0.4166667E+00  0.4166667E+00  0.6944444E-02
   1        1.9956
   2        1.9956
   3        3.3502
   4        3.3502
   5        3.4983
   6        3.4983
   7        4.8411
   8        4.8411
   9       17.0213
  10       17.0213
  11       17.1019
  12       17.1019
 
  0.5000000E+00  0.5000000E+00  0.4166667E+00  0.3472222E-02
   1        2.6496
   2        2.6496
   3        2.6496
   4        2.6496
   5        4.0782
   6        4.0782
   7        4.0782
   8        4.0782
   9       17.5853
  10       17.5853
  11       17.5853
  12       17.5853
 
  0.5000000E+00  0.5000000E+00  0.5000000E+00  0.5787037E-03
   1        3.2357
   2        3.2357
   3        3.2357
   4        3.2357
   5        3.3772
   6        3.3772
   7        3.3772
   8        3.3772
   9       18.8469
  10       18.8469
  11       18.8469
  12       18.8469
