<?xml version="1.0" encoding="ISO-8859-1"?>
<modeling>
 <generator>
  <i name="program" type="string">vasp</i>
  <i name="version" type="string">4.6.28 </i>
  <i name="subversion" type="string">25Jul05 complex  parallel</i>
  <i name="platform" type="string">LinuxIFC</i>
  <i name="date" type="string">2017 01 08</i>
  <i name="time" type="string">09:58:18</i>
 </generator>
 <incar>
  <i type="string" name="PREC">accurate</i>
  <i type="int" name="IALGO">    38</i>
  <i type="logical" name="ADDGRID"> T  </i>
  <i name="EDIFF">      0.00000001</i>
  <i type="int" name="IBRION">    -1</i>
  <i name="ENCUT">    750.00000000</i>
  <i type="logical" name="LREAL"> F  </i>
  <i type="int" name="ISMEAR">     0</i>
  <i name="SIGMA">      0.01000000</i>
  <i type="logical" name="LWAVE"> F  </i>
  <i type="logical" name="LCHARG"> F  </i>
 </incar>
 <kpoints>
  <generation param="Gamma">
   <v type="int" name="divisions">      12      12      12</v>
   <v name="usershift">      0.00000000      0.00000000      0.00000000</v>
   <v name="genvec1">      0.08333333      0.00000000      0.00000000</v>
   <v name="genvec2">      0.00000000      0.08333333      0.00000000</v>
   <v name="genvec3">      0.00000000      0.00000000      0.08333333</v>
   <v name="shift">      0.00000000      0.00000000      0.00000000</v>
  </generation>
  <varray name="kpointlist" >
   <v>       0.00000000      0.00000000      0.00000000</v>
   <v>       0.08333333      0.00000000      0.00000000</v>
   <v>       0.16666667      0.00000000      0.00000000</v>
   <v>       0.25000000      0.00000000      0.00000000</v>
   <v>       0.33333333      0.00000000      0.00000000</v>
   <v>       0.41666667      0.00000000      0.00000000</v>
   <v>       0.50000000      0.00000000      0.00000000</v>
   <v>       0.08333333      0.08333333      0.00000000</v>
   <v>       0.16666667      0.08333333      0.00000000</v>
   <v>       0.25000000      0.08333333      0.00000000</v>
   <v>       0.33333333      0.08333333      0.00000000</v>
   <v>       0.41666667      0.08333333      0.00000000</v>
   <v>       0.50000000      0.08333333      0.00000000</v>
   <v>       0.16666667      0.16666667      0.00000000</v>
   <v>       0.25000000      0.16666667      0.00000000</v>
   <v>       0.33333333      0.16666667      0.00000000</v>
   <v>       0.41666667      0.16666667      0.00000000</v>
   <v>       0.50000000      0.16666667      0.00000000</v>
   <v>       0.25000000      0.25000000      0.00000000</v>
   <v>       0.33333333      0.25000000      0.00000000</v>
   <v>       0.41666667      0.25000000      0.00000000</v>
   <v>       0.50000000      0.25000000      0.00000000</v>
   <v>       0.33333333      0.33333333      0.00000000</v>
   <v>       0.41666667      0.33333333      0.00000000</v>
   <v>       0.50000000      0.33333333      0.00000000</v>
   <v>       0.41666667      0.41666667      0.00000000</v>
   <v>       0.50000000      0.41666667      0.00000000</v>
   <v>       0.50000000      0.50000000      0.00000000</v>
   <v>       0.08333333      0.08333333      0.08333333</v>
   <v>       0.16666667      0.08333333      0.08333333</v>
   <v>       0.25000000      0.08333333      0.08333333</v>
   <v>       0.33333333      0.08333333      0.08333333</v>
   <v>       0.41666667      0.08333333      0.08333333</v>
   <v>       0.50000000      0.08333333      0.08333333</v>
   <v>       0.16666667      0.16666667      0.08333333</v>
   <v>       0.25000000      0.16666667      0.08333333</v>
   <v>       0.33333333      0.16666667      0.08333333</v>
   <v>       0.41666667      0.16666667      0.08333333</v>
   <v>       0.50000000      0.16666667      0.08333333</v>
   <v>       0.25000000      0.25000000      0.08333333</v>
   <v>       0.33333333      0.25000000      0.08333333</v>
   <v>       0.41666667      0.25000000      0.08333333</v>
   <v>       0.50000000      0.25000000      0.08333333</v>
   <v>       0.33333333      0.33333333      0.08333333</v>
   <v>       0.41666667      0.33333333      0.08333333</v>
   <v>       0.50000000      0.33333333      0.08333333</v>
   <v>       0.41666667      0.41666667      0.08333333</v>
   <v>       0.50000000      0.41666667      0.08333333</v>
   <v>       0.50000000      0.50000000      0.08333333</v>
   <v>       0.16666667      0.16666667      0.16666667</v>
   <v>       0.25000000      0.16666667      0.16666667</v>
   <v>       0.33333333      0.16666667      0.16666667</v>
   <v>       0.41666667      0.16666667      0.16666667</v>
   <v>       0.50000000      0.16666667      0.16666667</v>
   <v>       0.25000000      0.25000000      0.16666667</v>
   <v>       0.33333333      0.25000000      0.16666667</v>
   <v>       0.41666667      0.25000000      0.16666667</v>
   <v>       0.50000000      0.25000000      0.16666667</v>
   <v>       0.33333333      0.33333333      0.16666667</v>
   <v>       0.41666667      0.33333333      0.16666667</v>
   <v>       0.50000000      0.33333333      0.16666667</v>
   <v>       0.41666667      0.41666667      0.16666667</v>
   <v>       0.50000000      0.41666667      0.16666667</v>
   <v>       0.50000000      0.50000000      0.16666667</v>
   <v>       0.25000000      0.25000000      0.25000000</v>
   <v>       0.33333333      0.25000000      0.25000000</v>
   <v>       0.41666667      0.25000000      0.25000000</v>
   <v>       0.50000000      0.25000000      0.25000000</v>
   <v>       0.33333333      0.33333333      0.25000000</v>
   <v>       0.41666667      0.33333333      0.25000000</v>
   <v>       0.50000000      0.33333333      0.25000000</v>
   <v>       0.41666667      0.41666667      0.25000000</v>
   <v>       0.50000000      0.41666667      0.25000000</v>
   <v>       0.50000000      0.50000000      0.25000000</v>
   <v>       0.33333333      0.33333333      0.33333333</v>
   <v>       0.41666667      0.33333333      0.33333333</v>
   <v>       0.50000000      0.33333333      0.33333333</v>
   <v>       0.41666667      0.41666667      0.33333333</v>
   <v>       0.50000000      0.41666667      0.33333333</v>
   <v>       0.50000000      0.50000000      0.33333333</v>
   <v>       0.41666667      0.41666667      0.41666667</v>
   <v>       0.50000000      0.41666667      0.41666667</v>
   <v>       0.50000000      0.50000000      0.41666667</v>
   <v>       0.50000000      0.50000000      0.50000000</v>
  </varray>
  <varray name="weights" >
   <v>       0.00057870</v>
   <v>       0.00347222</v>
   <v>       0.00347222</v>
   <v>       0.00347222</v>
   <v>       0.00347222</v>
   <v>       0.00347222</v>
   <v>       0.00173611</v>
   <v>       0.00694444</v>
   <v>       0.01388889</v>
   <v>       0.01388889</v>
   <v>       0.01388889</v>
   <v>       0.01388889</v>
   <v>       0.00694444</v>
   <v>       0.00694444</v>
   <v>       0.01388889</v>
   <v>       0.01388889</v>
   <v>       0.01388889</v>
   <v>       0.00694444</v>
   <v>       0.00694444</v>
   <v>       0.01388889</v>
   <v>       0.01388889</v>
   <v>       0.00694444</v>
   <v>       0.00694444</v>
   <v>       0.01388889</v>
   <v>       0.00694444</v>
   <v>       0.00694444</v>
   <v>       0.00694444</v>
   <v>       0.00173611</v>
   <v>       0.00462963</v>
   <v>       0.01388889</v>
   <v>       0.01388889</v>
   <v>       0.01388889</v>
   <v>       0.01388889</v>
   <v>       0.00694444</v>
   <v>       0.01388889</v>
   <v>       0.02777778</v>
   <v>       0.02777778</v>
   <v>       0.02777778</v>
   <v>       0.01388889</v>
   <v>       0.01388889</v>
   <v>       0.02777778</v>
   <v>       0.02777778</v>
   <v>       0.01388889</v>
   <v>       0.01388889</v>
   <v>       0.02777778</v>
   <v>       0.01388889</v>
   <v>       0.01388889</v>
   <v>       0.01388889</v>
   <v>       0.00347222</v>
   <v>       0.00462963</v>
   <v>       0.01388889</v>
   <v>       0.01388889</v>
   <v>       0.01388889</v>
   <v>       0.00694444</v>
   <v>       0.01388889</v>
   <v>       0.02777778</v>
   <v>       0.02777778</v>
   <v>       0.01388889</v>
   <v>       0.01388889</v>
   <v>       0.02777778</v>
   <v>       0.01388889</v>
   <v>       0.01388889</v>
   <v>       0.01388889</v>
   <v>       0.00347222</v>
   <v>       0.00462963</v>
   <v>       0.01388889</v>
   <v>       0.01388889</v>
   <v>       0.00694444</v>
   <v>       0.01388889</v>
   <v>       0.02777778</v>
   <v>       0.01388889</v>
   <v>       0.01388889</v>
   <v>       0.01388889</v>
   <v>       0.00347222</v>
   <v>       0.00462963</v>
   <v>       0.01388889</v>
   <v>       0.00694444</v>
   <v>       0.01388889</v>
   <v>       0.01388889</v>
   <v>       0.00347222</v>
   <v>       0.00462963</v>
   <v>       0.00694444</v>
   <v>       0.00347222</v>
   <v>       0.00057870</v>
  </varray>
 </kpoints>
 <parameters>
  <separator name="general" >
   <i type="string" name="SYSTEM">unknown system</i>
   <i type="logical" name="LCOMPAT"> F  </i>
  </separator>
  <separator name="electronic" >
   <i type="string" name="PREC">accura</i>
   <i name="ENMAX">    750.00000000</i>
   <i name="ENAUG">    291.05200000</i>
   <i name="EDIFF">      0.00000001</i>
   <i type="int" name="IALGO">    38</i>
   <i type="int" name="IWAVPR">    10</i>
   <i type="int" name="NBANDS">    10</i>
   <i name="NELECT">     12.00000000</i>
   <separator name="electronic smearing" >
    <i type="int" name="ISMEAR">     0</i>
    <i name="SIGMA">      0.01000000</i>
   </separator>
   <separator name="electronic projectors" >
    <i type="logical" name="LREAL"> F  </i>
    <v name="ROPT">      0.00000000</v>
    <i type="int" name="LMAXPAW">  -100</i>
    <i type="int" name="LMAXMIX">     2</i>
   </separator>
   <separator name="electronic startup" >
    <i type="int" name="ISTART">     0</i>
    <i type="int" name="ICHARG">     2</i>
    <i type="int" name="INIWAV">     1</i>
   </separator>
   <separator name="electronic spin" >
    <i type="int" name="ISPIN">     1</i>
    <i type="logical" name="LNONCOLLINEAR"> F  </i>
    <v name="MAGMOM">      1.00000000      1.00000000      1.00000000      1.00000000</v>
    <i name="NUPDOWN">     -1.00000000</i>
    <i type="logical" name="LSORBIT"> F  </i>
    <v name="SAXIS">      0.00000000      0.00000000      1.00000000</v>
    <i type="logical" name="LSPIRAL"> F  </i>
    <v name="QSPIRAL">      0.00000000      0.00000000      0.00000000</v>
    <i type="logical" name="LZEROZ"> F  </i>
   </separator>
   <separator name="electronic exchange-correlation" >
    <i type="string" name="GGA">--</i>
    <i type="int" name="VOSKOWN">     0</i>
    <i type="logical" name="LASPH"> F  </i>
    <i type="logical" name="LMETAGGA"> F  </i>
    <i type="string" name="GGA2">--</i>
   </separator>
   <separator name="electronic convergence" >
    <i type="int" name="NELM">    60</i>
    <i type="int" name="NELMDL">    -5</i>
    <i type="int" name="NELMIN">     2</i>
    <i name="ENINI">    750.00000000</i>
    <separator name="electronic convergence detail" >
     <i type="logical" name="LDIAG"> T  </i>
     <i name="WEIMIN">      0.00000000</i>
     <i name="EBREAK">      0.00000000</i>
     <i name="DEPER">      0.30000000</i>
     <i type="int" name="NRMM">     4</i>
     <i name="TIME">      0.10000000</i>
    </separator>
   </separator>
   <separator name="electronic mixer" >
    <i name="AMIX">      0.40000000</i>
    <i name="BMIX">      1.00000000</i>
    <i name="AMIN">      0.10000000</i>
    <i name="AMIX_MAG">      1.60000000</i>
    <i name="BMIX_MAG">      1.00000000</i>
    <separator name="electronic mixer details" >
     <i type="int" name="IMIX">     4</i>
     <i type="int" name="MAXMIX">   -45</i>
     <i name="WC">    100.00000000</i>
     <i type="int" name="INIMIX">     1</i>
     <i type="int" name="MIXPRE">     1</i>
     <i type="int" name="MREMOVE">     5</i>
    </separator>
   </separator>
   <separator name="electronic dipolcorrection" >
    <i type="int" name="IDIPOL">     0</i>
    <i type="logical" name="LDIPOL"> F  </i>
    <v name="DIPOL">   -100.00000000</v>
    <i name="EFIELD">      0.00000000</i>
   </separator>
  </separator>
  <separator name="grids" >
   <i type="int" name="NGX">    36</i>
   <i type="int" name="NGY">    36</i>
   <i type="int" name="NGZ">    36</i>
   <i type="int" name="NGXF">    72</i>
   <i type="int" name="NGYF">    72</i>
   <i type="int" name="NGZF">    72</i>
   <i type="logical" name="ADDGRID"> T  </i>
  </separator>
  <separator name="ionic" >
   <i type="int" name="NSW">     0</i>
   <i type="int" name="IBRION">    -1</i>
   <i type="int" name="ISIF">     2</i>
   <i name="PSTRESS">      0.00000000</i>
   <i name="EDIFFG">      0.00000010</i>
   <i type="int" name="NFREE">     0</i>
   <i name="POTIM">      0.50000000</i>
   <i name="SMASS">     -3.00000000</i>
  </separator>
  <separator name="ionic md" >
   <i name="TEBEG">      0.00010000</i>
   <i name="TEEND">      0.00010000</i>
   <i type="int" name="NBLOCK">     1</i>
   <i type="int" name="KBLOCK">     1</i>
   <i type="int" name="NPACO">   256</i>
   <i name="APACO">     16.00000000</i>
  </separator>
  <separator name="symmetry" >
   <i type="int" name="ISYM">     2</i>
   <i name="SYMPREC">      0.00001000</i>
  </separator>
  <separator name="dos" >
   <i type="logical" name="LORBIT"> F  </i>
   <v name="RWIGS">     -1.00000000</v>
   <i type="int" name="NEDOS">   301</i>
   <i name="EMIN">     10.00000000</i>
   <i name="EMAX">    -10.00000000</i>
  </separator>
  <separator name="writing" >
   <i type="int" name="NWRITE">     2</i>
   <i type="logical" name="LWAVE"> F  </i>
   <i type="logical" name="LCHARG"> F  </i>
   <i type="logical" name="LPARD"> F  </i>
   <i type="logical" name="LVTOT"> F  </i>
   <i type="logical" name="LELF"> F  </i>
   <i type="logical" name="LOPTICS"> F  </i>
   <i name="STM">      0.00000000</i>
  </separator>
  <separator name="performance" >
   <i type="int" name="NPAR">     4</i>
   <i type="int" name="NSIM">     4</i>
   <i type="int" name="NBLK">   256</i>
   <i type="logical" name="LPLANE"> T  </i>
   <i type="logical" name="LCRITICAL_MEM"> F  </i>
   <i type="logical" name="LSCALAPACK"> F  </i>
   <i type="logical" name="LSCALU"> F  </i>
   <i type="logical" name="LASYNC"> F  </i>
  </separator>
  <separator name="miscellaneous" >
   <i type="int" name="IDIOT">     3</i>
   <i type="logical" name="LMUSIC"> F  </i>
   <v name="POMASS">     26.98200000</v>
   <i type="logical" name="LCORR"> T  </i>
  </separator>
  <i type="logical" name="LREAL_COMPAT"> F  </i>
  <i type="logical" name="GGA_COMPAT"> T  </i>
  <i type="logical" name="LBERRY"> F  </i>
  <i type="int" name="ICORELEVEL">     0</i>
  <i type="logical" name="LDAU"> F  </i>
  <i type="int" name="I_CONSTRAINED_M">     0</i>
 </parameters>
 <atominfo>
  <atoms>       4</atoms>
  <types>       1</types>
  <array name="atoms" >
   <dimension dim="1">ion</dimension>
   <field type="string">element</field>
   <field type="int">atomtype</field>
   <set>
    <rc><c>Al</c><c>   1</c></rc>
    <rc><c>Al</c><c>   1</c></rc>
    <rc><c>Al</c><c>   1</c></rc>
    <rc><c>Al</c><c>   1</c></rc>
   </set>
  </array>
  <array name="atomtypes" >
   <dimension dim="1">type</dimension>
   <field type="int">atomspertype</field>
   <field type="string">element</field>
   <field>mass</field>
   <field>valence</field>
   <field type="string">pseudopotential</field>
   <set>
    <rc><c>   4</c><c>Al</c><c>     26.98200000</c><c>      3.00000000</c><c> PAW_PBE Al 04Jan2001                   </c></rc>
   </set>
  </array>
 </atominfo>
 <structure name="initialpos" >
  <crystal>
   <varray name="basis" >
    <v>       4.07767943      0.00000000      0.00000000</v>
    <v>       0.00000000      4.07767943      0.00000000</v>
    <v>       0.00000000      0.00000000      4.07767943</v>
   </varray>
   <i name="volume">     67.80149066</i>
   <varray name="rec_basis" >
    <v>       0.24523752      0.00000000      0.00000000</v>
    <v>       0.00000000      0.24523752      0.00000000</v>
    <v>       0.00000000      0.00000000      0.24523752</v>
   </varray>
  </crystal>
  <varray name="positions" >
   <v>       0.50000000      0.50000000      0.00000000</v>
   <v>       0.50000000      0.00000000      0.50000000</v>
   <v>       0.00000000      0.50000000      0.50000000</v>
   <v>       0.00000000      0.00000000      0.00000000</v>
  </varray>
 </structure>
 <calculation>
  <scstep>
   <time name="dav">    2.71    2.76</time>
   <time name="total">    2.97    3.02</time>
   <energy>
    <i name="alphaZ">     -0.79262257</i>
    <i name="ewald">   -291.43504708</i>
    <i name="hartreedc">     -0.44887268</i>
    <i name="XCdc">   -105.15191319</i>
    <i name="pawpsdc">    142.21701965</i>
    <i name="pawaedc">    -14.39593217</i>
    <i name="eentropy">     -0.00015740</i>
    <i name="bandstr">     67.63367082</i>
    <i name="atom">    214.15438658</i>
    <i name="e_fr_energy">     11.78053196</i>
    <i name="e_wo_entrp">     11.78068936</i>
    <i name="e_0_energy">     11.78061066</i>
   </energy>
  </scstep>
  <scstep>
   <time name="dav">    2.81    2.81</time>
   <time name="total">    2.82    2.82</time>
   <energy>
    <i name="e_fr_energy">    -14.06603245</i>
    <i name="e_wo_entrp">    -14.06583946</i>
    <i name="e_0_energy">    -14.06593595</i>
   </energy>
  </scstep>
  <scstep>
   <time name="dav">    3.02    3.02</time>
   <time name="total">    3.03    3.03</time>
   <energy>
    <i name="e_fr_energy">    -15.03924905</i>
    <i name="e_wo_entrp">    -15.03903306</i>
    <i name="e_0_energy">    -15.03914106</i>
   </energy>
  </scstep>
  <scstep>
   <time name="dav">    2.77    2.77</time>
   <time name="total">    2.77    2.77</time>
   <energy>
    <i name="e_fr_energy">    -15.04739139</i>
    <i name="e_wo_entrp">    -15.04719541</i>
    <i name="e_0_energy">    -15.04729340</i>
   </energy>
  </scstep>
  <scstep>
   <time name="dav">    2.86    2.86</time>
   <time name="total">    3.14    3.14</time>
   <energy>
    <i name="e_fr_energy">    -15.04746813</i>
    <i name="e_wo_entrp">    -15.04727228</i>
    <i name="e_0_energy">    -15.04737021</i>
   </energy>
  </scstep>
  <scstep>
   <time name="dav">    2.71    2.71</time>
   <time name="total">    3.23    3.23</time>
   <energy>
    <i name="e_fr_energy">    -14.99557034</i>
    <i name="e_wo_entrp">    -14.99531041</i>
    <i name="e_0_energy">    -14.99544037</i>
   </energy>
  </scstep>
  <scstep>
   <time name="dav">    2.67    2.67</time>
   <time name="total">    3.18    3.19</time>
   <energy>
    <i name="e_fr_energy">    -14.95795193</i>
    <i name="e_wo_entrp">    -14.95760661</i>
    <i name="e_0_energy">    -14.95777927</i>
   </energy>
  </scstep>
  <scstep>
   <time name="dav">    2.89    2.89</time>
   <time name="total">    3.41    3.41</time>
   <energy>
    <i name="e_fr_energy">    -14.95796725</i>
    <i name="e_wo_entrp">    -14.95762132</i>
    <i name="e_0_energy">    -14.95779428</i>
   </energy>
  </scstep>
  <scstep>
   <time name="dav">    2.78    2.78</time>
   <time name="total">    3.29    3.30</time>
   <energy>
    <i name="e_fr_energy">    -14.95796919</i>
    <i name="e_wo_entrp">    -14.95762256</i>
    <i name="e_0_energy">    -14.95779588</i>
   </energy>
  </scstep>
  <scstep>
   <time name="dav">    2.92    2.92</time>
   <time name="total">    3.43    3.44</time>
   <energy>
    <i name="e_fr_energy">    -14.95796811</i>
    <i name="e_wo_entrp">    -14.95762147</i>
    <i name="e_0_energy">    -14.95779479</i>
   </energy>
  </scstep>
  <scstep>
   <time name="dav">    2.08    2.08</time>
   <time name="total">    2.60    2.60</time>
   <energy>
    <i name="e_fr_energy">    -14.95796791</i>
    <i name="e_wo_entrp">    -14.95762126</i>
    <i name="e_0_energy">    -14.95779458</i>
   </energy>
  </scstep>
  <scstep>
   <time name="dav">    1.99    1.99</time>
   <time name="total">    2.51    2.51</time>
   <energy>
    <i name="e_fr_energy">    -14.95796795</i>
    <i name="e_wo_entrp">    -14.95762129</i>
    <i name="e_0_energy">    -14.95779462</i>
   </energy>
  </scstep>
  <scstep>
   <time name="dav">    1.94    1.94</time>
   <time name="total">    2.18    2.18</time>
   <energy>
    <i name="alphaZ">     -0.79262257</i>
    <i name="ewald">   -291.43504708</i>
    <i name="hartreedc">     -0.39852307</i>
    <i name="XCdc">   -104.73831939</i>
    <i name="pawpsdc">    142.34128461</i>
    <i name="pawaedc">    -14.55332440</i>
    <i name="eentropy">     -0.00034666</i>
    <i name="bandstr">     40.46454403</i>
    <i name="atom">    214.15438658</i>
    <i name="e_fr_energy">    -14.95796795</i>
    <i name="e_wo_entrp">    -14.95762129</i>
    <i name="e_0_energy">    -14.95779462</i>
   </energy>
  </scstep>
  <structure>
   <crystal>
    <varray name="basis" >
     <v>       4.07767943      0.00000000      0.00000000</v>
     <v>       0.00000000      4.07767943      0.00000000</v>
     <v>       0.00000000      0.00000000      4.07767943</v>
    </varray>
    <i name="volume">     67.80149066</i>
    <varray name="rec_basis" >
     <v>       0.24523752      0.00000000      0.00000000</v>
     <v>       0.00000000      0.24523752      0.00000000</v>
     <v>       0.00000000      0.00000000      0.24523752</v>
    </varray>
   </crystal>
   <varray name="positions" >
    <v>       0.50000000      0.50000000      0.00000000</v>
    <v>       0.50000000      0.00000000      0.50000000</v>
    <v>       0.00000000      0.50000000      0.50000000</v>
    <v>       0.00000000      0.00000000      0.00000000</v>
   </varray>
  </structure>
  <varray name="forces" >
   <v>       0.00000000      0.00000000      0.00000000</v>
   <v>       0.00000000      0.00000000      0.00000000</v>
   <v>       0.00000000     -0.00000000      0.00000000</v>
   <v>       0.00000000     -0.00000000      0.00000000</v>
  </varray>
  <varray name="stress" >
   <v>     -20.24225306      0.00000000      0.00000000</v>
   <v>       0.00000000    -20.24225306      0.00000000</v>
   <v>      -0.00000000     -0.00000000    -20.24225306</v>
  </varray>
  <energy>
   <i name="e_fr_energy">    -14.95796795</i>
   <i name="e_wo_entrp">    -14.95779462</i>
   <i name="e_0_energy">     -0.00034666</i>
  </energy>
  <eigenvalues>
   <array>
    <dimension dim="1">band</dimension>
    <dimension dim="2">kpoint</dimension>
    <dimension dim="3">spin</dimension>
    <field>eigene</field>
    <field>occ</field>
    <set>
     <set comment="spin 1">
      <set comment="kpoint 1">
       <r>  -3.2282  1.0000</r>
       <r>   4.8626  1.0000</r>
       <r>   4.8626  1.0000</r>
       <r>   4.8626  1.0000</r>
       <r>   6.1241  1.0000</r>
       <r>   6.1241  1.0000</r>
       <r>   6.1241  1.0000</r>
       <r>  12.9723  0.0000</r>
       <r>  12.9723  0.0000</r>
       <r>  12.9730  0.0000</r>
       <r>  13.1915  0.0000</r>
       <r>  13.1915  0.0000</r>
      </set>
      <set comment="kpoint 2">
       <r>  -3.1664  1.0000</r>
       <r>   3.9965  1.0000</r>
       <r>   4.9193  1.0000</r>
       <r>   4.9193  1.0000</r>
       <r>   6.1843  1.0000</r>
       <r>   6.1843  1.0000</r>
       <r>   7.0977  1.0000</r>
       <r>  11.7612  0.0000</r>
       <r>  11.7612  0.0000</r>
       <r>  12.7543  0.0000</r>
       <r>  12.7543  0.0000</r>
       <r>  13.0333  0.0000</r>
      </set>
      <set comment="kpoint 3">
       <r>  -2.9811  1.0000</r>
       <r>   2.8083  1.0000</r>
       <r>   5.0896  1.0000</r>
       <r>   5.0896  1.0000</r>
       <r>   6.3641  1.0000</r>
       <r>   6.3641  1.0000</r>
       <r>   8.6084  0.0000</r>
       <r>  10.5619  0.0000</r>
       <r>  10.5619  0.0000</r>
       <r>  11.8601  0.0000</r>
       <r>  11.8601  0.0000</r>
       <r>  13.2161  0.0000</r>
      </set>
      <set comment="kpoint 4">
       <r>  -2.6727  1.0000</r>
       <r>   1.6901  1.0000</r>
       <r>   5.3736  1.0000</r>
       <r>   5.3736  1.0000</r>
       <r>   6.6613  1.0000</r>
       <r>   6.6613  1.0000</r>
       <r>   9.4764  0.0000</r>
       <r>   9.4764  0.0000</r>
       <r>  10.2633  0.0000</r>
       <r>  10.8916  0.0000</r>
       <r>  10.8916  0.0000</r>
       <r>  13.5203  0.0000</r>
      </set>
      <set comment="kpoint 5">
       <r>  -2.2421  1.0000</r>
       <r>   0.6745  1.0000</r>
       <r>   5.7713  1.0000</r>
       <r>   5.7713  1.0000</r>
       <r>   7.0694  1.0000</r>
       <r>   7.0694  1.0000</r>
       <r>   8.5058  0.0000</r>
       <r>   8.5058  0.0000</r>
       <r>   9.9714  0.0000</r>
       <r>   9.9714  0.0000</r>
       <r>  12.0286  0.0000</r>
       <r>  13.9455  0.0000</r>
      </set>
      <set comment="kpoint 6">
       <r>  -1.6904  1.0000</r>
       <r>  -0.2299  1.0000</r>
       <r>   6.2832  1.0000</r>
       <r>   6.2832  1.0000</r>
       <r>   7.5658  1.0000</r>
       <r>   7.5658  1.0000</r>
       <r>   7.6502  1.0000</r>
       <r>   7.6502  1.0000</r>
       <r>   9.1591  0.0000</r>
       <r>   9.1591  0.0000</r>
       <r>  13.8932  0.0000</r>
       <r>  14.5007  0.0000</r>
      </set>
      <set comment="kpoint 7">
       <r>  -1.0190  1.0000</r>
       <r>  -1.0190  1.0000</r>
       <r>   6.9094  1.0000</r>
       <r>   6.9094  1.0000</r>
       <r>   6.9094  1.0000</r>
       <r>   6.9094  1.0000</r>
       <r>   7.9385  0.0000</r>
       <r>   7.9385  0.0000</r>
       <r>   8.6799  0.0000</r>
       <r>   8.6799  0.0000</r>
       <r>  15.0924  0.0000</r>
       <r>  15.1002  0.0000</r>
      </set>
      <set comment="kpoint 8">
       <r>  -3.1046  1.0000</r>
       <r>   4.0549  1.0000</r>
       <r>   4.0549  1.0000</r>
       <r>   4.9761  1.0000</r>
       <r>   6.2442  1.0000</r>
       <r>   7.1561  1.0000</r>
       <r>   7.1561  1.0000</r>
       <r>  10.9067  0.0000</r>
       <r>  11.8184  0.0000</r>
       <r>  11.8184  0.0000</r>
       <r>  12.8083  0.0000</r>
       <r>  12.8083  0.0000</r>
      </set>
      <set comment="kpoint 9">
       <r>  -2.9193  1.0000</r>
       <r>   2.8675  1.0000</r>
       <r>   4.2297  1.0000</r>
       <r>   5.1464  1.0000</r>
       <r>   6.4231  1.0000</r>
       <r>   7.3307  1.0000</r>
       <r>   8.6653  0.0000</r>
       <r>   9.7654  0.0000</r>
       <r>  10.6191  0.0000</r>
       <r>  11.9163  0.0000</r>
       <r>  11.9901  0.0000</r>
       <r>  12.7062  0.0000</r>
      </set>
      <set comment="kpoint 10">
       <r>  -2.6111  1.0000</r>
       <r>   1.7498  1.0000</r>
       <r>   4.5207  1.0000</r>
       <r>   5.4304  1.0000</r>
       <r>   6.7167  1.0000</r>
       <r>   7.6188  1.0000</r>
       <r>   8.6992  0.0000</r>
       <r>   9.5335  0.0000</r>
       <r>  10.3180  0.0000</r>
       <r>  10.9508  0.0000</r>
       <r>  11.7625  0.0000</r>
       <r>  12.2760  0.0000</r>
      </set>
      <set comment="kpoint 11">
       <r>  -2.1807  1.0000</r>
       <r>   0.7347  1.0000</r>
       <r>   4.9272  1.0000</r>
       <r>   5.8282  1.0000</r>
       <r>   7.0957  1.0000</r>
       <r>   7.7639  0.0000</r>
       <r>   8.0112  0.0000</r>
       <r>   8.5628  0.0000</r>
       <r>  10.0381  0.0000</r>
       <r>  10.8462  0.0000</r>
       <r>  12.0779  0.0000</r>
       <r>  12.6755  0.0000</r>
      </set>
      <set comment="kpoint 12">
       <r>  -1.6293  1.0000</r>
       <r>  -0.1693  1.0000</r>
       <r>   5.4481  1.0000</r>
       <r>   6.3401  1.0000</r>
       <r>   6.8089  1.0000</r>
       <r>   7.7072  0.5547</r>
       <r>   7.7099  0.4015</r>
       <r>   8.4433  0.0000</r>
       <r>   9.2812  0.0000</r>
       <r>  10.0190  0.0000</r>
       <r>  13.1878  0.0000</r>
       <r>  13.8829  0.0000</r>
      </set>
      <set comment="kpoint 13">
       <r>  -0.9582  1.0000</r>
       <r>  -0.9582  1.0000</r>
       <r>   6.0806  1.0000</r>
       <r>   6.0806  1.0000</r>
       <r>   6.9663  1.0000</r>
       <r>   6.9663  1.0000</r>
       <r>   8.2762  0.0000</r>
       <r>   8.2762  0.0000</r>
       <r>   9.3352  0.0000</r>
       <r>   9.3352  0.0000</r>
       <r>  13.8119  0.0000</r>
       <r>  13.8119  0.0000</r>
      </set>
      <set comment="kpoint 14">
       <r>  -2.7343  1.0000</r>
       <r>   3.0448  1.0000</r>
       <r>   3.0448  1.0000</r>
       <r>   5.3168  1.0000</r>
       <r>   6.5972  1.0000</r>
       <r>   8.6393  0.0000</r>
       <r>   8.8345  0.0000</r>
       <r>   8.8345  0.0000</r>
       <r>  10.7904  0.0000</r>
       <r>  10.7904  0.0000</r>
       <r>  12.0853  0.0000</r>
       <r>  12.0853  0.0000</r>
      </set>
      <set comment="kpoint 15">
       <r>  -2.4265  1.0000</r>
       <r>   1.9289  1.0000</r>
       <r>   3.3400  1.0000</r>
       <r>   5.6008  1.0000</r>
       <r>   6.8578  1.0000</r>
       <r>   7.6049  1.0000</r>
       <r>   9.1093  0.0000</r>
       <r>   9.7048  0.0000</r>
       <r>  10.4774  0.0000</r>
       <r>  11.0760  0.0000</r>
       <r>  11.1317  0.0000</r>
       <r>  12.3700  0.0000</r>
      </set>
      <set comment="kpoint 16">
       <r>  -1.9967  1.0000</r>
       <r>   0.9151  1.0000</r>
       <r>   3.7522  1.0000</r>
       <r>   5.9987  1.0000</r>
       <r>   6.5132  1.0000</r>
       <r>   7.3897  1.0000</r>
       <r>   8.7340  0.0000</r>
       <r>   9.4389  0.0000</r>
       <r>  10.2778  0.0000</r>
       <r>  11.4754  0.0000</r>
       <r>  12.1859  0.0000</r>
       <r>  12.2715  0.0000</r>
      </set>
      <set comment="kpoint 17">
       <r>  -1.4459  1.0000</r>
       <r>   0.0122  1.0000</r>
       <r>   4.2804  1.0000</r>
       <r>   5.6745  1.0000</r>
       <r>   6.5108  1.0000</r>
       <r>   7.8781  0.0000</r>
       <r>   7.8886  0.0000</r>
       <r>   9.2078  0.0000</r>
       <r>  10.1770  0.0000</r>
       <r>  11.4597  0.0000</r>
       <r>  11.9883  0.0000</r>
       <r>  13.1814  0.0000</r>
      </set>
      <set comment="kpoint 18">
       <r>  -0.7756  1.0000</r>
       <r>  -0.7756  1.0000</r>
       <r>   4.9226  1.0000</r>
       <r>   4.9226  1.0000</r>
       <r>   7.1372  1.0000</r>
       <r>   7.1372  1.0000</r>
       <r>   8.5155  0.0000</r>
       <r>   8.5155  0.0000</r>
       <r>  10.7446  0.0000</r>
       <r>  10.7446  0.0000</r>
       <r>  12.6143  0.0000</r>
       <r>  12.6143  0.0000</r>
      </set>
      <set comment="kpoint 19">
       <r>  -2.1194  1.0000</r>
       <r>   2.2268  1.0000</r>
       <r>   2.2268  1.0000</r>
       <r>   5.8850  1.0000</r>
       <r>   6.4070  1.0000</r>
       <r>   7.2762  1.0000</r>
       <r>   9.9901  0.0000</r>
       <r>   9.9901  0.0000</r>
       <r>  10.6957  0.0000</r>
       <r>  10.6957  0.0000</r>
       <r>  11.4743  0.0000</r>
       <r>  11.4743  0.0000</r>
      </set>
      <set comment="kpoint 20">
       <r>  -1.6905  1.0000</r>
       <r>   1.2152  1.0000</r>
       <r>   2.6429  1.0000</r>
       <r>   5.4560  1.0000</r>
       <r>   6.2831  1.0000</r>
       <r>   7.6610  1.0000</r>
       <r>   9.0192  0.0000</r>
       <r>  10.3548  0.0000</r>
       <r>  10.3896  0.0000</r>
       <r>  11.2887  0.0000</r>
       <r>  11.6963  0.0000</r>
       <r>  12.6217  0.0000</r>
      </set>
      <set comment="kpoint 21">
       <r>  -1.1408  1.0000</r>
       <r>   0.3143  1.0000</r>
       <r>   3.1762  1.0000</r>
       <r>   4.5868  1.0000</r>
       <r>   6.7954  1.0000</r>
       <r>   8.1632  0.0000</r>
       <r>   8.1853  0.0000</r>
       <r>   9.5597  0.0000</r>
       <r>  10.9029  0.0000</r>
       <r>  11.7457  0.0000</r>
       <r>  12.2432  0.0000</r>
       <r>  12.2700  0.0000</r>
      </set>
      <set comment="kpoint 22">
       <r>  -0.4720  1.0000</r>
       <r>  -0.4720  1.0000</r>
       <r>   3.8250  1.0000</r>
       <r>   3.8250  1.0000</r>
       <r>   7.4220  1.0000</r>
       <r>   7.4220  1.0000</r>
       <r>   8.8226  0.0000</r>
       <r>   8.8226  0.0000</r>
       <r>  11.5298  0.0000</r>
       <r>  11.5298  0.0000</r>
       <r>  12.3453  0.0000</r>
       <r>  12.3453  0.0000</r>
      </set>
      <set comment="kpoint 23">
       <r>  -1.2628  1.0000</r>
       <r>   1.6345  1.0000</r>
       <r>   1.6345  1.0000</r>
       <r>   4.4731  1.0000</r>
       <r>   6.6815  1.0000</r>
       <r>   8.0708  0.0000</r>
       <r>   9.4185  0.0000</r>
       <r>   9.4185  0.0000</r>
       <r>  10.8112  0.0000</r>
       <r>  10.8112  0.0000</r>
       <r>  12.1552  0.0000</r>
       <r>  12.9775  0.0000</r>
      </set>
      <set comment="kpoint 24">
       <r>  -0.7147  1.0000</r>
       <r>   0.7362  1.0000</r>
       <r>   2.1718  1.0000</r>
       <r>   3.5939  1.0000</r>
       <r>   7.1940  1.0000</r>
       <r>   8.5623  0.0000</r>
       <r>   8.5982  0.0000</r>
       <r>   9.9319  0.0000</r>
       <r>   9.9785  0.0000</r>
       <r>  11.3006  0.0000</r>
       <r>  11.3342  0.0000</r>
       <r>  12.6771  0.0000</r>
      </set>
      <set comment="kpoint 25">
       <r>  -0.0478  1.0000</r>
       <r>  -0.0478  1.0000</r>
       <r>   2.8256  1.0000</r>
       <r>   2.8256  1.0000</r>
       <r>   7.8208  0.0000</r>
       <r>   7.8208  0.0000</r>
       <r>   9.2366  0.0000</r>
       <r>   9.2366  0.0000</r>
       <r>  10.5593  0.0000</r>
       <r>  10.5593  0.0000</r>
       <r>  11.9562  0.0000</r>
       <r>  11.9562  0.0000</r>
      </set>
      <set comment="kpoint 26">
       <r>  -0.1687  1.0000</r>
       <r>   1.2768  1.0000</r>
       <r>   1.2768  1.0000</r>
       <r>   2.7081  1.0000</r>
       <r>   7.7068  0.5774</r>
       <r>   9.0756  0.0000</r>
       <r>   9.0756  0.0000</r>
       <r>   9.1247  0.0000</r>
       <r>  10.4448  0.0000</r>
       <r>  10.5005  0.0000</r>
       <r>  10.5005  0.0000</r>
       <r>  11.8559  0.0000</r>
      </set>
      <set comment="kpoint 27">
       <r>   0.4958  1.0000</r>
       <r>   0.4958  1.0000</r>
       <r>   1.9348  1.0000</r>
       <r>   1.9348  1.0000</r>
       <r>   8.3339  0.0000</r>
       <r>   8.3339  0.0000</r>
       <r>   9.7031  0.0000</r>
       <r>   9.7031  0.0000</r>
       <r>   9.7607  0.0000</r>
       <r>   9.7607  0.0000</r>
       <r>  11.1275  0.0000</r>
       <r>  11.1275  0.0000</r>
      </set>
      <set comment="kpoint 28">
       <r>   1.1573  1.0000</r>
       <r>   1.1573  1.0000</r>
       <r>   1.1573  1.0000</r>
       <r>   1.1573  1.0000</r>
       <r>   8.9613  0.0000</r>
       <r>   8.9613  0.0000</r>
       <r>   8.9613  0.0000</r>
       <r>   8.9613  0.0000</r>
       <r>  10.3927  0.0000</r>
       <r>  10.3927  0.0000</r>
       <r>  10.3927  0.0000</r>
       <r>  10.3927  0.0000</r>
      </set>
      <set comment="kpoint 29">
       <r>  -3.0428  1.0000</r>
       <r>   4.1132  1.0000</r>
       <r>   4.1132  1.0000</r>
       <r>   4.1132  1.0000</r>
       <r>   7.2142  1.0000</r>
       <r>   7.2142  1.0000</r>
       <r>   7.2142  1.0000</r>
       <r>  10.9641  0.0000</r>
       <r>  10.9641  0.0000</r>
       <r>  10.9641  0.0000</r>
       <r>  13.3505  0.0000</r>
       <r>  13.3505  0.0000</r>
      </set>
      <set comment="kpoint 30">
       <r>  -2.8577  1.0000</r>
       <r>   2.9266  1.0000</r>
       <r>   4.2879  1.0000</r>
       <r>   4.2879  1.0000</r>
       <r>   7.3873  1.0000</r>
       <r>   7.3873  1.0000</r>
       <r>   8.7212  0.0000</r>
       <r>   9.8241  0.0000</r>
       <r>   9.8241  0.0000</r>
       <r>  11.1366  0.0000</r>
       <r>  12.7612  0.0000</r>
       <r>  12.7612  0.0000</r>
      </set>
      <set comment="kpoint 31">
       <r>  -2.5496  1.0000</r>
       <r>   1.8095  1.0000</r>
       <r>   4.5788  1.0000</r>
       <r>   4.5788  1.0000</r>
       <r>   7.6667  1.0000</r>
       <r>   7.6667  1.0000</r>
       <r>   8.7645  0.0000</r>
       <r>   8.7645  0.0000</r>
       <r>  10.3676  0.0000</r>
       <r>  11.4278  0.0000</r>
       <r>  11.8195  0.0000</r>
       <r>  11.8195  0.0000</r>
      </set>
      <set comment="kpoint 32">
       <r>  -2.1194  1.0000</r>
       <r>   0.7948  1.0000</r>
       <r>   4.9849  1.0000</r>
       <r>   4.9849  1.0000</r>
       <r>   7.7070  0.5650</r>
       <r>   7.7070  0.5650</r>
       <r>   8.1574  0.0000</r>
       <r>   8.1574  0.0000</r>
       <r>  10.9061  0.0000</r>
       <r>  10.9061  0.0000</r>
       <r>  11.7790  0.0000</r>
       <r>  12.1765  0.0000</r>
      </set>
      <set comment="kpoint 33">
       <r>  -1.5681  1.0000</r>
       <r>  -0.1088  1.0000</r>
       <r>   5.5041  1.0000</r>
       <r>   5.5041  1.0000</r>
       <r>   6.8957  1.0000</r>
       <r>   6.8957  1.0000</r>
       <r>   8.6100  0.0000</r>
       <r>   8.6100  0.0000</r>
       <r>  10.0895  0.0000</r>
       <r>  10.0895  0.0000</r>
       <r>  12.3161  0.0000</r>
       <r>  13.6725  0.0000</r>
      </set>
      <set comment="kpoint 34">
       <r>  -0.8973  1.0000</r>
       <r>  -0.8973  1.0000</r>
       <r>   6.0576  1.0000</r>
       <r>   6.0576  1.0000</r>
       <r>   6.2327  1.0000</r>
       <r>   6.2327  1.0000</r>
       <r>   9.0210  0.0000</r>
       <r>   9.0210  0.0000</r>
       <r>   9.5680  0.0000</r>
       <r>   9.5680  0.0000</r>
       <r>  12.9406  0.0000</r>
       <r>  12.9406  0.0000</r>
      </set>
      <set comment="kpoint 35">
       <r>  -2.6727  1.0000</r>
       <r>   3.1039  1.0000</r>
       <r>   3.1039  1.0000</r>
       <r>   4.4624  1.0000</r>
       <r>   7.5498  1.0000</r>
       <r>   8.7058  0.0000</r>
       <r>   8.8835  0.0000</r>
       <r>   8.8835  0.0000</r>
       <r>  10.0044  0.0000</r>
       <r>  10.0044  0.0000</r>
       <r>  12.9263  0.0000</r>
       <r>  12.9263  0.0000</r>
      </set>
      <set comment="kpoint 36">
       <r>  -2.3651  1.0000</r>
       <r>   1.9885  1.0000</r>
       <r>   3.3989  1.0000</r>
       <r>   4.7526  1.0000</r>
       <r>   7.5144  1.0000</r>
       <r>   7.9611  0.0000</r>
       <r>   8.8494  0.0000</r>
       <r>   9.2514  0.0000</r>
       <r>  10.2160  0.0000</r>
       <r>  10.6062  0.0000</r>
       <r>  11.9910  0.0000</r>
       <r>  13.1912  0.0000</r>
      </set>
      <set comment="kpoint 37">
       <r>  -1.9354  1.0000</r>
       <r>   0.9751  1.0000</r>
       <r>   3.8109  1.0000</r>
       <r>   5.1566  1.0000</r>
       <r>   6.6098  1.0000</r>
       <r>   7.9294  0.0000</r>
       <r>   8.2992  0.0000</r>
       <r>   9.5864  0.0000</r>
       <r>  10.6603  0.0000</r>
       <r>  11.0916  0.0000</r>
       <r>  12.3144  0.0000</r>
       <r>  12.3282  0.0000</r>
      </set>
      <set comment="kpoint 38">
       <r>  -1.3849  1.0000</r>
       <r>   0.0727  1.0000</r>
       <r>   4.3386  1.0000</r>
       <r>   5.6131  1.0000</r>
       <r>   5.8136  1.0000</r>
       <r>   7.0737  1.0000</r>
       <r>   8.8089  0.0000</r>
       <r>   9.9215  0.0000</r>
       <r>  10.4287  0.0000</r>
       <r>  11.1777  0.0000</r>
       <r>  11.5189  0.0000</r>
       <r>  12.5397  0.0000</r>
      </set>
      <set comment="kpoint 39">
       <r>  -0.7149  1.0000</r>
       <r>  -0.7149  1.0000</r>
       <r>   4.9787  1.0000</r>
       <r>   4.9787  1.0000</r>
       <r>   6.3284  1.0000</r>
       <r>   6.3284  1.0000</r>
       <r>   9.4195  0.0000</r>
       <r>   9.4195  0.0000</r>
       <r>  10.8138  0.0000</r>
       <r>  10.8138  0.0000</r>
       <r>  11.8039  0.0000</r>
       <r>  11.8039  0.0000</r>
      </set>
      <set comment="kpoint 40">
       <r>  -2.0580  1.0000</r>
       <r>   2.2863  1.0000</r>
       <r>   2.2863  1.0000</r>
       <r>   5.0406  1.0000</r>
       <r>   6.5054  1.0000</r>
       <r>   8.1871  0.0000</r>
       <r>   9.1877  0.0000</r>
       <r>   9.1877  0.0000</r>
       <r>  10.8341  0.0000</r>
       <r>  10.8341  0.0000</r>
       <r>  12.2824  0.0000</r>
       <r>  12.2824  0.0000</r>
      </set>
      <set comment="kpoint 41">
       <r>  -1.6293  1.0000</r>
       <r>   1.2752  1.0000</r>
       <r>   2.7023  1.0000</r>
       <r>   5.3860  1.0000</r>
       <r>   5.5914  1.0000</r>
       <r>   8.2228  0.0000</r>
       <r>   8.5875  0.0000</r>
       <r>   9.5943  0.0000</r>
       <r>  11.0655  0.0000</r>
       <r>  11.5295  0.0000</r>
       <r>  12.3268  0.0000</r>
       <r>  12.4347  0.0000</r>
      </set>
      <set comment="kpoint 42">
       <r>  -1.0799  1.0000</r>
       <r>   0.3746  1.0000</r>
       <r>   3.2353  1.0000</r>
       <r>   4.6431  1.0000</r>
       <r>   5.9827  1.0000</r>
       <r>   7.3634  1.0000</r>
       <r>   9.1054  0.0000</r>
       <r>  10.1110  0.0000</r>
       <r>  10.4519  0.0000</r>
       <r>  11.4786  0.0000</r>
       <r>  11.8125  0.0000</r>
       <r>  13.1002  0.0000</r>
      </set>
      <set comment="kpoint 43">
       <r>  -0.4113  1.0000</r>
       <r>  -0.4113  1.0000</r>
       <r>   3.8835  1.0000</r>
       <r>   3.8835  1.0000</r>
       <r>   6.6154  1.0000</r>
       <r>   6.6154  1.0000</r>
       <r>   9.7322  0.0000</r>
       <r>   9.7322  0.0000</r>
       <r>  10.7393  0.0000</r>
       <r>  10.7393  0.0000</r>
       <r>  12.4036  0.0000</r>
       <r>  12.4036  0.0000</r>
      </set>
      <set comment="kpoint 44">
       <r>  -1.2018  1.0000</r>
       <r>   1.6943  1.0000</r>
       <r>   1.6943  1.0000</r>
       <r>   4.5296  1.0000</r>
       <r>   5.8671  1.0000</r>
       <r>   8.6270  0.0000</r>
       <r>   8.6270  0.0000</r>
       <r>   8.9935  0.0000</r>
       <r>  11.3686  0.0000</r>
       <r>  11.6930  0.0000</r>
       <r>  11.6930  0.0000</r>
       <r>  13.0404  0.0000</r>
      </set>
      <set comment="kpoint 45">
       <r>  -0.6540  1.0000</r>
       <r>   0.7963  1.0000</r>
       <r>   2.2314  1.0000</r>
       <r>   3.6526  1.0000</r>
       <r>   6.3849  1.0000</r>
       <r>   7.7675  0.0000</r>
       <r>   9.1444  0.0000</r>
       <r>   9.5129  0.0000</r>
       <r>  10.5167  0.0000</r>
       <r>  10.8739  0.0000</r>
       <r>  12.2174  0.0000</r>
       <r>  13.5193  0.0000</r>
      </set>
      <set comment="kpoint 46">
       <r>   0.0127  1.0000</r>
       <r>   0.0127  1.0000</r>
       <r>   2.8849  1.0000</r>
       <r>   2.8849  1.0000</r>
       <r>   7.0193  1.0000</r>
       <r>   7.0193  1.0000</r>
       <r>   9.7746  0.0000</r>
       <r>   9.7746  0.0000</r>
       <r>  10.1419  0.0000</r>
       <r>  10.1419  0.0000</r>
       <r>  12.8357  0.0000</r>
       <r>  12.8357  0.0000</r>
      </set>
      <set comment="kpoint 47">
       <r>  -0.1082  1.0000</r>
       <r>   1.3368  1.0000</r>
       <r>   1.3368  1.0000</r>
       <r>   2.7675  1.0000</r>
       <r>   6.9043  1.0000</r>
       <r>   8.2857  0.0000</r>
       <r>   8.2857  0.0000</r>
       <r>   9.6618  0.0000</r>
       <r>  10.0318  0.0000</r>
       <r>  11.3912  0.0000</r>
       <r>  11.3912  0.0000</r>
       <r>  12.7360  0.0000</r>
      </set>
      <set comment="kpoint 48">
       <r>   0.5560  1.0000</r>
       <r>   0.5560  1.0000</r>
       <r>   1.9945  1.0000</r>
       <r>   1.9945  1.0000</r>
       <r>   7.5384  1.0000</r>
       <r>   7.5384  1.0000</r>
       <r>   8.9176  0.0000</r>
       <r>   8.9176  0.0000</r>
       <r>  10.6596  0.0000</r>
       <r>  10.6596  0.0000</r>
       <r>  12.0128  0.0000</r>
       <r>  12.0128  0.0000</r>
      </set>
      <set comment="kpoint 49">
       <r>   1.2173  1.0000</r>
       <r>   1.2173  1.0000</r>
       <r>   1.2173  1.0000</r>
       <r>   1.2173  1.0000</r>
       <r>   8.1716  0.0000</r>
       <r>   8.1716  0.0000</r>
       <r>   8.1716  0.0000</r>
       <r>   8.1716  0.0000</r>
       <r>  11.2846  0.0000</r>
       <r>  11.2846  0.0000</r>
       <r>  11.2846  0.0000</r>
       <r>  11.2846  0.0000</r>
      </set>
      <set comment="kpoint 50">
       <r>  -2.4881  1.0000</r>
       <r>   3.2810  1.0000</r>
       <r>   3.2810  1.0000</r>
       <r>   3.2810  1.0000</r>
       <r>   8.7646  0.0000</r>
       <r>   8.7646  0.0000</r>
       <r>   8.7646  0.0000</r>
       <r>   9.1661  0.0000</r>
       <r>   9.1661  0.0000</r>
       <r>   9.1661  0.0000</r>
       <r>  13.8280  0.0000</r>
       <r>  13.8280  0.0000</r>
      </set>
      <set comment="kpoint 51">
       <r>  -2.1808  1.0000</r>
       <r>   2.1673  1.0000</r>
       <r>   3.5756  1.0000</r>
       <r>   3.5756  1.0000</r>
       <r>   7.7586  0.0000</r>
       <r>   7.7586  0.0000</r>
       <r>   9.1217  0.0000</r>
       <r>   9.3873  0.0000</r>
       <r>   9.3873  0.0000</r>
       <r>  10.7439  0.0000</r>
       <r>  13.2141  0.0000</r>
       <r>  13.3439  0.0000</r>
      </set>
      <set comment="kpoint 52">
       <r>  -1.7517  1.0000</r>
       <r>   1.1553  1.0000</r>
       <r>   3.9867  1.0000</r>
       <r>   3.9867  1.0000</r>
       <r>   6.7906  1.0000</r>
       <r>   6.7906  1.0000</r>
       <r>   9.5306  0.0000</r>
       <r>   9.7788  0.0000</r>
       <r>   9.7788  0.0000</r>
       <r>  12.2633  0.0000</r>
       <r>  12.4961  0.0000</r>
       <r>  12.4989  0.0000</r>
      </set>
      <set comment="kpoint 53">
       <r>  -1.2018  1.0000</r>
       <r>   0.2539  1.0000</r>
       <r>   4.5117  1.0000</r>
       <r>   4.5117  1.0000</r>
       <r>   5.9274  1.0000</r>
       <r>   5.9274  1.0000</r>
       <r>  10.0482  0.0000</r>
       <r>  10.2750  0.0000</r>
       <r>  10.2750  0.0000</r>
       <r>  11.4161  0.0000</r>
       <r>  11.7021  0.0000</r>
       <r>  11.7021  0.0000</r>
      </set>
      <set comment="kpoint 54">
       <r>  -0.5326  1.0000</r>
       <r>  -0.5326  1.0000</r>
       <r>   5.0602  1.0000</r>
       <r>   5.0602  1.0000</r>
       <r>   5.2657  1.0000</r>
       <r>   5.2657  1.0000</r>
       <r>  10.6770  0.0000</r>
       <r>  10.6770  0.0000</r>
       <r>  10.7084  0.0000</r>
       <r>  10.7084  0.0000</r>
       <r>  11.1660  0.0000</r>
       <r>  11.1660  0.0000</r>
      </set>
      <set comment="kpoint 55">
       <r>  -1.8741  1.0000</r>
       <r>   2.4647  1.0000</r>
       <r>   2.4647  1.0000</r>
       <r>   3.8692  1.0000</r>
       <r>   6.6867  1.0000</r>
       <r>   8.0550  0.0000</r>
       <r>   8.0550  0.0000</r>
       <r>   9.6713  0.0000</r>
       <r>  11.0214  0.0000</r>
       <r>  11.0214  0.0000</r>
       <r>  12.1625  0.0000</r>
       <r>  13.6189  0.0000</r>
      </set>
      <set comment="kpoint 56">
       <r>  -1.4459  1.0000</r>
       <r>   1.4550  1.0000</r>
       <r>   2.8801  1.0000</r>
       <r>   4.2776  1.0000</r>
       <r>   5.7098  1.0000</r>
       <r>   7.0823  1.0000</r>
       <r>   8.4612  0.0000</r>
       <r>  10.0709  0.0000</r>
       <r>  11.2063  0.0000</r>
       <r>  11.4030  0.0000</r>
       <r>  12.7642  0.0000</r>
       <r>  12.7883  0.0000</r>
      </set>
      <set comment="kpoint 57">
       <r>  -0.8972  1.0000</r>
       <r>   0.5555  1.0000</r>
       <r>   3.4122  1.0000</r>
       <r>   4.7198  1.0000</r>
       <r>   4.9213  1.0000</r>
       <r>   6.2162  1.0000</r>
       <r>   8.9802  0.0000</r>
       <r>  10.3546  0.0000</r>
       <r>  10.5802  0.0000</r>
       <r>  11.7355  0.0000</r>
       <r>  12.1505  0.0000</r>
       <r>  13.2673  0.0000</r>
      </set>
      <set comment="kpoint 58">
       <r>  -0.2294  1.0000</r>
       <r>  -0.2294  1.0000</r>
       <r>   4.0578  1.0000</r>
       <r>   4.0578  1.0000</r>
       <r>   5.4632  1.0000</r>
       <r>   5.4632  1.0000</r>
       <r>   9.6118  0.0000</r>
       <r>   9.6118  0.0000</r>
       <r>  11.1879  0.0000</r>
       <r>  11.1879  0.0000</r>
       <r>  12.5831  0.0000</r>
       <r>  12.5831  0.0000</r>
      </set>
      <set comment="kpoint 59">
       <r>  -1.0190  1.0000</r>
       <r>   1.8736  1.0000</r>
       <r>   1.8736  1.0000</r>
       <r>   4.6058  1.0000</r>
       <r>   4.8049  1.0000</r>
       <r>   7.4886  1.0000</r>
       <r>   7.4886  1.0000</r>
       <r>  10.2452  0.0000</r>
       <r>  10.4730  0.0000</r>
       <r>  12.9862  0.0000</r>
       <r>  12.9862  0.0000</r>
       <r>  13.3354  0.0000</r>
      </set>
      <set comment="kpoint 60">
       <r>  -0.4718  1.0000</r>
       <r>   0.9767  1.0000</r>
       <r>   2.4100  1.0000</r>
       <r>   3.8274  1.0000</r>
       <r>   5.2299  1.0000</r>
       <r>   6.6228  1.0000</r>
       <r>   8.0092  0.0000</r>
       <r>   9.3894  0.0000</r>
       <r>  10.9849  0.0000</r>
       <r>  12.3133  0.0000</r>
       <r>  13.6288  0.0000</r>
       <r>  13.6931  0.0000</r>
      </set>
      <set comment="kpoint 61">
       <r>   0.1941  1.0000</r>
       <r>   0.1941  1.0000</r>
       <r>   3.0625  1.0000</r>
       <r>   3.0625  1.0000</r>
       <r>   5.8685  1.0000</r>
       <r>   5.8685  1.0000</r>
       <r>   8.6433  0.0000</r>
       <r>   8.6433  0.0000</r>
       <r>  11.6022  0.0000</r>
       <r>  11.6022  0.0000</r>
       <r>  14.2414  0.0000</r>
       <r>  14.2419  0.0000</r>
      </set>
      <set comment="kpoint 62">
       <r>   0.0733  1.0000</r>
       <r>   1.5166  1.0000</r>
       <r>   1.5166  1.0000</r>
       <r>   2.9453  1.0000</r>
       <r>   5.7522  1.0000</r>
       <r>   7.1449  1.0000</r>
       <r>   7.1449  1.0000</r>
       <r>   8.5303  0.0000</r>
       <r>  11.4968  0.0000</r>
       <r>  12.8308  0.0000</r>
       <r>  12.8308  0.0000</r>
       <r>  14.1534  0.0000</r>
      </set>
      <set comment="kpoint 63">
       <r>   0.7368  1.0000</r>
       <r>   0.7368  1.0000</r>
       <r>   2.1735  1.0000</r>
       <r>   2.1735  1.0000</r>
       <r>   6.3917  1.0000</r>
       <r>   6.3917  1.0000</r>
       <r>   7.7813  0.0000</r>
       <r>   7.7813  0.0000</r>
       <r>  12.1143  0.0000</r>
       <r>  12.1143  0.0000</r>
       <r>  13.4438  0.0000</r>
       <r>  13.4438  0.0000</r>
      </set>
      <set comment="kpoint 64">
       <r>   1.3972  1.0000</r>
       <r>   1.3972  1.0000</r>
       <r>   1.3972  1.0000</r>
       <r>   1.3972  1.0000</r>
       <r>   7.0299  1.0000</r>
       <r>   7.0299  1.0000</r>
       <r>   7.0299  1.0000</r>
       <r>   7.0299  1.0000</r>
       <r>  12.7298  0.0000</r>
       <r>  12.7298  0.0000</r>
       <r>  12.7298  0.0000</r>
       <r>  12.7298  0.0000</r>
      </set>
      <set comment="kpoint 65">
       <r>  -1.5682  1.0000</r>
       <r>   2.7616  1.0000</r>
       <r>   2.7616  1.0000</r>
       <r>   2.7616  1.0000</r>
       <r>   6.9789  1.0000</r>
       <r>   6.9789  1.0000</r>
       <r>   6.9789  1.0000</r>
       <r>  11.1059  0.0000</r>
       <r>  11.3081  0.0000</r>
       <r>  11.3081  0.0000</r>
       <r>  11.3081  0.0000</r>
       <r>  14.6252  0.0000</r>
      </set>
      <set comment="kpoint 66">
       <r>  -1.1408  1.0000</r>
       <r>   1.7541  1.0000</r>
       <r>   3.1759  1.0000</r>
       <r>   3.1759  1.0000</r>
       <r>   5.9993  1.0000</r>
       <r>   5.9993  1.0000</r>
       <r>   7.3857  1.0000</r>
       <r>  10.1446  0.0000</r>
       <r>  11.7019  0.0000</r>
       <r>  11.7019  0.0000</r>
       <r>  13.0530  0.0000</r>
       <r>  14.2717  0.0000</r>
      </set>
      <set comment="kpoint 67">
       <r>  -0.5932  1.0000</r>
       <r>   0.8565  1.0000</r>
       <r>   3.7052  1.0000</r>
       <r>   3.7052  1.0000</r>
       <r>   5.1286  1.0000</r>
       <r>   5.1286  1.0000</r>
       <r>   7.9070  0.0000</r>
       <r>   9.2884  0.0000</r>
       <r>  12.1953  0.0000</r>
       <r>  12.1953  0.0000</r>
       <r>  13.5528  0.0000</r>
       <r>  13.5528  0.0000</r>
      </set>
      <set comment="kpoint 68">
       <r>   0.0732  1.0000</r>
       <r>   0.0732  1.0000</r>
       <r>   4.2651  1.0000</r>
       <r>   4.2651  1.0000</r>
       <r>   4.4547  1.0000</r>
       <r>   4.4547  1.0000</r>
       <r>   8.5417  0.0000</r>
       <r>   8.5417  0.0000</r>
       <r>  12.6438  0.0000</r>
       <r>  12.6438  0.0000</r>
       <r>  13.0158  0.0000</r>
       <r>  13.0158  0.0000</r>
      </set>
      <set comment="kpoint 69">
       <r>  -0.7147  1.0000</r>
       <r>   2.1719  1.0000</r>
       <r>   2.1719  1.0000</r>
       <r>   3.5875  1.0000</r>
       <r>   5.0152  1.0000</r>
       <r>   6.4069  1.0000</r>
       <r>   6.4069  1.0000</r>
       <r>   9.1786  0.0000</r>
       <r>  12.1000  0.0000</r>
       <r>  13.4347  0.0000</r>
       <r>  13.4347  0.0000</r>
       <r>  14.6562  0.0000</r>
      </set>
      <set comment="kpoint 70">
       <r>  -0.1687  1.0000</r>
       <r>   1.2770  1.0000</r>
       <r>   2.7070  1.0000</r>
       <r>   4.0367  1.0000</r>
       <r>   4.2179  1.0000</r>
       <r>   5.5356  1.0000</r>
       <r>   6.9303  1.0000</r>
       <r>   8.3183  0.0000</r>
       <r>  12.6021  0.0000</r>
       <r>  13.7737  0.0000</r>
       <r>  14.0829  0.0000</r>
       <r>  15.0770  0.0000</r>
      </set>
      <set comment="kpoint 71">
       <r>   0.4958  1.0000</r>
       <r>   0.4958  1.0000</r>
       <r>   3.3568  1.0000</r>
       <r>   3.3568  1.0000</r>
       <r>   4.7775  1.0000</r>
       <r>   4.7775  1.0000</r>
       <r>   7.5680  1.0000</r>
       <r>   7.5680  1.0000</r>
       <r>  13.1997  0.0000</r>
       <r>  13.1997  0.0000</r>
       <r>  14.5424  0.0000</r>
       <r>  14.5424  0.0000</r>
      </set>
      <set comment="kpoint 72">
       <r>   0.3754  1.0000</r>
       <r>   1.8157  1.0000</r>
       <r>   1.8157  1.0000</r>
       <r>   3.2400  1.0000</r>
       <r>   4.6601  1.0000</r>
       <r>   6.0606  1.0000</r>
       <r>   6.0606  1.0000</r>
       <r>   7.4542  1.0000</r>
       <r>  13.1060  0.0000</r>
       <r>  14.3947  0.0000</r>
       <r>  14.3947  0.0000</r>
       <r>  15.6804  0.0000</r>
      </set>
      <set comment="kpoint 73">
       <r>   1.0375  1.0000</r>
       <r>   1.0375  1.0000</r>
       <r>   2.4711  1.0000</r>
       <r>   2.4711  1.0000</r>
       <r>   5.3025  1.0000</r>
       <r>   5.3025  1.0000</r>
       <r>   6.7008  1.0000</r>
       <r>   6.7008  1.0000</r>
       <r>  13.7085  0.0000</r>
       <r>  13.7085  0.0000</r>
       <r>  14.9964  0.0000</r>
       <r>  14.9964  0.0000</r>
      </set>
      <set comment="kpoint 74">
       <r>   1.6966  1.0000</r>
       <r>   1.6966  1.0000</r>
       <r>   1.6966  1.0000</r>
       <r>   1.6966  1.0000</r>
       <r>   5.9447  1.0000</r>
       <r>   5.9447  1.0000</r>
       <r>   5.9447  1.0000</r>
       <r>   5.9447  1.0000</r>
       <r>  14.3101  0.0000</r>
       <r>  14.3101  0.0000</r>
       <r>  14.3101  0.0000</r>
       <r>  14.3101  0.0000</r>
      </set>
      <set comment="kpoint 75">
       <r>  -0.2898  1.0000</r>
       <r>   2.5883  1.0000</r>
       <r>   2.5883  1.0000</r>
       <r>   2.5883  1.0000</r>
       <r>   5.4227  1.0000</r>
       <r>   5.4227  1.0000</r>
       <r>   5.4227  1.0000</r>
       <r>   8.2079  0.0000</r>
       <r>  13.8295  0.0000</r>
       <r>  13.8295  0.0000</r>
       <r>  13.8295  0.0000</r>
       <r>  15.7439  0.0000</r>
      </set>
      <set comment="kpoint 76">
       <r>   0.2547  1.0000</r>
       <r>   1.6962  1.0000</r>
       <r>   3.1208  1.0000</r>
       <r>   3.1208  1.0000</r>
       <r>   4.5474  1.0000</r>
       <r>   4.5474  1.0000</r>
       <r>   5.9482  1.0000</r>
       <r>   7.3432  1.0000</r>
       <r>  14.3145  0.0000</r>
       <r>  14.3145  0.0000</r>
       <r>  15.5235  0.0000</r>
       <r>  15.5265  0.0000</r>
      </set>
      <set comment="kpoint 77">
       <r>   0.9173  1.0000</r>
       <r>   0.9173  1.0000</r>
       <r>   3.6938  1.0000</r>
       <r>   3.6938  1.0000</r>
       <r>   3.8598  1.0000</r>
       <r>   3.8598  1.0000</r>
       <r>   6.5891  1.0000</r>
       <r>   6.5891  1.0000</r>
       <r>  14.7800  0.0000</r>
       <r>  14.7800  0.0000</r>
       <r>  15.0279  0.0000</r>
       <r>  15.0279  0.0000</r>
      </set>
      <set comment="kpoint 78">
       <r>   0.7972  1.0000</r>
       <r>   2.2334  1.0000</r>
       <r>   2.2334  1.0000</r>
       <r>   3.5793  1.0000</r>
       <r>   3.7397  1.0000</r>
       <r>   5.0737  1.0000</r>
       <r>   5.0737  1.0000</r>
       <r>   6.4746  1.0000</r>
       <r>  14.8078  0.0000</r>
       <r>  15.9552  0.0000</r>
       <r>  15.9553  0.0000</r>
       <r>  16.1427  0.0000</r>
      </set>
      <set comment="kpoint 79">
       <r>   1.4575  1.0000</r>
       <r>   1.4575  1.0000</r>
       <r>   2.8859  1.0000</r>
       <r>   2.8859  1.0000</r>
       <r>   4.3124  1.0000</r>
       <r>   4.3124  1.0000</r>
       <r>   5.7171  1.0000</r>
       <r>   5.7171  1.0000</r>
       <r>  15.3809  0.0000</r>
       <r>  15.3809  0.0000</r>
       <r>  16.5715  0.0000</r>
       <r>  16.5741  0.0000</r>
      </set>
      <set comment="kpoint 80">
       <r>   2.1147  1.0000</r>
       <r>   2.1147  1.0000</r>
       <r>   2.1147  1.0000</r>
       <r>   2.1147  1.0000</r>
       <r>   4.9570  1.0000</r>
       <r>   4.9570  1.0000</r>
       <r>   4.9570  1.0000</r>
       <r>   4.9570  1.0000</r>
       <r>  15.9579  0.0000</r>
       <r>  15.9579  0.0000</r>
       <r>  15.9579  0.0000</r>
       <r>  15.9579  0.0000</r>
      </set>
      <set comment="kpoint 81">
       <r>   1.3378  1.0000</r>
       <r>   2.7676  1.0000</r>
       <r>   2.7676  1.0000</r>
       <r>   2.7676  1.0000</r>
       <r>   4.1958  1.0000</r>
       <r>   4.1958  1.0000</r>
       <r>   4.1958  1.0000</r>
       <r>   5.6019  1.0000</r>
       <r>  16.5631  0.0000</r>
       <r>  16.5631  0.0000</r>
       <r>  16.5631  0.0000</r>
       <r>  17.1847  0.0000</r>
      </set>
      <set comment="kpoint 82">
       <r>   1.9956  1.0000</r>
       <r>   1.9956  1.0000</r>
       <r>   3.3502  1.0000</r>
       <r>   3.3502  1.0000</r>
       <r>   3.4983  1.0000</r>
       <r>   3.4983  1.0000</r>
       <r>   4.8411  1.0000</r>
       <r>   4.8411  1.0000</r>
       <r>  17.0213  0.0000</r>
       <r>  17.0213  0.0000</r>
       <r>  17.1019  0.0000</r>
       <r>  17.1019  0.0000</r>
      </set>
      <set comment="kpoint 83">
       <r>   2.6496  1.0000</r>
       <r>   2.6496  1.0000</r>
       <r>   2.6496  1.0000</r>
       <r>   2.6496  1.0000</r>
       <r>   4.0782  1.0000</r>
       <r>   4.0782  1.0000</r>
       <r>   4.0782  1.0000</r>
       <r>   4.0782  1.0000</r>
       <r>  17.5853  0.0000</r>
       <r>  17.5853  0.0000</r>
       <r>  17.5853  0.0000</r>
       <r>  17.5853  0.0000</r>
      </set>
      <set comment="kpoint 84">
       <r>   3.2357  1.0000</r>
       <r>   3.2357  1.0000</r>
       <r>   3.2357  1.0000</r>
       <r>   3.2357  1.0000</r>
       <r>   3.3772  1.0000</r>
       <r>   3.3772  1.0000</r>
       <r>   3.3772  1.0000</r>
       <r>   3.3772  1.0000</r>
       <r>  18.8469  0.0000</r>
       <r>  18.8469  0.0000</r>
       <r>  18.8469  0.0000</r>
       <r>  18.8469  0.0000</r>
      </set>
     </set>
    </set>
   </array>
  </eigenvalues>
 </calculation>
 <structure name="finalpos" >
  <crystal>
   <varray name="basis" >
    <v>       4.07767943      0.00000000      0.00000000</v>
    <v>       0.00000000      4.07767943      0.00000000</v>
    <v>       0.00000000      0.00000000      4.07767943</v>
   </varray>
   <i name="volume">     67.80149066</i>
   <varray name="rec_basis" >
    <v>       0.24523752      0.00000000      0.00000000</v>
    <v>       0.00000000      0.24523752      0.00000000</v>
    <v>       0.00000000      0.00000000      0.24523752</v>
   </varray>
  </crystal>
  <varray name="positions" >
   <v>       0.50000000      0.50000000      0.00000000</v>
   <v>       0.50000000      0.00000000      0.50000000</v>
   <v>       0.00000000      0.50000000      0.50000000</v>
   <v>       0.00000000      0.00000000      0.00000000</v>
  </varray>
 </structure>
</modeling>
