   4   4   0   0
  0.1030698E+02  0.3454595E-09  0.3454595E-09  0.3454595E-09  0.5000000E-15
  1.000000000000000E-004
  CAR 
 unknown system                          
     16.77781823     -6.44020216  301      5.08370910      1.00000000
     -6.440  0.0000E+00  0.0000E+00
     -6.363  0.0000E+00  0.0000E+00
     -6.285  0.0000E+00  0.0000E+00
     -6.208  0.0000E+00  0.0000E+00
     -6.131  0.0000E+00  0.0000E+00
     -6.053  0.0000E+00  0.0000E+00
     -5.976  0.0000E+00  0.0000E+00
     -5.898  0.0000E+00  0.0000E+00
     -5.821  0.0000E+00  0.0000E+00
     -5.744  0.0000E+00  0.0000E+00
     -5.666  0.0000E+00  0.0000E+00
     -5.589  0.0000E+00  0.0000E+00
     -5.511  0.0000E+00  0.0000E+00
     -5.434  0.2455E-13  0.1900E-14
     -5.357  0.1495E-01  0.1157E-02
     -5.279  0.8598E-01  0.7812E-02
     -5.202  0.5839E-01  0.1262E-01
     -5.125  0.1217E+00  0.2204E-01
     -5.047  0.1190E+00  0.3125E-01
     -4.970  0.8973E-01  0.3819E-01
     -4.892  0.3589E+00  0.6597E-01
     -4.815  0.3558E+00  0.9351E-01
     -4.738  0.0000E+00  0.9375E-01
     -4.660  0.1640E-01  0.9502E-01
     -4.583  0.1636E+00  0.1077E+00
     -4.505  0.4481E+00  0.1424E+00
     -4.428  0.3589E+00  0.1701E+00
     -4.351  0.3589E+00  0.1979E+00
     -4.273  0.1196E+00  0.2072E+00
     -4.196  0.3366E+00  0.2332E+00
     -4.118  0.4593E+00  0.2705E+00
     -4.041  0.2585E+00  0.2905E+00
     -3.964  0.4659E-03  0.2905E+00
     -3.886  0.9040E-01  0.2975E+00
     -3.809  0.7167E+00  0.3530E+00
     -3.731  0.5384E+00  0.3947E+00
     -3.654  0.3589E+00  0.4225E+00
     -3.577  0.3589E+00  0.4502E+00
     -3.499  0.7178E+00  0.5058E+00
     -3.422  0.3589E+00  0.5336E+00
     -3.344  0.1594E-15  0.5336E+00
     -3.267  0.3583E+00  0.5613E+00
     -3.190  0.3756E+00  0.5904E+00
     -3.112  0.9608E+00  0.6704E+00
     -3.035  0.4073E+00  0.7109E+00
     -2.957  0.1550E-13  0.7164E+00
     -2.880  0.9331E+00  0.7887E+00
     -2.803  0.7054E+00  0.8433E+00
     -2.725  0.0000E+00  0.8553E+00
     -2.648  0.8664E-01  0.8620E+00
     -2.571  0.8176E+00  0.9253E+00
     -2.493  0.6345E+00  0.9752E+00
     -2.416  0.7203E+00  0.1036E+01
     -2.338  0.4445E+00  0.1071E+01
     -2.261  0.4179E+00  0.1103E+01
     -2.184  0.1018E+01  0.1182E+01
     -2.106  0.3276E+00  0.1207E+01
     -2.029  0.6631E+00  0.1261E+01
     -1.951  0.1408E+01  0.1370E+01
     -1.874  0.4280E+00  0.1404E+01
     -1.797  0.1074E+01  0.1487E+01
     -1.719  0.4791E+00  0.1524E+01
     -1.642  0.7174E+00  0.1580E+01
     -1.564  0.9233E+00  0.1651E+01
     -1.487  0.1087E+01  0.1735E+01
     -1.410  0.3908E+00  0.1766E+01
     -1.332  0.1594E+01  0.1891E+01
     -1.255  0.2015E+01  0.2047E+01
     -1.177  0.1051E+01  0.2128E+01
     -1.100  0.1434E+01  0.2239E+01
     -1.023  0.6577E+00  0.2290E+01
     -0.945  0.1502E+01  0.2409E+01
     -0.868  0.2769E+01  0.2623E+01
     -0.790  0.2937E+01  0.2851E+01
     -0.713  0.2292E+01  0.3030E+01
     -0.636  0.5614E+01  0.3467E+01
     -0.558  0.2456E+01  0.3658E+01
     -0.481  0.5009E+01  0.4046E+01
     -0.404  0.4148E+01  0.4376E+01
     -0.326  0.3392E+01  0.4645E+01
     -0.249  0.5964E+01  0.5113E+01
     -0.171  0.4644E+01  0.5472E+01
     -0.094  0.3405E+01  0.5742E+01
     -0.017  0.8377E+01  0.6392E+01
      0.061  0.6206E+01  0.6895E+01
      0.138  0.7045E+01  0.7442E+01
      0.216  0.8536E+01  0.8109E+01
      0.293  0.7694E+01  0.8741E+01
      0.370  0.7541E+01  0.9336E+01
      0.448  0.5928E+01  0.9804E+01
      0.525  0.8073E+01  0.1043E+02
      0.603  0.6863E+01  0.1097E+02
      0.680  0.7459E+01  0.1155E+02
      0.757  0.5742E+01  0.1200E+02
      0.835  0.6109E+01  0.1247E+02
      0.912  0.7616E+01  0.1306E+02
      0.990  0.1016E+02  0.1386E+02
      1.067  0.6490E+01  0.1438E+02
      1.144  0.1025E+02  0.1520E+02
      1.222  0.7428E+01  0.1580E+02
      1.299  0.1338E+02  0.1686E+02
      1.377  0.1029E+02  0.1768E+02
      1.454  0.8854E+01  0.1838E+02
      1.531  0.1346E+02  0.1945E+02
      1.609  0.1215E+02  0.2044E+02
      1.686  0.1202E+02  0.2140E+02
      1.763  0.1730E+02  0.2277E+02
      1.841  0.1193E+02  0.2375E+02
      1.918  0.1035E+02  0.2456E+02
      1.996  0.8099E+01  0.2520E+02
      2.073  0.8606E+01  0.2588E+02
      2.150  0.8496E+01  0.2656E+02
      2.228  0.8982E+01  0.2728E+02
      2.305  0.9105E+01  0.2800E+02
      2.383  0.1087E+02  0.2885E+02
      2.460  0.1144E+02  0.2974E+02
      2.537  0.1134E+02  0.3064E+02
      2.615  0.1186E+02  0.3158E+02
      2.692  0.1149E+02  0.3251E+02
      2.770  0.9260E+01  0.3324E+02
      2.847  0.9288E+01  0.3396E+02
      2.924  0.1045E+02  0.3480E+02
      3.002  0.1172E+02  0.3575E+02
      3.079  0.9464E+01  0.3652E+02
      3.157  0.1609E+02  0.3780E+02
      3.234  0.1468E+02  0.3897E+02
      3.311  0.2112E+02  0.4062E+02
      3.389  0.1072E+02  0.4146E+02
      3.466  0.6824E+01  0.4200E+02
      3.544  0.5129E+00  0.4205E+02
      3.621  0.1098E+01  0.4213E+02
      3.698  0.1026E+01  0.4221E+02
      3.776  0.1526E+01  0.4234E+02
      3.853  0.3237E+01  0.4260E+02
      3.931  0.6562E+00  0.4265E+02
      4.008  0.9307E+00  0.4273E+02
      4.085  0.8613E+00  0.4280E+02
      4.163  0.7176E+00  0.4285E+02
      4.240  0.1349E+01  0.4296E+02
      4.317  0.2572E+01  0.4316E+02
      4.395  0.6578E+00  0.4321E+02
      4.472  0.1199E+01  0.4330E+02
      4.550  0.3209E-03  0.4332E+02
      4.627  0.1243E+01  0.4342E+02
      4.704  0.1272E+01  0.4352E+02
      4.782  0.1087E+01  0.4360E+02
      4.859  0.2799E+01  0.4382E+02
      4.937  0.9894E+00  0.4390E+02
      5.014  0.2486E-06  0.4390E+02
      5.091  0.1694E+01  0.4403E+02
      5.169  0.4616E+00  0.4407E+02
      5.246  0.9741E+00  0.4415E+02
      5.324  0.4298E-02  0.4415E+02
      5.401  0.2144E+01  0.4432E+02
      5.478  0.7915E+00  0.4438E+02
      5.556  0.1531E+01  0.4450E+02
      5.633  0.9082E+00  0.4457E+02
      5.711  0.7530E-01  0.4457E+02
      5.788  0.2793E+01  0.4479E+02
      5.865  0.1794E+01  0.4493E+02
      5.943  0.5466E+00  0.4497E+02
      6.020  0.8088E-01  0.4499E+02
      6.098  0.4203E+00  0.4502E+02
      6.175  0.1326E+01  0.4512E+02
      6.252  0.3588E+00  0.4516E+02
      6.330  0.3745E-03  0.4516E+02
      6.407  0.2148E+01  0.4532E+02
      6.484  0.9306E+00  0.4539E+02
      6.562  0.1213E+01  0.4549E+02
      6.639  0.1637E+01  0.4562E+02
      6.717  0.7177E+00  0.4567E+02
      6.794  0.8976E+00  0.4574E+02
      6.871  0.3612E+00  0.4577E+02
      6.949  0.8911E+00  0.4584E+02
      7.026  0.1368E+01  0.4595E+02
      7.104  0.2152E+01  0.4612E+02
      7.181  0.0000E+00  0.4612E+02
      7.258  0.2381E-07  0.4612E+02
      7.336  0.3608E+00  0.4615E+02
      7.413  0.1075E+01  0.4623E+02
      7.491  0.8738E+00  0.4630E+02
      7.568  0.1436E+01  0.4641E+02
      7.645  0.5739E+00  0.4645E+02
      7.723  0.1580E+00  0.4647E+02
      7.800  0.1786E+01  0.4660E+02
      7.878  0.1073E+01  0.4669E+02
      7.955  0.7163E+00  0.4674E+02
      8.032  0.5234E+00  0.4678E+02
      8.110  0.5534E+00  0.4683E+02
      8.187  0.3149E-03  0.4683E+02
      8.265  0.8961E+00  0.4690E+02
      8.342  0.1089E+01  0.4698E+02
      8.419  0.8658E+00  0.4705E+02
      8.497  0.7170E+00  0.4710E+02
      8.574  0.3594E+00  0.4713E+02
      8.652  0.3584E+00  0.4716E+02
      8.729  0.5384E+00  0.4720E+02
      8.806  0.7183E+00  0.4726E+02
      8.884  0.1076E+01  0.4734E+02
      8.961  0.7177E+00  0.4740E+02
      9.038  0.3571E+00  0.4742E+02
      9.116  0.5399E-13  0.4742E+02
      9.193  0.7177E+00  0.4748E+02
      9.271  0.2774E+00  0.4750E+02
      9.348  0.7994E+00  0.4756E+02
      9.425  0.7261E+00  0.4762E+02
      9.503  0.3832E-12  0.4763E+02
      9.580  0.4034E+00  0.4766E+02
      9.658  0.3382E+00  0.4769E+02
      9.735  0.7577E+00  0.4775E+02
      9.812  0.5679E+00  0.4780E+02
      9.890  0.1997E+01  0.4796E+02
      9.967  0.1099E+01  0.4804E+02
     10.045  0.1793E+01  0.4818E+02
     10.122  0.3589E+00  0.4821E+02
     10.199  0.1065E+01  0.4829E+02
     10.277  0.2293E+00  0.4831E+02
     10.354  0.1074E+01  0.4839E+02
     10.432  0.8506E+00  0.4846E+02
     10.509  0.8973E+00  0.4853E+02
     10.586  0.8855E+00  0.4860E+02
     10.664  0.1274E+01  0.4870E+02
     10.741  0.1928E+01  0.4885E+02
     10.819  0.2529E+00  0.4887E+02
     10.896  0.2160E+01  0.4903E+02
     10.973  0.6930E+00  0.4909E+02
     11.051  0.7176E+00  0.4914E+02
     11.128  0.1396E+01  0.4925E+02
     11.205  0.2944E-02  0.4925E+02
     11.283  0.7156E+00  0.4931E+02
     11.360  0.1235E+01  0.4941E+02
     11.438  0.8065E-01  0.4941E+02
     11.515  0.6451E+00  0.4946E+02
     11.592  0.1433E+01  0.4957E+02
     11.670  0.1217E+01  0.4967E+02
     11.747  0.2018E+00  0.4970E+02
     11.825  0.8916E+00  0.4977E+02
     11.902  0.1628E+00  0.4978E+02
     11.979  0.1929E+01  0.4993E+02
     12.057  0.8229E+00  0.5000E+02
     12.134  0.3556E-05  0.5000E+02
     12.212  0.1769E+01  0.5014E+02
     12.289  0.3842E+00  0.5017E+02
     12.366  0.3589E+00  0.5020E+02
     12.444  0.0000E+00  0.5020E+02
     12.521  0.3166E+00  0.5022E+02
     12.599  0.1309E+01  0.5033E+02
     12.676  0.7206E+00  0.5038E+02
     12.753  0.1034E+01  0.5046E+02
     12.831  0.0000E+00  0.5047E+02
     12.908  0.1640E+00  0.5048E+02
     12.986  0.3583E+00  0.5051E+02
     13.063  0.1231E+01  0.5060E+02
     13.140  0.9226E+00  0.5068E+02
     13.218  0.3584E+00  0.5070E+02
     13.295  0.5483E+00  0.5075E+02
     13.373  0.1407E+01  0.5086E+02
     13.450  0.9198E+00  0.5094E+02
     13.527  0.1327E+01  0.5104E+02
     13.605  0.1670E+00  0.5105E+02
     13.682  0.5384E+00  0.5109E+02
     13.759  0.1083E+01  0.5118E+02
     13.837  0.4988E+00  0.5123E+02
     13.914  0.2157E+00  0.5125E+02
     13.992  0.5821E+00  0.5130E+02
     14.069  0.2539E+01  0.5149E+02
     14.146  0.2950E-01  0.5150E+02
     14.224  0.1029E+01  0.5158E+02
     14.301  0.1249E+01  0.5168E+02
     14.379  0.0000E+00  0.5170E+02
     14.456  0.3217E-03  0.5170E+02
     14.533  0.1791E+00  0.5171E+02
     14.611  0.4426E+00  0.5174E+02
     14.688  0.1257E+01  0.5185E+02
     14.766  0.0000E+00  0.5185E+02
     14.843  0.2318E+00  0.5187E+02
     14.920  0.7254E+00  0.5192E+02
     14.998  0.6131E+00  0.5197E+02
     15.075  0.0000E+00  0.5198E+02
     15.153  0.0000E+00  0.5198E+02
     15.230  0.0000E+00  0.5198E+02
     15.307  0.0000E+00  0.5198E+02
     15.385  0.0000E+00  0.5198E+02
     15.462  0.0000E+00  0.5198E+02
     15.540  0.0000E+00  0.5198E+02
     15.617  0.0000E+00  0.5198E+02
     15.694  0.1248E-01  0.5198E+02
     15.772  0.2567E+00  0.5200E+02
     15.849  0.0000E+00  0.5200E+02
     15.926  0.0000E+00  0.5200E+02
     16.004  0.0000E+00  0.5200E+02
     16.081  0.0000E+00  0.5200E+02
     16.159  0.0000E+00  0.5200E+02
     16.236  0.0000E+00  0.5200E+02
     16.313  0.0000E+00  0.5200E+02
     16.391  0.0000E+00  0.5200E+02
     16.468  0.0000E+00  0.5200E+02
     16.546  0.0000E+00  0.5200E+02
     16.623  0.0000E+00  0.5200E+02
     16.700  0.0000E+00  0.5200E+02
     16.778  0.0000E+00  0.5200E+02
