    4    4    1    1
  0.1030698E+02  0.3454595E-09  0.3454595E-09  0.3454595E-09  0.5000000E-15
  1.000000000000000E-004
  CAR 
 unknown system                          
   44   84   26
 
  0.0000000E+00  0.0000000E+00  0.0000000E+00  0.5787037E-03
   1       -5.3848
   2       -0.7187
   3       -0.7187
   4       -0.7187
   5       -0.1703
   6       -0.1703
   7       -0.1703
   8        1.5491
   9        1.5491
  10        1.5491
  11        2.5722
  12        2.5722
  13        3.2499
  14        3.2499
  15        3.2499
  16        3.4408
  17        3.4408
  18        3.4408
  19        3.4408
  20        3.4408
  21        3.4408
  22        6.4712
  23        6.4712
  24        6.4712
  25       13.1840
  26       13.1840
 
  0.8333333E-01  0.0000000E+00  0.0000000E+00  0.3472222E-02
   1       -5.2915
   2       -0.7153
   3       -0.6721
   4       -0.6721
   5       -0.1429
   6       -0.1410
   7       -0.1410
   8        1.5177
   9        1.5736
  10        1.5736
  11        2.5437
  12        2.5835
  13        3.2130
  14        3.2130
  15        3.2381
  16        3.2447
  17        3.2447
  18        3.3975
  19        3.3975
  20        3.4408
  21        3.4408
  22        5.9519
  23        6.7475
  24        6.7475
  25       13.2111
  26       13.2111
 
  0.1666667E+00  0.0000000E+00  0.0000000E+00  0.3472222E-02
   1       -5.0140
   2       -0.7224
   3       -0.5388
   4       -0.5388
   5       -0.0622
   6       -0.0529
   7       -0.0529
   8        1.4263
   9        1.6467
  10        1.6467
  11        2.4615
  12        2.6165
  13        2.7969
  14        2.7969
  15        3.1060
  16        3.1060
  17        3.2035
  18        3.2738
  19        3.2738
  20        3.4410
  21        3.4410
  22        4.8211
  23        7.4354
  24        7.4354
  25       13.2948
  26       13.2948
 
  0.2500000E+00  0.0000000E+00  0.0000000E+00  0.3472222E-02
   1       -4.5601
   2       -0.8006
   3       -0.3394
   4       -0.3394
   5        0.0673
   6        0.0952
   7        0.0952
   8        1.2822
   9        1.7665
  10        1.7665
  11        2.2788
  12        2.2788
  13        2.3363
  14        2.6694
  15        2.9419
  16        2.9419
  17        3.0862
  18        3.0862
  19        3.1485
  20        3.4413
  21        3.4413
  22        3.6257
  23        8.3522
  24        8.3522
  25       13.4418
  26       13.4418
 
  0.3333333E+00  0.0000000E+00  0.0000000E+00  0.3472222E-02
   1       -3.9455
   2       -1.0654
   3       -0.1130
   4       -0.1130
   5        0.2380
   6        0.3050
   7        0.3050
   8        1.0968
   9        1.7741
  10        1.7741
  11        1.9296
  12        1.9296
  13        2.1888
  14        2.6816
  15        2.7385
  16        2.7499
  17        2.7499
  18        2.8568
  19        2.8568
  20        3.0773
  21        3.4415
  22        3.4415
  23        9.4117
  24        9.4117
  25       13.6575
  26       13.6575
 
  0.4166667E+00  0.0000000E+00  0.0000000E+00  0.3472222E-02
   1       -3.2005
   2       -1.6171
   3        0.0778
   4        0.0778
   5        0.4398
   6        0.5780
   7        0.5780
   8        0.8843
   9        1.3152
  10        1.3152
  11        2.0558
  12        2.1305
  13        2.1305
  14        2.1576
  15        2.5838
  16        2.5838
  17        2.6082
  18        2.6082
  19        2.8194
  20        2.9948
  21        3.4417
  22        3.4417
  23       10.5781
  24       10.5781
  25       13.1685
  26       13.1685
 
  0.5000000E+00  0.0000000E+00  0.0000000E+00  0.1736111E-02
   1       -2.3851
   2       -2.3851
   3        0.1551
   4        0.1551
   5        0.6601
   6        0.6601
   7        0.9150
   8        0.9150
   9        0.9150
  10        0.9150
  11        2.0045
  12        2.0045
  13        2.3607
  14        2.3607
  15        2.3607
  16        2.3607
  17        2.5154
  18        2.5154
  19        2.9068
  20        2.9068
  21        3.4418
  22        3.4418
  23       11.8340
  24       11.8340
  25       11.8340
  26       11.8340
 
  0.8333333E-01  0.8333333E-01  0.0000000E+00  0.6944444E-02
   1       -5.1987
   2       -0.6677
   3       -0.6677
   4       -0.6265
   5       -0.1142
   6       -0.1142
   7       -0.1128
   8        1.4999
   9        1.5853
  10        1.5957
  11        2.5358
  12        2.5767
  13        3.1020
  14        3.1486
  15        3.1486
  16        3.1778
  17        3.2437
  18        3.2437
  19        3.3974
  20        3.3974
  21        3.4133
  22        6.2273
  23        6.2273
  24        6.9982
  25       13.2367
  26       13.9154
 
  0.1666667E+00  0.8333333E-01  0.0000000E+00  0.1388889E-01
   1       -4.9226
   2       -0.6718
   3       -0.5314
   4       -0.4961
   5       -0.0351
   6       -0.0279
   7       -0.0277
   8        1.4175
   9        1.6514
  10        1.6607
  11        2.4646
  12        2.6069
  13        2.7123
  14        2.7153
  15        2.9849
  16        3.0752
  17        3.1145
  18        3.2093
  19        3.2735
  20        3.3973
  21        3.3983
  22        5.1228
  23        6.8888
  24        7.6436
  25       13.3122
  26       14.0336
 
  0.2500000E+00  0.8333333E-01  0.0000000E+00  0.1388889E-01
   1       -4.4710
   2       -0.7450
   3       -0.3271
   4       -0.3004
   5        0.0918
   6        0.1138
   7        0.1176
   8        1.2786
   9        1.7636
  10        1.7690
  11        2.2016
  12        2.2313
  13        2.3501
  14        2.6660
  15        2.7060
  16        2.9174
  17        2.9501
  18        3.0857
  19        3.1382
  20        3.3948
  21        3.3970
  22        4.0279
  23        7.7413
  24        8.5279
  25       13.4091
  26       14.2385
 
  0.3333333E+00  0.8333333E-01  0.0000000E+00  0.1388889E-01
   1       -3.8600
   2       -1.0037
   3       -0.0934
   4       -0.0756
   5        0.2590
   6        0.3107
   7        0.3231
   8        1.0982
   9        1.7067
  10        1.7506
  11        1.8814
  12        1.9309
  13        2.2383
  14        2.3056
  15        2.7328
  16        2.7448
  17        2.7583
  18        2.8561
  19        2.9996
  20        3.3194
  21        3.3942
  22        3.3966
  23        8.7014
  24        9.5653
  25       13.0822
  26       14.0078
 
  0.4166667E+00  0.8333333E-01  0.0000000E+00  0.1388889E-01
   1       -3.1198
   2       -1.5491
   3        0.1066
   4        0.1171
   5        0.4565
   6        0.5626
   7        0.5902
   8        0.8909
   9        1.2610
  10        1.3079
  11        1.9170
  12        1.9808
  13        2.1310
  14        2.2581
  15        2.5746
  16        2.5895
  17        2.6077
  18        2.7215
  19        2.8383
  20        3.0668
  21        3.3946
  22        3.3960
  23        9.7358
  24       10.7167
  25       11.9762
  26       13.2901
 
  0.5000000E+00  0.8333333E-01  0.0000000E+00  0.6944444E-02
   1       -2.3105
   2       -2.3105
   3        0.1924
   4        0.1924
   5        0.6719
   6        0.6719
   7        0.8777
   8        0.8777
   9        0.9190
  10        0.9190
  11        1.8854
  12        1.8854
  13        2.3606
  14        2.3606
  15        2.4514
  16        2.4514
  17        2.5146
  18        2.5146
  19        2.9434
  20        2.9434
  21        3.3953
  22        3.3953
  23       10.8306
  24       10.8306
  25       11.9623
  26       11.9623
 
  0.1666667E+00  0.1666667E+00  0.0000000E+00  0.6944444E-02
   1       -4.6507
   2       -0.5265
   3       -0.5265
   4       -0.3739
   5        0.0465
   6        0.0465
   7        0.0472
   8        1.3672
   9        1.6910
  10        1.7014
  11        2.4386
  12        2.4571
  13        2.5049
  14        2.5049
  15        2.6164
  16        2.9849
  17        3.1052
  18        3.1052
  19        3.2726
  20        3.2726
  21        3.3316
  22        5.7653
  23        5.7653
  24        8.2078
  25       13.3151
  26       14.6440
 
  0.2500000E+00  0.1666667E+00  0.0000000E+00  0.1388889E-01
   1       -4.2067
   2       -0.5847
   3       -0.3068
   4       -0.1896
   5        0.1653
   6        0.1701
   7        0.1833
   8        1.2558
   9        1.7603
  10        1.7900
  11        2.0009
  12        2.0852
  13        2.2051
  14        2.3578
  15        2.6860
  16        2.8448
  17        2.9486
  18        3.0460
  19        3.0841
  20        3.2713
  21        3.2930
  22        4.6598
  23        6.5358
  24        9.0203
  25       12.7447
  26       13.9164
 
  0.3333333E+00  0.1666667E+00  0.0000000E+00  0.1388889E-01
   1       -3.6068
   2       -0.8253
   3       -0.0509
   4        0.0292
   5        0.3217
   6        0.3310
   7        0.3762
   8        1.0966
   9        1.5331
  10        1.6775
  11        1.8038
  12        1.8902
  13        1.9421
  14        2.2898
  15        2.6800
  16        2.7615
  17        2.7958
  18        2.8546
  19        2.9205
  20        3.2696
  21        3.2759
  22        3.8457
  23        7.3801
  24       10.0045
  25       11.5317
  26       14.0618
 
  0.4166667E+00  0.1666667E+00  0.0000000E+00  0.1388889E-01
   1       -2.8819
   2       -1.3515
   3        0.1789
   4        0.2298
   5        0.5059
   6        0.5197
   7        0.6254
   8        0.9078
   9        1.1206
  10        1.2841
  11        1.7061
  12        1.7707
  13        2.1364
  14        2.3338
  15        2.5421
  16        2.5901
  17        2.6071
  18        2.7219
  19        2.9349
  20        3.2681
  21        3.2692
  22        3.3712
  23        8.2898
  24       10.3518
  25       11.1177
  26       13.6459
 
  0.5000000E+00  0.1666667E+00  0.0000000E+00  0.6944444E-02
   1       -2.0920
   2       -2.0920
   3        0.2964
   4        0.2964
   5        0.7058
   6        0.7058
   7        0.7761
   8        0.7761
   9        0.9296
  10        0.9296
  11        1.6979
  12        1.6979
  13        2.3623
  14        2.3623
  15        2.4998
  16        2.4998
  17        2.5019
  18        2.5019
  19        3.1106
  20        3.1106
  21        3.2675
  22        3.2675
  23        9.2745
  24        9.2745
  25       12.3364
  26       12.3364
 
  0.2500000E+00  0.2500000E+00  0.0000000E+00  0.6944444E-02
   1       -3.7758
   2       -0.3402
   3       -0.3402
   4       -0.0244
   5        0.2634
   6        0.2882
   7        0.2882
   8        1.1905
   9        1.7399
  10        1.7399
  11        1.7602
  12        1.8471
  13        1.8569
  14        2.3130
  15        2.7293
  16        2.7794
  17        2.8998
  18        2.8998
  19        3.0822
  20        3.0822
  21        3.1985
  22        5.3515
  23        5.3515
  24        9.7587
  25       11.3517
  26       14.0037
 
  0.3333333E+00  0.2500000E+00  0.0000000E+00  0.1388889E-01
   1       -3.1959
   2       -0.5518
   3       -0.0490
   4        0.1743
   5        0.3774
   6        0.4255
   7        0.4602
   8        1.0763
   9        1.3265
  10        1.5217
  11        1.5508
  12        1.7404
  13        1.9817
  14        2.2619
  15        2.5905
  16        2.7219
  17        2.7849
  18        2.8536
  19        2.9370
  20        3.0807
  21        3.1369
  22        4.4210
  23        6.0964
  24       10.0235
  25       10.6810
  26       14.2939
 
  0.4166667E+00  0.2500000E+00  0.0000000E+00  0.1388889E-01
   1       -2.4995
   2       -1.0454
   3        0.2287
   4        0.3938
   5        0.4621
   6        0.5857
   7        0.6796
   8        0.9260
   9        0.9683
  10        1.2388
  11        1.4582
  12        1.6583
  13        2.1577
  14        2.2932
  15        2.4765
  16        2.5531
  17        2.6099
  18        2.6110
  19        3.0816
  20        3.1035
  21        3.1420
  22        3.7987
  23        6.9091
  24        8.8457
  25       11.7461
  26       14.2134
 
  0.5000000E+00  0.2500000E+00  0.0000000E+00  0.6944444E-02
   1       -1.7464
   2       -1.7464
   3        0.4134
   4        0.4134
   5        0.6641
   6        0.6641
   7        0.7572
   8        0.7572
   9        0.9423
  10        0.9423
  11        1.5355
  12        1.5355
  13        2.3720
  14        2.3720
  15        2.4255
  16        2.4255
  17        2.4556
  18        2.4556
  19        3.0876
  20        3.0876
  21        3.4087
  22        3.4087
  23        7.8154
  24        7.8154
  25       12.9290
  26       12.9290
 
  0.3333333E+00  0.3333333E+00  0.0000000E+00  0.6944444E-02
   1       -2.6476
   2       -0.2240
   3       -0.2240
   4        0.3015
   5        0.4746
   6        0.5683
   7        0.5683
   8        1.0225
   9        1.2086
  10        1.2086
  11        1.3749
  12        1.6782
  13        2.0691
  14        2.2003
  15        2.4758
  16        2.6180
  17        2.6180
  18        2.8560
  19        2.8560
  20        3.0191
  21        3.1525
  22        5.0482
  23        5.0482
  24        8.6840
  25       11.5462
  26       14.6518
 
  0.4166667E+00  0.3333333E+00  0.0000000E+00  0.1388889E-01
   1       -1.9973
   2       -0.6707
   3        0.0915
   4        0.3601
   5        0.6121
   6        0.6914
   7        0.7460
   8        0.9329
   9        0.9550
  10        1.1668
  11        1.2589
  12        1.5709
  13        2.1988
  14        2.2109
  15        2.3773
  16        2.4578
  17        2.4601
  18        2.6215
  19        2.8661
  20        2.9382
  21        3.4266
  22        4.2922
  23        5.7510
  24        7.5342
  25       12.5634
  26       14.9647
 
  0.5000000E+00  0.3333333E+00  0.0000000E+00  0.6944444E-02
   1       -1.3058
   2       -1.3058
   3        0.3051
   4        0.3051
   5        0.7617
   6        0.7617
   7        0.8176
   8        0.8176
   9        0.9502
  10        0.9502
  11        1.4108
  12        1.4108
  13        2.2984
  14        2.2984
  15        2.3625
  16        2.3625
  17        2.4001
  18        2.4001
  19        2.8905
  20        2.8905
  21        3.7832
  22        3.7832
  23        6.5663
  24        6.5663
  25       13.7083
  26       13.7083
 
  0.4166667E+00  0.4166667E+00  0.0000000E+00  0.6944444E-02
   1       -1.4170
   2       -0.2902
   3       -0.2902
   4        0.2317
   5        0.8110
   6        0.8151
   7        0.8151
   8        0.9171
   9        1.0667
  10        1.1066
  11        1.1066
  12        1.4671
  13        2.1403
  14        2.2763
  15        2.3100
  16        2.3166
  17        2.3166
  18        2.6505
  19        2.6505
  20        2.8023
  21        3.7792
  22        4.8670
  23        4.8670
  24        6.4431
  25       13.5378
  26       15.7048
 
  0.5000000E+00  0.4166667E+00  0.0000000E+00  0.6944444E-02
   1       -0.8216
   2       -0.8216
   3        0.0229
   4        0.0229
   5        0.8758
   6        0.8758
   7        0.9451
   8        0.9451
   9        0.9728
  10        0.9728
  11        1.3040
  12        1.3040
  13        2.1863
  14        2.1863
  15        2.2424
  16        2.2424
  17        2.4592
  18        2.4592
  19        2.7074
  20        2.7074
  21        4.2351
  22        4.2351
  23        5.5665
  24        5.5665
  25       14.6464
  26       14.6464
 
  0.5000000E+00  0.5000000E+00  0.0000000E+00  0.1736111E-02
   1       -0.3601
   2       -0.3601
   3       -0.3601
   4       -0.3601
   5        0.9206
   6        0.9206
   7        0.9206
   8        0.9206
   9        1.1663
  10        1.1663
  11        1.1663
  12        1.1663
  13        2.1617
  14        2.1617
  15        2.1617
  16        2.1617
  17        2.5606
  18        2.5606
  19        2.5606
  20        2.5606
  21        4.8075
  22        4.8075
  23        4.8075
  24        4.8075
  25       15.7225
  26       15.7225
 
  0.8333333E-01  0.8333333E-01  0.8333333E-01  0.4629630E-02
   1       -5.1064
   2       -0.6213
   3       -0.6213
   4       -0.6213
   5       -0.0864
   6       -0.0864
   7       -0.0864
   8        1.4833
   9        1.6058
  10        1.6058
  11        2.5502
  12        2.5502
  13        3.0408
  14        3.0408
  15        3.0408
  16        3.1459
  17        3.1459
  18        3.1459
  19        3.3931
  20        3.3931
  21        3.3931
  22        6.4710
  23        6.4710
  24        6.4710
  25       13.9524
  26       13.9524
 
  0.1666667E+00  0.8333333E-01  0.8333333E-01  0.1388889E-01
   1       -4.8317
   2       -0.6229
   3       -0.4884
   4       -0.4884
   5       -0.0088
   6       -0.0030
   7       -0.0030
   8        1.4085
   9        1.6619
  10        1.6671
  11        2.4752
  12        2.5923
  13        2.6391
  14        2.6391
  15        2.8556
  16        3.0501
  17        3.0517
  18        3.0517
  19        3.3390
  20        3.3797
  21        3.3797
  22        5.3655
  23        7.0828
  24        7.0828
  25       14.0603
  26       14.0603
 
  0.2500000E+00  0.8333333E-01  0.8333333E-01  0.1388889E-01
   1       -4.3828
   2       -0.6920
   3       -0.2886
   4       -0.2886
   5        0.1159
   6        0.1358
   7        0.1358
   8        1.2758
   9        1.7614
  10        1.7682
  11        2.1598
  12        2.1598
  13        2.3701
  14        2.5435
  15        2.6591
  16        2.8968
  17        2.9069
  18        2.9069
  19        3.2620
  20        3.3684
  21        3.3684
  22        4.2685
  23        7.8977
  24        7.8977
  25       14.1587
  26       14.1587
 
  0.3333333E+00  0.8333333E-01  0.8333333E-01  0.1388889E-01
   1       -3.7757
   2       -0.9454
   3       -0.0575
   4       -0.0575
   5        0.2803
   6        0.3274
   7        0.3274
   8        1.1010
   9        1.6897
  10        1.6897
  11        1.8609
  12        1.9068
  13        2.1558
  14        2.2903
  15        2.7030
  16        2.7294
  17        2.7294
  18        2.7460
  19        3.1691
  20        3.3620
  21        3.3620
  22        3.4633
  23        8.8286
  24        8.8286
  25       13.3566
  26       13.3566
 
  0.4166667E+00  0.8333333E-01  0.8333333E-01  0.1388889E-01
   1       -3.0409
   2       -1.4843
   3        0.1453
   4        0.1453
   5        0.4742
   6        0.5658
   7        0.5658
   8        0.8991
   9        1.2666
  10        1.2666
  11        1.8639
  12        1.8819
  13        2.0787
  14        2.3629
  15        2.4898
  16        2.5717
  17        2.5717
  18        2.8471
  19        2.9493
  20        3.0652
  21        3.3590
  22        3.3590
  23        9.8269
  24        9.8269
  25       12.1737
  26       12.1737
 
  0.5000000E+00  0.8333333E-01  0.8333333E-01  0.6944444E-02
   1       -2.2384
   2       -2.2384
   3        0.2305
   4        0.2305
   5        0.6851
   6        0.6851
   7        0.7880
   8        0.7880
   9        0.9780
  10        0.9780
  11        1.8176
  12        1.8176
  13        2.2767
  14        2.2767
  15        2.5059
  16        2.5059
  17        2.5993
  18        2.5993
  19        2.9557
  20        2.9557
  21        3.3581
  22        3.3581
  23       10.6316
  24       10.6316
  25       11.3033
  26       11.3033
 
  0.1666667E+00  0.1666667E+00  0.8333333E-01  0.1388889E-01
   1       -4.5617
   2       -0.4828
   3       -0.4828
   4       -0.3655
   5        0.0703
   6        0.0703
   7        0.0709
   8        1.3613
   9        1.6972
  10        1.7030
  11        2.3928
  12        2.4372
  13        2.4372
  14        2.4646
  15        2.5948
  16        2.9308
  17        2.9662
  18        2.9662
  19        3.3310
  20        3.3310
  21        3.3419
  22        5.9380
  23        5.9380
  24        7.6008
  25       14.0234
  26       14.8454
 
  0.2500000E+00  0.1666667E+00  0.8333333E-01  0.2777778E-01
   1       -4.1209
   2       -0.5400
   3       -0.2711
   4       -0.1803
   5        0.1886
   6        0.1915
   7        0.2017
   8        1.2563
   9        1.7584
  10        1.7799
  11        1.9704
  12        2.0276
  13        2.1420
  14        2.3947
  15        2.6705
  16        2.7974
  17        2.8145
  18        2.8529
  19        3.2569
  20        3.2998
  21        3.3034
  22        4.8010
  23        6.6645
  24        8.3283
  25       13.0293
  26       14.6156
 
  0.3333333E+00  0.1666667E+00  0.8333333E-01  0.2777778E-01
   1       -3.5260
   2       -0.7780
   3       -0.0225
   4        0.0407
   5        0.3446
   6        0.3453
   7        0.3791
   8        1.1039
   9        1.5332
  10        1.6352
  11        1.7967
  12        1.8391
  13        1.8994
  14        2.3584
  15        2.6216
  16        2.6474
  17        2.6991
  18        2.7843
  19        3.1468
  20        3.2751
  21        3.2760
  22        3.9208
  23        7.4776
  24        9.1681
  25       11.7742
  26       13.7557
 
  0.4166667E+00  0.1666667E+00  0.8333333E-01  0.2777778E-01
   1       -2.8082
   2       -1.2973
   3        0.2102
   4        0.2542
   5        0.5031
   6        0.5275
   7        0.5765
   8        0.9213
   9        1.1665
  10        1.2756
  11        1.6719
  12        1.7546
  13        2.0463
  14        2.4164
  15        2.4604
  16        2.5161
  17        2.5483
  18        2.9217
  19        2.9663
  20        3.2613
  21        3.2615
  22        3.3658
  23        8.3557
  24        9.8547
  25       10.8773
  26       12.5377
 
  0.5000000E+00  0.1666667E+00  0.8333333E-01  0.1388889E-01
   1       -2.0276
   2       -2.0276
   3        0.3365
   4        0.3365
   5        0.6509
   6        0.6509
   7        0.7243
   8        0.7243
   9        1.0311
  10        1.0311
  11        1.6747
  12        1.6747
  13        2.2203
  14        2.2203
  15        2.4719
  16        2.4719
  17        2.6956
  18        2.6956
  19        3.0894
  20        3.0894
  21        3.2571
  22        3.2571
  23        9.2757
  24        9.2757
  25       11.4463
  26       11.4463
 
  0.2500000E+00  0.2500000E+00  0.8333333E-01  0.1388889E-01
   1       -3.6945
   2       -0.3106
   3       -0.3106
   4       -0.0215
   5        0.2846
   6        0.3097
   7        0.3097
   8        1.1979
   9        1.7225
  10        1.7225
  11        1.7577
  12        1.8074
  13        1.8278
  14        2.3697
  15        2.6635
  16        2.7305
  17        2.7305
  18        2.7608
  19        3.2033
  20        3.2033
  21        3.2318
  22        5.4472
  23        5.4472
  24        8.9370
  25       11.6081
  26       14.8471
 
  0.3333333E+00  0.2500000E+00  0.8333333E-01  0.2777778E-01
   1       -3.1218
   2       -0.5262
   3       -0.0413
   4        0.1642
   5        0.3978
   6        0.4528
   7        0.4720
   8        1.0924
   9        1.3489
  10        1.5167
  11        1.5372
  12        1.7380
  13        1.9133
  14        2.3561
  15        2.5293
  16        2.5537
  17        2.6102
  18        2.9177
  19        3.0711
  20        3.1522
  21        3.1712
  22        4.4692
  23        6.1643
  24        9.4203
  25       10.6019
  26       14.2946
 
  0.4166667E+00  0.2500000E+00  0.8333333E-01  0.2777778E-01
   1       -2.4357
   2       -1.0115
   3        0.2175
   4        0.3607
   5        0.4739
   6        0.6170
   7        0.6262
   8        0.9504
   9        1.0725
  10        1.2724
  11        1.4580
  12        1.6558
  13        2.0281
  14        2.3587
  15        2.4223
  16        2.4521
  17        2.4778
  18        2.8836
  19        3.1195
  20        3.1227
  21        3.1319
  22        3.7980
  23        6.9537
  24        8.7812
  25       10.9973
  26       13.0686
 
  0.5000000E+00  0.2500000E+00  0.8333333E-01  0.1388889E-01
   1       -1.6968
   2       -1.6968
   3        0.4028
   4        0.4028
   5        0.5778
   6        0.5778
   7        0.7873
   8        0.7873
   9        1.0679
  10        1.0679
  11        1.5343
  12        1.5343
  13        2.1773
  14        2.1773
  15        2.3977
  16        2.3977
  17        2.6534
  18        2.6534
  19        3.1160
  20        3.1160
  21        3.3863
  22        3.3863
  23        7.8295
  24        7.8295
  25       11.9580
  26       11.9580
 
  0.3333333E+00  0.3333333E+00  0.8333333E-01  0.1388889E-01
   1       -2.5840
   2       -0.2347
   3       -0.2347
   4        0.2495
   5        0.5124
   6        0.6021
   7        0.6021
   8        1.0511
   9        1.2417
  10        1.2417
  11        1.4003
  12        1.6797
  13        1.9469
  14        2.3438
  15        2.4029
  16        2.4613
  17        2.4613
  18        2.9982
  19        2.9982
  20        3.0720
  21        3.1297
  22        5.0795
  23        5.0795
  24        8.5953
  25       10.8458
  26       14.9939
 
  0.4166667E+00  0.3333333E+00  0.8333333E-01  0.2777778E-01
   1       -1.9497
   2       -0.6704
   3        0.0326
   4        0.2732
   5        0.6499
   6        0.7420
   7        0.7593
   8        0.9746
   9        1.0549
  10        1.2436
  11        1.2813
  12        1.5761
  13        2.0088
  14        2.2850
  15        2.3037
  16        2.3526
  17        2.4210
  18        2.8059
  19        2.9567
  20        2.9960
  21        3.4009
  22        4.2881
  23        5.7695
  24        7.5169
  25       11.6661
  26       13.7631
 
  0.5000000E+00  0.3333333E+00  0.8333333E-01  0.1388889E-01
   1       -1.2805
   2       -1.2805
   3        0.2111
   4        0.2111
   5        0.7618
   6        0.7618
   7        0.8689
   8        0.8689
   9        1.0881
  10        1.0881
  11        1.4218
  12        1.4218
  13        2.1234
  14        2.1234
  15        2.2821
  16        2.2821
  17        2.5945
  18        2.5945
  19        2.9560
  20        2.9560
  21        3.7602
  22        3.7602
  23        6.5716
  24        6.5716
  25       12.6523
  26       12.6523
 
  0.4166667E+00  0.4166667E+00  0.8333333E-01  0.1388889E-01
   1       -1.3939
   2       -0.3355
   3       -0.3355
   4        0.1328
   5        0.8420
   6        0.8913
   7        0.8913
   8        0.9803
   9        1.1484
  10        1.1484
  11        1.1808
  12        1.4787
  13        2.0032
  14        2.1953
  15        2.1991
  16        2.1991
  17        2.4604
  18        2.7704
  19        2.7704
  20        2.8756
  21        3.7516
  22        4.8593
  23        4.8593
  24        6.4335
  25       12.5135
  26       14.6063
 
  0.5000000E+00  0.4166667E+00  0.8333333E-01  0.1388889E-01
   1       -0.8317
   2       -0.8317
   3       -0.0629
   4       -0.0629
   5        0.9568
   6        0.9568
   7        0.9743
   8        0.9743
   9        1.0927
  10        1.0927
  11        1.3230
  12        1.3230
  13        2.0662
  14        2.0662
  15        2.1523
  16        2.1523
  17        2.5892
  18        2.5892
  19        2.7946
  20        2.7946
  21        4.2114
  22        4.2114
  23        5.5574
  24        5.5574
  25       13.4967
  26       13.4967
 
  0.5000000E+00  0.5000000E+00  0.8333333E-01  0.3472222E-02
   1       -0.4119
   2       -0.4119
   3       -0.4119
   4       -0.4119
   5        1.0255
   6        1.0255
   7        1.0255
   8        1.0255
   9        1.1949
  10        1.1949
  11        1.1949
  12        1.1949
  13        2.0648
  14        2.0648
  15        2.0648
  16        2.0648
  17        2.6610
  18        2.6610
  19        2.6610
  20        2.6610
  21        4.7875
  22        4.7875
  23        4.7875
  24        4.7875
  25       14.4766
  26       14.4766
 
  0.1666667E+00  0.1666667E+00  0.1666667E+00  0.4629630E-02
   1       -4.2975
   2       -0.3585
   3       -0.3585
   4       -0.3585
   5        0.1421
   6        0.1421
   7        0.1421
   8        1.3293
   9        1.7193
  10        1.7193
  11        2.2093
  12        2.2093
  13        2.2093
  14        2.5377
  15        2.5377
  16        2.7978
  17        2.7978
  18        2.7978
  19        3.3482
  20        3.3482
  21        3.3482
  22        6.3916
  23        6.3916
  24        6.3916
  25       14.8802
  26       14.8802
 
  0.2500000E+00  0.1666667E+00  0.1666667E+00  0.1388889E-01
   1       -3.8668
   2       -0.4147
   3       -0.1737
   4       -0.1737
   5        0.2596
   6        0.2596
   7        0.2598
   8        1.2495
   9        1.7570
  10        1.7646
  11        1.8712
  12        1.8712
  13        1.9441
  14        2.4754
  15        2.6252
  16        2.6463
  17        2.6742
  18        2.6742
  19        3.3157
  20        3.3157
  21        3.3241
  22        5.1826
  23        7.0172
  24        7.0172
  25       13.4567
  26       13.4567
 
  0.3333333E+00  0.1666667E+00  0.1666667E+00  0.1388889E-01
   1       -3.2876
   2       -0.6465
   3        0.0439
   4        0.0439
   5        0.4033
   6        0.4033
   7        0.4160
   8        1.1223
   9        1.5278
  10        1.5278
  11        1.6928
  12        1.7707
  13        1.8399
  14        2.4381
  15        2.4806
  16        2.5523
  17        2.5523
  18        2.7767
  19        3.2633
  20        3.2704
  21        3.2704
  22        4.1912
  23        7.7377
  24        7.7377
  25       12.1655
  26       12.1655
 
  0.4166667E+00  0.1666667E+00  0.1666667E+00  0.1388889E-01
   1       -2.5924
   2       -1.1441
   3        0.2670
   4        0.2670
   5        0.5048
   6        0.5048
   7        0.5955
   8        0.9617
   9        1.2604
  10        1.2604
  11        1.5776
  12        1.7073
  13        1.9480
  14        2.2546
  15        2.4376
  16        2.4376
  17        2.6382
  18        2.9154
  19        3.1694
  20        3.2371
  21        3.2371
  22        3.4651
  23        8.4752
  24        8.4752
  25       11.0899
  26       11.0899
 
  0.5000000E+00  0.1666667E+00  0.1666667E+00  0.6944444E-02
   1       -1.8418
   2       -1.8418
   3        0.4524
   4        0.4524
   5        0.4540
   6        0.4540
   7        0.7819
   8        0.7819
   9        1.1585
  10        1.1585
  11        1.6109
  12        1.6109