       N       E                     dE             d eps       ncg     rms          rms(c)
DAV:   1     0.204365966296E+04    0.20437E+04   -0.11489E+05   432   0.961E+02
DAV:   2    -0.359440859033E+01   -0.20473E+04   -0.19477E+04   428   0.330E+02
DAV:   3    -0.944314369855E+02   -0.90837E+02   -0.88265E+02   464   0.751E+01
DAV:   4    -0.954278003697E+02   -0.99636E+00   -0.99212E+00   440   0.779E+00
DAV:   5    -0.954337584423E+02   -0.59581E-02   -0.59560E-02   448   0.537E-01    0.146E+01
DAV:   6    -0.893534716640E+02    0.60803E+01   -0.22871E+01   444   0.167E+01    0.273E+00
DAV:   7    -0.891869242922E+02    0.16655E+00   -0.34247E-01   440   0.128E+00    0.148E+00
DAV:   8    -0.891073971146E+02    0.79527E-01   -0.20396E-02   436   0.444E-01    0.883E-02
DAV:   9    -0.891079364554E+02   -0.53934E-03   -0.13851E-03   440   0.108E-01    0.622E-02
DAV:  10    -0.891078081286E+02    0.12833E-03   -0.13007E-04   412   0.323E-02    0.698E-03
DAV:  11    -0.891078014428E+02    0.66858E-05   -0.38911E-06   232   0.483E-03
   1 F= -.89107801E+02 E0= -.89050311E+02  d E =-.891078E+02
