 running on    8 nodes
 distr:  one band on    1 nodes,    8 groups
 vasp.4.6.28 25Jul05 complex 
 POSCAR found :  1 types and    4 ions
 LDA part: xc-table for Pade appr. of Perdew
 POSCAR, INCAR and KPOINTS ok, starting setup
 FFT: planning ...           1
 reading WAVECAR
 WARNING: random wavefunctions but no delay for mixing, default for NELMDL
 entering main loop
       N       E                     dE             d eps       ncg     rms          rms(c)
DAV:   1     0.357660326631E+03    0.35766E+03   -0.31075E+04 86888   0.323E+03
DAV:   2     0.983850191576E+01   -0.34782E+03   -0.33089E+03 85192   0.472E+02
DAV:   3    -0.176319158750E+02   -0.27470E+02   -0.26632E+02 93288   0.155E+02
DAV:   4    -0.180294495142E+02   -0.39753E+00   -0.39715E+00 95760   0.192E+01
DAV:   5    -0.180302204530E+02   -0.77094E-03   -0.77093E-03 94784   0.793E-01    0.136E+01
DAV:   6    -0.162817325630E+02    0.17485E+01   -0.25718E+01 93320   0.802E+01    0.722E+00
DAV:   7    -0.147595901989E+02    0.15221E+01   -0.52378E+00 96736   0.354E+01    0.966E-01
DAV:   8    -0.147345755413E+02    0.25015E-01   -0.54610E-02 93296   0.222E+00    0.735E-01
DAV:   9    -0.147240723011E+02    0.10503E-01   -0.22790E-02 98504   0.237E+00    0.424E-02
DAV:  10    -0.147241332039E+02   -0.60903E-04   -0.62941E-04 93488   0.253E-01    0.107E-02
DAV:  11    -0.147241320062E+02    0.11977E-05   -0.70276E-06 99312   0.307E-02    0.429E-03
DAV:  12    -0.147241362466E+02   -0.42404E-05   -0.23563E-07104016   0.686E-03    0.568E-04
DAV:  13    -0.147241367241E+02   -0.47752E-06   -0.12950E-08 69752   0.120E-03    0.170E-04
DAV:  14    -0.147241367200E+02    0.40936E-08   -0.21515E-09 55464   0.399E-04
   1 F= -.14724137E+02 E0= -.14724111E+02  d E =-.519327E-04
