   4   4   0   0
  0.1314070E+02  0.3745929E-09  0.3745929E-09  0.3745929E-09  0.5000000E-15
  1.000000000000000E-004
  CAR 
 unknown system                          
     24.95601178     -7.09720718  301      2.93595263      1.00000000
     -7.097  0.0000E+00  0.0000E+00
     -6.990  0.0000E+00  0.0000E+00
     -6.884  0.0000E+00  0.0000E+00
     -6.777  0.0000E+00  0.0000E+00
     -6.670  0.0000E+00  0.0000E+00
     -6.563  0.0000E+00  0.0000E+00
     -6.456  0.0000E+00  0.0000E+00
     -6.349  0.0000E+00  0.0000E+00
     -6.242  0.0000E+00  0.0000E+00
     -6.136  0.0000E+00  0.0000E+00
     -6.029  0.0000E+00  0.0000E+00
     -5.922  0.0000E+00  0.0000E+00
     -5.815  0.0000E+00  0.0000E+00
     -5.708  0.0000E+00  0.0000E+00
     -5.601  0.1518E-01  0.1622E-02
     -5.495  0.7877E-01  0.1189E-01
     -5.388  0.1214E+00  0.2861E-01
     -5.281  0.1535E+00  0.4859E-01
     -5.174  0.1826E+00  0.7254E-01
     -5.067  0.1806E+00  0.9812E-01
     -4.960  0.1925E+00  0.1264E+00
     -4.853  0.2502E+00  0.1604E+00
     -4.747  0.2416E+00  0.1924E+00
     -4.640  0.2684E+00  0.2304E+00
     -4.533  0.2974E+00  0.2684E+00
     -4.426  0.2682E+00  0.3062E+00
     -4.319  0.3223E+00  0.3538E+00
     -4.212  0.3532E+00  0.3972E+00
     -4.106  0.3171E+00  0.4466E+00
     -3.999  0.3214E+00  0.4974E+00
     -3.892  0.4363E+00  0.5540E+00
     -3.785  0.3499E+00  0.6024E+00
     -3.678  0.4395E+00  0.6637E+00
     -3.571  0.4490E+00  0.7227E+00
     -3.465  0.4583E+00  0.7849E+00
     -3.358  0.4332E+00  0.8514E+00
     -3.251  0.4798E+00  0.9170E+00
     -3.144  0.4710E+00  0.9903E+00
     -3.037  0.5120E+00  0.1063E+01
     -2.930  0.5160E+00  0.1143E+01
     -2.823  0.5384E+00  0.1220E+01
     -2.717  0.6297E+00  0.1309E+01
     -2.610  0.5952E+00  0.1395E+01
     -2.503  0.7402E+00  0.1494E+01
     -2.396  0.6812E+00  0.1590E+01
     -2.289  0.8023E+00  0.1706E+01
     -2.182  0.8613E+00  0.1821E+01
     -2.076  0.8491E+00  0.1945E+01
     -1.969  0.1073E+01  0.2089E+01
     -1.862  0.1089E+01  0.2244E+01
     -1.755  0.1304E+01  0.2430E+01
     -1.648  0.1675E+01  0.2655E+01
     -1.541  0.2198E+01  0.2959E+01
     -1.434  0.2452E+01  0.3316E+01
     -1.328  0.3551E+01  0.3794E+01
     -1.221  0.3894E+01  0.4355E+01
     -1.114  0.4041E+01  0.4943E+01
     -1.007  0.4253E+01  0.5564E+01
     -0.900  0.6043E+01  0.6359E+01
     -0.793  0.7149E+01  0.7369E+01
     -0.687  0.8627E+01  0.8554E+01
     -0.580  0.7513E+01  0.9642E+01
     -0.473  0.7421E+01  0.1067E+02
     -0.366  0.7361E+01  0.1174E+02
     -0.259  0.7136E+01  0.1275E+02
     -0.152  0.9493E+01  0.1406E+02
     -0.045  0.1085E+02  0.1558E+02
      0.061  0.1119E+02  0.1718E+02
      0.168  0.1380E+02  0.1906E+02
      0.275  0.1406E+02  0.2110E+02
      0.382  0.1661E+02  0.2344E+02
      0.489  0.1064E+02  0.2502E+02
      0.596  0.9025E+01  0.2632E+02
      0.702  0.1014E+02  0.2773E+02
      0.809  0.1268E+02  0.2953E+02
      0.916  0.1361E+02  0.3147E+02
      1.023  0.1139E+02  0.3313E+02
      1.130  0.1130E+02  0.3476E+02
      1.237  0.1282E+02  0.3655E+02
      1.343  0.2029E+02  0.3925E+02
      1.450  0.1265E+02  0.4147E+02
      1.557  0.1479E+01  0.4196E+02
      1.664  0.1354E+01  0.4217E+02
      1.771  0.1345E+01  0.4235E+02
      1.878  0.1347E+01  0.4253E+02
      1.985  0.1221E+01  0.4269E+02
      2.091  0.1147E+01  0.4285E+02
      2.198  0.1111E+01  0.4301E+02
      2.305  0.1178E+01  0.4317E+02
      2.412  0.1133E+01  0.4332E+02
      2.519  0.8827E+00  0.4345E+02
      2.626  0.1170E+01  0.4361E+02
      2.732  0.8535E+00  0.4374E+02
      2.839  0.1050E+01  0.4390E+02
      2.946  0.7778E+00  0.4401E+02
      3.053  0.9331E+00  0.4417E+02
      3.160  0.8011E+00  0.4428E+02
      3.267  0.1022E+01  0.4443E+02
      3.374  0.7710E+00  0.4454E+02
      3.480  0.1131E+01  0.4469E+02
      3.587  0.8184E+00  0.4480E+02
      3.694  0.8369E+00  0.4492E+02
      3.801  0.8399E+00  0.4506E+02
      3.908  0.6695E+00  0.4516E+02
      4.015  0.9541E+00  0.4529E+02
      4.121  0.7268E+00  0.4540E+02
      4.228  0.7412E+00  0.4551E+02
      4.335  0.9790E+00  0.4564E+02
      4.442  0.6558E+00  0.4574E+02
      4.549  0.7433E+00  0.4586E+02
      4.656  0.9280E+00  0.4599E+02
      4.762  0.7144E+00  0.4609E+02
      4.869  0.7333E+00  0.4619E+02
      4.976  0.8027E+00  0.4631E+02
      5.083  0.6965E+00  0.4641E+02
      5.190  0.5971E+00  0.4650E+02
      5.297  0.7825E+00  0.4661E+02
      5.404  0.6502E+00  0.4670E+02
      5.510  0.5891E+00  0.4679E+02
      5.617  0.7905E+00  0.4689E+02
      5.724  0.4685E+00  0.4697E+02
      5.831  0.4873E+00  0.4704E+02
      5.938  0.6639E+00  0.4714E+02
      6.045  0.5250E+00  0.4721E+02
      6.151  0.3918E+00  0.4728E+02
      6.258  0.6563E+00  0.4737E+02
      6.365  0.9333E+00  0.4750E+02
      6.472  0.9259E+00  0.4763E+02
      6.579  0.7445E+00  0.4774E+02
      6.686  0.9790E+00  0.4788E+02
      6.793  0.9828E+00  0.4802E+02
      6.899  0.8114E+00  0.4814E+02
      7.006  0.8699E+00  0.4827E+02
      7.113  0.1079E+01  0.4842E+02
      7.220  0.8845E+00  0.4853E+02
      7.327  0.9580E+00  0.4867E+02
      7.434  0.9223E+00  0.4879E+02
      7.540  0.9538E+00  0.4892E+02
      7.647  0.8865E+00  0.4904E+02
      7.754  0.8154E+00  0.4916E+02
      7.861  0.9386E+00  0.4929E+02
      7.968  0.9243E+00  0.4942E+02
      8.075  0.7968E+00  0.4953E+02
      8.181  0.8229E+00  0.4965E+02
      8.288  0.8372E+00  0.4976E+02
      8.395  0.8753E+00  0.4988E+02
      8.502  0.7470E+00  0.4999E+02
      8.609  0.7788E+00  0.5010E+02
      8.716  0.7313E+00  0.5020E+02
      8.823  0.7363E+00  0.5031E+02
      8.929  0.7041E+00  0.5042E+02
      9.036  0.7426E+00  0.5053E+02
      9.143  0.7607E+00  0.5063E+02
      9.250  0.7281E+00  0.5073E+02
      9.357  0.8322E+00  0.5084E+02
      9.464  0.8199E+00  0.5095E+02
      9.570  0.8929E+00  0.5109E+02
      9.677  0.9978E+00  0.5123E+02
      9.784  0.1010E+01  0.5137E+02
      9.891  0.9956E+00  0.5152E+02
      9.998  0.9580E+00  0.5165E+02
     10.105  0.1023E+01  0.5180E+02
     10.212  0.1251E+01  0.5196E+02
     10.318  0.9972E+00  0.5211E+02
     10.425  0.9628E+00  0.5225E+02
     10.532  0.9584E+00  0.5240E+02
     10.639  0.1171E+01  0.5257E+02
     10.746  0.1059E+01  0.5272E+02
     10.853  0.1204E+01  0.5289E+02
     10.959  0.1057E+01  0.5303E+02
     11.066  0.1123E+01  0.5319E+02
     11.173  0.1146E+01  0.5336E+02
     11.280  0.1003E+01  0.5351E+02
     11.387  0.1011E+01  0.5366E+02
     11.494  0.1123E+01  0.5383E+02
     11.601  0.9685E+00  0.5398E+02
     11.707  0.1235E+01  0.5416E+02
     11.814  0.1152E+01  0.5431E+02
     11.921  0.1304E+01  0.5449E+02
     12.028  0.1107E+01  0.5464E+02
     12.135  0.1248E+01  0.5480E+02
     12.242  0.1041E+01  0.5496E+02
     12.348  0.1105E+01  0.5512E+02
     12.455  0.1266E+01  0.5530E+02
     12.562  0.1150E+01  0.5546E+02
     12.669  0.1137E+01  0.5563E+02
     12.776  0.1115E+01  0.5579E+02
     12.883  0.1221E+01  0.5596E+02
     12.989  0.1109E+01  0.5613E+02
     13.096  0.1380E+01  0.5631E+02
     13.203  0.1120E+01  0.5647E+02
     13.310  0.1317E+01  0.5664E+02
     13.417  0.1117E+01  0.5681E+02
     13.524  0.1201E+01  0.5697E+02
     13.631  0.1252E+01  0.5714E+02
     13.737  0.1314E+01  0.5733E+02
     13.844  0.1237E+01  0.5751E+02
     13.951  0.1147E+01  0.5768E+02
     14.058  0.1096E+01  0.5784E+02
     14.165  0.1293E+01  0.5802E+02
     14.272  0.1344E+01  0.5822E+02
     14.378  0.1223E+01  0.5838E+02
     14.485  0.1361E+01  0.5857E+02
     14.592  0.1376E+01  0.5876E+02
     14.699  0.1250E+01  0.5893E+02
     14.806  0.1443E+01  0.5912E+02
     14.913  0.1311E+01  0.5930E+02
     15.020  0.1301E+01  0.5948E+02
     15.126  0.1460E+01  0.5969E+02
     15.233  0.1295E+01  0.5988E+02
     15.340  0.1444E+01  0.6009E+02
     15.447  0.1266E+01  0.6028E+02
     15.554  0.1175E+01  0.6046E+02
     15.661  0.1295E+01  0.6065E+02
     15.767  0.1210E+01  0.6082E+02
     15.874  0.1234E+01  0.6099E+02
     15.981  0.1187E+01  0.6116E+02
     16.088  0.9744E+00  0.6132E+02
     16.195  0.1048E+01  0.6148E+02
     16.302  0.1027E+01  0.6162E+02
     16.408  0.1037E+01  0.6176E+02
     16.515  0.7812E+00  0.6188E+02
     16.622  0.7572E+00  0.6201E+02
     16.729  0.6727E+00  0.6212E+02
     16.836  0.7495E+00  0.6223E+02
     16.943  0.6240E+00  0.6232E+02
     17.050  0.6687E+00  0.6241E+02
     17.156  0.5920E+00  0.6249E+02
     17.263  0.6137E+00  0.6258E+02
     17.370  0.5912E+00  0.6266E+02
     17.477  0.5121E+00  0.6273E+02
     17.584  0.4729E+00  0.6280E+02
     17.691  0.3721E+00  0.6286E+02
     17.797  0.5156E+00  0.6293E+02
     17.904  0.4142E+00  0.6299E+02
     18.011  0.4131E+00  0.6305E+02
     18.118  0.3697E+00  0.6310E+02
     18.225  0.4239E+00  0.6316E+02
     18.332  0.3865E+00  0.6321E+02
     18.439  0.3122E+00  0.6325E+02
     18.545  0.3493E+00  0.6330E+02
     18.652  0.2438E+00  0.6333E+02
     18.759  0.2668E+00  0.6338E+02
     18.866  0.2579E+00  0.6341E+02
     18.973  0.2465E+00  0.6345E+02
     19.080  0.2424E+00  0.6348E+02
     19.186  0.2629E+00  0.6351E+02
     19.293  0.2083E+00  0.6354E+02
     19.400  0.2604E+00  0.6357E+02
     19.507  0.1251E+00  0.6360E+02
     19.614  0.1917E+00  0.6362E+02
     19.721  0.1214E+00  0.6365E+02
     19.827  0.2049E+00  0.6368E+02
     19.934  0.1336E+00  0.6370E+02
     20.041  0.6624E-01  0.6371E+02
     20.148  0.2096E+00  0.6374E+02
     20.255  0.1242E+00  0.6376E+02
     20.362  0.1859E+00  0.6378E+02
     20.469  0.1109E+00  0.6379E+02
     20.575  0.1101E+00  0.6381E+02
     20.682  0.1137E+00  0.6383E+02
     20.789  0.1349E+00  0.6384E+02
     20.896  0.8666E-01  0.6386E+02
     21.003  0.9500E-01  0.6387E+02
     21.110  0.7709E-01  0.6388E+02
     21.216  0.8333E-01  0.6389E+02
     21.323  0.8022E-01  0.6390E+02
     21.430  0.3856E-01  0.6391E+02
     21.537  0.9364E-01  0.6392E+02
     21.644  0.5792E-01  0.6393E+02
     21.751  0.6741E-01  0.6394E+02
     21.858  0.2997E-01  0.6394E+02
     21.964  0.8648E-01  0.6395E+02
     22.071  0.4376E-01  0.6396E+02
     22.178  0.5526E-01  0.6397E+02
     22.285  0.1927E-01  0.6397E+02
     22.392  0.6599E-01  0.6398E+02
     22.499  0.9639E-02  0.6398E+02
     22.605  0.1931E-01  0.6398E+02
     22.712  0.1828E-01  0.6399E+02
     22.819  0.1926E-01  0.6399E+02
     22.926  0.2889E-01  0.6399E+02
     23.033  0.9629E-02  0.6399E+02
     23.140  0.2889E-01  0.6400E+02
     23.247  0.1261E-01  0.6400E+02
     23.353  0.1443E-01  0.6400E+02
     23.460  0.1287E-09  0.6400E+02
     23.567  0.1605E-02  0.6400E+02
     23.674  0.0000E+00  0.6400E+02
     23.781  0.0000E+00  0.6400E+02
     23.888  0.0000E+00  0.6400E+02
     23.994  0.0000E+00  0.6400E+02
     24.101  0.0000E+00  0.6400E+02
     24.208  0.0000E+00  0.6400E+02
     24.315  0.0000E+00  0.6400E+02
     24.422  0.0000E+00  0.6400E+02
     24.529  0.0000E+00  0.6400E+02
     24.635  0.0000E+00  0.6400E+02
     24.742  0.0000E+00  0.6400E+02
     24.849  0.0000E+00  0.6400E+02
     24.956  0.0000E+00  0.6400E+02
