    4    4    1    1
  0.1314070E+02  0.3745929E-09  0.3745929E-09  0.3745929E-09  0.5000000E-15
  1.000000000000000E-004
  CAR 
 unknown system                          
   44 1330   32
 
  0.0000000E+00  0.0000000E+00  0.0000000E+00  0.2143347E-04
   1       -5.6402
   2       -1.3823
   3       -1.3823
   4       -1.3823
   5       -0.9951
   6       -0.9951
   7       -0.9951
   8        0.1816
   9        0.1816
  10        0.1816
  11        0.8828
  12        0.8828
  13        1.3494
  14        1.3494
  15        1.3494
  16        1.4800
  17        1.4800
  18        1.4800
  19        1.4800
  20        1.4800
  21        1.4800
  22        4.5143
  23        4.5143
  24        4.5143
  25        9.3249
  26        9.3249
  27        9.3249
  28       15.2713
  29       15.2713
  30       15.2713
  31       15.2713
  32       15.2713
 
  0.2777778E-01  0.0000000E+00  0.0000000E+00  0.1286008E-03
   1       -5.6315
   2       -1.3825
   3       -1.3784
   4       -1.3784
   5       -0.9929
   6       -0.9928
   7       -0.9928
   8        0.1793
   9        0.1835
  10        0.1835
  11        0.8807
  12        0.8837
  13        1.3467
  14        1.3467
  15        1.3485
  16        1.4661
  17        1.4661
  18        1.4767
  19        1.4767
  20        1.4800
  21        1.4800
  22        4.4483
  23        4.5361
  24        4.5361
  25        9.3285
  26        9.3285
  27        9.4087
  28       15.2031
  29       15.2031
  30       15.2269
  31       15.2269
  32       15.2838
 
  0.5555556E-01  0.0000000E+00  0.0000000E+00  0.1286008E-03
   1       -5.6054
   2       -1.3831
   3       -1.3669
   4       -1.3669
   5       -0.9865
   6       -0.9860
   7       -0.9860
   8        0.1723
   9        0.1892
  10        0.1892
  11        0.8743
  12        0.8863
  13        1.3385
  14        1.3385
  15        1.3458
  16        1.4258
  17        1.4258
  18        1.4670
  19        1.4670
  20        1.4800
  21        1.4800
  22        4.2632
  23        4.6002
  24        4.6002
  25        9.3394
  26        9.3394
  27        9.6474
  28       15.0122
  29       15.0122
  30       15.0991
  31       15.0991
  32       15.3212
 
  0.8333333E-01  0.0000000E+00  0.0000000E+00  0.1286008E-03
   1       -5.5620
   2       -1.3848
   3       -1.3477
   4       -1.3477
   5       -0.9759
   6       -0.9747
   7       -0.9747
   8        0.1607
   9        0.1987
  10        0.1987
  11        0.8639
  12        0.8906
  13        1.3249
  14        1.3249
  15        1.3413
  16        1.3622
  17        1.3622
  18        1.4510
  19        1.4510
  20        1.4800
  21        1.4800
  22        3.9890
  23        4.7036
  24        4.7036
  25        9.3575
  26        9.3575
  27       10.0114
  28       14.7290
  29       14.7290
  30       14.9016
  31       14.9016
  32       15.3835
 
  0.1111111E+00  0.0000000E+00  0.0000000E+00  0.1286008E-03
   1       -5.5013
   2       -1.3884
   3       -1.3214
   4       -1.3214
   5       -0.9611
   6       -0.9589
   7       -0.9589
   8        0.1447
   9        0.2120
  10        0.2120
  11        0.8494
  12        0.8966
  13        1.2795
  14        1.2795
  15        1.3062
  16        1.3062
  17        1.3351
  18        1.4288
  19        1.4288
  20        1.4800
  21        1.4800
  22        3.6577
  23        4.8418
  24        4.8418
  25        9.3832
  26        9.3832
  27       10.4695
  28       14.3845
  29       14.3845
  30       14.6518
  31       14.6518
  32       15.4702
 
  0.1388889E+00  0.0000000E+00  0.0000000E+00  0.1286008E-03
   1       -5.4234
   2       -1.3954
   3       -1.2882
   4       -1.2882
   5       -0.9422
   6       -0.9384
   7       -0.9384
   8        0.1242
   9        0.2290
  10        0.2290
  11        0.8311
  12        0.9043
  13        1.1825
  14        1.1825
  15        1.2823
  16        1.2823
  17        1.3272
  18        1.4010
  19        1.4010
  20        1.4801
  21        1.4801
  22        3.2951
  23        5.0102
  24        5.0102
  25        9.4167
  26        9.4167
  27       10.9971
  28       14.0021
  29       14.0021
  30       14.3663
  31       14.3663
  32       15.5811
 
  0.1666667E+00  0.0000000E+00  0.0000000E+00  0.1286008E-03
   1       -5.3286
   2       -1.4077
   3       -1.2488
   4       -1.2488
   5       -0.9194
   6       -0.9134
   7       -0.9134
   8        0.0996
   9        0.2496
  10        0.2496
  11        0.8092
  12        0.9135
  13        1.0753
  14        1.0753
  15        1.2538
  16        1.2538
  17        1.3176
  18        1.3678
  19        1.3678
  20        1.4801
  21        1.4801
  22        2.9203
  23        5.2045
  24        5.2045
  25        9.4583
  26        9.4583
  27       11.5768
  28       13.5974
  29       13.5974
  30       14.0589
  31       14.0589
  32       15.7156
 
  0.1944444E+00  0.0000000E+00  0.0000000E+00  0.1286008E-03
   1       -5.2171
   2       -1.4279
   3       -1.2038
   4       -1.2038
   5       -0.8928
   6       -0.8836
   7       -0.8836
   8        0.0710
   9        0.2739
  10        0.2739
  11        0.7841
  12        0.9243
  13        0.9615
  14        0.9615
  15        1.2208
  16        1.2208
  17        1.3065
  18        1.3297
  19        1.3297
  20        1.4802
  21        1.4802
  22        2.5471
  23        5.4212
  24        5.4212
  25        9.5083
  26        9.5083
  27       12.1969
  28       13.1808
  29       13.1808
  30       13.7404
  31       13.7404
  32       15.8733
 
  0.2222222E+00  0.0000000E+00  0.0000000E+00  0.1286008E-03
   1       -5.0892
   2       -1.4596
   3       -1.1543
   4       -1.1543
   5       -0.8626
   6       -0.8491
   7       -0.8491
   8        0.0387
   9        0.3018
  10        0.3018
  11        0.7562
  12        0.8439
  13        0.8439
  14        0.9365
  15        1.1840
  16        1.1840
  17        1.2872
  18        1.2872
  19        1.2939
  20        1.4802
  21        1.4802
  22        2.1866
  23        5.6573
  24        5.6573
  25        9.5672
  26        9.5672
  27       12.7586
  28       12.7586
  29       12.8497
  30       13.4188
  31       13.4188
  32       16.0534
 
  0.2500000E+00  0.0000000E+00  0.0000000E+00  0.1286008E-03
   1       -4.9451
   2       -1.5071
   3       -1.1011
   4       -1.1011
   5       -0.8291
   6       -0.8099
   7       -0.8099
   8        0.0029
   9        0.3330
  10        0.3330
  11        0.7248
  12        0.7248
  13        0.7259
  14        0.9500
  15        1.1440
  16        1.1440
  17        1.2410
  18        1.2410
  19        1.2800
  20        1.4803
  21        1.4803
  22        1.8480
  23        5.9105
  24        5.9105
  25        9.6356
  26        9.6356
  27       12.3353
  28       12.3353
  29       13.0999
  30       13.0999
  31       13.5296
  32       16.2555
 
  0.2777778E+00  0.0000000E+00  0.0000000E+00  0.1286008E-03
   1       -4.7854
   2       -1.5752
   3       -1.0455
   4       -1.0455
   5       -0.7923
   6       -0.7658
   7       -0.7658
   8       -0.0360
   9        0.3677
  10        0.3677
  11        0.6058
  12        0.6058
  13        0.6938
  14        0.9649
  15        1.1016
  16        1.1016
  17        1.1914
  18        1.1914
  19        1.2648
  20        1.4803
  21        1.4803
  22        1.5395
  23        6.1790
  24        6.1790
  25        9.7139
  26        9.7139
  27       11.9137
  28       11.9137
  29       12.7881
  30       12.7881
  31       14.2327
  32       16.4787
 
  0.3055556E+00  0.0000000E+00  0.0000000E+00  0.1286008E-03
   1       -4.6107
   2       -1.6690
   3       -0.9891
   4       -0.9891
   5       -0.7527
   6       -0.7168
   7       -0.7168
   8       -0.0778
   9        0.4055
  10        0.4055
  11        0.4884
  12        0.4884
  13        0.6607
  14        0.9808
  15        1.0580
  16        1.0580
  17        1.1392
  18        1.1392
  19        1.2484
  20        1.2683
  21        1.4804
  22        1.4804
  23        6.4614
  24        6.4614
  25        9.8029
  26        9.8029
  27       11.4958
  28       11.4958
  29       12.4865
  30       12.4865
  31       14.9559
  32       16.7224
 
  0.3333333E+00  0.0000000E+00  0.0000000E+00  0.1286008E-03
   1       -4.4216
   2       -1.7926
   3       -0.9335
   4       -0.9335
   5       -0.7104
   6       -0.6628
   7       -0.6628
   8       -0.1221
   9        0.3734
  10        0.3734
  11        0.4464
  12        0.4464
  13        0.6274
  14        0.9978
  15        1.0144
  16        1.0144
  17        1.0401
  18        1.0849
  19        1.0849
  20        1.2311
  21        1.4804
  22        1.4804
  23        6.7566
  24        6.7566
  25        9.9030
  26        9.9030
  27       11.0830
  28       11.0830
  29       12.1973
  30       12.1973
  31       15.6970
  32       16.9858
 
  0.3611111E+00  0.0000000E+00  0.0000000E+00  0.1286008E-03
   1       -4.2189
   2       -1.9476
   3       -0.8807
   4       -0.8807
   5       -0.6658
   6       -0.6038
   7       -0.6038
   8       -0.1685
   9        0.2617
  10        0.2617
  11        0.4902
  12        0.4902
  13        0.5950
  14        0.8575
  15        0.9724
  16        0.9724
  17        1.0157
  18        1.0291
  19        1.0291
  20        1.2129
  21        1.4805
  22        1.4805
  23        7.0636
  24        7.0636
  25       10.0150
  26       10.0150
  27       10.6764
  28       10.6764
  29       11.9221
  30       11.9221
  31       16.4536
  32       17.2683
 
  0.3888889E+00  0.0000000E+00  0.0000000E+00  0.1286008E-03
   1       -4.0038
   2       -2.1322
   3       -0.8328
   4       -0.8328
   5       -0.6191
   6       -0.5398
   7       -0.5398
   8       -0.2167
   9        0.1539
  10        0.1539
  11        0.5367
  12        0.5367
  13        0.5649
  14        0.7194
  15        0.9339
  16        0.9339
  17        0.9722
  18        0.9722
  19        1.0344
  20        1.1940
  21        1.4805
  22        1.4805
  23        7.3819
  24        7.3819
  25       10.1396
  26       10.1396
  27       10.2767
  28       10.2767
  29       11.6619
  30       11.6619
  31       17.2235
  32       17.5691
 
  0.4166667E+00  0.0000000E+00  0.0000000E+00  0.1286008E-03
   1       -3.7778
   2       -2.3417
   3       -0.7922
   4       -0.7922
   5       -0.5708
   6       -0.4707
   7       -0.4707
   8       -0.2663
   9        0.0502
  10        0.0502
  11        0.5385
  12        0.5856
  13        0.5856
  14        0.6215
  15        0.9008
  16        0.9008
  17        0.9149
  18        0.9149
  19        1.0537
  20        1.1744
  21        1.4806
  22        1.4806
  23        7.7108
  24        7.7108
  25        9.8844
  26        9.8844
  27       10.2773
  28       10.2774
  29       11.4174
  30       11.4174
  31       17.8876
  32       17.8879
 
  0.4444444E+00  0.0000000E+00  0.0000000E+00  0.1286008E-03
   1       -3.5425
   2       -2.5698
   3       -0.7611
   4       -0.7611
   5       -0.5212
   6       -0.3965
   7       -0.3965
   8       -0.3169
   9       -0.0489
  10       -0.0489
  11        0.5180
  12        0.5576
  13        0.6368
  14        0.6368
  15        0.8576
  16        0.8576
  17        0.8753
  18        0.8753
  19        1.0735
  20        1.1545
  21        1.4806
  22        1.4806
  23        8.0498
  24        8.0498
  25        9.5001
  26        9.5001
  27       10.4288
  28       10.4288
  29       11.1890
  30       11.1890
  31       18.2230
  32       18.2230
 
  0.4722222E+00  0.0000000E+00  0.0000000E+00  0.1286008E-03
   1       -3.3005
   2       -2.8096
   3       -0.7415
   4       -0.7415
   5       -0.4706
   6       -0.3680
   7       -0.3171
   8       -0.3171
   9       -0.1433
  10       -0.1433
  11        0.5059
  12        0.5210
  13        0.6899
  14        0.6899
  15        0.8007
  16        0.8007
  17        0.8592
  18        0.8592
  19        1.0936
  20        1.1343
  21        1.4806
  22        1.4806
  23        8.3986
  24        8.3986
  25        9.1241
  26        9.1241
  27       10.5939
  28       10.5939
  29       10.9775
  30       10.9775
  31       18.5747
  32       18.5747
 
  0.5000000E+00  0.0000000E+00  0.0000000E+00  0.6430041E-04
   1       -3.0549
   2       -3.0549
   3       -0.7349
   4       -0.7349
   5       -0.4194
   6       -0.4194
   7       -0.2327
   8       -0.2327
   9       -0.2327
  10       -0.2327
  11        0.5055
  12        0.5055
  13        0.7447
  14        0.7447
  15        0.7447
  16        0.7447
  17        0.8536
  18        0.8536
  19        1.1139
  20        1.1139
  21        1.4806
  22        1.4806
  23        8.7568
  24        8.7568
  25        8.7568
  26        8.7568
  27       10.7467
  28       10.7467
  29       10.8092
  30       10.8092
  31       18.9420
  32       18.9420
 
  0.2777778E-01  0.2777778E-01  0.0000000E+00  0.2572016E-03
   1       -5.6228
   2       -1.3786
   3       -1.3786
   4       -1.3746
   5       -0.9907
   6       -0.9907
   7       -0.9906
   8        0.1780
   9        0.1844
  10        0.1854
  11        0.8800
  12        0.8831
  13        1.3440
  14        1.3456
  15        1.3456
  16        1.4546
  17        1.4629
  18        1.4629
  19        1.4767
  20        1.4767
  21        1.4779
  22        4.4700
  23        4.4700
  24        4.5577
  25        9.3321
  26        9.4125
  27        9.4125
  28       15.0313
  29       15.2155
  30       15.2155
  31       15.2393
  32       15.2393
 
  0.5555556E-01  0.2777778E-01  0.0000000E+00  0.5144033E-03
   1       -5.5967
   2       -1.3792
   3       -1.3670
   4       -1.3630
   5       -0.9843
   6       -0.9839
   7       -0.9838
   8        0.1715
   9        0.1896
  10        0.1911
  11        0.8743
  12        0.8851
  13        1.3358
  14        1.3370
  15        1.3426
  16        1.4159
  17        1.4229
  18        1.4533
  19        1.4670
  20        1.4767
  21        1.4768
  22        4.2847
  23        4.5338
  24        4.6213
  25        9.3430
  26        9.4239
  27        9.6517
  28       14.7654
  29       15.0243
  30       15.1112
  31       15.2526
  32       15.2663
 
  0.8333333E-01  0.2777778E-01  0.0000000E+00  0.5144033E-03
   1       -5.5533
   2       -1.3808
   3       -1.3478
   4       -1.3439
   5       -0.9737
   6       -0.9726
   7       -0.9726
   8        0.1601
   9        0.1990
  10        0.2005
  11        0.8640
  12        0.8894
  13        1.3209
  14        1.3223
  15        1.3374
  16        1.3533
  17        1.3614
  18        1.4375
  19        1.4510
  20        1.4765
  21        1.4768
  22        4.0104
  23        4.6366
  24        4.7240
  25        9.3612
  26        9.4430
  27       10.0162
  28       14.4399
  29       14.7408
  30       14.9134
  31       15.1362
  32       15.3143
 
  0.1111111E+00  0.2777778E-01  0.0000000E+00  0.5144033E-03
   1       -5.4926
   2       -1.3843
   3       -1.3213
   4       -1.3177
   5       -0.9589
   6       -0.9568
   7       -0.9568
   8        0.1441
   9        0.2122
  10        0.2136
  11        0.8496
  12        0.8955
  13        1.2696
  14        1.2717
  15        1.3036
  16        1.3110
  17        1.3299
  18        1.4159
  19        1.4288
  20        1.4764
  21        1.4768
  22        3.6793
  23        4.7737
  24        4.8612
  25        9.3870
  26        9.4700
  27       10.4748
  28       14.0753
  29       14.3959
  30       14.6633
  31       14.9279
  32       15.4008
 
  0.1388889E+00  0.2777778E-01  0.0000000E+00  0.5144033E-03
   1       -5.4148
   2       -1.3912
   3       -1.2881
   4       -1.2846
   5       -0.9401
   6       -0.9364
   7       -0.9364
   8        0.1238
   9        0.2292
  10        0.2303
  11        0.8314
  12        0.9032
  13        1.1752
  14        1.1757
  15        1.2799
  16        1.2843
  17        1.3195
  18        1.3894
  19        1.4010
  20        1.4764
  21        1.4768
  22        3.3174
  23        4.9406
  24        5.0287
  25        9.4205
  26        9.5052
  27       11.0028
  28       13.6866
  29       14.0132
  30       14.3773
  31       14.6643
  32       15.5099
 
  0.1666667E+00  0.2777778E-01  0.0000000E+00  0.5144033E-03
   1       -5.3200
   2       -1.4034
   3       -1.2485
   4       -1.2453
   5       -0.9173
   6       -0.9114
   7       -0.9114
   8        0.0992
   9        0.2498
  10        0.2508
  11        0.8097
  12        0.9126
  13        1.0684
  14        1.0694
  15        1.2515
  16        1.2552
  17        1.3050
  18        1.3596
  19        1.3677
  20        1.4764
  21        1.4768
  22        2.9438
  23        5.1330
  24        5.2222
  25        9.4621
  26        9.5490
  27       11.5828
  28       13.2844
  29       13.6084
  30       14.0696
  31       14.3653
  32       15.6440
 
  0.1944444E+00  0.2777778E-01  0.0000000E+00  0.5144033E-03
   1       -5.2086
   2       -1.4235
   3       -1.2035
   4       -1.2005
   5       -0.8908
   6       -0.8818
   7       -0.8817
   8        0.0707
   9        0.2741
  10        0.2747
  11        0.7847
  12        0.9235
  13        0.9548
  14        0.9565
  15        1.2187
  16        1.2220
  17        1.2823
  18        1.3297
  19        1.3306
  20        1.4764
  21        1.4769
  22        2.5728
  23        5.3471
  24        5.4380
  25        9.5122
  26        9.6016
  27       12.2033
  28       12.8756
  29       13.1916
  30       13.7507
  31       14.0463
  32       15.7997
 
  0.2222222E+00  0.2777778E-01  0.0000000E+00  0.5144033E-03
   1       -5.0807
   2       -1.4550
   3       -1.1537
   4       -1.1510
   5       -0.8607
   6       -0.8474
   7       -0.8473
   8        0.0385
   9        0.3019
  10        0.3021
  11        0.7570
  12        0.8373
  13        0.8397
  14        0.9359
  15        1.1820
  16        1.1851
  17        1.2468
  18        1.2872
  19        1.3073
  20        1.4765
  21        1.4769
  22        2.2160
  23        5.5800
  24        5.6733
  25        9.5713
  26        9.6636
  27       12.4648
  28       12.7694
  29       12.8562
  30       13.4287
  31       13.7182
  32       15.9787
 
  0.2500000E+00  0.2777778E-01  0.0000000E+00  0.5144033E-03
   1       -4.9367
   2       -1.5022
   3       -1.1003
   4       -1.0980
   5       -0.8272
   6       -0.8084
   7       -0.8081
   8        0.0028
   9        0.3328
  10        0.3331
  11        0.7183
  12        0.7213
  13        0.7271
  14        0.9497
  15        1.1422
  16        1.1451
  17        1.1992
  18        1.2409
  19        1.2880
  20        1.4766
  21        1.4770
  22        1.8838
  23        5.8295
  24        5.9258
  25        9.6397
  26        9.7357
  27       12.0552
  28       12.3460
  29       13.1095
  30       13.3890
  31       13.5362
  32       16.1821
 
  0.2777778E+00  0.2777778E-01  0.0000000E+00  0.5144033E-03
   1       -4.7771
   2       -1.5701
   3       -1.0446
   4       -1.0425
   5       -0.7905
   6       -0.7645
   7       -0.7641
   8       -0.0360
   9        0.3666
  10        0.3677
  11        0.5996
  12        0.6030
  13        0.6956
  14        0.9647
  15        1.1000
  16        1.1027
  17        1.1400
  18        1.1914
  19        1.2694
  20        1.4766
  21        1.4770
  22        1.5881
  23        6.0936
  24        6.1937
  25        9.7181
  26        9.8182
  27       11.6488
  28       11.9244
  29       12.7973
  30       13.0644
  31       14.2394
  32       16.3984
 
  0.3055556E+00  0.2777778E-01  0.0000000E+00  0.5144033E-03
   1       -4.6025
   2       -1.6637
   3       -0.9879
   4       -0.9862
   5       -0.7509
   6       -0.7159
   7       -0.7152
   8       -0.0777
   9        0.4033
  10        0.4055
  11        0.4823
  12        0.4861
  13        0.6635
  14        0.9809
  15        1.0565
  16        1.0590
  17        1.0619
  18        1.1392
  19        1.2474
  20        1.3484
  21        1.4767
  22        1.4770
  23        6.3709
  24        6.4755
  25        9.8070
  26        9.9120
  27       11.2470
  28       11.5065
  29       12.4954
  30       12.7485
  31       14.9627
  32       16.6380
 
  0.3333333E+00  0.2777778E-01  0.0000000E+00  0.5144033E-03
   1       -4.4135
   2       -1.7870
   3       -0.9321
   4       -0.9306
   5       -0.7087
   6       -0.6623
   7       -0.6614
   8       -0.1219
   9        0.3677
  10        0.3717
  11        0.4420
  12        0.4464
  13        0.6322
  14        0.9480
  15        0.9981
  16        1.0131
  17        1.0153
  18        1.0849
  19        1.1671
  20        1.2426
  21        1.4768
  22        1.4770
  23        6.6603
  24        6.7702
  25        9.9069
  26       10.0176
  27       10.8509
  28       11.0938
  29       12.2059
  30       12.4443
  31       15.7037
  32       16.8997
 
  0.3611111E+00  0.2777778E-01  0.0000000E+00  0.5144033E-03
   1       -4.2109
   2       -1.9417
   3       -0.8790
   4       -0.8777
   5       -0.6642
   6       -0.6039
   7       -0.6025
   8       -0.1682
   9        0.2563
  10        0.2604
  11        0.4809
  12        0.4902
  13        0.6044
  14        0.8114
  15        0.9713
  16        0.9733
  17        1.0163
  18        1.0290
  19        1.0701
  20        1.2192
  21        1.4768
  22        1.4771
  23        6.9608
  24        7.0768
  25       10.0175
  26       10.1359
  27       10.4619
  28       10.6872
  29       11.9303
  30       12.1539
  31       16.4597
  32       17.1745
 
  0.3888889E+00  0.2777778E-01  0.0000000E+00  0.5144033E-03
   1       -3.9960
   2       -2.1260
   3       -0.8309
   4       -0.8298
   5       -0.6177
   6       -0.5405
   7       -0.5387
   8       -0.2163
   9        0.1488
  10        0.1529
  11        0.5119
  12        0.5367
  13        0.5894
  14        0.6911
  15        0.9330
  16        0.9347
  17        0.9722
  18        0.9969
  19        1.0353
  20        1.1988
  21        1.4769
  22        1.4771
  23        7.2717
  24        7.3946
  25       10.0586
  26       10.1614
  27       10.2676
  28       10.2876
  29       11.6698
  30       11.8787
  31       17.2261
  32       17.4701
 
  0.4166667E+00  0.2777778E-01  0.0000000E+00  0.5144033E-03
   1       -3.7700
   2       -2.3353
   3       -0.7900
   4       -0.7891
   5       -0.5695
   6       -0.4720
   7       -0.4697
   8       -0.2657
   9        0.0455
  10        0.0496
  11        0.5156
  12        0.5856
  13        0.6016
  14        0.6081
  15        0.9002
  16        0.9015
  17        0.9148
  18        0.9320
  19        1.0549
  20        1.1784
  21        1.4769
  22        1.4771
  23        7.5924
  24        7.7232
  25        9.6947
  26        9.8954
  27       10.2860
  28       10.4133
  29       11.4250
  30       11.6197
  31       17.7823
  32       17.8113
 
  0.4444444E+00  0.2777778E-01  0.0000000E+00  0.5144033E-03
   1       -3.5350
   2       -2.5631
   3       -0.7586
   4       -0.7580
   5       -0.5200
   6       -0.3985
   7       -0.3957
   8       -0.3162
   9       -0.0532
  10       -0.0492
  11        0.5032
  12        0.5420
  13        0.6368
  14        0.6508
  15        0.8575
  16        0.8709
  17        0.8749
  18        0.8759
  19        1.0750
  20        1.1578
  21        1.4770
  22        1.4771
  23        7.9223
  24        8.0619
  25        9.3255
  26        9.5113
  27       10.4368
  28       10.5736
  29       11.1962
  30       11.3775
  31       18.1104
  32       18.1495
 
  0.4722222E+00  0.2777778E-01  0.0000000E+00  0.5144033E-03
   1       -3.2931
   2       -2.8027
   3       -0.7388
   4       -0.7385
   5       -0.4695
   6       -0.3672
   7       -0.3198
   8       -0.3166
   9       -0.1471
  10       -0.1432
  11        0.4934
  12        0.5078
  13        0.6899
  14        0.7013
  15        0.8006
  16        0.8121
  17        0.8590
  18        0.8595
  19        1.0955
  20        1.1370
  21        1.4770
  22        1.4771
  23        8.2609
  24        8.4105
  25        8.9630
  26        9.1355
  27       10.6027
  28       10.7483
  29       10.9846
  30       11.1524
  31       18.4537
  32       18.4985
 
  0.5000000E+00  0.2777778E-01  0.0000000E+00  0.2572016E-03
   1       -3.0477
   2       -3.0477
   3       -0.7319
   4       -0.7319
   5       -0.4185
   6       -0.4185
   7       -0.2360
   8       -0.2360
   9       -0.2324
  10       -0.2324
  11        0.4933
  12        0.4933
  13        0.7446
  14        0.7446
  15        0.7555
  16        0.7555
  17        0.8537
  18        0.8537
  19        1.1162
  20        1.1162
  21        1.4771
  22        1.4771
  23        8.6080
  24        8.6080
  25        8.7684
  26        8.7684
  27       10.7819
  28       10.7819
  29       10.9461
  30       10.9461
  31       18.8149
  32       18.8250
 
  0.5555556E-01  0.5555556E-01  0.0000000E+00  0.2572016E-03
   1       -5.5707
   2       -1.3675
   3       -1.3675
   4       -1.3515
   5       -0.9776
   6       -0.9776
   7       -0.9771
   8        0.1671
   9        0.1929
  10        0.1965
  11        0.8719
  12        0.8840
  13        1.3278
  14        1.3322
  15        1.3322
  16        1.3826
  17        1.4142
  18        1.4142
  19        1.4670
  20        1.4670
  21        1.4717
  22        4.3479
  23        4.3479
  24        4.6836
  25        9.3539
  26        9.6644
  27        9.6644
  28       14.4245
  29       15.0605
  30       15.0605
  31       15.1477
  32       15.1477
 
  0.8333333E-01  0.5555556E-01  0.0000000E+00  0.5144033E-03
   1       -5.5273
   2       -1.3689
   3       -1.3481
   4       -1.3326
   5       -0.9670
   6       -0.9663
   7       -0.9660
   8        0.1570
   9        0.2009
  10        0.2056
  11        0.8634
  12        0.8869
  13        1.3089
  14        1.3145
  15        1.3237
  16        1.3249
  17        1.3591
  18        1.4005
  19        1.4509
  20        1.4670
  21        1.4686
  22        4.0732
  23        4.4492
  24        4.7841
  25        9.3723
  26        9.6858
  27       10.0306
  28       14.0460
  29       14.7759
  30       14.9489
  31       15.1206
  32       15.2083
 
  0.1111111E+00  0.5555556E-01  0.0000000E+00  0.5144033E-03
   1       -5.4667
   2       -1.3722
   3       -1.3214
   4       -1.3066
   5       -0.9523
   6       -0.9506
   7       -0.9504
   8        0.1418
   9        0.2135
  10        0.2183
  11        0.8497
  12        0.8926
  13        1.2472
  14        1.2480
  15        1.2961
  16        1.3102
  17        1.3174
  18        1.3829
  19        1.4288
  20        1.4670
  21        1.4671
  22        3.7425
  23        4.5840
  24        4.9189
  25        9.3982
  26        9.7161
  27       10.4907
  28       13.6455
  29       14.4301
  30       14.6975
  31       15.2043
  32       15.2527
 
  0.1388889E+00  0.5555556E-01  0.0000000E+00  0.5144033E-03
   1       -5.3890
   2       -1.3787
   3       -1.2879
   4       -1.2738
   5       -0.9336
   6       -0.9303
   7       -0.9302
   8        0.1219
   9        0.2301
  10        0.2344
  11        0.8320
  12        0.9005
  13        1.1546
  14        1.1550
  15        1.2727
  16        1.2886
  17        1.2900
  18        1.3635
  19        1.4009
  20        1.4664
  21        1.4670
  22        3.3820
  23        4.7475
  24        5.0837
  25        9.4319
  26        9.7555
  27       11.0200
  28       13.2334
  29       14.0466
  30       14.4104
  31       15.0606
  32       15.3112
 
  0.1666667E+00  0.5555556E-01  0.0000000E+00  0.5144033E-03
   1       -5.2943
   2       -1.3905
   3       -1.2480
   4       -1.2349
   5       -0.9110
   6       -0.9055
   7       -0.9055
   8        0.0977
   9        0.2506
  10        0.2541
  11        0.8107
  12        0.9102
  13        1.0487
  14        1.0514
  15        1.2446
  16        1.2585
  17        1.2610
  18        1.3441
  19        1.3677
  20        1.4660
  21        1.4670
  22        3.0114
  23        4.9350
  24        5.2745
  25        9.4737
  26        9.8045
  27       11.6010
  28       12.8168
  29       13.6412
  30       14.1014
  31       14.8099
  32       15.4408
 
  0.1944444E+00  0.5555556E-01  0.0000000E+00  0.5144033E-03
   1       -5.1830
   2       -1.4101
   3       -1.2025
   4       -1.1905
   5       -0.8847
   6       -0.8762
   7       -0.8760
   8        0.0696
   9        0.2747
  10        0.2770
  11        0.7864
  12        0.9215
  13        0.9352
  14        0.9412
  15        1.2123
  16        1.2221
  17        1.2250
  18        1.3256
  19        1.3296
  20        1.4658
  21        1.4670
  22        2.6454
  23        5.1431
  24        5.4879
  25        9.5241
  26        9.8634
  27       12.2222
  28       12.4004
  29       13.2239
  30       13.7813
  31       14.5216
  32       15.5925
 
  0.2222222E+00  0.5555556E-01  0.0000000E+00  0.5144033E-03
   1       -5.0553
   2       -1.4411
   3       -1.1523
   4       -1.1414
   5       -0.8548
   6       -0.8424
   7       -0.8418
   8        0.0377
   9        0.3024
  10        0.3032
  11        0.7594
  12        0.8179
  13        0.8269
  14        0.9344
  15        1.1731
  16        1.1761
  17        1.1880
  18        1.2871
  19        1.3073
  20        1.4657
  21        1.4670
  22        2.2963
  23        5.3686
  24        5.7210
  25        9.5834
  26        9.9327
  27       11.9873
  28       12.8014
  29       12.8757
  30       13.4582
  31       14.2114
  32       15.7655
 
  0.2500000E+00  0.5555556E-01  0.0000000E+00  0.5144033E-03
   1       -4.9116
   2       -1.4877
   3       -1.0983
   4       -1.0887
   5       -0.8215
   6       -0.8039
   7       -0.8029
   8        0.0023
   9        0.3323
  10        0.3336
  11        0.6993