   4   4   0   0
  0.1432269E+02  0.3855034E-09  0.3855034E-09  0.3855034E-09  0.5000000E-15
  1.000000000000000E-004
  CAR 
 unknown system                          
     22.98326774     -7.04627026  301      2.28610474      1.00000000
     -7.046  0.0000E+00  0.0000E+00
     -6.946  0.0000E+00  0.0000E+00
     -6.846  0.0000E+00  0.0000E+00
     -6.746  0.0000E+00  0.0000E+00
     -6.646  0.0000E+00  0.0000E+00
     -6.546  0.0000E+00  0.0000E+00
     -6.446  0.0000E+00  0.0000E+00
     -6.346  0.0000E+00  0.0000E+00
     -6.245  0.0000E+00  0.0000E+00
     -6.145  0.0000E+00  0.0000E+00
     -6.045  0.0000E+00  0.0000E+00
     -5.945  0.0000E+00  0.0000E+00
     -5.845  0.0000E+00  0.0000E+00
     -5.745  0.0000E+00  0.0000E+00
     -5.645  0.1837E-01  0.1839E-02
     -5.545  0.7924E-01  0.1184E-01
     -5.445  0.1382E+00  0.2728E-01
     -5.345  0.1242E+00  0.4874E-01
     -5.244  0.1537E+00  0.6819E-01
     -5.144  0.2489E+00  0.9942E-01
     -5.044  0.1949E+00  0.1264E+00
     -4.944  0.1996E+00  0.1538E+00
     -4.844  0.2962E+00  0.1947E+00
     -4.744  0.2969E+00  0.2260E+00
     -4.644  0.2818E+00  0.2665E+00
     -4.544  0.3472E+00  0.3043E+00
     -4.444  0.4819E+00  0.3534E+00
     -4.344  0.3441E+00  0.3986E+00
     -4.244  0.3195E+00  0.4372E+00
     -4.143  0.4485E+00  0.4927E+00
     -4.043  0.4827E+00  0.5447E+00
     -3.943  0.3856E+00  0.5940E+00
     -3.843  0.5069E+00  0.6530E+00
     -3.743  0.4613E+00  0.7153E+00
     -3.643  0.5910E+00  0.7746E+00
     -3.543  0.4558E+00  0.8340E+00
     -3.443  0.5526E+00  0.9001E+00
     -3.343  0.5360E+00  0.9731E+00
     -3.243  0.4850E+00  0.1034E+01
     -3.142  0.7725E+00  0.1120E+01
     -3.042  0.4836E+00  0.1192E+01
     -2.942  0.7105E+00  0.1281E+01
     -2.842  0.7479E+00  0.1366E+01
     -2.742  0.6581E+00  0.1459E+01
     -2.642  0.7868E+00  0.1562E+01
     -2.542  0.7130E+00  0.1653E+01
     -2.442  0.8949E+00  0.1766E+01
     -2.342  0.1040E+01  0.1890E+01
     -2.242  0.8425E+00  0.2002E+01
     -2.141  0.1216E+01  0.2159E+01
     -2.041  0.1396E+01  0.2330E+01
     -1.941  0.1349E+01  0.2495E+01
     -1.841  0.1946E+01  0.2746E+01
     -1.741  0.2694E+01  0.3067E+01
     -1.641  0.2912E+01  0.3433E+01
     -1.541  0.4297E+01  0.3944E+01
     -1.441  0.4746E+01  0.4514E+01
     -1.341  0.5186E+01  0.5124E+01
     -1.241  0.5473E+01  0.5783E+01
     -1.140  0.7603E+01  0.6669E+01
     -1.040  0.9223E+01  0.7766E+01
     -0.940  0.9922E+01  0.8995E+01
     -0.840  0.8320E+01  0.1007E+02
     -0.740  0.9540E+01  0.1122E+02
     -0.640  0.8673E+01  0.1230E+02
     -0.540  0.1053E+02  0.1359E+02
     -0.440  0.1269E+02  0.1516E+02
     -0.340  0.1332E+02  0.1687E+02
     -0.240  0.1576E+02  0.1884E+02
     -0.139  0.1806E+02  0.2105E+02
     -0.039  0.1957E+02  0.2353E+02
      0.061  0.1263E+02  0.2515E+02
      0.161  0.1098E+02  0.2656E+02
      0.261  0.1324E+02  0.2818E+02
      0.361  0.1635E+02  0.3021E+02
      0.461  0.1517E+02  0.3219E+02
      0.561  0.1367E+02  0.3394E+02
      0.661  0.1442E+02  0.3577E+02
      0.761  0.1908E+02  0.3809E+02
      0.862  0.2232E+02  0.4110E+02
      0.962  0.5312E+01  0.4189E+02
      1.062  0.1879E+01  0.4211E+02
      1.162  0.1547E+01  0.4229E+02
      1.262  0.1207E+01  0.4245E+02
      1.362  0.1459E+01  0.4263E+02
      1.462  0.1298E+01  0.4279E+02
      1.562  0.1108E+01  0.4294E+02
      1.662  0.1361E+01  0.4309E+02
      1.762  0.1326E+01  0.4325E+02
      1.862  0.8906E+00  0.4337E+02
      1.963  0.1588E+01  0.4355E+02
      2.063  0.9543E+00  0.4369E+02
      2.163  0.6534E+00  0.4378E+02
      2.263  0.1384E+01  0.4395E+02
      2.363  0.1036E+01  0.4409E+02
      2.463  0.8671E+00  0.4419E+02
      2.563  0.1289E+01  0.4435E+02
      2.663  0.9571E+00  0.4448E+02
      2.763  0.1229E+01  0.4462E+02
      2.863  0.6584E+00  0.4470E+02
      2.964  0.1179E+01  0.4484E+02
      3.064  0.1241E+01  0.4499E+02
      3.164  0.7811E+00  0.4508E+02
      3.264  0.1010E+01  0.4519E+02
      3.364  0.1031E+01  0.4532E+02
      3.464  0.8090E+00  0.4543E+02
      3.564  0.8697E+00  0.4555E+02
      3.664  0.7550E+00  0.4564E+02
      3.764  0.1175E+01  0.4577E+02
      3.864  0.9419E+00  0.4589E+02
      3.965  0.6228E+00  0.4598E+02
      4.065  0.9104E+00  0.4609E+02
      4.165  0.1035E+01  0.4620E+02
      4.265  0.8881E+00  0.4631E+02
      4.365  0.6589E+00  0.4641E+02
      4.465  0.9144E+00  0.4652E+02
      4.565  0.5276E+00  0.4660E+02
      4.665  0.7519E+00  0.4670E+02
      4.765  0.9814E+00  0.4680E+02
      4.865  0.7231E+00  0.4689E+02
      4.966  0.5384E+00  0.4696E+02
      5.066  0.6811E+00  0.4705E+02
      5.166  0.7275E+00  0.4714E+02
      5.266  0.9888E+00  0.4724E+02
      5.366  0.9010E+00  0.4734E+02
      5.466  0.9393E+00  0.4747E+02
      5.566  0.8818E+00  0.4759E+02
      5.666  0.1125E+01  0.4773E+02
      5.766  0.1202E+01  0.4787E+02
      5.866  0.1262E+01  0.4801E+02
      5.967  0.8541E+00  0.4811E+02
      6.067  0.1233E+01  0.4826E+02
      6.167  0.8271E+00  0.4837E+02
      6.267  0.1226E+01  0.4851E+02
      6.367  0.9346E+00  0.4864E+02
      6.467  0.7193E+00  0.4873E+02
      6.567  0.1040E+01  0.4889E+02
      6.667  0.9976E+00  0.4901E+02
      6.767  0.7928E+00  0.4910E+02
      6.867  0.9673E+00  0.4922E+02
      6.968  0.8287E+00  0.4936E+02
      7.068  0.9683E+00  0.4948E+02
      7.168  0.9567E+00  0.4960E+02
      7.268  0.8147E+00  0.4969E+02
      7.368  0.8981E+00  0.4981E+02
      7.468  0.7801E+00  0.4992E+02
      7.568  0.9667E+00  0.5004E+02
      7.668  0.6544E+00  0.5013E+02
      7.768  0.1094E+01  0.5026E+02
      7.868  0.7110E+00  0.5034E+02
      7.968  0.7503E+00  0.5045E+02
      8.069  0.7917E+00  0.5056E+02
      8.169  0.9647E+00  0.5066E+02
      8.269  0.9058E+00  0.5078E+02
      8.369  0.7075E+00  0.5087E+02
      8.469  0.1189E+01  0.5105E+02
      8.569  0.1046E+01  0.5117E+02
      8.669  0.1010E+01  0.5131E+02
      8.769  0.1243E+01  0.5146E+02
      8.869  0.1005E+01  0.5159E+02
      8.969  0.1332E+01  0.5175E+02
      9.070  0.1207E+01  0.5191E+02
      9.170  0.1215E+01  0.5204E+02
      9.270  0.1230E+01  0.5220E+02
      9.370  0.1408E+01  0.5234E+02
      9.470  0.1390E+01  0.5251E+02
      9.570  0.9292E+00  0.5262E+02
      9.670  0.1483E+01  0.5282E+02
      9.770  0.1299E+01  0.5295E+02
      9.870  0.1182E+01  0.5310E+02
      9.970  0.1223E+01  0.5326E+02
     10.071  0.1415E+01  0.5343E+02
     10.171  0.1290E+01  0.5358E+02
     10.271  0.9840E+00  0.5372E+02
     10.371  0.1388E+01  0.5387E+02
     10.471  0.1118E+01  0.5402E+02
     10.571  0.1397E+01  0.5418E+02
     10.671  0.1557E+01  0.5436E+02
     10.771  0.1299E+01  0.5454E+02
     10.871  0.1225E+01  0.5467E+02
     10.971  0.1425E+01  0.5483E+02
     11.072  0.1420E+01  0.5499E+02
     11.172  0.1033E+01  0.5514E+02
     11.272  0.1282E+01  0.5531E+02
     11.372  0.1116E+01  0.5545E+02
     11.472  0.1477E+01  0.5564E+02
     11.572  0.1502E+01  0.5582E+02
     11.672  0.1731E+01  0.5601E+02
     11.772  0.7197E+00  0.5610E+02
     11.872  0.1479E+01  0.5629E+02
     11.972  0.1513E+01  0.5648E+02
     12.073  0.1324E+01  0.5664E+02
     12.173  0.9716E+00  0.5677E+02
     12.273  0.1093E+01  0.5693E+02
     12.373  0.1599E+01  0.5714E+02
     12.473  0.1162E+01  0.5729E+02
     12.573  0.1490E+01  0.5747E+02
     12.673  0.1233E+01  0.5764E+02
     12.773  0.1303E+01  0.5781E+02
     12.873  0.1629E+01  0.5801E+02
     12.973  0.1302E+01  0.5817E+02
     13.074  0.1217E+01  0.5832E+02
     13.174  0.1526E+01  0.5850E+02
     13.274  0.1519E+01  0.5869E+02
     13.374  0.1530E+01  0.5887E+02
     13.474  0.1554E+01  0.5904E+02
     13.574  0.1544E+01  0.5924E+02
     13.674  0.1708E+01  0.5945E+02
     13.774  0.1293E+01  0.5961E+02
     13.874  0.1374E+01  0.5979E+02
     13.974  0.1533E+01  0.5999E+02
     14.075  0.1938E+01  0.6021E+02
     14.175  0.1585E+01  0.6039E+02
     14.275  0.1049E+01  0.6053E+02
     14.375  0.1622E+01  0.6070E+02
     14.475  0.1161E+01  0.6087E+02
     14.575  0.1434E+01  0.6109E+02
     14.675  0.1154E+01  0.6124E+02
     14.775  0.1173E+01  0.6138E+02
     14.875  0.1184E+01  0.6155E+02
     14.975  0.7714E+00  0.6168E+02
     15.075  0.1003E+01  0.6182E+02
     15.176  0.5786E+00  0.6192E+02
     15.276  0.9465E+00  0.6205E+02
     15.376  0.7502E+00  0.6214E+02
     15.476  0.9254E+00  0.6226E+02
     15.576  0.8462E+00  0.6237E+02
     15.676  0.4598E+00  0.6243E+02
     15.776  0.5247E+00  0.6252E+02
     15.876  0.7886E+00  0.6262E+02
     15.976  0.4967E+00  0.6269E+02
     16.076  0.5144E+00  0.6275E+02
     16.177  0.4715E+00  0.6281E+02
     16.277  0.5154E+00  0.6289E+02
     16.377  0.5371E+00  0.6295E+02
     16.477  0.3991E+00  0.6300E+02
     16.577  0.4468E+00  0.6305E+02
     16.677  0.3611E+00  0.6310E+02
     16.777  0.5031E+00  0.6317E+02
     16.877  0.3854E+00  0.6322E+02
     16.977  0.3988E+00  0.6326E+02
     17.077  0.2257E+00  0.6329E+02
     17.178  0.3572E+00  0.6334E+02
     17.278  0.2624E+00  0.6338E+02
     17.378  0.1821E+00  0.6340E+02
     17.478  0.2354E+00  0.6344E+02
     17.578  0.2497E+00  0.6348E+02
     17.678  0.3124E+00  0.6352E+02
     17.778  0.2769E+00  0.6355E+02
     17.878  0.2101E+00  0.6358E+02
     17.978  0.1343E+00  0.6360E+02
     18.078  0.2419E+00  0.6362E+02
     18.179  0.2997E+00  0.6365E+02
     18.279  0.8401E-01  0.6367E+02
     18.379  0.1367E-01  0.6368E+02
     18.479  0.2668E+00  0.6372E+02
     18.579  0.1964E+00  0.6374E+02
     18.679  0.3406E-02  0.6374E+02
     18.779  0.3061E+00  0.6378E+02
     18.879  0.6938E-01  0.6379E+02
     18.979  0.6921E-01  0.6380E+02
     19.079  0.1643E+00  0.6382E+02
     19.180  0.2081E+00  0.6384E+02
     19.280  0.1398E+00  0.6385E+02
     19.380  0.4199E-01  0.6386E+02
     19.480  0.1012E+00  0.6388E+02
     19.580  0.1041E+00  0.6389E+02
     19.680  0.3214E-01  0.6390E+02
     19.780  0.1929E+00  0.6392E+02
     19.880  0.0000E+00  0.6392E+02
     19.980  0.2932E-09  0.6392E+02
     20.080  0.2279E+00  0.6394E+02
     20.181  0.0000E+00  0.6395E+02
     20.281  0.3220E-02  0.6395E+02
     20.381  0.1387E+00  0.6396E+02
     20.481  0.3469E-01  0.6396E+02
     20.581  0.1994E-05  0.6396E+02
     20.681  0.1041E+00  0.6397E+02
     20.781  0.3469E-01  0.6398E+02
     20.881  0.7217E-11  0.6398E+02
     20.981  0.1041E+00  0.6399E+02
     21.081  0.4520E-13  0.6399E+02
     21.181  0.3896E-01  0.6399E+02
     21.282  0.1734E-01  0.6400E+02
     21.382  0.3453E-01  0.6400E+02
     21.482  0.0000E+00  0.6400E+02
     21.582  0.7625E-09  0.6400E+02
     21.682  0.5781E-02  0.6400E+02
     21.782  0.0000E+00  0.6400E+02
     21.882  0.0000E+00  0.6400E+02
     21.982  0.0000E+00  0.6400E+02
     22.082  0.0000E+00  0.6400E+02
     22.182  0.0000E+00  0.6400E+02
     22.283  0.0000E+00  0.6400E+02
     22.383  0.0000E+00  0.6400E+02
     22.483  0.0000E+00  0.6400E+02
     22.583  0.0000E+00  0.6400E+02
     22.683  0.0000E+00  0.6400E+02
     22.783  0.0000E+00  0.6400E+02
     22.883  0.0000E+00  0.6400E+02
     22.983  0.0000E+00  0.6400E+02
