    4    4    1    1
  0.1432269E+02  0.3855034E-09  0.3855034E-09  0.3855034E-09  0.5000000E-15
  1.000000000000000E-004
  CAR 
 unknown system                          
   44  455   32
 
  0.0000000E+00  0.0000000E+00  0.0000000E+00  0.7233796E-04
   1       -5.6813
   2       -1.5925
   3       -1.5925
   4       -1.5925
   5       -1.2517
   6       -1.2517
   7       -1.2517
   8       -0.2248
   9       -0.2248
  10       -0.2248
  11        0.3881
  12        0.3881
  13        0.7969
  14        0.7969
  15        0.7969
  16        0.9111
  17        0.9111
  18        0.9111
  19        0.9111
  20        0.9111
  21        0.9111
  22        3.9468
  23        3.9468
  24        3.9468
  25        8.1579
  26        8.1579
  27        8.1579
  28       14.0175
  29       14.0175
  30       14.0175
  31       14.0175
  32       14.0175
 
  0.4166667E-01  0.0000000E+00  0.0000000E+00  0.4340278E-03
   1       -5.6629
   2       -1.5931
   3       -1.5846
   4       -1.5846
   5       -1.2474
   6       -1.2472
   7       -1.2472
   8       -0.2293
   9       -0.2210
  10       -0.2210
  11        0.3840
  12        0.3898
  13        0.7916
  14        0.7916
  15        0.7951
  16        0.8855
  17        0.8855
  18        0.9047
  19        0.9047
  20        0.9111
  21        0.9111
  22        3.7979
  23        3.9894
  24        3.9894
  25        8.1661
  26        8.1661
  27        8.3453
  28       13.8751
  29       13.8751
  30       13.9186
  31       13.9186
  32       14.0435
 
  0.8333333E-01  0.0000000E+00  0.0000000E+00  0.4340278E-03
   1       -5.6077
   2       -1.5958
   3       -1.5614
   4       -1.5614
   5       -1.2348
   6       -1.2337
   7       -1.2337
   8       -0.2429
   9       -0.2097
  10       -0.2097
  11        0.3717
  12        0.3950
  13        0.7757
  14        0.7757
  15        0.7898
  16        0.8129
  17        0.8129
  18        0.8859
  19        0.8859
  20        0.9111
  21        0.9111
  22        3.4149
  23        4.1133
  24        4.1133
  25        8.1907
  26        8.1907
  27        8.8444
  28       13.5026
  29       13.5026
  30       13.6481
  31       13.6481
  32       14.1212
 
  0.1250000E+00  0.0000000E+00  0.0000000E+00  0.4340278E-03
   1       -5.5159
   2       -1.6033
   3       -1.5235
   4       -1.5235
   5       -1.2139
   6       -1.2112
   7       -1.2112
   8       -0.2652
   9       -0.1910
  10       -0.1910
  11        0.3517
  12        0.4034
  13        0.7034
  14        0.7034
  15        0.7497
  16        0.7497
  17        0.7811
  18        0.8552
  19        0.8552
  20        0.9112
  21        0.9112
  22        2.9100
  23        4.3080
  24        4.3080
  25        8.2323
  26        8.2323
  27        9.5453
  28       12.9970
  29       12.9970
  30       13.2633
  31       13.2633
  32       14.2498
 
  0.1666667E+00  0.0000000E+00  0.0000000E+00  0.4340278E-03
   1       -5.3880
   2       -1.6205
   3       -1.4724
   4       -1.4724
   5       -1.1852
   6       -1.1795
   7       -1.1795
   8       -0.2958
   9       -0.1649
  10       -0.1649
  11        0.3245
  12        0.4151
  13        0.5692
  14        0.5692
  15        0.7141
  16        0.7141
  17        0.7691
  18        0.8136
  19        0.8136
  20        0.9112
  21        0.9112
  22        2.3644
  23        4.5614
  24        4.5614
  25        8.2917
  26        8.2917
  27       10.3713
  28       12.4277
  29       12.4277
  30       12.8178
  31       12.8178
  32       14.4282
 
  0.2083333E+00  0.0000000E+00  0.0000000E+00  0.4340278E-03
   1       -5.2246
   2       -1.6556
   3       -1.4102
   4       -1.4102
   5       -1.1490
   6       -1.1385
   7       -1.1385
   8       -0.3342
   9       -0.1317
  10       -0.1317
  11        0.2909
  12        0.4205
  13        0.4205
  14        0.4297
  15        0.6700
  16        0.6700
  17        0.7540
  18        0.7625
  19        0.7625
  20        0.9113
  21        0.9113
  22        1.8267
  23        4.8630
  24        4.8630
  25        8.3700
  26        8.3700
  27       11.2811
  28       11.8321
  29       11.8321
  30       12.3494
  31       12.3494
  32       14.6549
 
  0.2500000E+00  0.0000000E+00  0.0000000E+00  0.4340278E-03
   1       -5.0266
   2       -1.7206
   3       -1.3397
   4       -1.3397
   5       -1.1058
   6       -1.0880
   7       -1.0880
   8       -0.3797
   9       -0.0916
  10       -0.0916
  11        0.2523
  12        0.2656
  13        0.2656
  14        0.4471
  15        0.6190
  16        0.6190
  17        0.7033
  18        0.7033
  19        0.7362
  20        0.9114
  21        0.9114
  22        1.3298
  23        5.2045
  24        5.2045
  25        8.4686
  26        8.4686
  27       11.2299
  28       11.2299
  29       11.8823
  30       11.8823
  31       12.2525
  32       14.9282
 
  0.2916667E+00  0.0000000E+00  0.0000000E+00  0.4340278E-03
   1       -4.7951
   2       -1.8315
   3       -1.2645
   4       -1.2645
   5       -1.0565
   6       -1.0279
   7       -1.0279
   8       -0.4314
   9       -0.0449
  10       -0.0449
  11        0.1100
  12        0.1100
  13        0.2103
  14        0.4670
  15        0.5632
  16        0.5632
  17        0.6377
  18        0.6377
  19        0.7158
  20        0.9006
  21        0.9114
  22        0.9114
  23        5.5798
  24        5.5798
  25        8.5891
  26        8.5891
  27       10.6319
  28       10.6319
  29       11.4312
  30       11.4312
  31       13.2733
  32       15.2460
 
  0.3333333E+00  0.0000000E+00  0.0000000E+00  0.4340278E-03
   1       -4.5320
   2       -2.0037
   3       -1.1892
   4       -1.1892
   5       -1.0018
   6       -0.9579
   7       -0.9579
   8       -0.4883
   9       -0.0423
  10       -0.0423
  11        0.0080
  12        0.0080
  13        0.1671
  14        0.4891
  15        0.5061
  16        0.5061
  17        0.5608
  18        0.5673
  19        0.5673
  20        0.6934
  21        0.9115
  22        0.9115
  23        5.9848
  24        5.9848
  25        8.7331
  26        8.7331
  27       10.0441
  28       10.0441
  29       11.0055
  30       11.0055
  31       14.3357
  32       15.6063
 
  0.3750000E+00  0.0000000E+00  0.0000000E+00  0.4340278E-03
   1       -4.2396
   2       -2.2438
   3       -1.1196
   4       -1.1196
   5       -0.9425
   6       -0.8780
   7       -0.8780
   8       -0.5495
   9       -0.1886
  10       -0.1886
  11        0.0666
  12        0.0666
  13        0.1258
  14        0.3199
  15        0.4522
  16        0.4522
  17        0.4938
  18        0.4938
  19        0.5129
  20        0.6692
  21        0.9115
  22        0.9115
  23        6.4165
  24        6.4165
  25        8.9021
  26        8.9021
  27        9.4702
  28        9.4702
  29       10.6110
  30       10.6110
  31       15.4341
  32       16.0069
 
  0.4166667E+00  0.0000000E+00  0.0000000E+00  0.4340278E-03
   1       -3.9215
   2       -2.5424
   3       -1.0622
   4       -1.0622
   5       -0.8796
   6       -0.7879
   7       -0.7879
   8       -0.6138
   9       -0.3272
  10       -0.3272
  11        0.0903
  12        0.1303
  13        0.1303
  14        0.1702
  15        0.4069
  16        0.4069
  17        0.4187
  18        0.4187
  19        0.5380
  20        0.6438
  21        0.9116
  22        0.9116
  23        6.8726
  24        6.8726
  25        8.9124
  26        8.9124
  27        9.0964
  28        9.0964
  29       10.2524
  30       10.2524
  31       16.4458
  32       16.4473
 
  0.4583333E+00  0.0000000E+00  0.0000000E+00  0.4340278E-03
   1       -3.5828
   2       -2.8788
   3       -1.0241
   4       -1.0241
   5       -0.8142
   6       -0.6877
   7       -0.6877
   8       -0.6801
   9       -0.4571
  10       -0.4570
  11        0.0667
  12        0.0918
  13        0.1983
  14        0.1983
  15        0.3436
  16        0.3436
  17        0.3763
  18        0.3763
  19        0.5642
  20        0.6175
  21        0.9116
  22        0.9116
  23        7.3515
  24        7.3515
  25        8.3726
  26        8.3726
  27        9.3104
  28        9.3104
  29        9.9386
  30        9.9386
  31       16.9209
  32       16.9209
 
  0.5000000E+00  0.0000000E+00  0.0000000E+00  0.2170139E-03
   1       -3.2313
   2       -3.2313
   3       -1.0107
   4       -1.0107
   5       -0.7473
   6       -0.7473
   7       -0.5774
   8       -0.5774
   9       -0.5774
  10       -0.5774
  11        0.0631
  12        0.0631
  13        0.2697
  14        0.2697
  15        0.2697
  16        0.2697
  17        0.3655
  18        0.3655
  19        0.5908
  20        0.5908
  21        0.9116
  22        0.9116
  23        7.8519
  24        7.8519
  25        7.8519
  26        7.8519
  27        9.4643
  28        9.4643
  29        9.7512
  30        9.7512
  31       17.4302
  32       17.4302
 
  0.4166667E-01  0.4166667E-01  0.0000000E+00  0.8680556E-03
   1       -5.6445
   2       -1.5852
   3       -1.5852
   4       -1.5768
   5       -1.2430
   6       -1.2430
   7       -1.2427
   8       -0.2319
   9       -0.2192
  10       -0.2173
  11        0.3828
  12        0.3887
  13        0.7863
  14        0.7892
  15        0.7892
  16        0.8646
  17        0.8794
  18        0.8794
  19        0.9047
  20        0.9047
  21        0.9070
  22        3.8400
  23        3.8400
  24        4.0315
  25        8.1743
  26        8.3543
  27        8.3543
  28       13.5259
  29       13.9006
  30       13.9006
  31       13.9441
  32       13.9441
 
  0.8333333E-01  0.4166667E-01  0.0000000E+00  0.1736111E-02
   1       -5.5893
   2       -1.5878
   3       -1.5618
   4       -1.5537
   5       -1.2304
   6       -1.2296
   7       -1.2294
   8       -0.2443
   9       -0.2090
  10       -0.2063
  11        0.3718
  12        0.3929
  13        0.7685
  14        0.7706
  15        0.7819
  16        0.7960
  17        0.8108
  18        0.8615
  19        0.8859
  20        0.9048
  21        0.9048
  22        3.4563
  23        3.9619
  24        4.1536
  25        8.1990
  26        8.3816
  27        8.8551
  28       13.0320
  29       13.5270
  30       13.6727
  31       13.9768
  32       14.0001
 
  0.1250000E+00  0.4166667E-01  0.0000000E+00  0.1736111E-02
   1       -5.4976
   2       -1.5949
   3       -1.5236
   4       -1.5161
   5       -1.2096
   6       -1.2071
   7       -1.2070
   8       -0.2662
   9       -0.1905
  10       -0.1881
  11        0.3522
  12        0.4014
  13        0.6879
  14        0.6895
  15        0.7449
  16        0.7552
  17        0.7682
  18        0.8337
  19        0.8552
  20        0.9042
  21        0.9048
  22        2.9520
  23        4.1528
  24        4.3460
  25        8.2409
  26        8.4277
  27        9.5575
  28       12.4749
  29       13.0206
  30       13.2866
  31       13.7317
  32       14.1040
 
  0.1666667E+00  0.4166667E-01  0.0000000E+00  0.1736111E-02
   1       -5.3699
   2       -1.6118
   3       -1.4722
   4       -1.4654
   5       -1.1810
   6       -1.1756
   7       -1.1755
   8       -0.2966
   9       -0.1646
  10       -0.1627
  11        0.3253
  12        0.4134
  13        0.5556
  14        0.5579
  15        0.7097
  16        0.7170
  17        0.7438
  18        0.8009
  19        0.8136
  20        0.9041
  21        0.9048
  22        2.4089
  23        4.4002
  24        4.5970
  25        8.3006
  26        8.4936
  27       10.3845
  28       11.8917
  29       12.4506
  30       12.8400
  31       13.3389
  32       14.2776
 
  0.2083333E+00  0.4166667E-01  0.0000000E+00  0.1736111E-02
   1       -5.2066
   2       -1.6463
   3       -1.4095
   4       -1.4037
   5       -1.1450
   6       -1.1349
   7       -1.1348
   8       -0.3347
   9       -0.1315
  10       -0.1305
  11        0.2923
  12        0.4073
  13        0.4116
  14        0.4285
  15        0.6660
  16        0.6724
  17        0.7006
  18        0.7624
  19        0.7711
  20        0.9041
  21        0.9048
  22        1.8770
  23        4.6933
  24        4.8964
  25        8.3793
  26        8.5805
  27       11.2949
  28       11.3034
  29       11.8546
  30       12.3706
  31       12.8848
  32       14.4992
 
  0.2500000E+00  0.4166667E-01  0.0000000E+00  0.1736111E-02
   1       -5.0088
   2       -1.7106
   3       -1.3384
   4       -1.3336
   5       -1.1021
   6       -1.0849
   7       -1.0846
   8       -0.3799
   9       -0.0920
  10       -0.0914
  11        0.2527
  12        0.2547
  13        0.2588
  14        0.4465
  15        0.6154
  16        0.6211
  17        0.6360
  18        0.7032
  19        0.7454
  20        0.9041
  21        0.9048
  22        1.3926
  23        5.0234
  24        5.2358
  25        8.4784
  26        8.6900
  27       10.7210
  28       11.2523
  29       11.9026
  30       12.2668
  31       12.4097
  32       14.7660
 
  0.2916667E+00  0.4166667E-01  0.0000000E+00  0.1736111E-02
   1       -4.7776
   2       -1.8206
   3       -1.2625
   4       -1.2587
   5       -1.0530
   6       -1.0256
   7       -1.0247
   8       -0.4313
   9       -0.0478
  10       -0.0447
  11        0.0977
  12        0.1050
  13        0.2146
  14        0.4670
  15        0.5462
  16        0.5602
  17        0.5653
  18        0.6376
  19        0.7186
  20        0.9042
  21        0.9049
  22        0.9935
  23        5.3846
  24        5.6094
  25        8.5994
  26        8.8237
  27       10.1508
  28       10.6543
  29       11.4508
  30       11.9376
  31       13.2878
  32       15.0758
 
  0.3333333E+00  0.4166667E-01  0.0000000E+00  0.1736111E-02
   1       -4.5148
   2       -1.9919
   3       -1.1865
   4       -1.1836
   5       -0.9985
   6       -0.9569
   7       -0.9551
   8       -0.4879
   9       -0.0538
  10       -0.0458
  11       -0.0002
  12        0.0081
  13        0.1760
  14        0.4133
  15        0.4898
  16        0.5037
  17        0.5082
  18        0.5672
  19        0.6698
  20        0.7419
  21        0.9043
  22        0.9049
  23        5.7725
  24        6.0130
  25        8.7439
  26        8.9835
  27        9.5957
  28       10.0666
  29       11.0247
  30       11.4831
  31       14.3503
  32       15.4280
 
  0.3750000E+00  0.4166667E-01  0.0000000E+00  0.1736111E-02
   1       -4.2227
   2       -2.2311
   3       -1.1161
   4       -1.1138
   5       -0.9396
   6       -0.8786
   7       -0.8756
   8       -0.5487
   9       -0.1992
  10       -0.1908
  11        0.0425
  12        0.0667
  13        0.1497
  14        0.2539
  15        0.4503
  16        0.4540
  17        0.4936
  18        0.5144
  19        0.5496
  20        0.6824
  21        0.9044
  22        0.9048
  23        6.1839
  24        6.4434
  25        8.9092
  26        9.0617
  27        9.1705
  28        9.4929
  29       10.6307
  30       11.0556
  31       15.4489
  32       15.8154
 
  0.4166667E+00  0.4166667E-01  0.0000000E+00  0.1736111E-02
   1       -3.9050
   2       -2.5288
   3       -1.0579
   4       -1.0562
   5       -0.8770
   6       -0.7906
   7       -0.7860
   8       -0.6127
   9       -0.3368
  10       -0.3283
  11        0.0543
  12        0.1303
  13        0.1321
  14        0.1654
  15        0.4057
  16        0.4083
  17        0.4186
  18        0.4510
  19        0.5405
  20        0.6523
  21        0.9045
  22        0.9048
  23        6.6165
  24        6.8984
  25        8.5315
  26        8.9355
  27        9.1140
  28        9.3832
  29       10.2753
  30       10.6614
  31       16.2392
  32       16.3023
 
  0.4583333E+00  0.4166667E-01  0.0000000E+00  0.1736111E-02
   1       -3.5669
   2       -2.8643
   3       -1.0189
   4       -1.0180
   5       -0.8119
   6       -0.6925
   7       -0.6864
   8       -0.6786
   9       -0.4653
  10       -0.4572
  11        0.0424
  12        0.0647
  13        0.1982
  14        0.2206
  15        0.3435
  16        0.3667
  17        0.3758
  18        0.3772
  19        0.5677
  20        0.6237
  21        0.9046
  22        0.9048
  23        7.0686
  24        7.3764
  25        8.0270
  26        8.3961
  27        9.3357
  28        9.5968
  29        9.9868
  30       10.3067
  31       16.6967
  32       16.7673
 
  0.5000000E+00  0.4166667E-01  0.0000000E+00  0.8680556E-03
   1       -3.2160
   2       -3.2160
   3       -1.0048
   4       -1.0048
   5       -0.7454
   6       -0.7454
   7       -0.5840
   8       -0.5840
   9       -0.5767
  10       -0.5767
  11        0.0400
  12        0.0400
  13        0.2696
  14        0.2696
  15        0.2899
  16        0.2899
  17        0.3657
  18        0.3657
  19        0.5955
  20        0.5955
  21        0.9047
  22        0.9047
  23        7.5390
  24        7.5390
  25        7.8761
  26        7.8761
  27        9.5659
  28        9.5659
  29       10.0122
  30       10.0122
  31       17.1848
  32       17.1878
 
  0.8333333E-01  0.8333333E-01  0.0000000E+00  0.8680556E-03
   1       -5.5343
   2       -1.5638
   3       -1.5638
   4       -1.5311
   5       -1.2172
   6       -1.2172
   7       -1.2163
   8       -0.2526
   9       -0.2027
  10       -0.1962
  11        0.3674
  12        0.3913
  13        0.7398
  14        0.7469
  15        0.7469
  16        0.7555
  17        0.8047
  18        0.8047
  19        0.8859
  20        0.8859
  21        0.8948
  22        3.5754
  23        3.5754
  24        4.2711
  25        8.2242
  26        8.8876
  27        8.8876
  28       12.4389
  29       13.6001
  30       13.6001
  31       13.7461
  32       13.7461
 
  0.1250000E+00  0.8333333E-01  0.0000000E+00  0.1736111E-02
   1       -5.4429
   2       -1.5702
   3       -1.5249
   4       -1.4943
   5       -1.1967
   6       -1.1951
   7       -1.1944
   8       -0.2716
   9       -0.1868
  10       -0.1794
  11        0.3514
  12        0.3976
  13        0.6449
  14        0.6515
  15        0.7109
  16        0.7305
  17        0.7611
  18        0.7944
  19        0.8551
  20        0.8858
  21        0.8889
  22        3.0712
  23        3.7601
  24        4.4573
  25        8.2667
  26        8.9424
  27        9.5944
  28       11.8225
  29       13.0909
  30       13.3565
  31       13.7209
  32       13.8676
 
  0.1666667E+00  0.8333333E-01  0.0000000E+00  0.1736111E-02
   1       -5.3155
   2       -1.5858
   3       -1.4723
   4       -1.4448
   5       -1.1685
   6       -1.1639
   7       -1.1637
   8       -0.3002
   9       -0.1622
  10       -0.1562
  11        0.3265
  12        0.4098
  13        0.5185
  14        0.5227
  15        0.6602
  16        0.6964
  17        0.7221
  18        0.7800
  19        0.8134
  20        0.8858
  21        0.8860
  22        2.5326
  23        3.9968
  24        4.7018
  25        8.3273
  26        9.0203
  27       10.4244
  28       11.2048
  29       12.5190
  30       12.9063
  31       13.8882
  32       13.9656
 
  0.2083333E+00  0.8333333E-01  0.0000000E+00  0.1736111E-02
   1       -5.1527
   2       -1.6187
   3       -1.4082
   4       -1.3843
   5       -1.1330
   6       -1.1241
   7       -1.1237
   8       -0.3370
   9       -0.1298
  10       -0.1270
  11        0.2954
  12        0.3700
  13        0.3843
  14        0.4260
  15        0.5933
  16        0.6540
  17        0.6772
  18        0.7613
  19        0.7622
  20        0.8847
  21        0.8857
  22        2.0108
  23        4.2744
  24        4.9948
  25        8.4072
  26        9.1225
  27       10.5975
  28       11.3365
  29       11.9219
  30       12.4339
  31       13.6028
  32       14.1003
 
  0.2500000E+00  0.8333333E-01  0.0000000E+00  0.1736111E-02
   1       -4.9555
   2       -1.6809
   3       -1.3354
   4       -1.3156
   5       -1.0908
   6       -1.0756
   7       -1.0742
   8       -0.3810
   9       -0.0928
  10       -0.0902
  11        0.2160
  12        0.2380
  13        0.2606
  14        0.4456
  15        0.5073
  16        0.6048
  17        0.6260
  18        0.7029
  19        0.7378
  20        0.8840
  21        0.8856
  22        1.5437
  23        4.5846
  24        5.3285
  25        8.5078
  26        9.2504
  27       10.0073
  28       11.3191
  29       11.9633
  30       12.3094
  31       13.1752
  32       14.3552
 
  0.2916667E+00  0.8333333E-01  0.0000000E+00  0.1736111E-02
   1       -4.7250
   2       -1.7884
   3       -1.2576
   4       -1.2419
   5       -1.0425
   6       -1.0186
   7       -1.0153
   8       -0.4313
   9       -0.0554
  10       -0.0439
  11        0.0624
  12        0.0897
  13        0.2253
  14        0.3979
  15        0.4681
  16        0.5511
  17        0.5702
  18        0.6372
  19        0.7076
  20        0.8838
  21        0.8854
  22        1.1657
  23        4.9217
  24        5.6972
  25        8.6304
  26        9.4052
  27        9.4380
  28       10.7211
  29       11.5098
  30       12.7242
  31       13.3310
  32       14.6506
 
  0.3333333E+00  0.8333333E-01  0.0000000E+00  0.1736111E-02
   1       -4.4631
   2       -1.9570
   3       -1.1792
   4       -1.1672
   5       -0.9888
   6       -0.9534
   7       -0.9468
   8       -0.4868
   9       -0.0871
  10       -0.0564
  11       -0.0196
  12        0.0087
  13        0.1962
  14        0.2686
  15        0.4932
  16        0.4962
  17        0.5130
  18        0.5668
  19        0.6642
  20        0.8838
  21        0.8853
  22        0.9033
  23        5.2821
  24        6.0965
  25        8.7731
  26        8.8951
  27        9.5874
  28       10.1338
  29       11.0834
  30       12.2740
  31       14.3939
  32       14.9841
 
  0.3750000E+00  0.8333333E-01  0.0000000E+00  0.1736111E-02
   1       -4.1722
   2       -2.1932
   3       -1.1062
   4       -1.0969
   5       -0.9308
   6       -0.8802
   7       -0.8685
   8       -0.5465
   9       -0.2300
  10       -0.1975
  11        0.0042
  12        0.0670
  13        0.1442
  14        0.1863
  15        0.4446
  16        0.4584
  17        0.4933
  18        0.5206
  19        0.5921
  20        0.7590
  21        0.8838
  22        0.8851
  23        5.6634
  24        6.5233
  25        8.3643
  26        8.9525
  27        9.5608
  28        9.7941
  29       10.6942
  30       11.8390
  31       15.3530
  32       15.4970
 
  0.4166667E+00  0.8333333E-01  0.0000000E+00  0.1736111E-02
   1       -3.8559
   2       -2.4881
   3       -1.0453
   4       -1.0384
   5       -0.8692
   6       -0.7984
   7       -0.7804
   8       -0.6093
   9       -0.3644
  10       -0.3318
  11        0.0058
  12        0.0537
  13        0.1304
  14        0.2091
  15        0.4019
  16        0.4118
  17        0.4183
  18        0.4979
  19        0.5498
  20        0.6916
  21        0.8840
  22        0.8849
  23        6.0643
  24        6.9753
  25        7.8630
  26        9.0045
  27        9.1527
  28        9.9915
  29       10.3800
  30       11.4281
  31       15.7550
  32       15.9318
 
  0.4583333E+00  0.8333333E-01  0.0000000E+00  0.1736111E-02
   1       -3.5193
   2       -2.8210
   3       -1.0037
   4       -0.9998
   5       -0.8052
   6       -0.7065
   7       -0.6825
   8       -0.6741
   9       -0.4893
  10       -0.4578
  11       -0.0051
  12        0.0049
  13        0.1982
  14        0.2601
  15        0.3433
  16        0.3740
  17        0.3793
  18        0.4077
  19        0.5808
  20        0.6491
  21        0.8842
  22        0.8847
  23        6.4844
  24        7.3830
  25        7.4507
  26        8.4665
  27        9.3821
  28        9.9068
  29       10.4161
  30       11.0476
  31       16.1874
  32       16.3760
 
  0.5000000E+00  0.8333333E-01  0.0000000E+00  0.8680556E-03
   1       -3.1704
   2       -3.1704
   3       -0.9875
   4       -0.9875
   5       -0.7398
   6       -0.7398
   7       -0.6035
   8       -0.6035
   9       -0.5749
  10       -0.5749
  11       -0.0103
  12       -0.0103
  13        0.2695
  14        0.2695
  15        0.3280
  16        0.3280
  17        0.3659
  18        0.3659
  19        0.6135
  20        0.6135
  21        0.8845
  22        0.8845
  23        6.9237
  24        6.9237
  25        7.9482
  26        7.9482
  27        9.6389
  28        9.6389
  29       10.7038
  30       10.7038
  31       16.6479
  32       16.6479
 
  0.1250000E+00  0.1250000E+00  0.0000000E+00  0.8680556E-03
   1       -5.3519
   2       -1.5299
   3       -1.5299
   4       -1.4589
   5       -1.1751
   6       -1.1751
   7       -1.1733
   8       -0.2855
   9       -0.1755
  10       -0.1650
  11        0.3430
  12        0.3987
  13        0.5672
  14        0.6008
  15        0.6008
  16        0.7069
  17        0.7610
  18        0.7610
  19        0.8549
  20        0.8549
  21        0.8745
  22        3.2529
  23        3.2529
  24        4.6350
  25        8.3103
  26        9.6563
  27        9.6563
  28       11.1675
  29       13.2071
  30       13.2071
  31       13.4720
  32       13.4720
 
  0.1666667E+00  0.1250000E+00  0.0000000E+00  0.1736111E-02
   1       -5.2251
   2       -1.5434
   3       -1.4754
   4       -1.4112
   5       -1.1476
   6       -1.1447
   7       -1.1438
   8       -0.3097
   9       -0.1545
  10       -0.1453
  11        0.3237
  12        0.4088
  13        0.4615
  14        0.4629
  15        0.5359
  16        0.6744
  17        0.7239
  18        0.7537
  19        0.8132
  20        0.8548
  21        0.8647
  22        2.7158
  23        3.4820
  24        4.8700
  25        8.3725
  26        9.7439
  27       10.4910
  28       10.5245
  29       12.6321
  30       13.0163
  31       13.3681
  32       13.6323
 
  0.2083333E+00  0.1250000E+00  0.0000000E+00  0.1736111E-02
   1       -5.0631
   2       -1.5736
   3       -1.4089
   4       -1.3530
   5       -1.1131
   6       -1.1058
   7       -1.1055
   8       -0.3432
   9       -0.1245
  10       -0.1210
  11        0.2966
  12        0.3129
  13        0.3371
  14        0.4259
  15        0.4556
  16        0.6340
  17        0.6800
  18        0.7392
  19        0.7619
  20        0.8545
  21        0.8588
  22        2.1992
  23        3.7471
  24        5.1538
  25        8.4544
  26        9.8580
  27        9.9010
  28       11.4059
  29       12.0332
  30       12.5390
  31       13.5721
  32       13.8358
 
  0.2500000E+00  0.1250000E+00  0.0000000E+00  0.1736111E-02
   1       -4.8669
   2       -1.6324
   3       -1.3331
   4       -1.2867
   5       -1.0719
   6       -1.0598
   7       -1.0572
   8       -0.3845
   9       -0.0934
  10       -0.0865
  11        0.1594
  12        0.2023
  13        0.2660
  14        0.3587
  15        0.4480
  16        0.5871
  17        0.6296
  18        0.7025
  19        0.7171
  20        0.8542
  21        0.8554
  22        1.7381
  23        4.0407
  24        5.4791
  25        8.5573
  26        9.3011
  27        9.9991
  28       11.4296
  29       12.0646
  30       12.3802
  31       13.8171
  32       13.9534
 
  0.2916667E+00  0.1250000E+00  0.0000000E+00  0.1736111E-02
   1       -4.6377
   2       -1.7358
   3       -1.2518
   4       -1.2150
   5       -1.0249
   6       -1.0064
   7       -0.9998
   8       -0.4324
   9       -0.0653
  10       -0.0412
  11        0.0078
  12        0.0636
  13        0.2366
  14        0.2471
  15        0.4740
  16        0.5359
  17        0.5745
  18        0.6367
  19        0.6862
  20        0.8534
  21        0.8539
  22        1.3599
  23        4.3581
  24        5.8403
  25        8.6794
  26        8.7308
  27       10.1668
  28       10.8315
  29       11.6095
  30       13.4020
  31       13.5512
  32       14.1010
 
  0.3333333E+00  0.1250000E+00  0.0000000E+00  0.1736111E-02
   1       -4.3774
   2       -1.8998
   3       -1.1695
   4       -1.1412
   5       -0.9727
   6       -0.9468
   7       -0.9330
   8       -0.4857
   9       -0.1386
  10       -0.0746
  11       -0.0423
  12        0.0106
  13        0.1317
  14        0.2162
  15        0.4836
  16        0.5033
  17        0.5175
  18        0.5663
  19        0.6438
  20        0.8524
  21        0.8535
  22        1.0797
  23        4.6969
  24        6.2331
  25        8.1793
  26        8.8341
  27       10.2448
  28       10.3558
  29       11.1888
  30       13.1255
  31       14.4214
  32       14.4606
 
  0.3750000E+00  0.1250000E+00  0.0000000E+00  0.1736111E-02
   1       -4.0884
   2       -2.1313
   3       -1.0920
   4       -1.0702
   5       -0.9162
   6       -0.8819
   7       -0.8569
   8       -0.5433
   9       -0.2775
  10       -0.2091
  11       -0.0327
  12        0.0331
  13        0.0683
  14        0.2156
  15        0.4347
  16        0.4627
  17        0.4928
  18        0.5358
  19        0.5855
  20        0.8519
  21        0.8531
  22        0.8931
  23        5.0558
  24        6.6544
  25        7.6594
  26        9.0109
  27        9.6730
  28       10.5092
  29       10.8657
  30       12.7005
  31       14.7762
  32       15.0428
 
  0.4166667E+00  0.1250000E+00  0.0000000E+00  0.1736111E-02
   1       -3.7744
   2       -2.4213
   3       -1.0262
   4       -1.0096
   5       -0.8563
   6       -0.8107
   7       -0.7713
   8       -0.6041
   9       -0.4074
  10       -0.3377
  11       -0.0397
  12       -0.0325
  13        0.1312
  14        0.2415
  15        0.3948
  16        0.4151
  17        0.4179
  18        0.5110
  19        0.5712
  20        0.7786
  21        0.8517
  22        0.8528
  23        5.4345
  24        7.1016
  25        7.1659
  26        9.1184
  27        9.2162
  28       10.3256
  29       10.9450
  30       12.2900
  31       15.1629
  32       15.4366
 
  0.4583333E+00  0.1250000E+00  0.0000000E+00  0.1736111E-02
   1       -3.4407
   2       -2.7498
   3       -0.9797
   4       -0.9700
   5       -0.7941
   6       -0.7294
   7       -0.6763
   8       -0.6669
   9       -0.5270
  10       -0.4590
  11       -0.0633