       N       E                     dE             d eps       ncg     rms          rms(c)
DAV:   1     0.328229747169E+03    0.32823E+03   -0.27020E+04 29536   0.270E+03
DAV:   2     0.609221082860E+01   -0.32214E+03   -0.30705E+03 29184   0.419E+02
DAV:   3    -0.171373217233E+02   -0.23230E+02   -0.22543E+02 32216   0.136E+02
DAV:   4    -0.174404983361E+02   -0.30318E+00   -0.30296E+00 32336   0.164E+01
DAV:   5    -0.174410914455E+02   -0.59311E-03   -0.59310E-03 32856   0.658E-01    0.133E+01
DAV:   6    -0.160985250521E+02    0.13426E+01   -0.26885E+01 31872   0.798E+01    0.784E+00
DAV:   7    -0.143716649957E+02    0.17269E+01   -0.58108E+00 33064   0.363E+01    0.788E-01
DAV:   8    -0.143583657714E+02    0.13299E-01   -0.81310E-02 33680   0.303E+00    0.824E-01
DAV:   9    -0.143452734830E+02    0.13092E-01   -0.36145E-02 33416   0.286E+00    0.801E-02
DAV:  10    -0.143452535299E+02    0.19953E-04   -0.90430E-04 33144   0.380E-01    0.106E-02
DAV:  11    -0.143452567941E+02   -0.32643E-05   -0.13962E-05 33104   0.342E-02    0.177E-03
DAV:  12    -0.143452586239E+02   -0.18298E-05   -0.17705E-06 33696   0.185E-02    0.182E-03
DAV:  13    -0.143452596149E+02   -0.99095E-06   -0.27648E-07 33480   0.763E-03    0.499E-04
DAV:  14    -0.143452596053E+02    0.95724E-08   -0.13178E-08 20048   0.185E-03
   1 F= -.14345260E+02 E0= -.14345192E+02  d E =-.135094E-03
