 running on    8 nodes
 distr:  one band on    1 nodes,    8 groups
 vasp.4.6.28 25Jul05 complex 
 POSCAR found :  1 types and    4 ions
 LDA part: xc-table for Pade appr. of Perdew
 POSCAR, INCAR and KPOINTS ok, starting setup
 FFT: planning ...           1
 reading WAVECAR
 WARNING: random wavefunctions but no delay for mixing, default for NELMDL
 entering main loop
       N       E                     dE             d eps       ncg     rms          rms(c)
DAV:   1     0.356723915681E+03    0.35672E+03   -0.31002E+04 86704   0.320E+03
DAV:   2     0.966499822482E+01   -0.34706E+03   -0.33061E+03 85232   0.469E+02
DAV:   3    -0.174662645979E+02   -0.27131E+02   -0.26252E+02 93336   0.153E+02
DAV:   4    -0.178590052425E+02   -0.39274E+00   -0.39237E+00 95536   0.189E+01
DAV:   5    -0.178597726861E+02   -0.76744E-03   -0.76743E-03 95072   0.783E-01    0.135E+01
DAV:   6    -0.162486836950E+02    0.16111E+01   -0.26193E+01 93112   0.803E+01    0.746E+00
DAV:   7    -0.146512152540E+02    0.15975E+01   -0.54542E+00 96704   0.358E+01    0.906E-01
DAV:   8    -0.146301796420E+02    0.21036E-01   -0.62026E-02 95376   0.247E+00    0.763E-01
DAV:   9    -0.146189245558E+02    0.11255E-01   -0.26748E-02 97848   0.253E+00    0.546E-02
DAV:  10    -0.146189655583E+02   -0.41002E-04   -0.69901E-04 94248   0.292E-01    0.109E-02
DAV:  11    -0.146189651353E+02    0.42301E-06   -0.88287E-06 98368   0.328E-02    0.415E-03
DAV:  12    -0.146189690690E+02   -0.39337E-05   -0.16795E-07112112   0.553E-03    0.522E-04
DAV:  13    -0.146189696421E+02   -0.57309E-06   -0.15636E-08 69752   0.112E-03    0.139E-04
DAV:  14    -0.146189696438E+02   -0.17526E-08   -0.88762E-10 55680   0.340E-04
   1 F= -.14618970E+02 E0= -.14618937E+02  d E =-.651021E-04
