   4   4   0   0
  0.1352717E+02  0.3782297E-09  0.3782297E-09  0.3782297E-09  0.5000000E-15
  1.000000000000000E-004
  CAR 
 unknown system                          
     24.27587471     -7.08183175  301      2.71985449      1.00000000
     -7.082  0.0000E+00  0.0000E+00
     -6.977  0.0000E+00  0.0000E+00
     -6.873  0.0000E+00  0.0000E+00
     -6.768  0.0000E+00  0.0000E+00
     -6.664  0.0000E+00  0.0000E+00
     -6.559  0.0000E+00  0.0000E+00
     -6.455  0.0000E+00  0.0000E+00
     -6.350  0.0000E+00  0.0000E+00
     -6.246  0.0000E+00  0.0000E+00
     -6.141  0.0000E+00  0.0000E+00
     -6.037  0.0000E+00  0.0000E+00
     -5.932  0.0000E+00  0.0000E+00
     -5.828  0.0000E+00  0.0000E+00
     -5.723  0.0000E+00  0.0000E+00
     -5.618  0.1553E-01  0.1624E-02
     -5.514  0.8033E-01  0.1187E-01
     -5.409  0.1233E+00  0.2853E-01
     -5.305  0.1552E+00  0.4841E-01
     -5.200  0.1843E+00  0.7229E-01
     -5.096  0.2014E+00  0.9782E-01
     -4.991  0.1956E+00  0.1263E+00
     -4.887  0.2536E+00  0.1602E+00
     -4.782  0.2406E+00  0.1918E+00
     -4.678  0.2697E+00  0.2295E+00
     -4.573  0.3042E+00  0.2674E+00
     -4.469  0.2803E+00  0.3058E+00
     -4.364  0.3256E+00  0.3530E+00
     -4.260  0.3418E+00  0.3952E+00
     -4.155  0.3418E+00  0.4453E+00
     -4.051  0.3364E+00  0.4952E+00
     -3.946  0.4354E+00  0.5514E+00
     -3.842  0.3755E+00  0.6002E+00
     -3.737  0.4410E+00  0.6618E+00
     -3.632  0.4825E+00  0.7200E+00
     -3.528  0.4532E+00  0.7792E+00
     -3.423  0.4781E+00  0.8468E+00
     -3.319  0.5043E+00  0.9123E+00
     -3.214  0.4781E+00  0.9837E+00
     -3.110  0.5560E+00  0.1057E+01
     -3.005  0.5624E+00  0.1133E+01
     -2.901  0.5808E+00  0.1214E+01
     -2.796  0.6639E+00  0.1299E+01
     -2.692  0.6469E+00  0.1388E+01
     -2.587  0.7398E+00  0.1482E+01
     -2.483  0.7199E+00  0.1580E+01
     -2.378  0.8865E+00  0.1690E+01
     -2.274  0.8653E+00  0.1803E+01
     -2.169  0.9851E+00  0.1929E+01
     -2.065  0.1099E+01  0.2066E+01
     -1.960  0.1095E+01  0.2213E+01
     -1.856  0.1323E+01  0.2392E+01
     -1.751  0.1597E+01  0.2604E+01
     -1.646  0.2128E+01  0.2886E+01
     -1.542  0.2579E+01  0.3227E+01
     -1.437  0.3249E+01  0.3656E+01
     -1.333  0.4155E+01  0.4213E+01
     -1.228  0.4328E+01  0.4794E+01
     -1.124  0.4543E+01  0.5408E+01
     -1.019  0.5513E+01  0.6138E+01
     -0.915  0.7357E+01  0.7118E+01
     -0.810  0.8471E+01  0.8268E+01
     -0.706  0.8056E+01  0.9427E+01
     -0.601  0.7735E+01  0.1047E+02
     -0.497  0.7963E+01  0.1156E+02
     -0.392  0.7484E+01  0.1260E+02
     -0.288  0.9711E+01  0.1388E+02
     -0.183  0.1130E+02  0.1542E+02
     -0.079  0.1189E+02  0.1708E+02
      0.026  0.1459E+02  0.1898E+02
      0.130  0.1515E+02  0.2107E+02
      0.235  0.1770E+02  0.2346E+02
      0.339  0.1137E+02  0.2506E+02
      0.444  0.9700E+01  0.2639E+02
      0.549  0.1110E+02  0.2786E+02
      0.653  0.1400E+02  0.2975E+02
      0.758  0.1442E+02  0.3171E+02
      0.862  0.1242E+02  0.3340E+02
      0.967  0.1243E+02  0.3507E+02
      1.071  0.1450E+02  0.3699E+02
      1.176  0.2383E+02  0.4004E+02
      1.280  0.1099E+02  0.4177E+02
      1.385  0.1562E+01  0.4202E+02
      1.489  0.1491E+01  0.4221E+02
      1.594  0.1401E+01  0.4238E+02
      1.698  0.1354E+01  0.4256E+02
      1.803  0.1321E+01  0.4273E+02
      1.907  0.1257E+01  0.4289E+02
      2.012  0.1111E+01  0.4304E+02
      2.116  0.1057E+01  0.4319E+02
      2.221  0.1213E+01  0.4335E+02
      2.325  0.9705E+00  0.4348E+02
      2.430  0.1134E+01  0.4363E+02
      2.535  0.1108E+01  0.4377E+02
      2.639  0.9615E+00  0.4392E+02
      2.744  0.9873E+00  0.4404E+02
      2.848  0.9489E+00  0.4419E+02
      2.953  0.9220E+00  0.4431E+02
      3.057  0.9381E+00  0.4444E+02
      3.162  0.7892E+00  0.4456E+02
      3.266  0.1150E+01  0.4470E+02
      3.371  0.7888E+00  0.4482E+02
      3.475  0.9436E+00  0.4494E+02
      3.580  0.9077E+00  0.4507E+02
      3.684  0.6707E+00  0.4517E+02
      3.789  0.1042E+01  0.4531E+02
      3.893  0.6983E+00  0.4541E+02
      3.998  0.7125E+00  0.4552E+02
      4.102  0.9485E+00  0.4565E+02
      4.207  0.7161E+00  0.4575E+02
      4.311  0.8208E+00  0.4586E+02
      4.416  0.8967E+00  0.4599E+02
      4.521  0.7254E+00  0.4609E+02
      4.625  0.8282E+00  0.4620E+02
      4.730  0.8180E+00  0.4631E+02
      4.834  0.7053E+00  0.4641E+02
      4.939  0.6589E+00  0.4650E+02
      5.043  0.7929E+00  0.4661E+02
      5.148  0.6798E+00  0.4670E+02
      5.252  0.5827E+00  0.4679E+02
      5.357  0.7872E+00  0.4689E+02
      5.461  0.5415E+00  0.4697E+02
      5.566  0.4595E+00  0.4704E+02
      5.670  0.6886E+00  0.4713E+02
      5.775  0.5762E+00  0.4721E+02
      5.879  0.5603E+00  0.4729E+02
      5.984  0.7899E+00  0.4740E+02
      6.088  0.9639E+00  0.4754E+02
      6.193  0.9830E+00  0.4767E+02
      6.297  0.8069E+00  0.4778E+02
      6.402  0.9043E+00  0.4791E+02
      6.507  0.1050E+01  0.4806E+02
      6.611  0.9591E+00  0.4819E+02
      6.716  0.1001E+01  0.4831E+02
      6.820  0.9518E+00  0.4844E+02
      6.925  0.8607E+00  0.4857E+02
      7.029  0.9292E+00  0.4870E+02
      7.134  0.8704E+00  0.4882E+02
      7.238  0.1008E+01  0.4895E+02
      7.343  0.9089E+00  0.4907E+02
      7.447  0.8344E+00  0.4919E+02
      7.552  0.8790E+00  0.4931E+02
      7.656  0.1039E+01  0.4944E+02
      7.761  0.8061E+00  0.4955E+02
      7.865  0.8406E+00  0.4967E+02
      7.970  0.7717E+00  0.4978E+02
      8.074  0.9516E+00  0.4990E+02
      8.179  0.8669E+00  0.5001E+02
      8.283  0.7869E+00  0.5011E+02
      8.388  0.8955E+00  0.5022E+02
      8.492  0.7836E+00  0.5033E+02
      8.597  0.7566E+00  0.5043E+02
      8.702  0.7356E+00  0.5053E+02
      8.806  0.7407E+00  0.5063E+02
      8.911  0.7419E+00  0.5074E+02
      9.015  0.9012E+00  0.5086E+02
      9.120  0.9587E+00  0.5099E+02
      9.224  0.9530E+00  0.5112E+02
      9.329  0.1090E+01  0.5126E+02
      9.433  0.9603E+00  0.5140E+02
      9.538  0.9443E+00  0.5154E+02
      9.642  0.1048E+01  0.5168E+02
      9.747  0.1008E+01  0.5183E+02
      9.851  0.1212E+01  0.5200E+02
      9.956  0.1068E+01  0.5214E+02
     10.060  0.1046E+01  0.5228E+02
     10.165  0.1089E+01  0.5244E+02
     10.269  0.1249E+01  0.5260E+02
     10.374  0.1042E+01  0.5275E+02
     10.478  0.1159E+01  0.5291E+02
     10.583  0.1199E+01  0.5305E+02
     10.688  0.1163E+01  0.5322E+02
     10.792  0.1245E+01  0.5338E+02
     10.897  0.1174E+01  0.5354E+02
     11.001  0.1019E+01  0.5369E+02
     11.106  0.1211E+01  0.5385E+02
     11.210  0.1119E+01  0.5400E+02
     11.315  0.1347E+01  0.5418E+02
     11.419  0.1185E+01  0.5433E+02
     11.524  0.1297E+01  0.5449E+02
     11.628  0.1082E+01  0.5464E+02
     11.733  0.1250E+01  0.5481E+02
     11.837  0.1149E+01  0.5497E+02
     11.942  0.1103E+01  0.5513E+02
     12.046  0.1294E+01  0.5531E+02
     12.151  0.1129E+01  0.5547E+02
     12.255  0.1201E+01  0.5563E+02
     12.360  0.1199E+01  0.5579E+02
     12.464  0.1375E+01  0.5596E+02
     12.569  0.1075E+01  0.5613E+02
     12.674  0.1387E+01  0.5631E+02
     12.778  0.1175E+01  0.5646E+02
     12.883  0.1316E+01  0.5663E+02
     12.987  0.1137E+01  0.5681E+02
     13.092  0.1256E+01  0.5697E+02
     13.196  0.1303E+01  0.5714E+02
     13.301  0.1342E+01  0.5732E+02
     13.405  0.1355E+01  0.5750E+02
     13.510  0.1264E+01  0.5767E+02
     13.614  0.1087E+01  0.5782E+02
     13.719  0.1443E+01  0.5801E+02
     13.823  0.1411E+01  0.5820E+02
     13.928  0.1217E+01  0.5836E+02
     14.032  0.1337E+01  0.5855E+02
     14.137  0.1400E+01  0.5875E+02
     14.241  0.1158E+01  0.5890E+02
     14.346  0.1463E+01  0.5910E+02
     14.450  0.1263E+01  0.5928E+02
     14.555  0.1384E+01  0.5946E+02
     14.660  0.1509E+01  0.5966E+02
     14.764  0.1367E+01  0.5985E+02
     14.869  0.1485E+01  0.6006E+02
     14.973  0.1382E+01  0.6025E+02
     15.078  0.1294E+01  0.6043E+02
     15.182  0.1416E+01  0.6062E+02
     15.287  0.1217E+01  0.6078E+02
     15.391  0.1222E+01  0.6096E+02
     15.496  0.1256E+01  0.6113E+02
     15.600  0.1175E+01  0.6129E+02
     15.705  0.1134E+01  0.6145E+02
     15.809  0.1068E+01  0.6159E+02
     15.914  0.1154E+01  0.6174E+02
     16.018  0.8335E+00  0.6186E+02
     16.123  0.9990E+00  0.6199E+02
     16.227  0.8900E+00  0.6210E+02
     16.332  0.7467E+00  0.6220E+02
     16.436  0.7325E+00  0.6231E+02
     16.541  0.6263E+00  0.6239E+02
     16.645  0.5081E+00  0.6247E+02
     16.750  0.6503E+00  0.6256E+02
     16.855  0.6042E+00  0.6264E+02
     16.959  0.4652E+00  0.6271E+02
     17.064  0.4478E+00  0.6278E+02
     17.168  0.4750E+00  0.6285E+02
     17.273  0.5428E+00  0.6291E+02
     17.377  0.4311E+00  0.6298E+02
     17.482  0.4684E+00  0.6304E+02
     17.586  0.3849E+00  0.6309E+02
     17.691  0.4557E+00  0.6315E+02
     17.795  0.3893E+00  0.6320E+02
     17.900  0.2512E+00  0.6323E+02
     18.004  0.3897E+00  0.6329E+02
     18.109  0.1945E+00  0.6332E+02
     18.213  0.3069E+00  0.6336E+02
     18.318  0.2373E+00  0.6340E+02
     18.422  0.2950E+00  0.6344E+02
     18.527  0.1627E+00  0.6346E+02
     18.631  0.2338E+00  0.6350E+02
     18.736  0.2357E+00  0.6353E+02
     18.841  0.1517E+00  0.6356E+02
     18.945  0.2087E+00  0.6359E+02
     19.050  0.1897E+00  0.6362E+02
     19.154  0.1738E+00  0.6364E+02
     19.259  0.1667E+00  0.6366E+02
     19.363  0.1599E+00  0.6369E+02
     19.468  0.1581E+00  0.6371E+02
     19.572  0.1964E+00  0.6373E+02
     19.677  0.1921E+00  0.6375E+02
     19.781  0.1099E+00  0.6377E+02
     19.886  0.8861E-01  0.6378E+02
     19.990  0.1276E+00  0.6380E+02
     20.095  0.1573E+00  0.6382E+02
     20.199  0.6103E-01  0.6383E+02
     20.304  0.1288E+00  0.6385E+02
     20.408  0.6216E-01  0.6386E+02
     20.513  0.1418E+00  0.6388E+02
     20.617  0.5979E-01  0.6389E+02
     20.722  0.1229E+00  0.6390E+02
     20.827  0.4917E-01  0.6391E+02
     20.931  0.9754E-01  0.6392E+02
     21.036  0.8387E-01  0.6393E+02
     21.140  0.9037E-01  0.6394E+02
     21.245  0.3109E-01  0.6394E+02
     21.349  0.6937E-01  0.6395E+02
     21.454  0.4245E-01  0.6396E+02
     21.558  0.4908E-01  0.6396E+02
     21.663  0.5905E-01  0.6397E+02
     21.767  0.4604E-01  0.6397E+02
     21.872  0.2070E-09  0.6398E+02
     21.976  0.5865E-01  0.6398E+02
     22.081  0.1075E-02  0.6398E+02
     22.185  0.3941E-01  0.6399E+02
     22.290  0.1378E-01  0.6399E+02
     22.394  0.9843E-02  0.6399E+02
     22.499  0.2859E-01  0.6400E+02
     22.603  0.5478E-02  0.6400E+02
     22.708  0.7583E-03  0.6400E+02
     22.813  0.1901E-09  0.6400E+02
     22.917  0.1640E-02  0.6400E+02
     23.022  0.0000E+00  0.6400E+02
     23.126  0.0000E+00  0.6400E+02
     23.231  0.0000E+00  0.6400E+02
     23.335  0.0000E+00  0.6400E+02
     23.440  0.0000E+00  0.6400E+02
     23.544  0.0000E+00  0.6400E+02
     23.649  0.0000E+00  0.6400E+02
     23.753  0.0000E+00  0.6400E+02
     23.858  0.0000E+00  0.6400E+02
     23.962  0.0000E+00  0.6400E+02
     24.067  0.0000E+00  0.6400E+02
     24.171  0.0000E+00  0.6400E+02
     24.276  0.0000E+00  0.6400E+02
