    4    4    1    1
  0.1352717E+02  0.3782297E-09  0.3782297E-09  0.3782297E-09  0.5000000E-15
  1.000000000000000E-004
  CAR 
 unknown system                          
   44 1330   32
 
  0.0000000E+00  0.0000000E+00  0.0000000E+00  0.2143347E-04
   1       -5.6565
   2       -1.4548
   3       -1.4548
   4       -1.4548
   5       -1.0838
   6       -1.0837
   7       -1.0837
   8        0.0403
   9        0.0403
  10        0.0403
  11        0.7105
  12        0.7105
  13        1.1567
  14        1.1567
  15        1.1567
  16        1.2815
  17        1.2815
  18        1.2815
  19        1.2815
  20        1.2815
  21        1.2815
  22        4.3167
  23        4.3167
  24        4.3167
  25        8.9214
  26        8.9214
  27        8.9214
  28       14.8386
  29       14.8386
  30       14.8386
  31       14.8386
  32       14.8386
 
  0.2777778E-01  0.0000000E+00  0.0000000E+00  0.1286008E-03
   1       -5.6480
   2       -1.4550
   3       -1.4510
   4       -1.4510
   5       -1.0817
   6       -1.0816
   7       -1.0816
   8        0.0381
   9        0.0422
  10        0.0422
  11        0.7085
  12        0.7113
  13        1.1541
  14        1.1541
  15        1.1559
  16        1.2686
  17        1.2686
  18        1.2784
  19        1.2784
  20        1.2815
  21        1.2815
  22        4.2502
  23        4.3376
  24        4.3376
  25        8.9250
  26        8.9250
  27        9.0055
  28       14.7716
  29       14.7716
  30       14.7941
  31       14.7941
  32       14.8508
 
  0.5555556E-01  0.0000000E+00  0.0000000E+00  0.1286008E-03
   1       -5.6224
   2       -1.4557
   3       -1.4398
   4       -1.4398
   5       -1.0755
   6       -1.0751
   7       -1.0751
   8        0.0314
   9        0.0476
  10        0.0476
  11        0.7024
  12        0.7138
  13        1.1464
  14        1.1464
  15        1.1533
  16        1.2307
  17        1.2307
  18        1.2692
  19        1.2692
  20        1.2816
  21        1.2816
  22        4.0641
  23        4.3989
  24        4.3989
  25        8.9359
  26        8.9359
  27        9.2445
  28       14.5839
  29       14.5839
  30       14.6661
  31       14.6661
  32       14.8873
 
  0.8333333E-01  0.0000000E+00  0.0000000E+00  0.1286008E-03
   1       -5.5798
   2       -1.4576
   3       -1.4214
   4       -1.4214
   5       -1.0654
   6       -1.0643
   7       -1.0643
   8        0.0204
   9        0.0567
  10        0.0567
  11        0.6924
  12        0.7180
  13        1.1335
  14        1.1335
  15        1.1490
  16        1.1707
  17        1.1707
  18        1.2539
  19        1.2539
  20        1.2816
  21        1.2816
  22        3.7895
  23        4.4980
  24        4.4980
  25        8.9541
  26        8.9541
  27        9.6076
  28       14.3055
  29       14.3055
  30       14.4688
  31       14.4688
  32       14.9479
 
  0.1111111E+00  0.0000000E+00  0.0000000E+00  0.1286008E-03
   1       -5.5203
   2       -1.4614
   3       -1.3959
   4       -1.3959
   5       -1.0512
   6       -1.0490
   7       -1.0490
   8        0.0051
   9        0.0694
  10        0.0694
  11        0.6786
  12        0.7237
  13        1.0927
  14        1.0927
  15        1.1156
  16        1.1156
  17        1.1431
  18        1.2328
  19        1.2328
  20        1.2816
  21        1.2816
  22        3.4591
  23        4.6307
  24        4.6307
  25        8.9799
  26        8.9799
  27       10.0632
  28       13.9667
  29       13.9667
  30       14.2196
  31       14.2196
  32       15.0323
 
  0.1388889E+00  0.0000000E+00  0.0000000E+00  0.1286008E-03
   1       -5.4441
   2       -1.4686
   3       -1.3639
   4       -1.3639
   5       -1.0331
   6       -1.0294
   7       -1.0294
   8       -0.0144
   9        0.0857
  10        0.0857
  11        0.6612
  12        0.7310
  13        1.0009
  14        1.0009
  15        1.0929
  16        1.0929
  17        1.1355
  18        1.2062
  19        1.2062
  20        1.2817
  21        1.2817
  22        3.0987
  23        4.7928
  24        4.7928
  25        9.0135
  26        9.0135
  27       10.5864
  28       13.5907
  29       13.5907
  30       13.9353
  31       13.9353
  32       15.1403
 
  0.1666667E+00  0.0000000E+00  0.0000000E+00  0.1286008E-03
   1       -5.3512
   2       -1.4812
   3       -1.3259
   4       -1.3259
   5       -1.0113
   6       -1.0054
   7       -1.0054
   8       -0.0378
   9        0.1055
  10        0.1055
  11        0.6404
  12        0.7399
  13        0.8992
  14        0.8992
  15        1.0657
  16        1.0657
  17        1.1263
  18        1.1746
  19        1.1746
  20        1.2817
  21        1.2817
  22        2.7271
  23        4.9804
  24        4.9804
  25        9.0552
  26        9.0552
  27       11.1603
  28       13.1929
  29       13.1929
  30       13.6296
  31       13.6296
  32       15.2713
 
  0.1944444E+00  0.0000000E+00  0.0000000E+00  0.1286008E-03
   1       -5.2419
   2       -1.5017
   3       -1.2825
   4       -1.2825
   5       -0.9858
   6       -0.9769
   7       -0.9769
   8       -0.0651
   9        0.1287
  10        0.1287
  11        0.6165
  12        0.7502
  13        0.7909
  14        0.7909
  15        1.0343
  16        1.0343
  17        1.1157
  18        1.1382
  19        1.1382
  20        1.2817
  21        1.2817
  22        2.3579
  23        5.1900
  24        5.1900
  25        9.1054
  26        9.1054
  27       11.7734
  28       12.7834
  29       12.7834
  30       13.3133
  31       13.3133
  32       15.4249
 
  0.2222222E+00  0.0000000E+00  0.0000000E+00  0.1286008E-03
   1       -5.1165
   2       -1.5336
   3       -1.2347
   4       -1.2347
   5       -0.9569
   6       -0.9438
   7       -0.9438
   8       -0.0959
   9        0.1554
  10        0.1554
  11        0.5899
  12        0.6788
  13        0.6788
  14        0.7619
  15        0.9992
  16        0.9992
  17        1.0977
  18        1.0977
  19        1.1037
  20        1.2818
  21        1.2818
  22        2.0017
  23        5.4188
  24        5.4188
  25        9.1645
  26        9.1645
  27       12.3685
  28       12.3685
  29       12.4182
  30       12.9940
  31       12.9940
  32       15.6005
 
  0.2500000E+00  0.0000000E+00  0.0000000E+00  0.1286008E-03
   1       -4.9753
   2       -1.5811
   3       -1.1834
   4       -1.1834
   5       -0.9248
   6       -0.9061
   7       -0.9061
   8       -0.1300
   9        0.1853
  10        0.1853
  11        0.5610
  12        0.5651
  13        0.5651
  14        0.7748
  15        0.9610
  16        0.9610
  17        1.0535
  18        1.0535
  19        1.0904
  20        1.2818
  21        1.2818
  22        1.6677
  23        5.6645
  24        5.6645
  25        9.2330
  26        9.2330
  27       11.9526
  28       11.9526
  29       12.6777
  30       12.6777
  31       13.0894
  32       15.7974
 
  0.2777778E+00  0.0000000E+00  0.0000000E+00  0.1286008E-03
   1       -4.8187
   2       -1.6492
   3       -1.1298
   4       -1.1298
   5       -0.8896
   6       -0.8638
   7       -0.8638
   8       -0.1671
   9        0.2185
  10        0.2185
  11        0.4514
  12        0.4514
  13        0.5305
  14        0.7890
  15        0.9206
  16        0.9206
  17        1.0063
  18        1.0063
  19        1.0759
  20        1.2819
  21        1.2819
  22        1.3638
  23        5.9255
  24        5.9255
  25        9.3114
  26        9.3114
  27       11.5384
  28       11.5384
  29       12.3685
  30       12.3685
  31       13.7835
  32       16.0150
 
  0.3055556E+00  0.0000000E+00  0.0000000E+00  0.1286008E-03
   1       -4.6472
   2       -1.7430
   3       -1.0754
   4       -1.0754
   5       -0.8517
   6       -0.8168
   7       -0.8168
   8       -0.2070
   9        0.2547
  10        0.2547
  11        0.3390
  12        0.3390
  13        0.4989
  14        0.8043
  15        0.8790
  16        0.8790
  17        0.9564
  18        0.9564
  19        1.0602
  20        1.0972
  21        1.2819
  22        1.2819
  23        6.2003
  24        6.2003
  25        9.4004
  26        9.4004
  27       11.1281
  28       11.1281
  29       12.0694
  30       12.0694
  31       14.4974
  32       16.2527
 
  0.3333333E+00  0.0000000E+00  0.0000000E+00  0.1286008E-03
   1       -4.4616
   2       -1.8662
   3       -1.0218
   4       -1.0218
   5       -0.8112
   6       -0.7650
   7       -0.7650
   8       -0.2492
   9        0.2290
  10        0.2290
  11        0.2939
  12        0.2939
  13        0.4672
  14        0.8205
  15        0.8373
  16        0.8373
  17        0.8733
  18        0.9046
  19        0.9046
  20        1.0437
  21        1.2820
  22        1.2820
  23        6.4879
  24        6.4879
  25        9.5006
  26        9.5006
  27       10.7229
  28       10.7229
  29       11.7825
  30       11.7825
  31       15.2292
  32       16.5097
 
  0.3611111E+00  0.0000000E+00  0.0000000E+00  0.1286008E-03
   1       -4.2627
   2       -2.0206
   3       -0.9708
   4       -0.9708
   5       -0.7686
   6       -0.7084
   7       -0.7084
   8       -0.2935
   9        0.1220
  10        0.1220
  11        0.3358
  12        0.3358
  13        0.4364
  14        0.6945
  15        0.7972
  16        0.7972
  17        0.8377
  18        0.8512
  19        0.8512
  20        1.0263
  21        1.2820
  22        1.2820
  23        6.7874
  24        6.7874
  25        9.6125
  26        9.6125
  27       10.3239
  28       10.3239
  29       11.5095
  30       11.5095
  31       15.9768
  32       16.7854
 
  0.3888889E+00  0.0000000E+00  0.0000000E+00  0.1286008E-03
   1       -4.0514
   2       -2.2042
   3       -0.9246
   4       -0.9246
   5       -0.7240
   6       -0.6470
   7       -0.6470
   8       -0.3395
   9        0.0185
  10        0.0185
  11        0.3803
  12        0.3803
  13        0.4077
  14        0.5597
  15        0.7604
  16        0.7604
  17        0.7969
  18        0.7969
  19        0.8555
  20        1.0081
  21        1.2821
  22        1.2821
  23        7.0980
  24        7.0980
  25        9.7369
  26        9.7369
  27        9.9317
  28        9.9317
  29       11.2512
  30       11.2512
  31       16.7382
  32       17.0791
 
  0.4166667E+00  0.0000000E+00  0.0000000E+00  0.1286008E-03
   1       -3.8292
   2       -2.4122
   3       -0.8855
   4       -0.8855
   5       -0.6778
   6       -0.5807
   7       -0.5807
   8       -0.3869
   9       -0.0809
  10       -0.0809
  11        0.3826
  12        0.4271
  13        0.4271
  14        0.4645
  15        0.7288
  16        0.7288
  17        0.7421
  18        0.7421
  19        0.8740
  20        0.9895
  21        1.2821
  22        1.2821
  23        7.4193
  24        7.4193
  25        9.5471
  26        9.5471
  27        9.8743
  28        9.8743
  29       11.0084
  30       11.0084
  31       17.3901
  32       17.3915
 
  0.4444444E+00  0.0000000E+00  0.0000000E+00  0.1286008E-03
   1       -3.5978
   2       -2.6382
   3       -0.8555
   4       -0.8555
   5       -0.6303
   6       -0.5095
   7       -0.5095
   8       -0.4351
   9       -0.1760
  10       -0.1760
  11        0.3631
  12        0.4024
  13        0.4761
  14        0.4761
  15        0.6872
  16        0.6872
  17        0.7044
  18        0.7044
  19        0.8929
  20        0.9704
  21        1.2821
  22        1.2821
  23        7.7507
  24        7.7507
  25        9.1704
  26        9.1704
  27       10.0254
  28       10.0254
  29       10.7815
  30       10.7815
  31       17.7177
  32       17.7177
 
  0.4722222E+00  0.0000000E+00  0.0000000E+00  0.1286008E-03
   1       -3.3595
   2       -2.8752
   3       -0.8366
   4       -0.8366
   5       -0.5820
   6       -0.4840
   7       -0.4333
   8       -0.4333
   9       -0.2665
  10       -0.2665
  11        0.3517
  12        0.3668
  13        0.5269
  14        0.5269
  15        0.6329
  16        0.6329
  17        0.6890
  18        0.6890
  19        0.9122
  20        0.9511
  21        1.2821
  22        1.2821
  23        8.0919
  24        8.0919
  25        8.8021
  26        8.8021
  27       10.1900
  28       10.1900
  29       10.5710
  30       10.5710
  31       18.0614
  32       18.0614
 
  0.5000000E+00  0.0000000E+00  0.0000000E+00  0.6430041E-04
   1       -3.1173
   2       -3.1173
   3       -0.8302
   4       -0.8302
   5       -0.5331
   6       -0.5331
   7       -0.3523
   8       -0.3523
   9       -0.3523
  10       -0.3523
  11        0.3516
  12        0.3516
  13        0.5793
  14        0.5793
  15        0.5793
  16        0.5793
  17        0.6837
  18        0.6837
  19        0.9316
  20        0.9316
  21        1.2821
  22        1.2821
  23        8.4424
  24        8.4424
  25        8.4424
  26        8.4424
  27       10.3441
  28       10.3441
  29       10.4016
  30       10.4016
  31       18.4205
  32       18.4205
 
  0.2777778E-01  0.2777778E-01  0.0000000E+00  0.2572016E-03
   1       -5.6394
   2       -1.4512
   3       -1.4512
   4       -1.4473
   5       -1.0795
   6       -1.0795
   7       -1.0794
   8        0.0368
   9        0.0430
  10        0.0440
  11        0.7079
  12        0.7107
  13        1.1516
  14        1.1532
  15        1.1532
  16        1.2577
  17        1.2655
  18        1.2655
  19        1.2784
  20        1.2784
  21        1.2796
  22        4.2709
  23        4.2709
  24        4.3582
  25        8.9286
  26        9.0093
  27        9.0093
  28       14.6014
  29       14.7837
  30       14.7837
  31       14.8062
  32       14.8062
 
  0.5555556E-01  0.2777778E-01  0.0000000E+00  0.5144033E-03
   1       -5.6139
   2       -1.4519
   3       -1.4400
   4       -1.4361
   5       -1.0734
   6       -1.0731
   7       -1.0730
   8        0.0307
   9        0.0480
  10        0.0494
  11        0.7024
  12        0.7127
  13        1.1438
  14        1.1449
  15        1.1502
  16        1.2214
  17        1.2279
  18        1.2563
  19        1.2692
  20        1.2784
  21        1.2785
  22        4.0846
  23        4.3319
  24        4.4191
  25        8.9395
  26        9.0207
  27        9.2487
  28       14.3388
  29       14.5957
  30       14.6780
  31       14.8205
  32       14.8326
 
  0.8333333E-01  0.2777778E-01  0.0000000E+00  0.5144033E-03
   1       -5.5713
   2       -1.4537
   3       -1.4215
   4       -1.4177
   5       -1.0632
   6       -1.0622
   7       -1.0622
   8        0.0198
   9        0.0570
  10        0.0584
  11        0.6926
  12        0.7168
  13        1.1297
  14        1.1310
  15        1.1453
  16        1.1625
  17        1.1699
  18        1.2413
  19        1.2539
  20        1.2782
  21        1.2785
  22        3.8099
  23        4.4303
  24        4.5175
  25        8.9578
  26        9.0399
  27        9.6124
  28       14.0176
  29       14.3169
  30       14.4803
  31       14.7028
  32       14.8805
 
  0.1111111E+00  0.2777778E-01  0.0000000E+00  0.5144033E-03
   1       -5.5119
   2       -1.4575
   3       -1.3959
   4       -1.3923
   5       -1.0491
   6       -1.0471
   7       -1.0470
   8        0.0046
   9        0.0696
  10        0.0709
  11        0.6789
  12        0.7226
  13        1.0829
  14        1.0854
  15        1.1132
  16        1.1206
  17        1.1381
  18        1.2207
  19        1.2328
  20        1.2781
  21        1.2785
  22        3.4796
  23        4.5620
  24        4.6494
  25        8.9837
  26        9.0671
  27       10.0685
  28       13.6583
  29       13.9778
  30       14.2307
  31       14.4955
  32       14.9647
 
  0.1388889E+00  0.2777778E-01  0.0000000E+00  0.5144033E-03
   1       -5.4356
   2       -1.4646
   3       -1.3638
   4       -1.3604
   5       -1.0311
   6       -1.0275
   7       -1.0275
   8       -0.0148
   9        0.0858
  10        0.0870
  11        0.6615
  12        0.7300
  13        0.9938
  14        0.9945
  15        1.0906
  16        1.0949
  17        1.1283
  18        1.1954
  19        1.2062
  20        1.2781
  21        1.2785
  22        3.1198
  23        4.7226
  24        4.8107
  25        9.0173
  26        9.1024
  27       10.5921
  28       13.2755
  29       13.6016
  30       13.9460
  31       14.2333
  32       15.0707
 
  0.1666667E+00  0.2777778E-01  0.0000000E+00  0.5144033E-03
   1       -5.3428
   2       -1.4770
   3       -1.3257
   4       -1.3225
   5       -1.0093
   6       -1.0035
   7       -1.0035
   8       -0.0382
   9        0.1056
  10        0.1065
  11        0.6408
  12        0.7390
  13        0.8925
  14        0.8936
  15        1.0635
  16        1.0671
  17        1.1144
  18        1.1669
  19        1.1745
  20        1.2781
  21        1.2786
  22        2.7493
  23        4.9082
  24        4.9974
  25        9.0591
  26        9.1463
  27       11.1663
  28       12.8796
  29       13.2036
  30       13.6400
  31       13.9364
  32       15.2002
 
  0.1944444E+00  0.2777778E-01  0.0000000E+00  0.5144033E-03
   1       -5.2335
   2       -1.4974
   3       -1.2822
   4       -1.2793
   5       -0.9839
   6       -0.9751
   7       -0.9750
   8       -0.0653
   9        0.1289
  10        0.1295
  11        0.6171
  12        0.7495
  13        0.7844
  14        0.7861
  15        1.0322
  16        1.0355
  17        1.0930
  18        1.1382
  19        1.1392
  20        1.2782
  21        1.2786
  22        2.3821
  23        5.1152
  24        5.2062
  25        9.1094
  26        9.1991
  27       11.7796
  28       12.4775
  29       12.7939
  30       13.3232
  31       13.6197
  32       15.3519
 
  0.2222222E+00  0.2777778E-01  0.0000000E+00  0.5144033E-03
   1       -5.1082
   2       -1.5291
   3       -1.2342
   4       -1.2316
   5       -0.9550
   6       -0.9422
   7       -0.9420
   8       -0.0961
   9        0.1555
  10        0.1557
  11        0.5907
  12        0.6725
  13        0.6748
  14        0.7613
  15        0.9973
  16        1.0003
  17        1.0594
  18        1.0977
  19        1.1167
  20        1.2782
  21        1.2786
  22        2.0293
  23        5.3408
  24        5.4343
  25        9.1686
  26        9.2613
  27       12.0737
  28       12.3790
  29       12.4246
  30       13.0037
  31       13.2943
  32       15.5254
 
  0.2500000E+00  0.2777778E-01  0.0000000E+00  0.5144033E-03
   1       -4.9670
   2       -1.5764
   3       -1.1827
   4       -1.1804
   5       -0.9230
   6       -0.9047
   7       -0.9044
   8       -0.1301
   9        0.1851
  10        0.1854
  11        0.5589
  12        0.5618
  13        0.5622
  14        0.7745
  15        0.9593
  16        0.9621
  17        1.0144
  18        1.0535
  19        1.0982
  20        1.2783
  21        1.2787
  22        1.7010
  23        5.5828
  24        5.6794
  25        9.2373
  26        9.3334
  27       11.6711
  28       11.9630
  29       12.6870
  30       12.9678
  31       13.0960
  32       15.7203
 
  0.2777778E+00  0.2777778E-01  0.0000000E+00  0.5144033E-03
   1       -4.8105
   2       -1.6443
   3       -1.1290
   4       -1.1270
   5       -0.8879
   6       -0.8626
   7       -0.8622
   8       -0.1671
   9        0.2175
  10        0.2186
  11        0.4454
  12        0.4487
  13        0.5322
  14        0.7889
  15        0.9191
  16        0.9217
  17        0.9587
  18        1.0062
  19        1.0805
  20        1.2783
  21        1.2787
  22        1.4086
  23        5.8394
  24        5.9398
  25        9.3158
  26        9.4161
  27       11.2719
  28       11.5489
  29       12.3775
  30       12.6460
  31       13.7901
  32       15.9377
 
  0.3055556E+00  0.2777778E-01  0.0000000E+00  0.5144033E-03
   1       -4.6392
   2       -1.7377
   3       -1.0743
   4       -1.0726
   5       -0.8500
   6       -0.8159
   7       -0.8153
   8       -0.2069
   9        0.2526
  10        0.2548
  11        0.3332
  12        0.3369
  13        0.5016
  14        0.8044
  15        0.8776
  16        0.8800
  17        0.8858
  18        0.9564
  19        1.0601
  20        1.1697
  21        1.2784
  22        1.2787
  23        6.1091
  24        6.2140
  25        9.4049
  26        9.5099
  27       10.8773
  28       11.1385
  29       12.0781
  30       12.3327
  31       14.5042
  32       16.1697
 
  0.3333333E+00  0.2777778E-01  0.0000000E+00  0.5144033E-03
   1       -4.4537
   2       -1.8608
   3       -1.0204
   4       -1.0190
   5       -0.8097
   6       -0.7646
   7       -0.7637
   8       -0.2490
   9        0.2234
  10        0.2273
  11        0.2897
  12        0.2939
  13        0.4718
  14        0.7795
  15        0.8209
  16        0.8361
  17        0.8383
  18        0.9045
  19        0.9882
  20        1.0554
  21        1.2785
  22        1.2787
  23        6.3909
  24        6.5011
  25        9.5052
  26        9.6156
  27       10.4882
  28       10.7334
  29       11.7910
  30       12.0309
  31       15.2360
  32       16.4236
 
  0.3611111E+00  0.2777778E-01  0.0000000E+00  0.5144033E-03
   1       -4.2548
   2       -2.0148
   3       -0.9692
   4       -0.9680
   5       -0.7671
   6       -0.7085
   7       -0.7072
   8       -0.2932
   9        0.1167
  10        0.1207
  11        0.3270
  12        0.3358
  13        0.4453
  14        0.6487
  15        0.7962
  16        0.7981
  17        0.8382
  18        0.8511
  19        0.8923
  20        1.0324
  21        1.2785
  22        1.2788
  23        6.6838
  24        6.8002
  25        9.6171
  26        9.7337
  27       10.1053
  28       10.3344
  29       11.5177
  30       11.7428
  31       15.9833
  32       16.7148
 
  0.3888889E+00  0.2777778E-01  0.0000000E+00  0.5144033E-03
   1       -4.0437
   2       -2.1982
   3       -0.9228
   4       -0.9218
   5       -0.7226
   6       -0.6476
   7       -0.6459
   8       -0.3391
   9        0.0136
  10        0.0176
  11        0.3568
  12        0.3803
  13        0.4310
  14        0.5321
  15        0.7596
  16        0.7612
  17        0.7968
  18        0.8211
  19        0.8564
  20        1.0128
  21        1.2786
  22        1.2788
  23        6.9870
  24        7.1104
  25        9.7177
  26        9.7527
  27        9.8651
  28        9.9424
  29       11.2592
  30       11.4697
  31       16.7431
  32       16.9828
 
  0.4166667E+00  0.2777778E-01  0.0000000E+00  0.5144033E-03
   1       -3.8216
   2       -2.4059
   3       -0.8833
   4       -0.8825
   5       -0.6765
   6       -0.5820
   7       -0.5798
   8       -0.3863
   9       -0.0854
  10       -0.0814
  11        0.3606
  12        0.4271
  13        0.4451
  14        0.4487
  15        0.7282
  16        0.7295
  17        0.7420
  18        0.7588
  19        0.8751
  20        0.9932
  21        1.2786
  22        1.2788
  23        7.3001
  24        7.4314
  25        9.3579
  26        9.5578
  27        9.8803
  28       10.0103
  29       11.0162
  30       11.2125
  31       17.2880
  32       17.3191
 
  0.4444444E+00  0.2777778E-01  0.0000000E+00  0.5144033E-03
   1       -3.5904
   2       -2.6316
   3       -0.8531
   4       -0.8525
   5       -0.6292
   6       -0.5114
   7       -0.5087
   8       -0.4345
   9       -0.1801
  10       -0.1762
  11        0.3489
  12        0.3873
  13        0.4761
  14        0.4896
  15        0.6872
  16        0.7002
  17        0.7041
  18        0.7049
  19        0.8944
  20        0.9735
  21        1.2787
  22        1.2788
  23        7.6223
  24        7.7625
  25        8.9955
  26        9.1813
  27       10.0313
  28       10.1698
  29       10.7894
  30       10.9720
  31       17.6089
  32       17.6465
 
  0.4722222E+00  0.2777778E-01  0.0000000E+00  0.5144033E-03
   1       -3.3523
   2       -2.8684
   3       -0.8340
   4       -0.8337
   5       -0.5809
   6       -0.4832
   7       -0.4359
   8       -0.4328
   9       -0.2702
  10       -0.2664
  11        0.3397
  12        0.3540
  13        0.5269
  14        0.5379
  15        0.6328
  16        0.6439
  17        0.6888
  18        0.6893
  19        0.9140
  20        0.9537
  21        1.2787
  22        1.2788
  23        7.9534
  24        8.1034
  25        8.6403
  26        8.8132
  27       10.1964
  28       10.3421
  29       10.5808
  30       10.7486
  31       17.9448
  32       17.9871
 
  0.5000000E+00  0.2777778E-01  0.0000000E+00  0.2572016E-03
   1       -3.1103
   2       -3.1103
   3       -0.8273
   4       -0.8273
   5       -0.5322
   6       -0.5322
   7       -0.3555
   8       -0.3555
   9       -0.3520
  10       -0.3520
  11        0.3398
  12        0.3398
  13        0.5793
  14        0.5793
  15        0.5897
  16        0.5897
  17        0.6838
  18        0.6838
  19        0.9338
  20        0.9338
  21        1.2788
  22        1.2788
  23        8.2928
  24        8.2928
  25        8.4537
  26        8.4537
  27       10.3721
  28       10.3721
  29       10.5460
  30       10.5460
  31       18.2953
  32       18.2988
 
  0.5555556E-01  0.5555556E-01  0.0000000E+00  0.2572016E-03
   1       -5.5883
   2       -1.4406
   3       -1.4406
   4       -1.4251
   5       -1.0670
   6       -1.0670
   7       -1.0665
   8        0.0265
   9        0.0511
  10        0.0546
  11        0.7001
  12        0.7117
  13        1.1362
  14        1.1404
  15        1.1404
  16        1.1901
  17        1.2196
  18        1.2196
  19        1.2692
  20        1.2692
  21        1.2736
  22        4.1449
  23        4.1449
  24        4.4788
  25        8.9505
  26        9.2615
  27        9.2615
  28       14.0022
  29       14.6309
  30       14.6309
  31       14.7135
  32       14.7135
 
  0.8333333E-01  0.5555556E-01  0.0000000E+00  0.5144033E-03
   1       -5.5458
   2       -1.4422
   3       -1.4219
   4       -1.4068
   5       -1.0569
   6       -1.0562
   7       -1.0559
   8        0.0169
   9        0.0588
  10        0.0633
  11        0.6920
  12        0.7144
  13        1.1186
  14        1.1235
  15        1.1323
  16        1.1358
  17        1.1674
  18        1.2065
  19        1.2539
  20        1.2692
  21        1.2707
  22        3.8697
  23        4.2418
  24        4.5752
  25        8.9689
  26        9.2830
  27        9.6269
  28       13.6288
  29       14.3511
  30       14.5148
  31       14.6895
  32       14.7724
 
  0.1111111E+00  0.5555556E-01  0.0000000E+00  0.5144033E-03
   1       -5.4864
   2       -1.4457
   3       -1.3962
   4       -1.3817
   5       -1.0428
   6       -1.0411
   7       -1.0409
   8        0.0024
   9        0.0709
  10        0.0754
  11        0.6790
  12        0.7199
  13        1.0621
  14        1.0623
  15        1.1060
  16        1.1196
  17        1.1268
  18        1.1897
  19        1.2328
  20        1.2692
  21        1.2693
  22        3.5397
  23        4.3711
  24        4.7048
  25        8.9950
  26        9.3134
  27       10.0844
  28       13.2339
  29       14.0111
  30       14.2641
  31       14.7710
  32       14.8163
 
  0.1388889E+00  0.5555556E-01  0.0000000E+00  0.5144033E-03
   1       -5.4103
   2       -1.4526
   3       -1.3638
   4       -1.3501
   5       -1.0249
   6       -1.0217
   7       -1.0215
   8       -0.0165
   9        0.0868
  10        0.0909
  11        0.6621
  12        0.7275
  13        0.9744
  14        0.9746
  15        1.0837
  16        1.0991
  17        1.1005
  18        1.1711
  19        1.2062
  20        1.2686
  21        1.2692
  22        3.1812
  23        4.5282
  24        4.8637
  25        9.0289
  26        9.3529
  27       10.6092
  28       12.8279
  29       13.6341
  30       13.9782
  31       14.6249
  32       14.8752
 
  0.1666667E+00  0.5555556E-01  0.0000000E+00  0.5144033E-03
   1       -5.3176
   2       -1.4646
   3       -1.3253
   4       -1.3125
   5       -1.0033
   6       -0.9978
   7       -0.9978
   8       -0.0396
   9        0.1063
  10        0.1097
  11        0.6419
  12        0.7367
  13        0.8736
  14        0.8766
  15        1.0570
  16        1.0704
  17        1.0732
  18        1.1524
  19        1.1745
  20        1.2682
  21        1.2692
  22        2.8134
  23        4.7090
  24        5.0480
  25        9.0709
  26        9.4020
  27       11.1844
  28       12.4176
  29       13.2356
  30       13.6710
  31       14.3758
  32       15.0016
 
  0.1944444E+00  0.5555556E-01  0.0000000E+00  0.5144033E-03
   1       -5.2085
   2       -1.4845
   3       -1.2814
   4       -1.2697
   5       -0.9780
   6       -0.9697
   7       -0.9695
   8       -0.0664
   9        0.1295
  10        0.1317
  11        0.6187
  12        0.7476
  13        0.7656
  14        0.7717
  15        1.0261
  16        1.0365
  17        1.0384
  18        1.1346
  19        1.1381
  20        1.2680
  21        1.2692
  22        2.4507
  23        4.9099
  24        5.2545
  25        9.1215
  26        9.4610
  27       11.7984
  28       12.0075
  29       12.8255
  30       13.3532
  31       14.0896
  32       15.1494
 
  0.2222222E+00  0.5555556E-01  0.0000000E+00  0.5144033E-03
   1       -5.0833
   2       -1.5156
   3       -1.2329
   4       -1.2224
   5       -0.9494
   6       -0.9372
   7       -0.9368
   8       -0.0968
   9        0.1560
  10        0.1568
  11        0.5930
  12        0.6539
  13        0.6626
  14        0.7599
  15        0.9901
  16        0.9916
  17        1.0031
  18        1.0975
  19        1.1170
  20        1.2680
  21        1.2692
  22        2.1050
  23        5.1282
  24        5.4804
  25        9.1810
  26        9.5305
  27       11.6009
  28       12.4103
  29       12.4439
  30       13.0326
  31       13.7821
  32       15.3182
 
  0.2500000E+00  0.5555556E-01  0.0000000E+00  0.5144033E-03
   1       -4.9424
   2       -1.5623
   3       -1.1809
   4       -1.1716
   5       -0.9175
   6       -0.9003
   7       -0.8994
   8       -0.1305
   9        0.1846
  10        0.1858
  11        0.5407