   4   4   0   0
  0.1166450E+02  0.3600052E-09  0.3600052E-09  0.3600052E-09  0.5000000E-15
  1.000000000000000E-004
  CAR 
 unknown system                          
     14.67618718     -6.50679800  301      3.95258435      1.00000000
     -6.507  0.0000E+00  0.0000E+00
     -6.436  0.0000E+00  0.0000E+00
     -6.366  0.0000E+00  0.0000E+00
     -6.295  0.0000E+00  0.0000E+00
     -6.224  0.0000E+00  0.0000E+00
     -6.154  0.0000E+00  0.0000E+00
     -6.083  0.0000E+00  0.0000E+00
     -6.013  0.0000E+00  0.0000E+00
     -5.942  0.0000E+00  0.0000E+00
     -5.871  0.0000E+00  0.0000E+00
     -5.801  0.0000E+00  0.0000E+00
     -5.730  0.0000E+00  0.0000E+00
     -5.659  0.0000E+00  0.0000E+00
     -5.589  0.1713E-11  0.1210E-12
     -5.518  0.1639E-01  0.1157E-02
     -5.448  0.9251E-01  0.7689E-02
     -5.377  0.6353E-01  0.1259E-01
     -5.306  0.1342E+00  0.2206E-01
     -5.236  0.1301E+00  0.3125E-01
     -5.165  0.9835E-01  0.3819E-01
     -5.095  0.3934E+00  0.6597E-01
     -5.024  0.3831E+00  0.9302E-01
     -4.953  0.0000E+00  0.9375E-01
     -4.883  0.1149E-01  0.9456E-01
     -4.812  0.1856E+00  0.1077E+00
     -4.742  0.4914E+00  0.1424E+00
     -4.671  0.3934E+00  0.1701E+00
     -4.600  0.3933E+00  0.1979E+00
     -4.530  0.1300E+00  0.2071E+00
     -4.459  0.2853E+00  0.2273E+00
     -4.388  0.3207E+00  0.2500E+00
     -4.318  0.5742E+00  0.2905E+00
     -4.247  0.1641E-04  0.2905E+00
     -4.177  0.9835E-01  0.2975E+00
     -4.106  0.7868E+00  0.3530E+00
     -4.035  0.5901E+00  0.3947E+00
     -3.965  0.3933E+00  0.4224E+00
     -3.894  0.3866E+00  0.4498E+00
     -3.824  0.7325E+00  0.5020E+00
     -3.753  0.3834E+00  0.5329E+00
     -3.682  0.0000E+00  0.5336E+00
     -3.612  0.2038E+00  0.5480E+00
     -3.541  0.2103E+00  0.5628E+00
     -3.471  0.5161E+00  0.5992E+00
     -3.400  0.1240E+01  0.6868E+00
     -3.329  0.4199E+00  0.7164E+00
     -3.259  0.1871E+00  0.7296E+00
     -3.188  0.9936E+00  0.7998E+00
     -3.118  0.7863E+00  0.8553E+00
     -3.047  0.6196E-05  0.8553E+00
     -2.976  0.2085E+00  0.8700E+00
     -2.906  0.1168E+01  0.9525E+00
     -2.835  0.3989E+00  0.9807E+00
     -2.764  0.1199E+01  0.1065E+01
     -2.694  0.2219E+00  0.1081E+01
     -2.623  0.1251E+01  0.1170E+01
     -2.553  0.1622E+00  0.1182E+01
     -2.482  0.7252E+00  0.1233E+01
     -2.411  0.9952E+00  0.1303E+01
     -2.341  0.1419E+01  0.1404E+01
     -2.270  0.2398E-02  0.1404E+01
     -2.200  0.1178E+01  0.1487E+01
     -2.129  0.5853E+00  0.1529E+01
     -2.058  0.7260E+00  0.1580E+01
     -1.988  0.1029E+01  0.1653E+01
     -1.917  0.1036E+01  0.1726E+01
     -1.847  0.6192E+00  0.1769E+01
     -1.776  0.1160E+01  0.1851E+01
     -1.705  0.2723E+01  0.2045E+01
     -1.635  0.1171E+01  0.2128E+01
     -1.564  0.3925E+00  0.2156E+01
     -1.493  0.1333E+01  0.2251E+01
     -1.423  0.1545E+01  0.2360E+01
     -1.352  0.1459E+01  0.2463E+01
     -1.282  0.4091E+01  0.2753E+01
     -1.211  0.1355E+01  0.2849E+01
     -1.140  0.2601E+01  0.3032E+01
     -1.070  0.5003E+01  0.3386E+01
     -0.999  0.2988E+01  0.3600E+01
     -0.929  0.3840E+01  0.3871E+01
     -0.858  0.6777E+01  0.4350E+01
     -0.787  0.2829E+01  0.4552E+01
     -0.717  0.6635E+01  0.5020E+01
     -0.646  0.4750E+01  0.5356E+01
     -0.576  0.4746E+01  0.5691E+01
     -0.505  0.6660E+01  0.6162E+01
     -0.434  0.8273E+01  0.6753E+01
     -0.364  0.8262E+01  0.7337E+01
     -0.293  0.1014E+02  0.8053E+01
     -0.223  0.9663E+01  0.8743E+01
     -0.152  0.8505E+01  0.9346E+01
     -0.081  0.7510E+01  0.9878E+01
     -0.011  0.8881E+01  0.1051E+02
      0.060  0.8248E+01  0.1109E+02
      0.131  0.8469E+01  0.1169E+02
      0.201  0.8961E+01  0.1232E+02
      0.272  0.5802E+01  0.1274E+02
      0.342  0.1210E+02  0.1360E+02
      0.413  0.8454E+01  0.1421E+02
      0.484  0.1276E+02  0.1511E+02
      0.554  0.9298E+01  0.1577E+02
      0.625  0.1536E+02  0.1686E+02
      0.695  0.1260E+02  0.1775E+02
      0.766  0.1475E+02  0.1880E+02
      0.837  0.1482E+02  0.1985E+02
      0.907  0.1454E+02  0.2088E+02
      0.978  0.1881E+02  0.2221E+02
      1.048  0.1872E+02  0.2354E+02
      1.119  0.1351E+02  0.2450E+02
      1.190  0.9391E+01  0.2517E+02
      1.260  0.1028E+02  0.2590E+02
      1.331  0.1042E+02  0.2664E+02
      1.402  0.1138E+02  0.2746E+02
      1.472  0.1097E+02  0.2823E+02
      1.543  0.1454E+02  0.2927E+02
      1.613  0.1508E+02  0.3033E+02
      1.684  0.1346E+02  0.3128E+02
      1.755  0.1544E+02  0.3238E+02
      1.825  0.1184E+02  0.3322E+02
      1.896  0.1159E+02  0.3404E+02
      1.966  0.1343E+02  0.3499E+02
      2.037  0.1254E+02  0.3588E+02
      2.108  0.1648E+02  0.3705E+02
      2.178  0.1894E+02  0.3838E+02
      2.249  0.2690E+02  0.4029E+02
      2.319  0.1289E+02  0.4122E+02
      2.390  0.1047E+02  0.4196E+02
      2.461  0.8090E+00  0.4202E+02
      2.531  0.4093E+00  0.4205E+02
      2.602  0.1622E+01  0.4216E+02
      2.672  0.2102E+01  0.4231E+02
      2.743  0.2309E+01  0.4248E+02
      2.814  0.1660E+01  0.4260E+02
      2.884  0.9372E+00  0.4266E+02
      2.955  0.1084E+01  0.4274E+02
      3.026  0.1179E+01  0.4282E+02
      3.096  0.1967E+01  0.4296E+02
      3.167  0.1972E+01  0.4310E+02
      3.237  0.1176E+01  0.4318E+02
      3.308  0.1161E+01  0.4327E+02
      3.379  0.7851E+00  0.4332E+02
      3.449  0.2188E+00  0.4334E+02
      3.520  0.1219E+01  0.4342E+02
      3.590  0.1497E+01  0.4353E+02
      3.661  0.4728E+01  0.4386E+02
      3.732  0.2204E-01  0.4387E+02
      3.802  0.4744E+00  0.4390E+02
      3.873  0.1173E+01  0.4398E+02
      3.943  0.2972E-01  0.4398E+02
      4.014  0.1921E+01  0.4412E+02
      4.085  0.3858E+00  0.4415E+02
      4.155  0.1179E+01  0.4423E+02
      4.226  0.1632E+01  0.4435E+02
      4.297  0.2264E+01  0.4451E+02
      4.367  0.1646E+00  0.4452E+02
      4.438  0.6269E+00  0.4457E+02
      4.508  0.1962E+01  0.4470E+02
      4.579  0.1117E+01  0.4478E+02
      4.650  0.1637E+01  0.4490E+02
      4.720  0.6895E+00  0.4495E+02
      4.791  0.6513E+00  0.4500E+02
      4.861  0.1151E+01  0.4508E+02
      4.932  0.7298E+00  0.4513E+02
      5.003  0.1566E-08  0.4513E+02
      5.073  0.1010E+01  0.4520E+02
      5.144  0.2216E+01  0.4536E+02
      5.214  0.6089E+00  0.4540E+02
      5.285  0.1839E+01  0.4553E+02
      5.356  0.1367E+01  0.4563E+02
      5.426  0.6486E+00  0.4567E+02
      5.497  0.1537E-05  0.4567E+02
      5.568  0.1598E+01  0.4579E+02
      5.638  0.9309E+00  0.4585E+02
      5.709  0.1886E+01  0.4599E+02
      5.779  0.6261E+00  0.4603E+02
      5.850  0.1224E+01  0.4612E+02
      5.921  0.1944E-01  0.4612E+02
      5.991  0.5112E-01  0.4612E+02
      6.062  0.1522E+01  0.4623E+02
      6.132  0.2019E+01  0.4637E+02
      6.203  0.3475E+00  0.4640E+02
      6.274  0.2116E+00  0.4641E+02
      6.344  0.1008E+01  0.4648E+02
      6.415  0.2798E+01  0.4668E+02
      6.485  0.9515E-01  0.4669E+02
      6.556  0.6998E+00  0.4674E+02
      6.627  0.8887E-01  0.4674E+02
      6.697  0.1178E+01  0.4683E+02
      6.768  0.8735E-16  0.4683E+02
      6.838  0.3808E+00  0.4685E+02
      6.909  0.1761E+01  0.4698E+02
      6.980  0.7854E+00  0.4703E+02
      7.050  0.9566E+00  0.4710E+02
      7.121  0.4814E-02  0.4710E+02
      7.192  0.9600E+00  0.4717E+02
      7.262  0.1734E+00  0.4719E+02
      7.333  0.1240E+01  0.4727E+02
      7.403  0.9468E+00  0.4734E+02
      7.474  0.7540E-01  0.4735E+02
      7.545  0.7114E+00  0.4740E+02
      7.615  0.3226E+00  0.4742E+02
      7.686  0.2784E+00  0.4744E+02
      7.756  0.1444E+01  0.4754E+02
      7.827  0.7414E+00  0.4759E+02
      7.898  0.4009E+00  0.4762E+02
      7.968  0.1490E+01  0.4773E+02
      8.039  0.3228E+00  0.4775E+02
      8.109  0.1923E+01  0.4789E+02
      8.180  0.4817E-01  0.4789E+02
      8.251  0.1571E+01  0.4800E+02
      8.321  0.1376E+01  0.4810E+02
      8.392  0.1590E+01  0.4821E+02
      8.463  0.7707E+00  0.4826E+02
      8.533  0.1573E+01  0.4837E+02
      8.604  0.2763E+00  0.4839E+02
      8.674  0.7592E+00  0.4845E+02
      8.745  0.1418E+01  0.4855E+02
      8.816  0.4970E+00  0.4858E+02
      8.886  0.7677E+00  0.4864E+02
      8.957  0.1593E+01  0.4875E+02
      9.027  0.4393E+00  0.4878E+02
      9.098  0.1906E+01  0.4892E+02
      9.169  0.2038E+01  0.4906E+02
      9.239  0.3934E+00  0.4909E+02
      9.310  0.1048E+01  0.4916E+02
      9.380  0.9195E+00  0.4923E+02
      9.451  0.7868E+00  0.4928E+02
      9.522  0.1144E+01  0.4936E+02
      9.592  0.3934E+00  0.4939E+02
      9.663  0.2131E-01  0.4940E+02
      9.733  0.1159E+01  0.4948E+02
      9.804  0.1180E+01  0.4956E+02
      9.875  0.4662E+00  0.4959E+02
      9.945  0.1301E+01  0.4969E+02
     10.016  0.1462E-02  0.4969E+02
     10.087  0.1182E+01  0.4977E+02
     10.157  0.1224E+01  0.4986E+02
     10.228  0.1298E+01  0.4995E+02
     10.298  0.7858E+00  0.5000E+02
     10.369  0.1397E+01  0.5010E+02
     10.440  0.9305E+00  0.5017E+02
     10.510  0.0000E+00  0.5017E+02
     10.581  0.2497E-06  0.5017E+02
     10.651  0.3937E+00  0.5020E+02
     10.722  0.7462E+00  0.5025E+02
     10.793  0.7133E+00  0.5030E+02
     10.863  0.1950E+01  0.5044E+02
     10.934  0.1126E-13  0.5044E+02
     11.004  0.1966E+00  0.5045E+02
     11.075  0.3925E+00  0.5048E+02
     11.146  0.6726E+00  0.5053E+02
     11.216  0.1239E+01  0.5062E+02
     11.287  0.1465E+01  0.5072E+02
     11.358  0.5890E+00  0.5076E+02
     11.428  0.7419E+00  0.5081E+02
     11.499  0.6434E+00  0.5086E+02
     11.569  0.9873E+00  0.5093E+02
     11.640  0.1561E+01  0.5104E+02
     11.711  0.3737E+00  0.5107E+02
     11.781  0.4112E+00  0.5109E+02
     11.852  0.1452E+01  0.5120E+02
     11.922  0.2081E+01  0.5135E+02
     11.993  0.6136E+00  0.5139E+02
     12.064  0.7869E+00  0.5145E+02
     12.134  0.7789E+00  0.5150E+02
     12.205  0.9793E+00  0.5157E+02
     12.275  0.5628E+00  0.5161E+02
     12.346  0.4352E+00  0.5164E+02
     12.417  0.7254E+00  0.5170E+02
     12.487  0.8366E+00  0.5176E+02
     12.558  0.3436E+00  0.5178E+02
     12.628  0.5532E+00  0.5182E+02
     12.699  0.1410E-01  0.5182E+02
     12.770  0.1166E+01  0.5191E+02
     12.840  0.0000E+00  0.5191E+02
     12.911  0.2829E-13  0.5191E+02
     12.982  0.2973E+00  0.5193E+02
     13.052  0.7507E+00  0.5198E+02
     13.123  0.0000E+00  0.5198E+02
     13.193  0.0000E+00  0.5198E+02
     13.264  0.0000E+00  0.5198E+02
     13.335  0.0000E+00  0.5198E+02
     13.405  0.0000E+00  0.5198E+02
     13.476  0.1201E-15  0.5198E+02
     13.546  0.1920E+00  0.5199E+02
     13.617  0.0000E+00  0.5199E+02
     13.688  0.1387E-04  0.5199E+02
     13.758  0.9834E-01  0.5200E+02
     13.829  0.0000E+00  0.5200E+02
     13.899  0.0000E+00  0.5200E+02
     13.970  0.0000E+00  0.5200E+02
     14.041  0.0000E+00  0.5200E+02
     14.111  0.0000E+00  0.5200E+02
     14.182  0.0000E+00  0.5200E+02
     14.253  0.0000E+00  0.5200E+02
     14.323  0.0000E+00  0.5200E+02
     14.394  0.0000E+00  0.5200E+02
     14.464  0.0000E+00  0.5200E+02
     14.535  0.0000E+00  0.5200E+02
     14.606  0.0000E+00  0.5200E+02
     14.676  0.0000E+00  0.5200E+02
