    4    4    1    1
  0.1166450E+02  0.3600052E-09  0.3600052E-09  0.3600052E-09  0.5000000E-15
  1.000000000000000E-004
  CAR 
 unknown system                          
   44   84   26
 
  0.0000000E+00  0.0000000E+00  0.0000000E+00  0.5787037E-03
   1       -5.5439
   2       -1.0662
   3       -1.0662
   4       -1.0662
   5       -0.6050
   6       -0.6050
   7       -0.6050
   8        0.8142
   9        0.8142
  10        0.8142
  11        1.6586
  12        1.6586
  13        2.2192
  14        2.2192
  15        2.2192
  16        2.3766
  17        2.3766
  18        2.3766
  19        2.3766
  20        2.3766
  21        2.3766
  22        5.4028
  23        5.4028
  24        5.4028
  25       11.1082
  26       11.1082
 
  0.8333333E-01  0.0000000E+00  0.0000000E+00  0.3472222E-02
   1       -5.4587
   2       -1.0666
   3       -1.0261
   4       -1.0261
   5       -0.5821
   6       -0.5808
   7       -0.5808
   8        0.7887
   9        0.8346
  10        0.8346
  11        1.6355
  12        1.6680
  13        2.1893
  14        2.1893
  15        2.2094
  16        2.2249
  17        2.2249
  18        2.3413
  19        2.3413
  20        2.3766
  21        2.3766
  22        4.8830
  23        5.6304
  24        5.6304
  25       11.1391
  26       11.1391
 
  0.1666667E+00  0.0000000E+00  0.0000000E+00  0.3472222E-02
   1       -5.2048
   2       -1.0843
   3       -0.9115
   4       -0.9115
   5       -0.5147
   6       -0.5077
   7       -0.5077
   8        0.7142
   9        0.8954
  10        0.8954
  11        1.5687
  12        1.6954
  13        1.8666
  14        1.8666
  15        2.1023
  16        2.1023
  17        2.1809
  18        2.2401
  19        2.2401
  20        2.3768
  21        2.3768
  22        3.7867
  23        6.2159
  24        6.2159
  25       11.2347
  26       11.2347
 
  0.2500000E+00  0.0000000E+00  0.0000000E+00  0.3472222E-02
   1       -4.7883
   2       -1.1779
   3       -0.7403
   4       -0.7403
   5       -0.4067
   6       -0.3845
   7       -0.3845
   8        0.5965
   9        0.9950
  10        0.9950
  11        1.4404
  12        1.4404
  13        1.4669
  14        1.7392
  15        1.9685
  16        1.9685
  17        2.0864
  18        2.0864
  19        2.1356
  20        2.3770
  21        2.3770
  22        2.6584
  23        7.0192
  24        7.0192
  25       11.4034
  26       11.4034
 
  0.3333333E+00  0.0000000E+00  0.0000000E+00  0.3472222E-02
   1       -4.2219
   2       -1.4601
   3       -0.5460
   4       -0.5460
   5       -0.2646
   6       -0.2098
   7       -0.2098
   8        0.4447
   9        1.0198
  10        1.0198
  11        1.1306
  12        1.1306
  13        1.3466
  14        1.7903
  15        1.7965
  16        1.8112
  17        1.8112
  18        1.8977
  19        1.8977
  20        2.0767
  21        2.3772
  22        2.3772
  23        7.9647
  24        7.9647
  25       11.6566
  26       11.6566
 
  0.4166667E+00  0.0000000E+00  0.0000000E+00  0.3472222E-02
   1       -3.5297
   2       -2.0172
   3       -0.3821
   4       -0.3821
   5       -0.0971
   6        0.0181
   7        0.0181
   8        0.2700
   9        0.6356
  10        0.6356
  11        1.2379
  12        1.2973
  13        1.2973
  14        1.3266
  15        1.6743
  16        1.6743
  17        1.6927
  18        1.6927
  19        1.8635
  20        2.0086
  21        2.3773
  22        2.3773
  23        9.0183
  24        9.0183
  25       11.3889
  26       11.3889
 
  0.5000000E+00  0.0000000E+00  0.0000000E+00  0.1736111E-02
   1       -2.7610
   2       -2.7610
   3       -0.3157
   4       -0.3157
   5        0.0851
   6        0.0851
   7        0.3002
   8        0.3002
   9        0.3002
  10        0.3002
  11        1.1959
  12        1.1959
  13        1.4881
  14        1.4881
  15        1.4881
  16        1.4881
  17        1.6177
  18        1.6177
  19        1.9359
  20        1.9359
  21        2.3774
  22        2.3774
  23       10.1633
  24       10.1633
  25       10.1633
  26       10.1633
 
  0.8333333E-01  0.8333333E-01  0.0000000E+00  0.6944444E-02
   1       -5.3738
   2       -1.0256
   3       -1.0256
   4       -0.9870
   5       -0.5583
   6       -0.5583
   7       -0.5574
   8        0.7744
   9        0.8444
  10        0.8530
  11        1.6291
  12        1.6626
  13        2.1132
  14        2.1418
  15        2.1418
  16        2.1606
  17        2.2195
  18        2.2195
  19        2.3412
  20        2.3412
  21        2.3540
  22        5.1074
  23        5.1074
  24        5.8408
  25       11.1700
  26       11.8387
 
  0.1666667E+00  0.8333333E-01  0.0000000E+00  0.1388889E-01
   1       -5.1210
   2       -1.0403
   3       -0.9081
   4       -0.8751
   5       -0.4922
   6       -0.4868
   7       -0.4866
   8        0.7073
   9        0.8993
  10        0.9072
  11        1.5713
  12        1.6877
  13        1.7982
  14        1.7984
  15        2.0120
  16        2.0772
  17        2.1105
  18        2.1893
  19        2.2399
  20        2.3411
  21        2.3418
  22        4.0287
  23        5.6667
  24        6.3955
  25       11.2644
  26       11.9682
 
  0.2500000E+00  0.8333333E-01  0.0000000E+00  0.1388889E-01
   1       -4.7065
   2       -1.1289
   3       -0.7322
   4       -0.7075
   5       -0.3864
   6       -0.3690
   7       -0.3658
   8        0.5939
   9        0.9929
  10        0.9971
  11        1.3749
  12        1.4014
  13        1.4782
  14        1.7366
  15        1.7877
  16        1.9486
  17        1.9762
  18        2.0859
  19        2.1309
  20        2.3389
  21        2.3409
  22        2.9773
  23        6.4099
  24        7.1734
  25       11.4196
  26       12.1949
 
  0.3333333E+00  0.8333333E-01  0.0000000E+00  0.1388889E-01
   1       -4.1431
   2       -1.4046
   3       -0.5311
   4       -0.5149
   5       -0.2472
   6       -0.2051
   7       -0.1946
   8        0.4461
   9        0.9618
  10        1.0003
  11        1.0915
  12        1.1317
  13        1.3871
  14        1.4544
  15        1.7973
  16        1.8019
  17        1.8189
  18        1.8971
  19        2.0209
  20        2.3013
  21        2.3385
  22        2.3405
  23        7.2632
  24        8.1009
  25       11.3296
  26       11.8641
 
  0.4166667E+00  0.8333333E-01  0.0000000E+00  0.1388889E-01
   1       -3.4551
   2       -1.9548
   3       -0.3588
   4       -0.3493
   5       -0.0832
   6        0.0044
   7        0.0283
   8        0.2756
   9        0.5884
  10        0.6295
  11        1.1229
  12        1.1772
  13        1.2977
  14        1.4036
  15        1.6670
  16        1.6798
  17        1.6923
  18        1.7906
  19        1.8794
  20        2.0699
  21        2.3388
  22        2.3400
  23        8.1966
  24        9.1421
  25       10.2686
  26       11.4984
 
  0.5000000E+00  0.8333333E-01  0.0000000E+00  0.6944444E-02
   1       -2.6919
   2       -2.6919
   3       -0.2846
   4       -0.2846
   5        0.0950
   6        0.0950
   7        0.2673
   8        0.2673
   9        0.3036
  10        0.3036
  11        1.0972
  12        1.0972
  13        1.4879
  14        1.4879
  15        1.5643
  16        1.5643
  17        1.6175
  18        1.6175
  19        1.9664
  20        1.9664
  21        2.3394
  22        2.3394
  23        9.1994
  24        9.1994
  25       10.2784
  26       10.2784
 
  0.1666667E+00  0.1666667E+00  0.0000000E+00  0.6944444E-02
   1       -4.8717
   2       -0.9141
   3       -0.9141
   4       -0.7712
   5       -0.4246
   6       -0.4246
   7       -0.4243
   8        0.6669
   9        0.9321
  10        0.9413
  11        1.5504
  12        1.5895
  13        1.6232
  14        1.6232
  15        1.6960
  16        2.0037
  17        2.1043
  18        2.1043
  19        2.2391
  20        2.2391
  21        2.2869
  22        4.5720
  23        4.5720
  24        6.8883
  25       11.3395
  26       12.6183
 
  0.2500000E+00  0.1666667E+00  0.0000000E+00  0.1388889E-01
   1       -4.4633
   2       -0.9878
   3       -0.7235
   4       -0.6147
   5       -0.3254
   6       -0.3214
   7       -0.3109
   8        0.5759
   9        0.9910
  10        1.0145
  11        1.2043
  12        1.2806
  13        1.3716
  14        1.4848
  15        1.7537
  16        1.8893
  17        1.9765
  18        2.0567
  19        2.0846
  20        2.2380
  21        2.2552
  22        3.5178
  23        5.2455
  24        7.6087
  25       11.0245
  26       11.7319
 
  0.3333333E+00  0.1666667E+00  0.0000000E+00  0.1388889E-01
   1       -3.9092
   2       -1.2442
   3       -0.5015
   4       -0.4288
   5       -0.1952
   6       -0.1875
   7       -0.1503
   8        0.4454
   9        0.8123
  10        0.9394
  11        1.0285
  12        1.1039
  13        1.1408
  14        1.4296
  15        1.7542
  16        1.8232
  17        1.8446
  18        1.8958
  19        1.9546
  20        2.2366
  21        2.2413
  22        2.7582
  23        5.9991
  24        8.4923
  25        9.8575
  26       11.9231
 
  0.4166667E+00  0.1666667E+00  0.0000000E+00  0.1388889E-01
   1       -3.2345
   2       -1.7734
   3       -0.3017
   4       -0.2556
   5       -0.0422
   6       -0.0339
   7        0.0578
   8        0.2901
   9        0.4662
  10        0.6095
  11        0.9489
  12        1.0030
  13        1.3020
  14        1.4667
  15        1.6408
  16        1.6817
  17        1.6917
  18        1.7908
  19        1.9600
  20        2.2353
  21        2.2360
  22        2.3312
  23        6.8254
  24        8.7406
  25        9.5015
  26       11.8196
 
  0.5000000E+00  0.1666667E+00  0.0000000E+00  0.6944444E-02
   1       -2.4892
   2       -2.4892
   3       -0.1982
   4       -0.1982
   5        0.1234
   6        0.1234
   7        0.1774
   8        0.1774
   9        0.3124
  10        0.3124
  11        0.9431
  12        0.9431
  13        1.4892
  14        1.4892
  15        1.6054
  16        1.6054
  17        1.6080
  18        1.6080
  19        2.1070
  20        2.1070
  21        2.2347
  22        2.2347
  23        7.7337
  24        7.7337
  25       10.6151
  26       10.6151
 
  0.2500000E+00  0.2500000E+00  0.0000000E+00  0.6944444E-02
   1       -4.0659
   2       -0.7727
   3       -0.7727
   4       -0.4778
   5       -0.2417
   6       -0.2233
   7       -0.2233
   8        0.5231
   9        0.9815
  10        0.9815
  11        0.9921
  12        1.0698
  13        1.0819
  14        1.4485
  15        1.7948
  16        1.8313
  17        1.9377
  18        1.9377
  19        2.0829
  20        2.0829
  21        2.1774
  22        4.1251
  23        4.1251
  24        8.2681
  25        9.6932
  26       11.8535
 
  0.3333333E+00  0.2500000E+00  0.0000000E+00  0.1388889E-01
   1       -3.5288
   2       -0.9988
   3       -0.5170
   4       -0.3147
   5       -0.1435
   6       -0.1090
   7       -0.0802
   8        0.4296
   9        0.6350
  10        0.7963
  11        0.8335
  12        0.9776
  13        1.1734
  14        1.4072
  15        1.6810
  16        1.7919
  17        1.8437
  18        1.8949
  19        1.9620
  20        2.0816
  21        2.1269
  22        3.2607
  23        4.7915
  24        8.4377
  25        9.0997
  26       12.1572
 
  0.4166667E+00  0.2500000E+00  0.0000000E+00  0.1388889E-01
   1       -2.8788
   2       -1.4918
   3       -0.2732
   4       -0.1311
   5       -0.0751
   6        0.0242
   7        0.1030
   8        0.3059
   9        0.3359
  10        0.5716
  11        0.7452
  12        0.9116
  13        1.3195
  14        1.4340
  15        1.5873
  16        1.6525
  17        1.6937
  18        1.6997
  19        2.0821
  20        2.0996
  21        2.1329
  22        2.6986
  23        5.5315
  24        7.3311
  25       10.0682
  26       12.3344
 
  0.5000000E+00  0.2500000E+00  0.0000000E+00  0.6944444E-02
   1       -2.1675
   2       -2.1675
   3       -0.1099
   4       -0.1099
   5        0.0827
   6        0.0827
   7        0.1663
   8        0.1663
   9        0.3229
  10        0.3229
  11        0.8106
  12        0.8106
  13        1.4970
  14        1.4970
  15        1.5448
  16        1.5448
  17        1.5709
  18        1.5709
  19        2.0868
  20        2.0868
  21        2.3587
  22        2.3587
  23        6.3691
  24        6.3691
  25       11.1513
  26       11.1513
 
  0.3333333E+00  0.3333333E+00  0.0000000E+00  0.6944444E-02
   1       -3.0186
   2       -0.7053
   3       -0.7053
   4       -0.2240
   5       -0.0508
   6        0.0100
   7        0.0100
   8        0.3860
   9        0.5377
  10        0.5377
  11        0.6859
  12        0.9281
  13        1.2457
  14        1.3572
  15        1.5867
  16        1.7069
  17        1.7069
  18        1.8966
  19        1.8966
  20        2.0298
  21        2.1417
  22        3.8175
  23        3.8175
  24        7.1818
  25        9.8829
  26       12.5107
 
  0.4166667E+00  0.3333333E+00  0.0000000E+00  0.1388889E-01
   1       -2.4095
   2       -1.1461
   3       -0.4240
   4       -0.1842
   5        0.0653
   6        0.1124
   7        0.1583
   8        0.3123
   9        0.3321
  10        0.5110
  11        0.5835
  12        0.8416
  13        1.3568
  14        1.3632
  15        1.5059
  16        1.5745
  17        1.5758
  18        1.7030
  19        1.9046
  20        1.9633
  21        2.3723
  22        3.1287
  23        4.4537
  24        6.1058
  25       10.8104
  26       12.9945
 
  0.5000000E+00  0.3333333E+00  0.0000000E+00  0.6944444E-02
   1       -1.7554
   2       -1.7554
   3       -0.2349
   4       -0.2349
   5        0.1807
   6        0.1807
   7        0.2170
   8        0.2170
   9        0.3293
  10        0.3293
  11        0.7104
  12        0.7104
  13        1.4405
  14        1.4405
  15        1.4946
  16        1.4946
  17        1.5199
  18        1.5199
  19        1.9243
  20        1.9243
  21        2.6784
  22        2.6784
  23        5.2045
  24        5.2045
  25       11.8611
  26       11.8611
 
  0.4166667E+00  0.4166667E+00  0.0000000E+00  0.6944444E-02
   1       -1.8636
   2       -0.7935
   3       -0.7935
   4       -0.3049
   5        0.2158
   6        0.2158
   7        0.2281
   8        0.2999
   9        0.4269
  10        0.4625
  11        0.4625
  12        0.7587
  13        1.3090
  14        1.4224
  15        1.4450
  16        1.4571
  17        1.4571
  18        1.7266
  19        1.7266
  20        1.8513
  21        2.6733
  22        3.6405
  23        3.6405
  24        5.0886
  25       11.7012
  26       13.5324
 
  0.5000000E+00  0.4166667E+00  0.0000000E+00  0.6944444E-02
   1       -1.2996
   2       -1.2996
   3       -0.5013
   4       -0.5013
   5        0.2661
   6        0.2661
   7        0.3248
   8        0.3248
   9        0.3576
  10        0.3576
  11        0.6259
  12        0.6259
  13        1.3479
  14        1.3479
  15        1.3948
  16        1.3948
  17        1.5684
  18        1.5684
  19        1.7732
  20        1.7732
  21        3.0719
  22        3.0719
  23        4.2774
  24        4.2774
  25       12.7210
  26       12.7210
 
  0.5000000E+00  0.5000000E+00  0.0000000E+00  0.1736111E-02
   1       -0.8631
   2       -0.8631
   3       -0.8631
   4       -0.8631
   5        0.3039
   6        0.3039
   7        0.3039
   8        0.3039
   9        0.5159
  10        0.5159
  11        0.5159
  12        0.5159
  13        1.3274
  14        1.3274
  15        1.3274
  16        1.3274
  17        1.6519
  18        1.6519
  19        1.6519
  20        1.6519
  21        3.5832
  22        3.5832
  23        3.5832
  24        3.5832
  25       13.7133
  26       13.7133
 
  0.8333333E-01  0.8333333E-01  0.8333333E-01  0.4629630E-02
   1       -5.2893
   2       -0.9857
   3       -0.9857
   4       -0.9857
   5       -0.5353
   6       -0.5353
   7       -0.5353
   8        0.7612
   9        0.8614
  10        0.8614
  11        1.6410
  12        1.6410
  13        2.0636
  14        2.0636
  15        2.0636
  16        2.1345
  17        2.1345
  18        2.1345
  19        2.3374
  20        2.3374
  21        2.3374
  22        5.3106
  23        5.3106
  24        5.3106
  25       11.8809
  26       11.8809
 
  0.1666667E+00  0.8333333E-01  0.8333333E-01  0.1388889E-01
   1       -5.0377
   2       -0.9979
   3       -0.8714
   4       -0.8714
   5       -0.4704
   6       -0.4660
   7       -0.4660
   8        0.7004
   9        0.9082
  10        0.9125
  11        1.5802
  12        1.6759
  13        1.7373
  14        1.7373
  15        1.9132
  16        2.0562
  17        2.0587
  18        2.0587
  19        2.2928
  20        2.3264
  21        2.3264
  22        4.2311
  23        5.8336
  24        5.8336
  25       12.0094
  26       12.0094
 
  0.2500000E+00  0.8333333E-01  0.8333333E-01  0.1388889E-01
   1       -4.6254
   2       -1.0823
   3       -0.6999
   4       -0.6999
   5       -0.3663
   6       -0.3504
   7       -0.3504
   8        0.5919
   9        0.9912
  10        0.9965
  11        1.3406
  12        1.3406
  13        1.4947
  14        1.6561
  15        1.7312
  16        1.9305
  17        1.9406
  18        1.9406
  19        2.2293
  20        2.3173
  21        2.3173
  22        3.1828
  23        6.5474
  24        6.5474
  25       12.2089
  26       12.2089
 
  0.3333333E+00  0.8333333E-01  0.8333333E-01  0.1388889E-01
   1       -4.0652
   2       -1.3521
   3       -0.5014
   4       -0.5014
   5       -0.2295
   6       -0.1909
   7       -0.1909
   8        0.4487
   9        0.9479
  10        0.9479
  11        1.0749
  12        1.1118
  13        1.3279
  14        1.4299
  15        1.7710
  16        1.7952
  17        1.7952
  18        1.8031
  19        2.1526
  20        2.3121
  21        2.3121
  22        2.4355
  23        7.3779
  24        7.3779
  25       11.5500
  26       11.5500
 
  0.4166667E+00  0.8333333E-01  0.8333333E-01  0.1388889E-01
   1       -3.3818
   2       -1.8952
   3       -0.3266
   4       -0.3266
   5       -0.0685
   6        0.0070
   7        0.0070
   8        0.2826
   9        0.5934
  10        0.5934
  11        1.0793
  12        1.0947
  13        1.2545
  14        1.4904
  15        1.5950
  16        1.6652
  17        1.6652
  18        1.8867
  19        1.9837
  20        2.0669
  21        2.3096
  22        2.3096
  23        8.2853
  24        8.2853
  25       10.4176
  26       10.4176
 
  0.5000000E+00  0.8333333E-01  0.8333333E-01  0.6944444E-02
   1       -2.6248
   2       -2.6248
   3       -0.2528
   4       -0.2528
   5        0.1061
   6        0.1061
   7        0.1907
   8        0.1907
   9        0.3529
  10        0.3529
  11        1.0413
  12        1.0413
  13        1.4187
  14        1.4187
  15        1.6107
  16        1.6107
  17        1.6877
  18        1.6877
  19        1.9765
  20        1.9765
  21        2.3089
  22        2.3089
  23        9.0613
  24        9.0613
  25        9.5657
  26        9.5657
 
  0.1666667E+00  0.1666667E+00  0.8333333E-01  0.1388889E-01
   1       -4.7899
   2       -0.8765
   3       -0.8765
   4       -0.7667
   5       -0.4046
   6       -0.4046
   7       -0.4042
   8        0.6625
   9        0.9374
  10        0.9425
  11        1.5355
  12        1.5687
  13        1.5687
  14        1.5719
  15        1.6785
  16        1.9592
  17        1.9891
  18        1.9891
  19        2.2865
  20        2.2865
  21        2.2952
  22        4.7220
  23        4.7220
  24        6.2849
  25       12.0992
  26       12.7449
 
  0.2500000E+00  0.1666667E+00  0.8333333E-01  0.2777778E-01
   1       -4.3842
   2       -0.9487
   3       -0.6936
   4       -0.6094
   5       -0.3057
   6       -0.3030
   7       -0.2950
   8        0.5768
   9        0.9892
  10        1.0062
  11        1.1793
  12        1.2313
  13        1.3196
  14        1.5152
  15        1.7411
  16        1.8505
  17        1.8642
  18        1.8974
  19        2.2260
  20        2.2611
  21        2.2637
  22        3.6435
  23        5.3607
  24        6.9297
  25       11.2507
  26       12.4586
 
  0.3333333E+00  0.1666667E+00  0.8333333E-01  0.2777778E-01
   1       -3.8341
   2       -1.2015
   3       -0.4791
   4       -0.4220
   5       -0.1758
   6       -0.1742
   7       -0.1467
   8        0.4519
   9        0.8128
  10        0.9027
  11        1.0226
  12        1.0613
  13        1.1057
  14        1.4861
  15        1.7047
  16        1.7277
  17        1.7715
  18        1.8353
  19        2.1367
  20        2.2409
  21        2.2413
  22        2.8291
  23        6.0901
  24        7.6903
  25       10.0364
  26       11.8763
 
  0.4166667E+00  0.1666667E+00  0.8333333E-01  0.2777778E-01
   1       -3.1654
   2       -1.7226
   3       -0.2773
   4       -0.2377
   5       -0.0468
   6       -0.0239
   7        0.0166
   8        0.3016
   9        0.5061
  10        0.6017
  11        0.9206
  12        0.9896
  13        1.2278
  14        1.5349
  15        1.5714
  16        1.6197
  17        1.6472
  18        1.9491
  19        1.9911
  20        2.2294
  21        2.2297
  22        2.3303
  23        6.8934
  24        8.3492
  25        9.1422
  26       10.7305
 
  0.5000000E+00  0.1666667E+00  0.8333333E-01  0.1388889E-01
   1       -2.4284
   2       -2.4284
   3       -0.1647
   4       -0.1647
   5        0.0715
   6        0.0715
   7        0.1390
   8        0.1390
   9        0.3971
  10        0.3971
  11        0.9239
  12        0.9239
  13        1.3723
  14        1.3723
  15        1.5834
  16        1.5834
  17        1.7678
  18        1.7678
  19        2.0895
  20        2.0895
  21        2.2260
  22        2.2260
  23        7.7577
  24        7.7577
  25        9.7045
  26        9.7045
 
  0.2500000E+00  0.2500000E+00  0.8333333E-01  0.1388889E-01
   1       -3.9904
   2       -0.7476
   3       -0.7476
   4       -0.4786
   5       -0.2225
   6       -0.2044
   7       -0.2044
   8        0.5298
   9        0.9671
  10        0.9671
  11        0.9897
  12        1.0460
  13        1.0476
  14        1.4951
  15        1.7404
  16        1.7967
  17        1.7967
  18        1.8162
  19        2.1826
  20        2.1826
  21        2.2048
  22        4.2134
  23        4.2134
  24        7.4821
  25        9.8829
  26       12.7119
 
  0.3333333E+00  0.2500000E+00  0.8333333E-01  0.2777778E-01
   1       -3.4590
   2       -0.9751
   3       -0.5129
   4       -0.3283
   5       -0.1230
   6       -0.0851
   7       -0.0676
   8        0.4435
   9        0.6542
  10        0.7921
  11        0.8212
  12        0.9752
  13        1.1173
  14        1.4846
  15        1.6304
  16        1.6501
  17        1.6988
  18        1.9462
  19        2.0754
  20        2.1406
  21        2.1551
  22        3.3079
  23        4.8578
  24        7.9529
  25        8.8837
  26       12.3561
 
  0.4166667E+00  0.2500000E+00  0.8333333E-01  0.2777778E-01
   1       -2.8177
   2       -1.4582
   3       -0.2895
   4       -0.1731
   5       -0.0528
   6        0.0512
   7        0.0633
   8        0.3267
   9        0.4249
  10        0.5996
  11        0.7447
  12        0.9092
  13        1.2131
  14        1.4881
  15        1.5426
  16        1.5646
  17        1.5898
  18        1.9224
  19        2.1145
  20        2.1159
  21        2.1229
  22        2.7016
  23        5.5805
  24        7.3052
  25        9.2736
  26       11.2078
 
  0.5000000E+00  0.2500000E+00  0.8333333E-01  0.1388889E-01
   1       -2.1189
   2       -2.1189
   3       -0.1337
   4       -0.1337
   5        0.0250
   6        0.0250
   7        0.1920
   8        0.1920
   9        0.4274
  10        0.4274
  11        0.8093
  12        0.8093
  13        1.3373
  14        1.3373
  15        1.5229
  16        1.5229
  17        1.7322
  18        1.7322
  19        2.1101
  20        2.1101
  21        2.3410
  22        2.3410
  23        6.3972
  24        6.3972
  25       10.1726
  26       10.1726
 
  0.3333333E+00  0.3333333E+00  0.8333333E-01  0.1388889E-01
   1       -2.9574
   2       -0.7140
   3       -0.7140
   4       -0.2703
   5       -0.0183
   6        0.0414
   7        0.0414
   8        0.4104
   9        0.5646
  10        0.5646
  11        0.7070
  12        0.9288
  13        1.1458
  14        1.4746
  15        1.5263
  16        1.5754
  17        1.5754
  18        2.0150
  19        2.0150
  20        2.0735
  21        2.1230
  22        3.8514
  23        3.8514
  24        7.1368
  25        9.1294
  26       12.9927
 
  0.4166667E+00  0.3333333E+00  0.8333333E-01  0.2777778E-01
   1       -2.3617
   2       -1.1413
   3       -0.4761
   4       -0.2590
   5        0.0973
   6        0.1566
   7        0.1780
   8        0.3478
   9        0.4112
  10        0.5761
  11        0.6008
  12        0.8453
  13        1.1980
  14        1.4287
  15        1.4447
  16        1.4865
  17        1.5385
  18        1.8574
  19        1.9799
  20        2.0111
  21        2.3514
  22        3.1295
  23        4.4786
  24        6.1090
  25        9.8937
  26       11.8411
 
  0.5000000E+00  0.3333333E+00  0.8333333E-01  0.1388889E-01
   1       -1.7271
   2       -1.7271
   3       -0.3177
   4       -0.3177
   5        0.1861
   6        0.1861
   7        0.2609
   8        0.2609
   9        0.4436
  10        0.4436
  11        0.7186
  12        0.7186
  13        1.2939
  14        1.2939
  15        1.4275
  16        1.4275
  17        1.6825
  18        1.6825
  19        1.9786
  20        1.9786
  21        2.6608
  22        2.6608
  23        5.2214
  24        5.2214
  25       10.8073
  26       10.8073
 
  0.4166667E+00  0.4166667E+00  0.8333333E-01  0.1388889E-01
   1       -1.8365
   2       -0.8283
   3       -0.8283
   4       -0.3893
   5        0.2551
   6        0.2844
   7        0.2844
   8        0.3536
   9        0.4935
  10        0.4935
  11        0.5232
  12        0.7675
  13        1.1944
  14        1.3550
  15        1.3587
  16        1.3587
  17        1.5702
  18        1.8267
  19        1.8267
  20        1.9120
  21        2.6513
  22        3.6400
  23        3.6400
  24        5.0931
  25       10.6741
  26       12.6173
 
  0.5000000E+00  0.4166667E+00  0.8333333E-01  0.1388889E-01
   1       -1.3017
   2       -1.3017
   3       -0.5726
   4       -0.5726
   5        0.3355
   6        0.3355
   7        0.3635
   8        0.3635
   9        0.4453
  10        0.4453
  11        0.6403
  12        0.6403
  13        1.2475
  14        1.2475
  15        1.3197
  16        1.3197
  17        1.6768
  18        1.6768
  19        1.8456
  20        1.8456
  21        3.0549
  22        3.0549
  23        4.2785
  24        4.2785
  25       11.5841
  26       11.5841
 
  0.5000000E+00  0.5000000E+00  0.8333333E-01  0.3472222E-02
   1       -0.9025
   2       -0.9025
   3       -0.9025
   4       -0.9025
   5        0.3955
   6        0.3955
   7        0.3955
   8        0.3955
   9        0.5368
  10        0.5368
  11        0.5368
  12        0.5368
  13        1.2466
  14        1.2466
  15        1.2466
  16        1.2466
  17        1.7353
  18        1.7353
  19        1.7353
  20        1.7353
  21        3.5717
  22        3.5717
  23        3.5717
  24        3.5717
  25       12.4920
  26       12.4920
 
  0.1666667E+00  0.1666667E+00  0.1666667E+00  0.4629630E-02
   1       -4.5466
   2       -0.7700
   3       -0.7700
   4       -0.7700
   5       -0.3441
   6       -0.3441
   7       -0.3441
   8        0.6372
   9        0.9559
  10        0.9559
  11        1.3804
  12        1.3804
  13        1.3804
  14        1.6322
  15        1.6322
  16        1.8498
  17        1.8498
  18        1.8498
  19        2.3002
  20        2.3002
  21        2.3002
  22        5.1204
  23        5.1204
  24        5.1204
  25       12.9628
  26       12.9628
 
  0.2500000E+00  0.1666667E+00  0.1666667E+00  0.1388889E-01
   1       -4.1492
   2       -0.8395
   3       -0.6128
   4       -0.6128
   5       -0.2454
   6       -0.2445
   7       -0.2445
   8        0.5725
   9        0.9879
  10        0.9939
  11        1.0972
  12        1.0972
  13        1.1540
  14        1.5817
  15        1.7075
  16        1.7218
  17        1.7492
  18        1.7492
  19        2.2737
  20        2.2737
  21        2.2803
  22        3.9829
  23        5.6795
  24        5.6795
  25       11.5932
  26       11.5932
 
  0.3333333E+00  0.1666667E+00  0.1666667E+00  0.1388889E-01
   1       -3.6121
   2       -1.0825
   3       -0.4293
   4       -0.4293
   5       -0.1217
   6       -0.1217
   7       -0.1151
   8        0.4684
   9        0.8094
  10        0.8094
  11        0.9389
  12        1.0011
  13        1.0566
  14        1.5531
  15        1.5871
  16        1.6498
  17        1.6498
  18        1.8293
  19        2.2302
  20        2.2366
  21        2.2366
  22        3.0723
  23        6.3380
  24        6.3380
  25       10.3626
  26       10.3626
 
  0.4166667E+00  0.1666667E+00  0.1666667E+00  0.1388889E-01
   1       -2.9626
   2       -1.5787
   3       -0.2424
   4       -0.2424
   5       -0.0355
   6       -0.0355
   7        0.0337
   8        0.3362
   9        0.5871
  10        0.5871
  11        0.8425
  12        0.9505
  13        1.1467
  14        1.4012
  15        1.5555
  16        1.5555
  17        1.7194
  18        1.9436
  19        2.1528
  20        2.2093
  21        2.2093
  22        2.4269
  23        7.0374
  24        7.0374
  25        9.3231
  26        9.3231
 
  0.5000000E+00  0.1666667E+00  0.1666667E+00  0.6944444E-02
   1       -2.2525
   2       -2.2525
   3       -0.0988
   4       -0.0988
   5       -0.0675
   6       -0.0675
   7        0.1878
   8        0.1878
   9        0.5044
  10        0.5044
  11        0.8712
  12        0.8712