<?xml version="1.0" encoding="ISO-8859-1"?>
<modeling>
 <generator>
  <i name="program" type="string">vasp</i>
  <i name="version" type="string">4.6.28 </i>
  <i name="subversion" type="string">25Jul05 complex  parallel</i>
  <i name="platform" type="string">LinuxIFC</i>
  <i name="date" type="string">2016 12 21</i>
  <i name="time" type="string">11:38:04</i>
 </generator>
 <incar>
  <i type="string" name="PREC">accurate</i>
  <i type="int" name="IALGO">    38</i>
  <i type="logical" name="ADDGRID"> T  </i>
  <i name="EDIFF">      0.00000001</i>
  <i type="int" name="IBRION">    -1</i>
  <i name="ENCUT">    750.00000000</i>
  <i type="logical" name="LREAL"> F  </i>
  <i type="int" name="ISMEAR">     0</i>
  <i name="SIGMA">      0.01000000</i>
  <i type="logical" name="LWAVE"> F  </i>
  <i type="logical" name="LCHARG"> F  </i>
 </incar>
 <kpoints>
  <generation param="Gamma">
   <v type="int" name="divisions">      12      12      12</v>
   <v name="usershift">      0.00000000      0.00000000      0.00000000</v>
   <v name="genvec1">      0.08333333      0.00000000      0.00000000</v>
   <v name="genvec2">      0.00000000      0.08333333      0.00000000</v>
   <v name="genvec3">      0.00000000      0.00000000      0.08333333</v>
   <v name="shift">      0.00000000      0.00000000      0.00000000</v>
  </generation>
  <varray name="kpointlist" >
   <v>       0.00000000      0.00000000      0.00000000</v>
   <v>       0.08333333      0.00000000      0.00000000</v>
   <v>       0.16666667      0.00000000      0.00000000</v>
   <v>       0.25000000      0.00000000      0.00000000</v>
   <v>       0.33333333      0.00000000      0.00000000</v>
   <v>       0.41666667      0.00000000      0.00000000</v>
   <v>       0.50000000      0.00000000      0.00000000</v>
   <v>       0.08333333      0.08333333      0.00000000</v>
   <v>       0.16666667      0.08333333      0.00000000</v>
   <v>       0.25000000      0.08333333      0.00000000</v>
   <v>       0.33333333      0.08333333      0.00000000</v>
   <v>       0.41666667      0.08333333      0.00000000</v>
   <v>       0.50000000      0.08333333      0.00000000</v>
   <v>       0.16666667      0.16666667      0.00000000</v>
   <v>       0.25000000      0.16666667      0.00000000</v>
   <v>       0.33333333      0.16666667      0.00000000</v>
   <v>       0.41666667      0.16666667      0.00000000</v>
   <v>       0.50000000      0.16666667      0.00000000</v>
   <v>       0.25000000      0.25000000      0.00000000</v>
   <v>       0.33333333      0.25000000      0.00000000</v>
   <v>       0.41666667      0.25000000      0.00000000</v>
   <v>       0.50000000      0.25000000      0.00000000</v>
   <v>       0.33333333      0.33333333      0.00000000</v>
   <v>       0.41666667      0.33333333      0.00000000</v>
   <v>       0.50000000      0.33333333      0.00000000</v>
   <v>       0.41666667      0.41666667      0.00000000</v>
   <v>       0.50000000      0.41666667      0.00000000</v>
   <v>       0.50000000      0.50000000      0.00000000</v>
   <v>       0.08333333      0.08333333      0.08333333</v>
   <v>       0.16666667      0.08333333      0.08333333</v>
   <v>       0.25000000      0.08333333      0.08333333</v>
   <v>       0.33333333      0.08333333      0.08333333</v>
   <v>       0.41666667      0.08333333      0.08333333</v>
   <v>       0.50000000      0.08333333      0.08333333</v>
   <v>       0.16666667      0.16666667      0.08333333</v>
   <v>       0.25000000      0.16666667      0.08333333</v>
   <v>       0.33333333      0.16666667      0.08333333</v>
   <v>       0.41666667      0.16666667      0.08333333</v>
   <v>       0.50000000      0.16666667      0.08333333</v>
   <v>       0.25000000      0.25000000      0.08333333</v>
   <v>       0.33333333      0.25000000      0.08333333</v>
   <v>       0.41666667      0.25000000      0.08333333</v>
   <v>       0.50000000      0.25000000      0.08333333</v>
   <v>       0.33333333      0.33333333      0.08333333</v>
   <v>       0.41666667      0.33333333      0.08333333</v>
   <v>       0.50000000      0.33333333      0.08333333</v>
   <v>       0.41666667      0.41666667      0.08333333</v>
   <v>       0.50000000      0.41666667      0.08333333</v>
   <v>       0.50000000      0.50000000      0.08333333</v>
   <v>       0.16666667      0.16666667      0.16666667</v>
   <v>       0.25000000      0.16666667      0.16666667</v>
   <v>       0.33333333      0.16666667      0.16666667</v>
   <v>       0.41666667      0.16666667      0.16666667</v>
   <v>       0.50000000      0.16666667      0.16666667</v>
   <v>       0.25000000      0.25000000      0.16666667</v>
   <v>       0.33333333      0.25000000      0.16666667</v>
   <v>       0.41666667      0.25000000      0.16666667</v>
   <v>       0.50000000      0.25000000      0.16666667</v>
   <v>       0.33333333      0.33333333      0.16666667</v>
   <v>       0.41666667      0.33333333      0.16666667</v>
   <v>       0.50000000      0.33333333      0.16666667</v>
   <v>       0.41666667      0.41666667      0.16666667</v>
   <v>       0.50000000      0.41666667      0.16666667</v>
   <v>       0.50000000      0.50000000      0.16666667</v>
   <v>       0.25000000      0.25000000      0.25000000</v>
   <v>       0.33333333      0.25000000      0.25000000</v>
   <v>       0.41666667      0.25000000      0.25000000</v>
   <v>       0.50000000      0.25000000      0.25000000</v>
   <v>       0.33333333      0.33333333      0.25000000</v>
   <v>       0.41666667      0.33333333      0.25000000</v>
   <v>       0.50000000      0.33333333      0.25000000</v>
   <v>       0.41666667      0.41666667      0.25000000</v>
   <v>       0.50000000      0.41666667      0.25000000</v>
   <v>       0.50000000      0.50000000      0.25000000</v>
   <v>       0.33333333      0.33333333      0.33333333</v>
   <v>       0.41666667      0.33333333      0.33333333</v>
   <v>       0.50000000      0.33333333      0.33333333</v>
   <v>       0.41666667      0.41666667      0.33333333</v>
   <v>       0.50000000      0.41666667      0.33333333</v>
   <v>       0.50000000      0.50000000      0.33333333</v>
   <v>       0.41666667      0.41666667      0.41666667</v>
   <v>       0.50000000      0.41666667      0.41666667</v>
   <v>       0.50000000      0.50000000      0.41666667</v>
   <v>       0.50000000      0.50000000      0.50000000</v>
  </varray>
  <varray name="weights" >
   <v>       0.00057870</v>
   <v>       0.00347222</v>
   <v>       0.00347222</v>
   <v>       0.00347222</v>
   <v>       0.00347222</v>
   <v>       0.00347222</v>
   <v>       0.00173611</v>
   <v>       0.00694444</v>
   <v>       0.01388889</v>
   <v>       0.01388889</v>
   <v>       0.01388889</v>
   <v>       0.01388889</v>
   <v>       0.00694444</v>
   <v>       0.00694444</v>
   <v>       0.01388889</v>
   <v>       0.01388889</v>
   <v>       0.01388889</v>
   <v>       0.00694444</v>
   <v>       0.00694444</v>
   <v>       0.01388889</v>
   <v>       0.01388889</v>
   <v>       0.00694444</v>
   <v>       0.00694444</v>
   <v>       0.01388889</v>
   <v>       0.00694444</v>
   <v>       0.00694444</v>
   <v>       0.00694444</v>
   <v>       0.00173611</v>
   <v>       0.00462963</v>
   <v>       0.01388889</v>
   <v>       0.01388889</v>
   <v>       0.01388889</v>
   <v>       0.01388889</v>
   <v>       0.00694444</v>
   <v>       0.01388889</v>
   <v>       0.02777778</v>
   <v>       0.02777778</v>
   <v>       0.02777778</v>
   <v>       0.01388889</v>
   <v>       0.01388889</v>
   <v>       0.02777778</v>
   <v>       0.02777778</v>
   <v>       0.01388889</v>
   <v>       0.01388889</v>
   <v>       0.02777778</v>
   <v>       0.01388889</v>
   <v>       0.01388889</v>
   <v>       0.01388889</v>
   <v>       0.00347222</v>
   <v>       0.00462963</v>
   <v>       0.01388889</v>
   <v>       0.01388889</v>
   <v>       0.01388889</v>
   <v>       0.00694444</v>
   <v>       0.01388889</v>
   <v>       0.02777778</v>
   <v>       0.02777778</v>
   <v>       0.01388889</v>
   <v>       0.01388889</v>
   <v>       0.02777778</v>
   <v>       0.01388889</v>
   <v>       0.01388889</v>
   <v>       0.01388889</v>
   <v>       0.00347222</v>
   <v>       0.00462963</v>
   <v>       0.01388889</v>
   <v>       0.01388889</v>
   <v>       0.00694444</v>
   <v>       0.01388889</v>
   <v>       0.02777778</v>
   <v>       0.01388889</v>
   <v>       0.01388889</v>
   <v>       0.01388889</v>
   <v>       0.00347222</v>
   <v>       0.00462963</v>
   <v>       0.01388889</v>
   <v>       0.00694444</v>
   <v>       0.01388889</v>
   <v>       0.01388889</v>
   <v>       0.00347222</v>
   <v>       0.00462963</v>
   <v>       0.00694444</v>
   <v>       0.00347222</v>
   <v>       0.00057870</v>
  </varray>
 </kpoints>
 <parameters>
  <separator name="general" >
   <i type="string" name="SYSTEM">unknown system</i>
   <i type="logical" name="LCOMPAT"> F  </i>
  </separator>
  <separator name="electronic" >
   <i type="string" name="PREC">accura</i>
   <i name="ENMAX">    750.00000000</i>
   <i name="ENAUG">    516.45600000</i>
   <i name="EDIFF">      0.00000001</i>
   <i type="int" name="IALGO">    38</i>
   <i type="int" name="IWAVPR">    10</i>
   <i type="int" name="NBANDS">    26</i>
   <i name="NELECT">     44.00000000</i>
   <separator name="electronic smearing" >
    <i type="int" name="ISMEAR">     0</i>
    <i name="SIGMA">      0.01000000</i>
   </separator>
   <separator name="electronic projectors" >
    <i type="logical" name="LREAL"> F  </i>
    <v name="ROPT">      0.00000000</v>
    <i type="int" name="LMAXPAW">  -100</i>
    <i type="int" name="LMAXMIX">     2</i>
   </separator>
   <separator name="electronic startup" >
    <i type="int" name="ISTART">     0</i>
    <i type="int" name="ICHARG">     2</i>
    <i type="int" name="INIWAV">     1</i>
   </separator>
   <separator name="electronic spin" >
    <i type="int" name="ISPIN">     1</i>
    <i type="logical" name="LNONCOLLINEAR"> F  </i>
    <v name="MAGMOM">      1.00000000      1.00000000      1.00000000      1.00000000</v>
    <i name="NUPDOWN">     -1.00000000</i>
    <i type="logical" name="LSORBIT"> F  </i>
    <v name="SAXIS">      0.00000000      0.00000000      1.00000000</v>
    <i type="logical" name="LSPIRAL"> F  </i>
    <v name="QSPIRAL">      0.00000000      0.00000000      0.00000000</v>
    <i type="logical" name="LZEROZ"> F  </i>
   </separator>
   <separator name="electronic exchange-correlation" >
    <i type="string" name="GGA">--</i>
    <i type="int" name="VOSKOWN">     0</i>
    <i type="logical" name="LASPH"> F  </i>
    <i type="logical" name="LMETAGGA"> F  </i>
    <i type="string" name="GGA2">--</i>
   </separator>
   <separator name="electronic convergence" >
    <i type="int" name="NELM">    60</i>
    <i type="int" name="NELMDL">    -5</i>
    <i type="int" name="NELMIN">     2</i>
    <i name="ENINI">    750.00000000</i>
    <separator name="electronic convergence detail" >
     <i type="logical" name="LDIAG"> T  </i>
     <i name="WEIMIN">      0.00000000</i>
     <i name="EBREAK">      0.00000000</i>
     <i name="DEPER">      0.30000000</i>
     <i type="int" name="NRMM">     4</i>
     <i name="TIME">      0.10000000</i>
    </separator>
   </separator>
   <separator name="electronic mixer" >
    <i name="AMIX">      0.40000000</i>
    <i name="BMIX">      1.00000000</i>
    <i name="AMIN">      0.10000000</i>
    <i name="AMIX_MAG">      1.60000000</i>
    <i name="BMIX_MAG">      1.00000000</i>
    <separator name="electronic mixer details" >
     <i type="int" name="IMIX">     4</i>
     <i type="int" name="MAXMIX">   -45</i>
     <i name="WC">    100.00000000</i>
     <i type="int" name="INIMIX">     1</i>
     <i type="int" name="MIXPRE">     1</i>
     <i type="int" name="MREMOVE">     5</i>
    </separator>
   </separator>
   <separator name="electronic dipolcorrection" >
    <i type="int" name="IDIPOL">     0</i>
    <i type="logical" name="LDIPOL"> F  </i>
    <v name="DIPOL">   -100.00000000</v>
    <i name="EFIELD">      0.00000000</i>
   </separator>
  </separator>
  <separator name="grids" >
   <i type="int" name="NGX">    32</i>
   <i type="int" name="NGY">    32</i>
   <i type="int" name="NGZ">    32</i>
   <i type="int" name="NGXF">    64</i>
   <i type="int" name="NGYF">    64</i>
   <i type="int" name="NGZF">    64</i>
   <i type="logical" name="ADDGRID"> T  </i>
  </separator>
  <separator name="ionic" >
   <i type="int" name="NSW">     0</i>
   <i type="int" name="IBRION">    -1</i>
   <i type="int" name="ISIF">     2</i>
   <i name="PSTRESS">      0.00000000</i>
   <i name="EDIFFG">      0.00000010</i>
   <i type="int" name="NFREE">     0</i>
   <i name="POTIM">      0.50000000</i>
   <i name="SMASS">     -3.00000000</i>
  </separator>
  <separator name="ionic md" >
   <i name="TEBEG">      0.00010000</i>
   <i name="TEEND">      0.00010000</i>
   <i type="int" name="NBLOCK">     1</i>
   <i type="int" name="KBLOCK">     1</i>
   <i type="int" name="NPACO">   256</i>
   <i name="APACO">     16.00000000</i>
  </separator>
  <separator name="symmetry" >
   <i type="int" name="ISYM">     2</i>
   <i name="SYMPREC">      0.00001000</i>
  </separator>
  <separator name="dos" >
   <i type="logical" name="LORBIT"> F  </i>
   <v name="RWIGS">     -1.00000000</v>
   <i type="int" name="NEDOS">   301</i>
   <i name="EMIN">     10.00000000</i>
   <i name="EMAX">    -10.00000000</i>
  </separator>
  <separator name="writing" >
   <i type="int" name="NWRITE">     2</i>
   <i type="logical" name="LWAVE"> F  </i>
   <i type="logical" name="LCHARG"> F  </i>
   <i type="logical" name="LPARD"> F  </i>
   <i type="logical" name="LVTOT"> F  </i>
   <i type="logical" name="LELF"> F  </i>
   <i type="logical" name="LOPTICS"> F  </i>
   <i name="STM">      0.00000000</i>
  </separator>
  <separator name="performance" >
   <i type="int" name="NPAR">     2</i>
   <i type="int" name="NSIM">     4</i>
   <i type="int" name="NBLK">   224</i>
   <i type="logical" name="LPLANE"> T  </i>
   <i type="logical" name="LCRITICAL_MEM"> F  </i>
   <i type="logical" name="LSCALAPACK"> F  </i>
   <i type="logical" name="LSCALU"> F  </i>
   <i type="logical" name="LASYNC"> F  </i>
  </separator>
  <separator name="miscellaneous" >
   <i type="int" name="IDIOT">     3</i>
   <i type="logical" name="LMUSIC"> F  </i>
   <v name="POMASS">     63.54600000</v>
   <i type="logical" name="LCORR"> T  </i>
  </separator>
  <i type="logical" name="LREAL_COMPAT"> F  </i>
  <i type="logical" name="GGA_COMPAT"> T  </i>
  <i type="logical" name="LBERRY"> F  </i>
  <i type="int" name="ICORELEVEL">     0</i>
  <i type="logical" name="LDAU"> F  </i>
  <i type="int" name="I_CONSTRAINED_M">     0</i>
 </parameters>
 <atominfo>
  <atoms>       4</atoms>
  <types>       1</types>
  <array name="atoms" >
   <dimension dim="1">ion</dimension>
   <field type="string">element</field>
   <field type="int">atomtype</field>
   <set>
    <rc><c>Cu</c><c>   1</c></rc>
    <rc><c>Cu</c><c>   1</c></rc>
    <rc><c>Cu</c><c>   1</c></rc>
    <rc><c>Cu</c><c>   1</c></rc>
   </set>
  </array>
  <array name="atomtypes" >
   <dimension dim="1">type</dimension>
   <field type="int">atomspertype</field>
   <field type="string">element</field>
   <field>mass</field>
   <field>valence</field>
   <field type="string">pseudopotential</field>
   <set>
    <rc><c>   4</c><c>Cu</c><c>     63.54600000</c><c>     11.00000000</c><c> PAW_PBE Cu 05Jan2001                   </c></rc>
   </set>
  </array>
 </atominfo>
 <structure name="initialpos" >
  <crystal>
   <varray name="basis" >
    <v>       3.60005165      0.00000000      0.00000000</v>
    <v>       0.00000000      3.60005165      0.00000000</v>
    <v>       0.00000000      0.00000000      3.60005165</v>
   </varray>
   <i name="volume">     46.65800832</i>
   <varray name="rec_basis" >
    <v>       0.27777379      0.00000000      0.00000000</v>
    <v>       0.00000000      0.27777379      0.00000000</v>
    <v>       0.00000000      0.00000000      0.27777379</v>
   </varray>
  </crystal>
  <varray name="positions" >
   <v>       0.00000000      0.00000000      0.00000000</v>
   <v>       0.50000000      0.50000000      0.00000000</v>
   <v>       0.50000000      0.00000000      0.50000000</v>
   <v>       0.00000000      0.50000000      0.50000000</v>
  </varray>
 </structure>
 <calculation>
  <scstep>
   <time name="dav">   23.69  198.13</time>
   <time name="total">   24.05  200.36</time>
   <energy>
    <i name="alphaZ">    438.12415522</i>
    <i name="ewald">  -4438.01726100</i>
    <i name="hartreedc">  -1295.16272313</i>
    <i name="XCdc">    175.75104256</i>
    <i name="pawpsdc">   4328.20916945</i>
    <i name="pawaedc">  -4904.30802700</i>
    <i name="eentropy">     -0.00009459</i>
    <i name="bandstr">    452.09367626</i>
    <i name="atom">   5563.91755062</i>
    <i name="e_fr_energy">    320.60748838</i>
    <i name="e_wo_entrp">    320.60758297</i>
    <i name="e_0_energy">    320.60753567</i>
   </energy>
  </scstep>
  <scstep>
   <time name="dav">   29.62  296.16</time>
   <time name="total">   29.63  296.32</time>
   <energy>
    <i name="e_fr_energy">      1.08329947</i>
    <i name="e_wo_entrp">      1.08338890</i>
    <i name="e_0_energy">      1.08334418</i>
   </energy>
  </scstep>
  <scstep>
   <time name="dav">   29.99  299.85</time>
   <time name="total">   30.10  300.92</time>
   <energy>
    <i name="e_fr_energy">    -18.14976825</i>
    <i name="e_wo_entrp">    -18.14964210</i>
    <i name="e_0_energy">    -18.14970518</i>
   </energy>
  </scstep>
  <scstep>
   <time name="dav">   28.06  280.47</time>
   <time name="total">   28.06  280.63</time>
   <energy>
    <i name="e_fr_energy">    -18.36190105</i>
    <i name="e_wo_entrp">    -18.36173902</i>
    <i name="e_0_energy">    -18.36182003</i>
   </energy>
  </scstep>
  <scstep>
   <time name="dav">   26.55  265.46</time>
   <time name="total">   27.36  273.54</time>
   <energy>
    <i name="e_fr_energy">    -18.36269898</i>
    <i name="e_wo_entrp">    -18.36253694</i>
    <i name="e_0_energy">    -18.36261796</i>
   </energy>
  </scstep>
  <scstep>
   <time name="dav">   27.50  275.01</time>
   <time name="total">   28.63  286.33</time>
   <energy>
    <i name="e_fr_energy">    -16.07165924</i>
    <i name="e_wo_entrp">    -16.07161092</i>
    <i name="e_0_energy">    -16.07163508</i>
   </energy>
  </scstep>
  <scstep>
   <time name="dav">   27.93  279.32</time>
   <time name="total">   28.95  289.59</time>
   <energy>
    <i name="e_fr_energy">    -14.90701880</i>
    <i name="e_wo_entrp">    -14.90687837</i>
    <i name="e_0_energy">    -14.90694859</i>
   </energy>
  </scstep>
  <scstep>
   <time name="dav">   28.49  284.90</time>
   <time name="total">   29.65  296.45</time>
   <energy>
    <i name="e_fr_energy">    -14.87035985</i>
    <i name="e_wo_entrp">    -14.87021985</i>
    <i name="e_0_energy">    -14.87028985</i>
   </energy>
  </scstep>
  <scstep>
   <time name="dav">   29.10  290.97</time>
   <time name="total">   30.17  301.77</time>
   <energy>
    <i name="e_fr_energy">    -14.86023983</i>
    <i name="e_wo_entrp">    -14.86010075</i>
    <i name="e_0_energy">    -14.86017029</i>
   </energy>
  </scstep>
  <scstep>
   <time name="dav">   27.29  272.87</time>
   <time name="total">   28.22  282.19</time>
   <energy>
    <i name="e_fr_energy">    -14.86033702</i>
    <i name="e_wo_entrp">    -14.86019794</i>
    <i name="e_0_energy">    -14.86026748</i>
   </energy>
  </scstep>
  <scstep>
   <time name="dav">   28.43  273.18</time>
   <time name="total">   29.32  281.63</time>
   <energy>
    <i name="e_fr_energy">    -14.86033093</i>
    <i name="e_wo_entrp">    -14.86019185</i>
    <i name="e_0_energy">    -14.86026139</i>
   </energy>
  </scstep>
  <scstep>
   <time name="dav">   27.83  250.46</time>
   <time name="total">   28.75  258.77</time>
   <energy>
    <i name="e_fr_energy">    -14.86033664</i>
    <i name="e_wo_entrp">    -14.86019756</i>
    <i name="e_0_energy">    -14.86026710</i>
   </energy>
  </scstep>
  <scstep>
   <time name="dav">   24.49  220.41</time>
   <time name="total">   25.80  232.21</time>
   <energy>
    <i name="e_fr_energy">    -14.86033717</i>
    <i name="e_wo_entrp">    -14.86019809</i>
    <i name="e_0_energy">    -14.86026763</i>
   </energy>
  </scstep>
  <scstep>
   <time name="dav">   15.02  131.01</time>
   <time name="total">   16.00  139.34</time>
   <energy>
    <i name="e_fr_energy">    -14.86033722</i>
    <i name="e_wo_entrp">    -14.86019813</i>
    <i name="e_0_energy">    -14.86026768</i>
   </energy>
  </scstep>
  <scstep>
   <time name="dav">   16.36  129.35</time>
   <time name="total">   17.26  135.97</time>
   <energy>
    <i name="e_fr_energy">    -14.86033720</i>
    <i name="e_wo_entrp">    -14.86019812</i>
    <i name="e_0_energy">    -14.86026766</i>
   </energy>
  </scstep>
  <scstep>
   <time name="dav">   13.07   91.52</time>
   <time name="total">   13.30   93.11</time>
   <energy>
    <i name="alphaZ">    438.12415522</i>
    <i name="ewald">  -4438.01726100</i>
    <i name="hartreedc">  -1206.65066203</i>
    <i name="XCdc">    171.36543155</i>
    <i name="pawpsdc">   4401.98822447</i>
    <i name="pawaedc">  -4981.31929749</i>
    <i name="eentropy">     -0.00013908</i>
    <i name="bandstr">     35.73166055</i>
    <i name="atom">   5563.91755062</i>
    <i name="e_fr_energy">    -14.86033719</i>
    <i name="e_wo_entrp">    -14.86019811</i>
    <i name="e_0_energy">    -14.86026765</i>
   </energy>
  </scstep>
  <structure>
   <crystal>
    <varray name="basis" >
     <v>       3.60005165      0.00000000      0.00000000</v>
     <v>       0.00000000      3.60005165      0.00000000</v>
     <v>       0.00000000      0.00000000      3.60005165</v>
    </varray>
    <i name="volume">     46.65800832</i>
    <varray name="rec_basis" >
     <v>       0.27777379      0.00000000      0.00000000</v>
     <v>       0.00000000      0.27777379      0.00000000</v>
     <v>       0.00000000      0.00000000      0.27777379</v>
    </varray>
   </crystal>
   <varray name="positions" >
    <v>       0.00000000      0.00000000      0.00000000</v>
    <v>       0.50000000      0.50000000      0.00000000</v>
    <v>       0.50000000      0.00000000      0.50000000</v>
    <v>       0.00000000      0.50000000      0.50000000</v>
   </varray>
  </structure>
  <varray name="forces" >
   <v>       0.00000000      0.00000000      0.00000000</v>
   <v>       0.00000000      0.00000000      0.00000000</v>
   <v>       0.00000000     -0.00000000     -0.00000000</v>
   <v>       0.00000000     -0.00000000     -0.00000000</v>
  </varray>
  <varray name="stress" >
   <v>      45.98275182     -0.00000000      0.00000000</v>
   <v>      -0.00000000     45.98275182     -0.00000000</v>
   <v>       0.00000000      0.00000000     45.98275182</v>
  </varray>
  <energy>
   <i name="e_fr_energy">    -14.86033719</i>
   <i name="e_wo_entrp">    -14.86026765</i>
   <i name="e_0_energy">     -0.00013908</i>
  </energy>
  <eigenvalues>
   <array>
    <dimension dim="1">band</dimension>
    <dimension dim="2">kpoint</dimension>
    <dimension dim="3">spin</dimension>
    <field>eigene</field>
    <field>occ</field>
    <set>
     <set comment="spin 1">
      <set comment="kpoint 1">
       <r>  -5.5439  1.0000</r>
       <r>  -1.0662  1.0000</r>
       <r>  -1.0662  1.0000</r>
       <r>  -1.0662  1.0000</r>
       <r>  -0.6050  1.0000</r>
       <r>  -0.6050  1.0000</r>
       <r>  -0.6050  1.0000</r>
       <r>   0.8142  1.0000</r>
       <r>   0.8142  1.0000</r>
       <r>   0.8142  1.0000</r>
       <r>   1.6586  1.0000</r>
       <r>   1.6586  1.0000</r>
       <r>   2.2192  1.0000</r>
       <r>   2.2192  1.0000</r>
       <r>   2.2192  1.0000</r>
       <r>   2.3766  1.0000</r>
       <r>   2.3766  1.0000</r>
       <r>   2.3766  1.0000</r>
       <r>   2.3766  1.0000</r>
       <r>   2.3766  1.0000</r>
       <r>   2.3766  1.0000</r>
       <r>   5.4028  0.0000</r>
       <r>   5.4028  0.0000</r>
       <r>   5.4028  0.0000</r>
       <r>  11.1082  0.0000</r>
       <r>  11.1082  0.0000</r>
      </set>
      <set comment="kpoint 2">
       <r>  -5.4587  1.0000</r>
       <r>  -1.0666  1.0000</r>
       <r>  -1.0261  1.0000</r>
       <r>  -1.0261  1.0000</r>
       <r>  -0.5821  1.0000</r>
       <r>  -0.5808  1.0000</r>
       <r>  -0.5808  1.0000</r>
       <r>   0.7887  1.0000</r>
       <r>   0.8346  1.0000</r>
       <r>   0.8346  1.0000</r>
       <r>   1.6355  1.0000</r>
       <r>   1.6680  1.0000</r>
       <r>   2.1893  1.0000</r>
       <r>   2.1893  1.0000</r>
       <r>   2.2094  1.0000</r>
       <r>   2.2249  1.0000</r>
       <r>   2.2249  1.0000</r>
       <r>   2.3413  1.0000</r>
       <r>   2.3413  1.0000</r>
       <r>   2.3766  1.0000</r>
       <r>   2.3766  1.0000</r>
       <r>   4.8830  0.0000</r>
       <r>   5.6304  0.0000</r>
       <r>   5.6304  0.0000</r>
       <r>  11.1391  0.0000</r>
       <r>  11.1391  0.0000</r>
      </set>
      <set comment="kpoint 3">
       <r>  -5.2048  1.0000</r>
       <r>  -1.0843  1.0000</r>
       <r>  -0.9115  1.0000</r>
       <r>  -0.9115  1.0000</r>
       <r>  -0.5147  1.0000</r>
       <r>  -0.5077  1.0000</r>
       <r>  -0.5077  1.0000</r>
       <r>   0.7142  1.0000</r>
       <r>   0.8954  1.0000</r>
       <r>   0.8954  1.0000</r>
       <r>   1.5687  1.0000</r>
       <r>   1.6954  1.0000</r>
       <r>   1.8666  1.0000</r>
       <r>   1.8666  1.0000</r>
       <r>   2.1023  1.0000</r>
       <r>   2.1023  1.0000</r>
       <r>   2.1809  1.0000</r>
       <r>   2.2401  1.0000</r>
       <r>   2.2401  1.0000</r>
       <r>   2.3768  1.0000</r>
       <r>   2.3768  1.0000</r>
       <r>   3.7867  1.0000</r>
       <r>   6.2159  0.0000</r>
       <r>   6.2159  0.0000</r>
       <r>  11.2347  0.0000</r>
       <r>  11.2347  0.0000</r>
      </set>
      <set comment="kpoint 4">
       <r>  -4.7883  1.0000</r>
       <r>  -1.1779  1.0000</r>
       <r>  -0.7403  1.0000</r>
       <r>  -0.7403  1.0000</r>
       <r>  -0.4067  1.0000</r>
       <r>  -0.3845  1.0000</r>
       <r>  -0.3845  1.0000</r>
       <r>   0.5965  1.0000</r>
       <r>   0.9950  1.0000</r>
       <r>   0.9950  1.0000</r>
       <r>   1.4404  1.0000</r>
       <r>   1.4404  1.0000</r>
       <r>   1.4669  1.0000</r>
       <r>   1.7392  1.0000</r>
       <r>   1.9685  1.0000</r>
       <r>   1.9685  1.0000</r>
       <r>   2.0864  1.0000</r>
       <r>   2.0864  1.0000</r>
       <r>   2.1356  1.0000</r>
       <r>   2.3770  1.0000</r>
       <r>   2.3770  1.0000</r>
       <r>   2.6584  1.0000</r>
       <r>   7.0192  0.0000</r>
       <r>   7.0192  0.0000</r>
       <r>  11.4034  0.0000</r>
       <r>  11.4034  0.0000</r>
      </set>
      <set comment="kpoint 5">
       <r>  -4.2219  1.0000</r>
       <r>  -1.4601  1.0000</r>
       <r>  -0.5460  1.0000</r>
       <r>  -0.5460  1.0000</r>
       <r>  -0.2646  1.0000</r>
       <r>  -0.2098  1.0000</r>
       <r>  -0.2098  1.0000</r>
       <r>   0.4447  1.0000</r>
       <r>   1.0198  1.0000</r>
       <r>   1.0198  1.0000</r>
       <r>   1.1306  1.0000</r>
       <r>   1.1306  1.0000</r>
       <r>   1.3466  1.0000</r>
       <r>   1.7903  1.0000</r>
       <r>   1.7965  1.0000</r>
       <r>   1.8112  1.0000</r>
       <r>   1.8112  1.0000</r>
       <r>   1.8977  1.0000</r>
       <r>   1.8977  1.0000</r>
       <r>   2.0767  1.0000</r>
       <r>   2.3772  1.0000</r>
       <r>   2.3772  1.0000</r>
       <r>   7.9647  0.0000</r>
       <r>   7.9647  0.0000</r>
       <r>  11.6566  0.0000</r>
       <r>  11.6566  0.0000</r>
      </set>
      <set comment="kpoint 6">
       <r>  -3.5297  1.0000</r>
       <r>  -2.0172  1.0000</r>
       <r>  -0.3821  1.0000</r>
       <r>  -0.3821  1.0000</r>
       <r>  -0.0971  1.0000</r>
       <r>   0.0181  1.0000</r>
       <r>   0.0181  1.0000</r>
       <r>   0.2700  1.0000</r>
       <r>   0.6356  1.0000</r>
       <r>   0.6356  1.0000</r>
       <r>   1.2379  1.0000</r>
       <r>   1.2973  1.0000</r>
       <r>   1.2973  1.0000</r>
       <r>   1.3266  1.0000</r>
       <r>   1.6743  1.0000</r>
       <r>   1.6743  1.0000</r>
       <r>   1.6927  1.0000</r>
       <r>   1.6927  1.0000</r>
       <r>   1.8635  1.0000</r>
       <r>   2.0086  1.0000</r>
       <r>   2.3773  1.0000</r>
       <r>   2.3773  1.0000</r>
       <r>   9.0183  0.0000</r>
       <r>   9.0183  0.0000</r>
       <r>  11.3889  0.0000</r>
       <r>  11.3889  0.0000</r>
      </set>
      <set comment="kpoint 7">
       <r>  -2.7610  1.0000</r>
       <r>  -2.7610  1.0000</r>
       <r>  -0.3157  1.0000</r>
       <r>  -0.3157  1.0000</r>
       <r>   0.0851  1.0000</r>
       <r>   0.0851  1.0000</r>
       <r>   0.3002  1.0000</r>
       <r>   0.3002  1.0000</r>
       <r>   0.3002  1.0000</r>
       <r>   0.3002  1.0000</r>
       <r>   1.1959  1.0000</r>
       <r>   1.1959  1.0000</r>
       <r>   1.4881  1.0000</r>
       <r>   1.4881  1.0000</r>
       <r>   1.4881  1.0000</r>
       <r>   1.4881  1.0000</r>
       <r>   1.6177  1.0000</r>
       <r>   1.6177  1.0000</r>
       <r>   1.9359  1.0000</r>
       <r>   1.9359  1.0000</r>
       <r>   2.3774  1.0000</r>
       <r>   2.3774  1.0000</r>
       <r>  10.1633  0.0000</r>
       <r>  10.1633  0.0000</r>
       <r>  10.1633  0.0000</r>
       <r>  10.1633  0.0000</r>
      </set>
      <set comment="kpoint 8">
       <r>  -5.3738  1.0000</r>
       <r>  -1.0256  1.0000</r>
       <r>  -1.0256  1.0000</r>
       <r>  -0.9870  1.0000</r>
       <r>  -0.5583  1.0000</r>
       <r>  -0.5583  1.0000</r>
       <r>  -0.5574  1.0000</r>
       <r>   0.7744  1.0000</r>
       <r>   0.8444  1.0000</r>
       <r>   0.8530  1.0000</r>
       <r>   1.6291  1.0000</r>
       <r>   1.6626  1.0000</r>
       <r>   2.1132  1.0000</r>
       <r>   2.1418  1.0000</r>
       <r>   2.1418  1.0000</r>
       <r>   2.1606  1.0000</r>
       <r>   2.2195  1.0000</r>
       <r>   2.2195  1.0000</r>
       <r>   2.3412  1.0000</r>
       <r>   2.3412  1.0000</r>
       <r>   2.3540  1.0000</r>
       <r>   5.1074  0.0000</r>
       <r>   5.1074  0.0000</r>
       <r>   5.8408  0.0000</r>
       <r>  11.1700  0.0000</r>
       <r>  11.8387  0.0000</r>
      </set>
      <set comment="kpoint 9">
       <r>  -5.1210  1.0000</r>
       <r>  -1.0403  1.0000</r>
       <r>  -0.9081  1.0000</r>
       <r>  -0.8751  1.0000</r>
       <r>  -0.4922  1.0000</r>
       <r>  -0.4868  1.0000</r>
       <r>  -0.4866  1.0000</r>
       <r>   0.7073  1.0000</r>
       <r>   0.8993  1.0000</r>
       <r>   0.9072  1.0000</r>
       <r>   1.5713  1.0000</r>
       <r>   1.6877  1.0000</r>
       <r>   1.7982  1.0000</r>
       <r>   1.7984  1.0000</r>
       <r>   2.0120  1.0000</r>
       <r>   2.0772  1.0000</r>
       <r>   2.1105  1.0000</r>
       <r>   2.1893  1.0000</r>
       <r>   2.2399  1.0000</r>
       <r>   2.3411  1.0000</r>
       <r>   2.3418  1.0000</r>
       <r>   4.0287  0.0000</r>
       <r>   5.6667  0.0000</r>
       <r>   6.3955  0.0000</r>
       <r>  11.2644  0.0000</r>
       <r>  11.9682  0.0000</r>
      </set>
      <set comment="kpoint 10">
       <r>  -4.7065  1.0000</r>
       <r>  -1.1289  1.0000</r>
       <r>  -0.7322  1.0000</r>
       <r>  -0.7075  1.0000</r>
       <r>  -0.3864  1.0000</r>
       <r>  -0.3690  1.0000</r>
       <r>  -0.3658  1.0000</r>
       <r>   0.5939  1.0000</r>
       <r>   0.9929  1.0000</r>
       <r>   0.9971  1.0000</r>
       <r>   1.3749  1.0000</r>
       <r>   1.4014  1.0000</r>
       <r>   1.4782  1.0000</r>
       <r>   1.7366  1.0000</r>
       <r>   1.7877  1.0000</r>
       <r>   1.9486  1.0000</r>
       <r>   1.9762  1.0000</r>
       <r>   2.0859  1.0000</r>
       <r>   2.1309  1.0000</r>
       <r>   2.3389  1.0000</r>
       <r>   2.3409  1.0000</r>
       <r>   2.9773  1.0000</r>
       <r>   6.4099  0.0000</r>
       <r>   7.1734  0.0000</r>
       <r>  11.4196  0.0000</r>
       <r>  12.1949  0.0000</r>
      </set>
      <set comment="kpoint 11">
       <r>  -4.1431  1.0000</r>
       <r>  -1.4046  1.0000</r>
       <r>  -0.5311  1.0000</r>
       <r>  -0.5149  1.0000</r>
       <r>  -0.2472  1.0000</r>
       <r>  -0.2051  1.0000</r>
       <r>  -0.1946  1.0000</r>
       <r>   0.4461  1.0000</r>
       <r>   0.9618  1.0000</r>
       <r>   1.0003  1.0000</r>
       <r>   1.0915  1.0000</r>
       <r>   1.1317  1.0000</r>
       <r>   1.3871  1.0000</r>
       <r>   1.4544  1.0000</r>
       <r>   1.7973  1.0000</r>
       <r>   1.8019  1.0000</r>
       <r>   1.8189  1.0000</r>
       <r>   1.8971  1.0000</r>
       <r>   2.0209  1.0000</r>
       <r>   2.3013  1.0000</r>
       <r>   2.3385  1.0000</r>
       <r>   2.3405  1.0000</r>
       <r>   7.2632  0.0000</r>
       <r>   8.1009  0.0000</r>
       <r>  11.3296  0.0000</r>
       <r>  11.8641  0.0000</r>
      </set>
      <set comment="kpoint 12">
       <r>  -3.4551  1.0000</r>
       <r>  -1.9548  1.0000</r>
       <r>  -0.3588  1.0000</r>
       <r>  -0.3493  1.0000</r>
       <r>  -0.0832  1.0000</r>
       <r>   0.0044  1.0000</r>
       <r>   0.0283  1.0000</r>
       <r>   0.2756  1.0000</r>
       <r>   0.5884  1.0000</r>
       <r>   0.6295  1.0000</r>
       <r>   1.1229  1.0000</r>
       <r>   1.1772  1.0000</r>
       <r>   1.2977  1.0000</r>
       <r>   1.4036  1.0000</r>
       <r>   1.6670  1.0000</r>
       <r>   1.6798  1.0000</r>
       <r>   1.6923  1.0000</r>
       <r>   1.7906  1.0000</r>
       <r>   1.8794  1.0000</r>
       <r>   2.0699  1.0000</r>
       <r>   2.3388  1.0000</r>
       <r>   2.3400  1.0000</r>
       <r>   8.1966  0.0000</r>
       <r>   9.1421  0.0000</r>
       <r>  10.2686  0.0000</r>
       <r>  11.4984  0.0000</r>
      </set>
      <set comment="kpoint 13">
       <r>  -2.6919  1.0000</r>
       <r>  -2.6919  1.0000</r>
       <r>  -0.2846  1.0000</r>
       <r>  -0.2846  1.0000</r>
       <r>   0.0950  1.0000</r>
       <r>   0.0950  1.0000</r>
       <r>   0.2673  1.0000</r>
       <r>   0.2673  1.0000</r>
       <r>   0.3036  1.0000</r>
       <r>   0.3036  1.0000</r>
       <r>   1.0972  1.0000</r>
       <r>   1.0972  1.0000</r>
       <r>   1.4879  1.0000</r>
       <r>   1.4879  1.0000</r>
       <r>   1.5643  1.0000</r>
       <r>   1.5643  1.0000</r>
       <r>   1.6175  1.0000</r>
       <r>   1.6175  1.0000</r>
       <r>   1.9664  1.0000</r>
       <r>   1.9664  1.0000</r>
       <r>   2.3394  1.0000</r>
       <r>   2.3394  1.0000</r>
       <r>   9.1994  0.0000</r>
       <r>   9.1994  0.0000</r>
       <r>  10.2784  0.0000</r>
       <r>  10.2784  0.0000</r>
      </set>
      <set comment="kpoint 14">
       <r>  -4.8717  1.0000</r>
       <r>  -0.9141  1.0000</r>
       <r>  -0.9141  1.0000</r>
       <r>  -0.7712  1.0000</r>
       <r>  -0.4246  1.0000</r>
       <r>  -0.4246  1.0000</r>
       <r>  -0.4243  1.0000</r>
       <r>   0.6669  1.0000</r>
       <r>   0.9321  1.0000</r>
       <r>   0.9413  1.0000</r>
       <r>   1.5504  1.0000</r>
       <r>   1.5895  1.0000</r>
       <r>   1.6232  1.0000</r>
       <r>   1.6232  1.0000</r>
       <r>   1.6960  1.0000</r>
       <r>   2.0037  1.0000</r>
       <r>   2.1043  1.0000</r>
       <r>   2.1043  1.0000</r>
       <r>   2.2391  1.0000</r>
       <r>   2.2391  1.0000</r>
       <r>   2.2869  1.0000</r>
       <r>   4.5720  0.0000</r>
       <r>   4.5720  0.0000</r>
       <r>   6.8883  0.0000</r>
       <r>  11.3395  0.0000</r>
       <r>  12.6183  0.0000</r>
      </set>
      <set comment="kpoint 15">
       <r>  -4.4633  1.0000</r>
       <r>  -0.9878  1.0000</r>
       <r>  -0.7235  1.0000</r>
       <r>  -0.6147  1.0000</r>
       <r>  -0.3254  1.0000</r>
       <r>  -0.3214  1.0000</r>
       <r>  -0.3109  1.0000</r>
       <r>   0.5759  1.0000</r>
       <r>   0.9910  1.0000</r>
       <r>   1.0145  1.0000</r>
       <r>   1.2043  1.0000</r>
       <r>   1.2806  1.0000</r>
       <r>   1.3716  1.0000</r>
       <r>   1.4848  1.0000</r>
       <r>   1.7537  1.0000</r>
       <r>   1.8893  1.0000</r>
       <r>   1.9765  1.0000</r>
       <r>   2.0567  1.0000</r>
       <r>   2.0846  1.0000</r>
       <r>   2.2380  1.0000</r>
       <r>   2.2552  1.0000</r>
       <r>   3.5178  1.0000</r>
       <r>   5.2455  0.0000</r>
       <r>   7.6087  0.0000</r>
       <r>  11.0245  0.0000</r>
       <r>  11.7319  0.0000</r>
      </set>
      <set comment="kpoint 16">
       <r>  -3.9092  1.0000</r>
       <r>  -1.2442  1.0000</r>
       <r>  -0.5015  1.0000</r>
       <r>  -0.4288  1.0000</r>
       <r>  -0.1952  1.0000</r>
       <r>  -0.1875  1.0000</r>
       <r>  -0.1503  1.0000</r>
       <r>   0.4454  1.0000</r>
       <r>   0.8123  1.0000</r>
       <r>   0.9394  1.0000</r>
       <r>   1.0285  1.0000</r>
       <r>   1.1039  1.0000</r>
       <r>   1.1408  1.0000</r>
       <r>   1.4296  1.0000</r>
       <r>   1.7542  1.0000</r>
       <r>   1.8232  1.0000</r>
       <r>   1.8446  1.0000</r>
       <r>   1.8958  1.0000</r>
       <r>   1.9546  1.0000</r>
       <r>   2.2366  1.0000</r>
       <r>   2.2413  1.0000</r>
       <r>   2.7582  1.0000</r>
       <r>   5.9991  0.0000</r>
       <r>   8.4923  0.0000</r>
       <r>   9.8575  0.0000</r>
       <r>  11.9231  0.0000</r>
      </set>
      <set comment="kpoint 17">
       <r>  -3.2345  1.0000</r>
       <r>  -1.7734  1.0000</r>
       <r>  -0.3017  1.0000</r>
       <r>  -0.2556  1.0000</r>
       <r>  -0.0422  1.0000</r>
       <r>  -0.0339  1.0000</r>
       <r>   0.0578  1.0000</r>
       <r>   0.2901  1.0000</r>
       <r>   0.4662  1.0000</r>
       <r>   0.6095  1.0000</r>
       <r>   0.9489  1.0000</r>
       <r>   1.0030  1.0000</r>
       <r>   1.3020  1.0000</r>
       <r>   1.4667  1.0000</r>
       <r>   1.6408  1.0000</r>
       <r>   1.6817  1.0000</r>
       <r>   1.6917  1.0000</r>
       <r>   1.7908  1.0000</r>
       <r>   1.9600  1.0000</r>
       <r>   2.2353  1.0000</r>
       <r>   2.2360  1.0000</r>
       <r>   2.3312  1.0000</r>
       <r>   6.8254  0.0000</r>
       <r>   8.7406  0.0000</r>
       <r>   9.5015  0.0000</r>
       <r>  11.8196  0.0000</r>
      </set>
      <set comment="kpoint 18">
       <r>  -2.4892  1.0000</r>
       <r>  -2.4892  1.0000</r>
       <r>  -0.1982  1.0000</r>
       <r>  -0.1982  1.0000</r>
       <r>   0.1234  1.0000</r>
       <r>   0.1234  1.0000</r>
       <r>   0.1774  1.0000</r>
       <r>   0.1774  1.0000</r>
       <r>   0.3124  1.0000</r>
       <r>   0.3124  1.0000</r>
       <r>   0.9431  1.0000</r>
       <r>   0.9431  1.0000</r>
       <r>   1.4892  1.0000</r>
       <r>   1.4892  1.0000</r>
       <r>   1.6054  1.0000</r>
       <r>   1.6054  1.0000</r>
       <r>   1.6080  1.0000</r>
       <r>   1.6080  1.0000</r>
       <r>   2.1070  1.0000</r>
       <r>   2.1070  1.0000</r>
       <r>   2.2347  1.0000</r>
       <r>   2.2347  1.0000</r>
       <r>   7.7337  0.0000</r>
       <r>   7.7337  0.0000</r>
       <r>  10.6151  0.0000</r>
       <r>  10.6151  0.0000</r>
      </set>
      <set comment="kpoint 19">
       <r>  -4.0659  1.0000</r>
       <r>  -0.7727  1.0000</r>
       <r>  -0.7727  1.0000</r>
       <r>  -0.4778  1.0000</r>
       <r>  -0.2417  1.0000</r>
       <r>  -0.2233  1.0000</r>
       <r>  -0.2233  1.0000</r>
       <r>   0.5231  1.0000</r>
       <r>   0.9815  1.0000</r>
       <r>   0.9815  1.0000</r>
       <r>   0.9921  1.0000</r>
       <r>   1.0698  1.0000</r>
       <r>   1.0819  1.0000</r>
       <r>   1.4485  1.0000</r>
       <r>   1.7948  1.0000</r>
       <r>   1.8313  1.0000</r>
       <r>   1.9377  1.0000</r>
       <r>   1.9377  1.0000</r>
       <r>   2.0829  1.0000</r>
       <r>   2.0829  1.0000</r>
       <r>   2.1774  1.0000</r>
       <r>   4.1251  0.0000</r>
       <r>   4.1251  0.0000</r>
       <r>   8.2681  0.0000</r>
       <r>   9.6932  0.0000</r>
       <r>  11.8535  0.0000</r>
      </set>
      <set comment="kpoint 20">
       <r>  -3.5288  1.0000</r>
       <r>  -0.9988  1.0000</r>
       <r>  -0.5170  1.0000</r>
       <r>  -0.3147  1.0000</r>
       <r>  -0.1435  1.0000</r>
       <r>  -0.1090  1.0000</r>
       <r>  -0.0802  1.0000</r>
       <r>   0.4296  1.0000</r>
       <r>   0.6350  1.0000</r>
       <r>   0.7963  1.0000</r>
       <r>   0.8335  1.0000</r>
       <r>   0.9776  1.0000</r>
       <r>   1.1734  1.0000</r>
       <r>   1.4072  1.0000</r>
       <r>   1.6810  1.0000</r>
       <r>   1.7919  1.0000</r>
       <r>   1.8437  1.0000</r>
       <r>   1.8949  1.0000</r>
       <r>   1.9620  1.0000</r>
       <r>   2.0816  1.0000</r>
       <r>   2.1269  1.0000</r>
       <r>   3.2607  1.0000</r>
       <r>   4.7915  0.0000</r>
       <r>   8.4377  0.0000</r>
       <r>   9.0997  0.0000</r>
       <r>  12.1572  0.0000</r>
      </set>
      <set comment="kpoint 21">
       <r>  -2.8788  1.0000</r>
       <r>  -1.4918  1.0000</r>
       <r>  -0.2732  1.0000</r>
       <r>  -0.1311  1.0000</r>
       <r>  -0.0751  1.0000</r>
       <r>   0.0242  1.0000</r>
       <r>   0.1030  1.0000</r>
       <r>   0.3059  1.0000</r>
       <r>   0.3359  1.0000</r>
       <r>   0.5716  1.0000</r>
       <r>   0.7452  1.0000</r>
       <r>   0.9116  1.0000</r>
       <r>   1.3195  1.0000</r>
       <r>   1.4340  1.0000</r>
       <r>   1.5873  1.0000</r>
       <r>   1.6525  1.0000</r>
       <r>   1.6937  1.0000</r>
       <r>   1.6997  1.0000</r>
       <r>   2.0821  1.0000</r>
       <r>   2.0996  1.0000</r>
       <r>   2.1329  1.0000</r>
       <r>   2.6986  1.0000</r>
       <r>   5.5315  0.0000</r>
       <r>   7.3311  0.0000</r>
       <r>  10.0682  0.0000</r>
       <r>  12.3344  0.0000</r>
      </set>
      <set comment="kpoint 22">
       <r>  -2.1675  1.0000</r>
       <r>  -2.1675  1.0000</r>
       <r>  -0.1099  1.0000</r>
       <r>  -0.1099  1.0000</r>
       <r>   0.0827  1.0000</r>
       <r>   0.0827  1.0000</r>
       <r>   0.1663  1.0000</r>
       <r>   0.1663  1.0000</r>
       <r>   0.3229  1.0000</r>
       <r>   0.3229  1.0000</r>
       <r>   0.8106  1.0000</r>
       <r>   0.8106  1.0000</r>
       <r>   1.4970  1.0000</r>
       <r>   1.4970  1.0000</r>
       <r>   1.5448  1.0000</r>
       <r>   1.5448  1.0000</r>
       <r>   1.5709  1.0000</r>
       <r>   1.5709  1.0000</r>
       <r>   2.0868  1.0000</r>
       <r>   2.0868  1.0000</r>
       <r>   2.3587  1.0000</r>
       <r>   2.3587  1.0000</r>
       <r>   6.3691  0.0000</r>
       <r>   6.3691  0.0000</r>
       <r>  11.1513  0.0000</r>
       <r>  11.1513  0.0000</r>
      </set>
      <set comment="kpoint 23">
       <r>  -3.0186  1.0000</r>
       <r>  -0.7053  1.0000</r>
       <r>  -0.7053  1.0000</r>
       <r>  -0.2240  1.0000</r>
       <r>  -0.0508  1.0000</r>
       <r>   0.0100  1.0000</r>
       <r>   0.0100  1.0000</r>
       <r>   0.3860  1.0000</r>
       <r>   0.5377  1.0000</r>
       <r>   0.5377  1.0000</r>
       <r>   0.6859  1.0000</r>
       <r>   0.9281  1.0000</r>
       <r>   1.2457  1.0000</r>
       <r>   1.3572  1.0000</r>
       <r>   1.5867  1.0000</r>
       <r>   1.7069  1.0000</r>
       <r>   1.7069  1.0000</r>
       <r>   1.8966  1.0000</r>
       <r>   1.8966  1.0000</r>
       <r>   2.0298  1.0000</r>
       <r>   2.1417  1.0000</r>
       <r>   3.8175  1.0000</r>
       <r>   3.8175  1.0000</r>
       <r>   7.1818  0.0000</r>
       <r>   9.8829  0.0000</r>
       <r>  12.5107  0.0000</r>
      </set>
      <set comment="kpoint 24">
       <r>  -2.4095  1.0000</r>
       <r>  -1.1461  1.0000</r>
       <r>  -0.4240  1.0000</r>
       <r>  -0.1842  1.0000</r>
       <r>   0.0653  1.0000</r>
       <r>   0.1124  1.0000</r>
       <r>   0.1583  1.0000</r>
       <r>   0.3123  1.0000</r>
       <r>   0.3321  1.0000</r>
       <r>   0.5110  1.0000</r>
       <r>   0.5835  1.0000</r>
       <r>   0.8416  1.0000</r>
       <r>   1.3568  1.0000</r>
       <r>   1.3632  1.0000</r>
       <r>   1.5059  1.0000</r>
       <r>   1.5745  1.0000</r>
       <r>   1.5758  1.0000</r>
       <r>   1.7030  1.0000</r>
       <r>   1.9046  1.0000</r>
       <r>   1.9633  1.0000</r>
       <r>   2.3723  1.0000</r>
       <r>   3.1287  1.0000</r>
       <r>   4.4537  0.0000</r>
       <r>   6.1058  0.0000</r>
       <r>  10.8104  0.0000</r>
       <r>  12.9945  0.0000</r>
      </set>
      <set comment="kpoint 25">
       <r>  -1.7554  1.0000</r>
       <r>  -1.7554  1.0000</r>
       <r>  -0.2349  1.0000</r>
       <r>  -0.2349  1.0000</r>
       <r>   0.1807  1.0000</r>
       <r>   0.1807  1.0000</r>
       <r>   0.2170  1.0000</r>
       <r>   0.2170  1.0000</r>
       <r>   0.3293  1.0000</r>
       <r>   0.3293  1.0000</r>
       <r>   0.7104  1.0000</r>
       <r>   0.7104  1.0000</r>
       <r>   1.4405  1.0000</r>
       <r>   1.4405  1.0000</r>
       <r>   1.4946  1.0000</r>
       <r>   1.4946  1.0000</r>
       <r>   1.5199  1.0000</r>
       <r>   1.5199  1.0000</r>
       <r>   1.9243  1.0000</r>
       <r>   1.9243  1.0000</r>
       <r>   2.6784  1.0000</r>
       <r>   2.6784  1.0000</r>
       <r>   5.2045  0.0000</r>
       <r>   5.2045  0.0000</r>
       <r>  11.8611  0.0000</r>
       <r>  11.8611  0.0000</r>
      </set>
      <set comment="kpoint 26">
       <r>  -1.8636  1.0000</r>
       <r>  -0.7935  1.0000</r>
       <r>  -0.7935  1.0000</r>
       <r>  -0.3049  1.0000</r>
       <r>   0.2158  1.0000</r>
       <r>   0.2158  1.0000</r>
       <r>   0.2281  1.0000</r>
       <r>   0.2999  1.0000</r>
       <r>   0.4269  1.0000</r>
       <r>   0.4625  1.0000</r>
       <r>   0.4625  1.0000</r>
       <r>   0.7587  1.0000</r>
       <r>   1.3090  1.0000</r>
       <r>   1.4224  1.0000</r>
       <r>   1.4450  1.0000</r>
       <r>   1.4571  1.0000</r>
       <r>   1.4571  1.0000</r>
       <r>   1.7266  1.0000</r>
       <r>   1.7266  1.0000</r>
       <r>   1.8513  1.0000</r>
       <r>   2.6733  1.0000</r>
       <r>   3.6405  1.0000</r>
       <r>   3.6405  1.0000</r>
       <r>   5.0886  0.0000</r>
       <r>  11.7012  0.0000</r>
       <r>  13.5324  0.0000</r>
      </set>
      <set comment="kpoint 27">
       <r>  -1.2996  1.0000</r>
       <r>  -1.2996  1.0000</r>
       <r>  -0.5013  1.0000</r>
       <r>  -0.5013  1.0000</r>
       <r>   0.2661  1.0000</r>
       <r>   0.2661  1.0000</r>
       <r>   0.3248  1.0000</r>
       <r>   0.3248  1.0000</r>
       <r>   0.3576  1.0000</r>
       <r>   0.3576  1.0000</r>
       <r>   0.6259  1.0000</r>
       <r>   0.6259  1.0000</r>
       <r>   1.3479  1.0000</r>
       <r>   1.3479  1.0000</r>
       <r>   1.3948  1.0000</r>
       <r>   1.3948  1.0000</r>
       <r>   1.5684  1.0000</r>
       <r>   1.5684  1.0000</r>
       <r>   1.7732  1.0000</r>
       <r>   1.7732  1.0000</r>
       <r>   3.0719  1.0000</r>
       <r>   3.0719  1.0000</r>
       <r>   4.2774  0.0000</r>
       <r>   4.2774  0.0000</r>
       <r>  12.7210  0.0000</r>
       <r>  12.7210  0.0000</r>
      </set>
      <set comment="kpoint 28">
       <r>  -0.8631  1.0000</r>
       <r>  -0.8631  1.0000</r>
       <r>  -0.8631  1.0000</r>
       <r>  -0.8631  1.0000</r>
       <r>   0.3039  1.0000</r>
       <r>   0.3039  1.0000</r>
       <r>   0.3039  1.0000</r>
       <r>   0.3039  1.0000</r>
       <r>   0.5159  1.0000</r>
       <r>   0.5159  1.0000</r>
       <r>   0.5159  1.0000</r>
       <r>   0.5159  1.0000</r>
       <r>   1.3274  1.0000</r>
       <r>   1.3274  1.0000</r>
       <r>   1.3274  1.0000</r>
       <r>   1.3274  1.0000</r>
       <r>   1.6519  1.0000</r>
       <r>   1.6519  1.0000</r>
       <r>   1.6519  1.0000</r>
       <r>   1.6519  1.0000</r>
       <r>   3.5832  1.0000</r>
       <r>   3.5832  1.0000</r>
       <r>   3.5832  1.0000</r>
       <r>   3.5832  1.0000</r>
       <r>  13.7133  0.0000</r>
       <r>  13.7133  0.0000</r>
      </set>
      <set comment="kpoint 29">
       <r>  -5.2893  1.0000</r>
       <r>  -0.9857  1.0000</r>
       <r>  -0.9857  1.0000</r>
       <r>  -0.9857  1.0000</r>
       <r>  -0.5353  1.0000</r>
       <r>  -0.5353  1.0000</r>
       <r>  -0.5353  1.0000</r>
       <r>   0.7612  1.0000</r>
       <r>   0.8614  1.0000</r>
       <r>   0.8614  1.0000</r>
       <r>   1.6410  1.0000</r>
       <r>   1.6410  1.0000</r>
       <r>   2.0636  1.0000</r>
       <r>   2.0636  1.0000</r>
       <r>   2.0636  1.0000</r>
       <r>   2.1345  1.0000</r>
       <r>   2.1345  1.0000</r>
       <r>   2.1345  1.0000</r>
       <r>   2.3374  1.0000</r>
       <r>   2.3374  1.0000</r>
       <r>   2.3374  1.0000</r>
       <r>   5.3106  0.0000</r>
       <r>   5.3106  0.0000</r>
       <r>   5.3106  0.0000</r>
       <r>  11.8809  0.0000</r>
       <r>  11.8809  0.0000</r>
      </set>
      <set comment="kpoint 30">
       <r>  -5.0377  1.0000</r>
       <r>  -0.9979  1.0000</r>
       <r>  -0.8714  1.0000</r>
       <r>  -0.8714  1.0000</r>
       <r>  -0.4704  1.0000</r>
       <r>  -0.4660  1.0000</r>
       <r>  -0.4660  1.0000</r>
       <r>   0.7004  1.0000</r>
       <r>   0.9082  1.0000</r>
       <r>   0.9125  1.0000</r>
       <r>   1.5802  1.0000</r>
       <r>   1.6759  1.0000</r>
       <r>   1.7373  1.0000</r>
       <r>   1.7373  1.0000</r>
       <r>   1.9132  1.0000</r>
       <r>   2.0562  1.0000</r>
       <r>   2.0587  1.0000</r>
       <r>   2.0587  1.0000</r>
       <r>   2.2928  1.0000</r>
       <r>   2.3264  1.0000</r>
       <r>   2.3264  1.0000</r>
       <r>   4.2311  0.0000</r>
       <r>   5.8336  0.0000</r>
       <r>   5.8336  0.0000</r>
       <r>  12.0094  0.0000</r>
       <r>  12.0094  0.0000</r>
      </set>
      <set comment="kpoint 31">
       <r>  -4.6254  1.0000</r>
       <r>  -1.0823  1.0000</r>
       <r>  -0.6999  1.0000</r>
       <r>  -0.6999  1.0000</r>
       <r>  -0.3663  1.0000</r>
       <r>  -0.3504  1.0000</r>
       <r>  -0.3504  1.0000</r>
       <r>   0.5919  1.0000</r>
       <r>   0.9912  1.0000</r>
       <r>   0.9965  1.0000</r>
       <r>   1.3406  1.0000</r>
       <r>   1.3406  1.0000</r>
       <r>   1.4947  1.0000</r>
       <r>   1.6561  1.0000</r>
       <r>   1.7312  1.0000</r>
       <r>   1.9305  1.0000</r>
       <r>   1.9406  1.0000</r>
       <r>   1.9406  1.0000</r>
       <r>   2.2293  1.0000</r>
       <r>   2.3173  1.0000</r>
       <r>   2.3173  1.0000</r>
       <r>   3.1828  1.0000</r>
       <r>   6.5474  0.0000</r>
       <r>   6.5474  0.0000</r>
       <r>  12.2089  0.0000</r>
       <r>  12.2089  0.0000</r>
      </set>
      <set comment="kpoint 32">
       <r>  -4.0652  1.0000</r>
       <r>  -1.3521  1.0000</r>
       <r>  -0.5014  1.0000</r>
       <r>  -0.5014  1.0000</r>
       <r>  -0.2295  1.0000</r>
       <r>  -0.1909  1.0000</r>
       <r>  -0.1909  1.0000</r>
       <r>   0.4487  1.0000</r>
       <r>   0.9479  1.0000</r>
       <r>   0.9479  1.0000</r>
       <r>   1.0749  1.0000</r>
       <r>   1.1118  1.0000</r>
       <r>   1.3279  1.0000</r>
       <r>   1.4299  1.0000</r>
       <r>   1.7710  1.0000</r>
       <r>   1.7952  1.0000</r>
       <r>   1.7952  1.0000</r>
       <r>   1.8031  1.0000</r>
       <r>   2.1526  1.0000</r>
       <r>   2.3121  1.0000</r>
       <r>   2.3121  1.0000</r>
       <r>   2.4355  1.0000</r>
       <r>   7.3779  0.0000</r>
       <r>   7.3779  0.0000</r>
       <r>  11.5500  0.0000</r>
       <r>  11.5500  0.0000</r>
      </set>
      <set comment="kpoint 33">
       <r>  -3.3818  1.0000</r>
       <r>  -1.8952  1.0000</r>
       <r>  -0.3266  1.0000</r>
       <r>  -0.3266  1.0000</r>
       <r>  -0.0685  1.0000</r>
       <r>   0.0070  1.0000</r>
       <r>   0.0070  1.0000</r>
       <r>   0.2826  1.0000</r>
       <r>   0.5934  1.0000</r>
       <r>   0.5934  1.0000</r>
       <r>   1.0793  1.0000</r>
       <r>   1.0947  1.0000</r>
       <r>   1.2545  1.0000</r>
       <r>   1.4904  1.0000</r>
       <r>   1.5950  1.0000</r>
       <r>   1.6652  1.0000</r>
       <r>   1.6652  1.0000</r>
       <r>   1.8867  1.0000</r>
       <r>   1.9837  1.0000</r>
       <r>   2.0669  1.0000</r>
       <r>   2.3096  1.0000</r>
       <r>   2.3096  1.0000</r>
       <r>   8.2853  0.0000</r>
       <r>   8.2853  0.0000</r>
       <r>  10.4176  0.0000</r>
       <r>  10.4176  0.0000</r>
      </set>
      <set comment="kpoint 34">
       <r>  -2.6248  1.0000</r>
       <r>  -2.6248  1.0000</r>
       <r>  -0.2528  1.0000</r>
       <r>  -0.2528  1.0000</r>
       <r>   0.1061  1.0000</r>
       <r>   0.1061  1.0000</r>
       <r>   0.1907  1.0000</r>
       <r>   0.1907  1.0000</r>
       <r>   0.3529  1.0000</r>
       <r>   0.3529  1.0000</r>
       <r>   1.0413  1.0000</r>
       <r>   1.0413  1.0000</r>
       <r>   1.4187  1.0000</r>
       <r>   1.4187  1.0000</r>
       <r>   1.6107  1.0000</r>
       <r>   1.6107  1.0000</r>
       <r>   1.6877  1.0000</r>
       <r>   1.6877  1.0000</r>
       <r>   1.9765  1.0000</r>
       <r>   1.9765  1.0000</r>
       <r>   2.3089  1.0000</r>
       <r>   2.3089  1.0000</r>
       <r>   9.0613  0.0000</r>
       <r>   9.0613  0.0000</r>
       <r>   9.5657  0.0000</r>
       <r>   9.5657  0.0000</r>
      </set>
      <set comment="kpoint 35">
       <r>  -4.7899  1.0000</r>
       <r>  -0.8765  1.0000</r>
       <r>  -0.8765  1.0000</r>
       <r>  -0.7667  1.0000</r>
       <r>  -0.4046  1.0000</r>
       <r>  -0.4046  1.0000</r>
       <r>  -0.4042  1.0000</r>
       <r>   0.6625  1.0000</r>
       <r>   0.9374  1.0000</r>
       <r>   0.9425  1.0000</r>
       <r>   1.5355  1.0000</r>
       <r>   1.5687  1.0000</r>
       <r>   1.5687  1.0000</r>
       <r>   1.5719  1.0000</r>
       <r>   1.6785  1.0000</r>
       <r>   1.9592  1.0000</r>
       <r>   1.9891  1.0000</r>
       <r>   1.9891  1.0000</r>
       <r>   2.2865  1.0000</r>
       <r>   2.2865  1.0000</r>
       <r>   2.2952  1.0000</r>
       <r>   4.7220  0.0000</r>
       <r>   4.7220  0.0000</r>
       <r>   6.2849  0.0000</r>
       <r>  12.0992  0.0000</r>
       <r>  12.7449  0.0000</r>
      </set>
      <set comment="kpoint 36">
       <r>  -4.3842  1.0000</r>
       <r>  -0.9487  1.0000</r>
       <r>  -0.6936  1.0000</r>
       <r>  -0.6094  1.0000</r>
       <r>  -0.3057  1.0000</r>
       <r>  -0.3030  1.0000</r>
       <r>  -0.2950  1.0000</r>
       <r>   0.5768  1.0000</r>
       <r>   0.9892  1.0000</r>
       <r>   1.0062  1.0000</r>
       <r>   1.1793  1.0000</r>
       <r>   1.2313  1.0000</r>
       <r>   1.3196  1.0000</r>
       <r>   1.5152  1.0000</r>
       <r>   1.7411  1.0000</r>
       <r>   1.8505  1.0000</r>
       <r>   1.8642  1.0000</r>
       <r>   1.8974  1.0000</r>
       <r>   2.2260  1.0000</r>
       <r>   2.2611  1.0000</r>
       <r>   2.2637  1.0000</r>
       <r>   3.6435  1.0000</r>
       <r>   5.3607  0.0000</r>
       <r>   6.9297  0.0000</r>
       <r>  11.2507  0.0000</r>
       <r>  12.4586  0.0000</r>
      </set>
      <set comment="kpoint 37">
       <r>  -3.8341  1.0000</r>
       <r>  -1.2015  1.0000</r>
       <r>  -0.4791  1.0000</r>
       <r>  -0.4220  1.0000</r>
       <r>  -0.1758  1.0000</r>
       <r>  -0.1742  1.0000</r>
       <r>  -0.1467  1.0000</r>
       <r>   0.4519  1.0000</r>
       <r>   0.8128  1.0000</r>
       <r>   0.9027  1.0000</r>
       <r>   1.0226  1.0000</r>
       <r>   1.0613  1.0000</r>
       <r>   1.1057  1.0000</r>
       <r>   1.4861  1.0000</r>
       <r>   1.7047  1.0000</r>
       <r>   1.7277  1.0000</r>
       <r>   1.7715  1.0000</r>
       <r>   1.8353  1.0000</r>
       <r>   2.1367  1.0000</r>
       <r>   2.2409  1.0000</r>
       <r>   2.2413  1.0000</r>
       <r>   2.8291  1.0000</r>
       <r>   6.0901  0.0000</r>
       <r>   7.6903  0.0000</r>
       <r>  10.0364  0.0000</r>
       <r>  11.8763  0.0000</r>
      </set>
      <set comment="kpoint 38">
       <r>  -3.1654  1.0000</r>
       <r>  -1.7226  1.0000</r>
       <r>  -0.2773  1.0000</r>
       <r>  -0.2377  1.0000</r>
       <r>  -0.0468  1.0000</r>
       <r>  -0.0239  1.0000</r>
       <r>   0.0166  1.0000</r>
       <r>   0.3016  1.0000</r>
       <r>   0.5061  1.0000</r>
       <r>   0.6017  1.0000</r>
       <r>   0.9206  1.0000</r>
       <r>   0.9896  1.0000</r>
       <r>   1.2278  1.0000</r>
       <r>   1.5349  1.0000</r>
       <r>   1.5714  1.0000</r>
       <r>   1.6197  1.0000</r>
       <r>   1.6472  1.0000</r>
       <r>   1.9491  1.0000</r>
       <r>   1.9911  1.0000</r>
       <r>   2.2294  1.0000</r>
       <r>   2.2297  1.0000</r>
       <r>   2.3303  1.0000</r>
       <r>   6.8934  0.0000</r>
       <r>   8.3492  0.0000</r>
       <r>   9.1422  0.0000</r>
       <r>  10.7305  0.0000</r>
      </set>
      <set comment="kpoint 39">
       <r>  -2.4284  1.0000</r>
       <r>  -2.4284  1.0000</r>
       <r>  -0.1647  1.0000</r>
       <r>  -0.1647  1.0000</r>
       <r>   0.0715  1.0000</r>
       <r>   0.0715  1.0000</r>
       <r>   0.1390  1.0000</r>
       <r>   0.1390  1.0000</r>
       <r>   0.3971  1.0000</r>
       <r>   0.3971  1.0000</r>
       <r>   0.9239  1.0000</r>
       <r>   0.9239  1.0000</r>
       <r>   1.3723  1.0000</r>
       <r>   1.3723  1.0000</r>
       <r>   1.5834  1.0000</r>
       <r>   1.5834  1.0000</r>
       <r>   1.7678  1.0000</r>
       <r>   1.7678  1.0000</r>
       <r>   2.0895  1.0000</r>
       <r>   2.0895  1.0000</r>
       <r>   2.2260  1.0000</r>
       <r>   2.2260  1.0000</r>
       <r>   7.7577  0.0000</r>
       <r>   7.7577  0.0000</r>
       <r>   9.7045  0.0000</r>
       <r>   9.7045  0.0000</r>
      </set>
      <set comment="kpoint 40">
       <r>  -3.9904  1.0000</r>
       <r>  -0.7476  1.0000</r>
       <r>  -0.7476  1.0000</r>
       <r>  -0.4786  1.0000</r>
       <r>  -0.2225  1.0000</r>
       <r>  -0.2044  1.0000</r>
       <r>  -0.2044  1.0000</r>
       <r>   0.5298  1.0000</r>
       <r>   0.9671  1.0000</r>
       <r>   0.9671  1.0000</r>
       <r>   0.9897  1.0000</r>
       <r>   1.0460  1.0000</r>
       <r>   1.0476  1.0000</r>
       <r>   1.4951  1.0000</r>
       <r>   1.7404  1.0000</r>
       <r>   1.7967  1.0000</r>
       <r>   1.7967  1.0000</r>
       <r>   1.8162  1.0000</r>
       <r>   2.1826  1.0000</r>
       <r>   2.1826  1.0000</r>
       <r>   2.2048  1.0000</r>
       <r>   4.2134  0.0000</r>
       <r>   4.2134  0.0000</r>
       <r>   7.4821  0.0000</r>
       <r>   9.8829  0.0000</r>
       <r>  12.7119  0.0000</r>
      </set>
      <set comment="kpoint 41">
       <r>  -3.4590  1.0000</r>
       <r>  -0.9751  1.0000</r>
       <r>  -0.5129  1.0000</r>
       <r>  -0.3283  1.0000</r>
       <r>  -0.1230  1.0000</r>
       <r>  -0.0851  1.0000</r>
       <r>  -0.0676  1.0000</r>
       <r>   0.4435  1.0000</r>
       <r>   0.6542  1.0000</r>
       <r>   0.7921  1.0000</r>
       <r>   0.8212  1.0000</r>
       <r>   0.9752  1.0000</r>
       <r>   1.1173  1.0000</r>
       <r>   1.4846  1.0000</r>
       <r>   1.6304  1.0000</r>
       <r>   1.6501  1.0000</r>
       <r>   1.6988  1.0000</r>
       <r>   1.9462  1.0000</r>
       <r>   2.0754  1.0000</r>
       <r>   2.1406  1.0000</r>
       <r>   2.1551  1.0000</r>
       <r>   3.3079  1.0000</r>
       <r>   4.8578  0.0000</r>
       <r>   7.9529  0.0000</r>
       <r>   8.8837  0.0000</r>
       <r>  12.3561  0.0000</r>
      </set>
      <set comment="kpoint 42">
       <r>  -2.8177  1.0000</r>
       <r>  -1.4582  1.0000</r>
       <r>  -0.2895  1.0000</r>
       <r>  -0.1731  1.0000</r>
       <r>  -0.0528  1.0000</r>
       <r>   0.0512  1.0000</r>
       <r>   0.0633  1.0000</r>
       <r>   0.3267  1.0000</r>
       <r>   0.4249  1.0000</r>
       <r>   0.5996  1.0000</r>
       <r>   0.7447  1.0000</r>
       <r>   0.9092  1.0000</r>
       <r>   1.2131  1.0000</r>
       <r>   1.4881  1.0000</r>
       <r>   1.5426  1.0000</r>
       <r>   1.5646  1.0000</r>
       <r>   1.5898  1.0000</r>
       <r>   1.9224  1.0000</r>
       <r>   2.1145  1.0000</r>
       <r>   2.1159  1.0000</r>
       <r>   2.1229  1.0000</r>
       <r>   2.7016  1.0000</r>
       <r>   5.5805  0.0000</r>
       <r>   7.3052  0.0000</r>
       <r>   9.2736  0.0000</r>
       <r>  11.2078  0.0000</r>
      </set>
      <set comment="kpoint 43">
       <r>  -2.1189  1.0000</r>
       <r>  -2.1189  1.0000</r>
       <r>  -0.1337  1.0000</r>
       <r>  -0.1337  1.0000</r>
       <r>   0.0250  1.0000</r>
       <r>   0.0250  1.0000</r>
       <r>   0.1920  1.0000</r>
       <r>   0.1920  1.0000</r>
       <r>   0.4274  1.0000</r>
       <r>   0.4274  1.0000</r>
       <r>   0.8093  1.0000</r>
       <r>   0.8093  1.0000</r>
       <r>   1.3373  1.0000</r>
       <r>   1.3373  1.0000</r>
       <r>   1.5229  1.0000</r>
       <r>   1.5229  1.0000</r>
       <r>   1.7322  1.0000</r>
       <r>   1.7322  1.0000</r>
       <r>   2.1101  1.0000</r>
       <r>   2.1101  1.0000</r>
       <r>   2.3410  1.0000</r>
       <r>   2.3410  1.0000</r>
       <r>   6.3972  0.0000</r>
       <r>   6.3972  0.0000</r>
       <r>  10.1726  0.0000</r>
       <r>  10.1726  0.0000</r>
      </set>
      <set comment="kpoint 44">
       <r>  -2.9574  1.0000</r>
       <r>  -0.7140  1.0000</r>
       <r>  -0.7140  1.0000</r>
       <r>  -0.2703  1.0000</r>
       <r>  -0.0183  1.0000</r>
       <r>   0.0414  1.0000</r>
       <r>   0.0414  1.0000</r>
       <r>   0.4104  1.0000</r>
       <r>   0.5646  1.0000</r>
       <r>   0.5646  1.0000</r>
       <r>   0.7070  1.0000</r>
       <r>   0.9288  1.0000</r>
       <r>   1.1458  1.0000</r>
       <r>   1.4746  1.0000</r>
       <r>   1.5263  1.0000</r>
       <r>   1.5754  1.0000</r>
       <r>   1.5754  1.0000</r>
       <r>   2.0150  1.0000</r>
       <r>   2.0150  1.0000</r>
       <r>   2.0735  1.0000</r>
       <r>   2.1230  1.0000</r>
       <r>   3.8514  1.0000</r>
       <r>   3.8514  1.0000</r>
       <r>   7.1368  0.0000</r>
       <r>   9.1294  0.0000</r>
       <r>  12.9927  0.0000</r>
      </set>
      <set comment="kpoint 45">
       <r>  -2.3617  1.0000</r>
       <r>  -1.1413  1.0000</r>
       <r>  -0.4761  1.0000</r>
       <r>  -0.2590  1.0000</r>
       <r>   0.0973  1.0000</r>
       <r>   0.1566  1.0000</r>
       <r>   0.1780  1.0000</r>
       <r>   0.3478  1.0000</r>
       <r>   0.4112  1.0000</r>
       <r>   0.5761  1.0000</r>
       <r>   0.6008  1.0000</r>
       <r>   0.8453  1.0000</r>
       <r>   1.1980  1.0000</r>
       <r>   1.4287  1.0000</r>
       <r>   1.4447  1.0000</r>
       <r>   1.4865  1.0000</r>
       <r>   1.5385  1.0000</r>
       <r>   1.8574  1.0000</r>
       <r>   1.9799  1.0000</r>
       <r>   2.0111  1.0000</r>
       <r>   2.3514  1.0000</r>
       <r>   3.1295  1.0000</r>
       <r>   4.4786  0.0000</r>
       <r>   6.1090  0.0000</r>
       <r>   9.8937  0.0000</r>
       <r>  11.8411  0.0000</r>
      </set>
      <set comment="kpoint 46">
       <r>  -1.7271  1.0000</r>
       <r>  -1.7271  1.0000</r>
       <r>  -0.3177  1.0000</r>
       <r>  -0.3177  1.0000</r>
       <r>   0.1861  1.0000</r>
       <r>   0.1861  1.0000</r>
       <r>   0.2609  1.0000</r>
       <r>   0.2609  1.0000</r>
       <r>   0.4436  1.0000</r>
       <r>   0.4436  1.0000</r>
       <r>   0.7186  1.0000</r>
       <r>   0.7186  1.0000</r>
       <r>   1.2939  1.0000</r>
       <r>   1.2939  1.0000</r>
       <r>   1.4275  1.0000</r>
       <r>   1.4275  1.0000</r>
       <r>   1.6825  1.0000</r>
       <r>   1.6825  1.0000</r>
       <r>   1.9786  1.0000</r>
       <r>   1.9786  1.0000</r>
       <r>   2.6608  1.0000</r>
       <r>   2.6608  1.0000</r>
       <r>   5.2214  0.0000</r>
       <r>   5.2214  0.0000</r>
       <r>  10.8073  0.0000</r>
       <r>  10.8073  0.0000</r>
      </set>
      <set comment="kpoint 47">
       <r>  -1.8365  1.0000</r>
       <r>  -0.8283  1.0000</r>
       <r>  -0.8283  1.0000</r>
       <r>  -0.3893  1.0000</r>
       <r>   0.2551  1.0000</r>
       <r>   0.2844  1.0000</r>
       <r>   0.2844  1.0000</r>
       <r>   0.3536  1.0000</r>
       <r>   0.4935  1.0000</r>
       <r>   0.4935  1.0000</r>
       <r>   0.5232  1.0000</r>
       <r>   0.7675  1.0000</r>
       <r>   1.1944  1.0000</r>
       <r>   1.3550  1.0000</r>
       <r>   1.3587  1.0000</r>
       <r>   1.3587  1.0000</r>
       <r>   1.5702  1.0000</r>
       <r>   1.8267  1.0000</r>
       <r>   1.8267  1.0000</r>
       <r>   1.9120  1.0000</r>
       <r>   2.6513  1.0000</r>
       <r>   3.6400  1.0000</r>
       <r>   3.6400  1.0000</r>
       <r>   5.0931  0.0000</r>
       <r>  10.6741  0.0000</r>
       <r>  12.6173  0.0000</r>
      </set>
      <set comment="kpoint 48">
       <r>  -1.3017  1.0000</r>
       <r>  -1.3017  1.0000</r>
       <r>  -0.5726  1.0000</r>
       <r>  -0.5726  1.0000</r>
       <r>   0.3355  1.0000</r>
       <r>   0.3355  1.0000</r>
       <r>   0.3635  1.0000</r>
       <r>   0.3635  1.0000</r>
       <r>   0.4453  1.0000</r>
       <r>   0.4453  1.0000</r>
       <r>   0.6403  1.0000</r>
       <r>   0.6403  1.0000</r>
       <r>   1.2475  1.0000</r>
       <r>   1.2475  1.0000</r>
       <r>   1.3197  1.0000</r>
       <r>   1.3197  1.0000</r>
       <r>   1.6768  1.0000</r>
       <r>   1.6768  1.0000</r>
       <r>   1.8456  1.0000</r>
       <r>   1.8456  1.0000</r>
       <r>   3.0549  1.0000</r>
       <r>   3.0549  1.0000</r>
       <r>   4.2785  0.0000</r>
       <r>   4.2785  0.0000</r>
       <r>  11.5841  0.0000</r>
       <r>  11.5841  0.0000</r>
      </set>
      <set comment="kpoint 49">
       <r>  -0.9025  1.0000</r>
       <r>  -0.9025  1.0000</r>
       <r>  -0.9025  1.0000</r>
       <r>  -0.9025  1.0000</r>
       <r>   0.3955  1.0000</r>
       <r>   0.3955  1.0000</r>
       <r>   0.3955  1.0000</r>
       <r>   0.3955  1.0000</r>
       <r>   0.5368  1.0000</r>
       <r>   0.5368  1.0000</r>
       <r>   0.5368  1.0000</r>
       <r>   0.5368  1.0000</r>
       <r>   1.2466  1.0000</r>
       <r>   1.2466  1.0000</r>
       <r>   1.2466  1.0000</r>
       <r>   1.2466  1.0000</r>
       <r>   1.7353  1.0000</r>
       <r>   1.7353  1.0000</r>
       <r>   1.7353  1.0000</r>
       <r>   1.7353  1.0000</r>
       <r>   3.5717  1.0000</r>
       <r>   3.5717  1.0000</r>
       <r>   3.5717  1.0000</r>
       <r>   3.5717  1.0000</r>
       <r>  12.4920  0.0000</r>
       <r>  12.4920  0.0000</r>
      </set>
      <set comment="kpoint 50">
       <r>  -4.5466  1.0000</r>
       <r>  -0.7700  1.0000</r>
       <r>  -0.7700  1.0000</r>
       <r>  -0.7700  1.0000</r>
       <r>  -0.3441  1.0000</r>
       <r>  -0.3441  1.0000</r>
       <r>  -0.3441  1.0000</r>
       <r>   0.6372  1.0000</r>
       <r>   0.9559  1.0000</r>
       <r>   0.9559  1.0000</r>
       <r>   1.3804  1.0000</r>
       <r>   1.3804  1.0000</r>
       <r>   1.3804  1.0000</r>
       <r>   1.6322  1.0000</r>
       <r>   1.6322  1.0000</r>
       <r>   1.8498  1.0000</r>
       <r>   1.8498  1.0000</r>
       <r>   1.8498  1.0000</r>
       <r>   2.3002  1.0000</r>
       <r>   2.3002  1.0000</r>
       <r>   2.3002  1.0000</r>
       <r>   5.1204  0.0000</r>
       <r>   5.1204  0.0000</r>
       <r>   5.1204  0.0000</r>
       <r>  12.9628  0.0000</r>
       <r>  12.9628  0.0000</r>
      </set>
      <set comment="kpoint 51">
       <r>  -4.1492  1.0000</r>
       <r>  -0.8395  1.0000</r>
       <r>  -0.6128  1.0000</r>
       <r>  -0.6128  1.0000</r>
       <r>  -0.2454  1.0000</r>
       <r>  -0.2445  1.0000</r>
       <r>  -0.2445  1.0000</r>
       <r>   0.5725  1.0000</r>
       <r>   0.9879  1.0000</r>
       <r>   0.9939  1.0000</r>
       <r>   1.0972  1.0000</r>
       <r>   1.0972  1.0000</r>
       <r>   1.1540  1.0000</r>
       <r>   1.5817  1.0000</r>
       <r>   1.7075  1.0000</r>
       <r>   1.7218  1.0000</r>
       <r>   1.7492  1.0000</r>
       <r>   1.7492  1.0000</r>
       <r>   2.2737  1.0000</r>
       <r>   2.2737  1.0000</r>
       <r>   2.2803  1.0000</r>
       <r>   3.9829  0.0000</r>
       <r>   5.6795  0.0000</r>
       <r>   5.6795  0.0000</r>
       <r>  11.5932  0.0000</r>
       <r>  11.5932  0.0000</r>
      </set>
      <set comment="kpoint 52">
       <r>  -3.6121  1.0000</r>
       <r>  -1.0825  1.0000</r>
       <r>  -0.4293  1.0000</r>
       <r>  -0.4293  1.0000</r>
       <r>  -0.1217  1.0000</r>
       <r>  -0.1217  1.0000</r>
       <r>  -0.1151  1.0000</r>
       <r>   0.4684  1.0000</r>
       <r>   0.8094  1.0000</r>
       <r>   0.8094  1.0000</r>
       <r>   0.9389  1.0000</r>
       <r>   1.0011  1.0000</r>
       <r>   1.0566  1.0000</r>
       <r>   1.5531  1.0000</r>
       <r>   1.5871  1.0000</r>
       <r>   1.6498  1.0000</r>
       <r>   1.6498  1.0000</r>
       <r>   1.8293  1.0000</r>
       <r>   2.2302  1.0000</r>
       <r>   2.2366  1.0000</r>
       <r>   2.2366  1.0000</r>
       <r>   3.0723  1.0000</r>
       <r>   6.3380  0.0000</r>
       <r>   6.3380  0.0000</r>
       <r>  10.3626  0.0000</r>
       <r>  10.3626  0.0000</r>
      </set>
      <set comment="kpoint 53">
       <r>  -2.9626  1.0000</r>
       <r>  -1.5787  1.0000</r>
       <r>  -0.2424  1.0000</r>
       <r>  -0.2424  1.0000</r>
       <r>  -0.0355  1.0000</r>
       <r>  -0.0355  1.0000</r>
       <r>   0.0337  1.0000</r>
       <r>   0.3362  1.0000</r>
       <r>   0.5871  1.0000</r>
       <r>   0.5871  1.0000</r>
       <r>   0.8425  1.0000</r>
       <r>   0.9505  1.0000</r>
       <r>   1.1467  1.0000</r>
       <r>   1.4012  1.0000</r>
       <r>   1.5555  1.0000</r>
       <r>   1.5555  1.0000</r>
       <r>   1.7194  1.0000</r>
       <r>   1.9436  1.0000</r>
       <r>   2.1528  1.0000</r>
       <r>   2.2093  1.0000</r>
       <r>   2.2093  1.0000</r>
       <r>   2.4269  1.0000</r>
       <r>   7.0374  0.0000</r>
       <r>   7.0374  0.0000</r>
       <r>   9.3231  0.0000</r>
       <r>   9.3231  0.0000</r>
      </set>
      <set comment="kpoint 54">
       <r>  -2.2525  1.0000</r>
       <r>  -2.2525  1.0000</r>
       <r>  -0.0988  1.0000</r>
       <r>  -0.0988  1.0000</r>
       <r>  -0.0675  1.0000</r>
       <r>  -0.0675  1.0000</r>
       <r>   0.1878  1.0000</r>
       <r>   0.1878  1.0000</r>
       <r>   0.5044  1.0000</r>
       <r>   0.5044  1.0000</r>
       <r>   0.8712  1.0000</r>
       <r>   0.8712  1.0000</r>
       <r>   1.2631  1.0000</r>
       <r>   1.2631  1.0000</r>
       <r>   1.5131  1.0000</r>
       <r>   1.5131  1.0000</r>
       <r>   1.9945  1.0000</r>
       <r>   1.9945  1.0000</r>
       <r>   2.0546  1.0000</r>
       <r>   2.0546  1.0000</r>
       <r>   2.1997  1.0000</r>
       <r>   2.1997  1.0000</r>
       <r>   7.4846  0.0000</r>
       <r>   7.4846  0.0000</r>
       <r>   8.7630  0.0000</r>
       <r>   8.7630  0.0000</r>
      </set>
      <set comment="kpoint 55">
       <r>  -3.7668  1.0000</r>
       <r>  -0.6839  1.0000</r>
       <r>  -0.6839  1.0000</r>
       <r>  -0.5048  1.0000</r>
       <r>  -0.1555  1.0000</r>
       <r>  -0.1430  1.0000</r>
       <r>  -0.1430  1.0000</r>
       <r>   0.5460  1.0000</r>
       <r>   0.9202  1.0000</r>
       <r>   0.9202  1.0000</r>
       <r>   0.9561  1.0000</r>
       <r>   0.9840  1.0000</r>
       <r>   1.0031  1.0000</r>
       <r>   1.6054  1.0000</r>
       <r>   1.6117  1.0000</r>
       <r>   1.6117  1.0000</r>
       <r>   1.6162  1.0000</r>
       <r>   1.7777  1.0000</r>
       <r>   2.2504  1.0000</r>
       <r>   2.2621  1.0000</r>
       <r>   2.2621  1.0000</r>
       <r>   4.4650  0.0000</r>
       <r>   4.4650  0.0000</r>
       <r>   6.1402  0.0000</r>
       <r>  10.2177  0.0000</r>
       <r>  12.0780  0.0000</r>
      </set>
      <set comment="kpoint 56">
       <r>  -3.2537  1.0000</r>
       <r>  -0.9156  1.0000</r>
       <r>  -0.5161  1.0000</r>
       <r>  -0.3962  1.0000</r>
       <r>  -0.0439  1.0000</r>
       <r>  -0.0130  1.0000</r>
       <r>  -0.0084  1.0000</r>
       <r>   0.4853  1.0000</r>
       <r>   0.7032  1.0000</r>
       <r>   0.7777  1.0000</r>
       <r>   0.7925  1.0000</r>
       <r>   0.9669  1.0000</r>
       <r>   1.0344  1.0000</r>
       <r>   1.4611  1.0000</r>
       <r>   1.5125  1.0000</r>
       <r>   1.5311  1.0000</r>
       <r>   1.6292  1.0000</r>
       <r>   1.9059  1.0000</r>
       <r>   2.2068  1.0000</r>
       <r>   2.2140  1.0000</r>
       <r>   2.2151  1.0000</r>
       <r>   3.4638  1.0000</r>
       <r>   5.0442  0.0000</r>
       <r>   6.6466  0.0000</r>
       <r>   9.0819  0.0000</r>
       <r>  10.8356  0.0000</r>
      </set>
      <set comment="kpoint 57">
       <r>  -2.6404  1.0000</r>
       <r>  -1.3677  1.0000</r>
       <r>  -0.3703  1.0000</r>
       <r>  -0.3088  1.0000</r>
       <r>   0.0410  1.0000</r>
       <r>   0.0811  1.0000</r>
       <r>   0.1373  1.0000</r>
       <r>   0.3923  1.0000</r>
       <r>   0.5811  1.0000</r>
       <r>   0.6649  1.0000</r>
       <r>   0.7418  1.0000</r>
       <r>   0.8999  1.0000</r>
       <r>   1.0963  1.0000</r>
       <r>   1.3164  1.0000</r>
       <r>   1.4345  1.0000</r>
       <r>   1.4531  1.0000</r>
       <r>   1.7532  1.0000</r>
       <r>   2.0634  1.0000</r>
       <r>   2.1214  1.0000</r>
       <r>   2.1675  1.0000</r>
       <r>   2.1704  1.0000</r>
       <r>   2.7376  1.0000</r>
       <r>   5.7010  0.0000</r>
       <r>   6.8769  0.0000</r>
       <r>   8.4966  0.0000</r>
       <r>   9.7571  0.0000</r>
      </set>
      <set comment="kpoint 58">
       <r>  -1.9814  1.0000</r>
       <r>  -1.9814  1.0000</r>
       <r>  -0.2880  1.0000</r>
       <r>  -0.2880  1.0000</r>
       <r>   0.0801  1.0000</r>
       <r>   0.0801  1.0000</r>
       <r>   0.2742  1.0000</r>
       <r>   0.2742  1.0000</r>
       <r>   0.5919  1.0000</r>
       <r>   0.5919  1.0000</r>
       <r>   0.8035  1.0000</r>
       <r>   0.8035  1.0000</r>
       <r>   1.1918  1.0000</r>
       <r>   1.1918  1.0000</r>
       <r>   1.4088  1.0000</r>
       <r>   1.4088  1.0000</r>
       <r>   1.9578  1.0000</r>
       <r>   1.9578  1.0000</r>
       <r>   2.1528  1.0000</r>
       <r>   2.1528  1.0000</r>
       <r>   2.2934  1.0000</r>
       <r>   2.2934  1.0000</r>
       <r>   6.3968  0.0000</r>
       <r>   6.3968  0.0000</r>
       <r>   8.8891  0.0000</r>
       <r>   8.8891  0.0000</r>
      </set>
      <set comment="kpoint 59">
       <r>  -2.7796  1.0000</r>
       <r>  -0.7420  1.0000</r>
       <r>  -0.7420  1.0000</r>
       <r>  -0.4000  1.0000</r>
       <r>   0.0783  1.0000</r>
       <r>   0.1365  1.0000</r>
       <r>   0.1365  1.0000</r>
       <r>   0.4877  1.0000</r>
       <r>   0.6390  1.0000</r>
       <r>   0.6390  1.0000</r>
       <r>   0.7601  1.0000</r>
       <r>   0.9288  1.0000</r>
       <r>   1.0308  1.0000</r>
       <r>   1.3917  1.0000</r>
       <r>   1.3917  1.0000</r>
       <r>   1.3952  1.0000</r>
       <r>   1.6409  1.0000</r>
       <r>   2.0707  1.0000</r>
       <r>   2.1551  1.0000</r>
       <r>   2.1558  1.0000</r>
       <r>   2.1558  1.0000</r>
       <r>   3.9560  0.3125</r>
       <r>   3.9560  0.3125</r>
       <r>   6.6598  0.0000</r>
       <r>   8.4042  0.0000</r>
       <r>  11.4602  0.0000</r>
      </set>
      <set comment="kpoint 60">
       <r>  -2.2260  1.0000</r>
       <r>  -1.1313  1.0000</r>
       <r>  -0.5971  1.0000</r>
       <r>  -0.4323  1.0000</r>
       <r>   0.1913  1.0000</r>
       <r>   0.2551  1.0000</r>
       <r>   0.2878  1.0000</r>
       <r>   0.4621  1.0000</r>
       <r>   0.5890  1.0000</r>
       <r>   0.6522  1.0000</r>
       <r>   0.7188  1.0000</r>
       <r>   0.8530  1.0000</r>
       <r>   1.0618  1.0000</r>
       <r>   1.2544  1.0000</r>
       <r>   1.3140  1.0000</r>
       <r>   1.3281  1.0000</r>
       <r>   1.7234  1.0000</r>
       <r>   2.0460  1.0000</r>
       <r>   2.0994  1.0000</r>
       <r>   2.1024  1.0000</r>
       <r>   2.2902  1.0000</r>
       <r>   3.1407  1.0000</r>
       <r>   4.5443  0.0000</r>
       <r>   6.0228  0.0000</r>
       <r>   8.6850  0.0000</r>
       <r>  10.3567  0.0000</r>
      </set>
      <set comment="kpoint 61">
       <r>  -1.6507  1.0000</r>
       <r>  -1.6507  1.0000</r>
       <r>  -0.4949  1.0000</r>
       <r>  -0.4949  1.0000</r>
       <r>   0.2591  1.0000</r>
       <r>   0.2591  1.0000</r>
       <r>   0.3993  1.0000</r>
       <r>   0.3993  1.0000</r>
       <r>   0.6540  1.0000</r>
       <r>   0.6540  1.0000</r>
       <r>   0.7403  1.0000</r>
       <r>   0.7403  1.0000</r>
       <r>   1.1393  1.0000</r>
       <r>   1.1393  1.0000</r>
       <r>   1.2900  1.0000</r>
       <r>   1.2900  1.0000</r>
       <r>   1.8838  1.0000</r>
       <r>   1.8838  1.0000</r>
       <r>   2.0781  1.0000</r>
       <r>   2.0781  1.0000</r>
       <r>   2.6104  1.0000</r>
       <r>   2.6104  1.0000</r>
       <r>   5.2404  0.0000</r>
       <r>   5.2404  0.0000</r>
       <r>   9.4170  0.0000</r>
       <r>   9.4170  0.0000</r>
      </set>
      <set comment="kpoint 62">
       <r>  -1.7631  1.0000</r>
       <r>  -0.9110  1.0000</r>
       <r>  -0.9110  1.0000</r>
       <r>  -0.5708  1.0000</r>
       <r>   0.3381  1.0000</r>
       <r>   0.4390  1.0000</r>
       <r>   0.4390  1.0000</r>
       <r>   0.5246  1.0000</r>
       <r>   0.6087  1.0000</r>
       <r>   0.6087  1.0000</r>
       <r>   0.7337  1.0000</r>
       <r>   0.7895  1.0000</r>
       <r>   1.0518  1.0000</r>
       <r>   1.2025  1.0000</r>
       <r>   1.2025  1.0000</r>
       <r>   1.2193  1.0000</r>
       <r>   1.7439  1.0000</r>
       <r>   1.9859  1.0000</r>
       <r>   1.9859  1.0000</r>
       <r>   2.0274  1.0000</r>
       <r>   2.5848  1.0000</r>
       <r>   3.6374  1.0000</r>
       <r>   3.6374  1.0000</r>
       <r>   5.0722  0.0000</r>
       <r>   9.3080  0.0000</r>
       <r>  11.1029  0.0000</r>
      </set>
      <set comment="kpoint 63">
       <r>  -1.3079  1.0000</r>
       <r>  -1.3079  1.0000</r>
       <r>  -0.7261  1.0000</r>
       <r>  -0.7261  1.0000</r>
       <r>   0.4393  1.0000</r>
       <r>   0.4393  1.0000</r>
       <r>   0.5430  1.0000</r>
       <r>   0.5430  1.0000</r>
       <r>   0.6795  1.0000</r>
       <r>   0.6795  1.0000</r>
       <r>   0.6825  1.0000</r>
       <r>   0.6825  1.0000</r>
       <r>   1.1008  1.0000</r>
       <r>   1.1008  1.0000</r>
       <r>   1.1789  1.0000</r>
       <r>   1.1789  1.0000</r>
       <r>   1.8470  1.0000</r>
       <r>   1.8470  1.0000</r>
       <r>   1.9777  1.0000</r>
       <r>   1.9777  1.0000</r>
       <r>   3.0024  1.0000</r>
       <r>   3.0024  1.0000</r>
       <r>   4.2696  0.0000</r>
       <r>   4.2696  0.0000</r>
       <r>  10.1273  0.0000</r>
       <r>  10.1273  0.0000</r>
      </set>
      <set comment="kpoint 64">
       <r>  -0.9945  1.0000</r>
       <r>  -0.9945  1.0000</r>
       <r>  -0.9945  1.0000</r>
       <r>  -0.9945  1.0000</r>
       <r>   0.5821  1.0000</r>
       <r>   0.5821  1.0000</r>
       <r>   0.5821  1.0000</r>
       <r>   0.5821  1.0000</r>
       <r>   0.6567  1.0000</r>
       <r>   0.6567  1.0000</r>
       <r>   0.6567  1.0000</r>
       <r>   0.6567  1.0000</r>
       <r>   1.1058  1.0000</r>
       <r>   1.1058  1.0000</r>
       <r>   1.1058  1.0000</r>
       <r>   1.1058  1.0000</r>
       <r>   1.8830  1.0000</r>
       <r>   1.8830  1.0000</r>
       <r>   1.8830  1.0000</r>
       <r>   1.8830  1.0000</r>
       <r>   3.5321  1.0000</r>
       <r>   3.5321  1.0000</r>
       <r>   3.5321  1.0000</r>
       <r>   3.5321  1.0000</r>
       <r>  10.9863  0.0000</r>
       <r>  10.9863  0.0000</r>
      </set>
      <set comment="kpoint 65">
       <r>  -3.4055  1.0000</r>
       <r>  -0.6086  1.0000</r>
       <r>  -0.6086  1.0000</r>
       <r>  -0.6086  1.0000</r>
       <r>  -0.0348  1.0000</r>
       <r>  -0.0348  1.0000</r>
       <r>  -0.0348  1.0000</r>
       <r>   0.5592  1.0000</r>
       <r>   0.8419  1.0000</r>
       <r>   0.8419  1.0000</r>
       <r>   0.8419  1.0000</r>
       <r>   0.9750  1.0000</r>
       <r>   0.9750  1.0000</r>
       <r>   1.4686  1.0000</r>
       <r>   1.4686  1.0000</r>
       <r>   1.4686  1.0000</r>
       <r>   1.7416  1.0000</r>
       <r>   1.7416  1.0000</r>
       <r>   2.2746  1.0000</r>
       <r>   2.2746  1.0000</r>
       <r>   2.2746  1.0000</r>
       <r>   4.8455  0.0000</r>
       <r>   4.8455  0.0000</r>
       <r>   4.8455  0.0000</r>
       <r>  10.6939  0.0000</r>
       <r>  10.6939  0.0000</r>
      </set>
      <set comment="kpoint 66">
       <r>  -2.9265  1.0000</r>
       <r>  -0.8458  1.0000</r>
       <r>  -0.5449  1.0000</r>
       <r>  -0.5449  1.0000</r>
       <r>   0.0963  1.0000</r>
       <r>   0.0963  1.0000</r>
       <r>   0.1234  1.0000</r>
       <r>   0.5515  1.0000</r>
       <r>   0.7558  1.0000</r>
       <r>   0.7651  1.0000</r>
       <r>   0.7651  1.0000</r>
       <r>   0.9487  1.0000</r>
       <r>   0.9767  1.0000</r>
       <r>   1.3218  1.0000</r>
       <r>   1.3713  1.0000</r>
       <r>   1.3713  1.0000</r>
       <r>   1.7656  1.0000</r>
       <r>   1.8828  1.0000</r>
       <r>   2.2413  1.0000</r>
       <r>   2.2413  1.0000</r>
       <r>   2.2631  1.0000</r>
       <r>   3.7429  1.0000</r>
       <r>   5.3093  0.0000</r>
       <r>   5.3093  0.0000</r>
       <r>   9.5097  0.0000</r>
       <r>   9.5097  0.0000</r>
      </set>
      <set comment="kpoint 67">
       <r>  -2.3652  1.0000</r>
       <r>  -1.2466  1.0000</r>
       <r>  -0.5024  1.0000</r>
       <r>  -0.5024  1.0000</r>
       <r>   0.1900  1.0000</r>
       <r>   0.1900  1.0000</r>
       <r>   0.2885  1.0000</r>
       <r>   0.5092  1.0000</r>
       <r>   0.7374  1.0000</r>
       <r>   0.7403  1.0000</r>
       <r>   0.7403  1.0000</r>
       <r>   0.8812  1.0000</r>
       <r>   1.0135  1.0000</r>
       <r>   1.1909  1.0000</r>
       <r>   1.3028  1.0000</r>
       <r>   1.3028  1.0000</r>
       <r>   1.9306  1.0000</r>
       <r>   2.0154  1.0000</r>
       <r>   2.1969  1.0000</r>
       <r>   2.1969  1.0000</r>
       <r>   2.2133  1.0000</r>
       <r>   2.8892  1.0000</r>
       <r>   5.7764  0.0000</r>
       <r>   5.7764  0.0000</r>
       <r>   8.6064  0.0000</r>
       <r>   8.6064  0.0000</r>
      </set>
      <set comment="kpoint 68">
       <r>  -1.7789  1.0000</r>
       <r>  -1.7789  1.0000</r>
       <r>  -0.4870  1.0000</r>
       <r>  -0.4870  1.0000</r>
       <r>   0.2169  1.0000</r>
       <r>   0.2169  1.0000</r>
       <r>   0.4236  1.0000</r>
       <r>   0.4236  1.0000</r>
       <r>   0.7492  1.0000</r>
       <r>   0.7492  1.0000</r>
       <r>   0.7912  1.0000</r>
       <r>   0.7912  1.0000</r>
       <r>   1.0860  1.0000</r>
       <r>   1.0860  1.0000</r>
       <r>   1.2729  1.0000</r>
       <r>   1.2729  1.0000</r>
       <r>   2.1286  1.0000</r>
       <r>   2.1286  1.0000</r>
       <r>   2.1767  1.0000</r>
       <r>   2.1767  1.0000</r>
       <r>   2.2934  1.0000</r>
       <r>   2.2934  1.0000</r>
       <r>   6.0157  0.0000</r>
       <r>   6.0157  0.0000</r>
       <r>   8.2209  0.0000</r>
       <r>   8.2209  0.0000</r>
      </set>
      <set comment="kpoint 69">
       <r>  -2.5031  1.0000</r>
       <r>  -0.7851  1.0000</r>
       <r>  -0.7851  1.0000</r>
       <r>  -0.5916  1.0000</r>
       <r>   0.2283  1.0000</r>
       <r>   0.2770  1.0000</r>
       <r>   0.2770  1.0000</r>
       <r>   0.6264  1.0000</r>
       <r>   0.7522  1.0000</r>
       <r>   0.7522  1.0000</r>
       <r>   0.8283  1.0000</r>
       <r>   0.9219  1.0000</r>
       <r>   0.9459  1.0000</r>
       <r>   1.2318  1.0000</r>
       <r>   1.2318  1.0000</r>
       <r>   1.2491  1.0000</r>
       <r>   1.8072  1.0000</r>
       <r>   2.0005  1.0000</r>
       <r>   2.2222  1.0000</r>
       <r>   2.2386  1.0000</r>
       <r>   2.2386  1.0000</r>
       <r>   4.1338  0.0000</r>
       <r>   4.1338  0.0000</r>
       <r>   5.5487  0.0000</r>
       <r>   8.5101  0.0000</r>
       <r>  10.1022  0.0000</r>
      </set>
      <set comment="kpoint 70">
       <r>  -2.0247  1.0000</r>
       <r>  -1.1218  1.0000</r>
       <r>  -0.7355  1.0000</r>
       <r>  -0.6422  1.0000</r>
       <r>   0.3318  1.0000</r>
       <r>   0.3722  1.0000</r>
       <r>   0.4709  1.0000</r>
       <r>   0.6736  1.0000</r>
       <r>   0.7557  1.0000</r>
       <r>   0.8111  1.0000</r>
       <r>   0.8563  1.0000</r>
       <r>   0.8835  1.0000</r>
       <r>   0.9595  1.0000</r>
       <r>   1.1100  1.0000</r>
       <r>   1.1716  1.0000</r>
       <r>   1.1739  1.0000</r>
       <r>   1.9065  1.0000</r>
       <r>   2.1812  1.0000</r>
       <r>   2.1875  1.0000</r>
       <r>   2.1877  1.0000</r>
       <r>   2.1948  1.0000</r>
       <r>   3.1934  1.0000</r>
       <r>   4.6146  0.0000</r>
       <r>   5.5297  0.0000</r>
       <r>   8.0847  0.0000</r>
       <r>   9.0941  0.0000</r>
      </set>
      <set comment="kpoint 71">
       <r>  -1.5461  1.0000</r>
       <r>  -1.5461  1.0000</r>
       <r>  -0.6899  1.0000</r>
       <r>  -0.6899  1.0000</r>
       <r>   0.3814  1.0000</r>
       <r>   0.3814  1.0000</r>
       <r>   0.6312  1.0000</r>
       <r>   0.6312  1.0000</r>
       <r>   0.7801  1.0000</r>
       <r>   0.7801  1.0000</r>
       <r>   0.8874  1.0000</r>
       <r>   0.8874  1.0000</r>
       <r>   1.0166  1.0000</r>
       <r>   1.0166  1.0000</r>
       <r>   1.1447  1.0000</r>
       <r>   1.1447  1.0000</r>
       <r>   2.0742  1.0000</r>
       <r>   2.0742  1.0000</r>
       <r>   2.1608  1.0000</r>
       <r>   2.1608  1.0000</r>
       <r>   2.5432  1.0000</r>
       <r>   2.5432  1.0000</r>
       <r>   5.1365  0.0000</r>
       <r>   5.1365  0.0000</r>
       <r>   8.3609  0.0000</r>
       <r>   8.3609  0.0000</r>
      </set>
      <set comment="kpoint 72">
       <r>  -1.6611  1.0000</r>
       <r>  -1.0050  1.0000</r>
       <r>  -1.0050  1.0000</r>
       <r>  -0.7727  1.0000</r>
       <r>   0.4580  1.0000</r>
       <r>   0.5589  1.0000</r>
       <r>   0.5589  1.0000</r>
       <r>   0.8119  1.0000</r>
       <r>   0.8380  1.0000</r>
       <r>   0.8674  1.0000</r>
       <r>   0.8674  1.0000</r>
       <r>   0.9354  1.0000</r>
       <r>   0.9874  1.0000</r>
       <r>   1.0647  1.0000</r>
       <r>   1.0647  1.0000</r>
       <r>   1.0786  1.0000</r>
       <r>   1.9086  1.0000</r>
       <r>   2.1252  1.0000</r>
       <r>   2.1252  1.0000</r>
       <r>   2.1343  1.0000</r>
       <r>   2.4719  1.0000</r>
       <r>   3.6300  1.0000</r>
       <r>   3.6300  1.0000</r>
       <r>   4.8973  0.0000</r>
       <r>   8.2852  0.0000</r>
       <r>   9.7753  0.0000</r>
      </set>
      <set comment="kpoint 73">
       <r>  -1.3143  1.0000</r>
       <r>  -1.3143  1.0000</r>
       <r>  -0.8918  1.0000</r>
       <r>  -0.8918  1.0000</r>
       <r>   0.5381  1.0000</r>
       <r>   0.5381  1.0000</r>
       <r>   0.7153  1.0000</r>
       <r>   0.7153  1.0000</r>
       <r>   0.8914  1.0000</r>
       <r>   0.8914  1.0000</r>
       <r>   0.9822  1.0000</r>
       <r>   0.9822  1.0000</r>
       <r>   0.9871  1.0000</r>
       <r>   0.9871  1.0000</r>
       <r>   1.0484  1.0000</r>
       <r>   1.0484  1.0000</r>
       <r>   2.0101  1.0000</r>
       <r>   2.0101  1.0000</r>
       <r>   2.1000  1.0000</r>
       <r>   2.1000  1.0000</r>
       <r>   2.9128  1.0000</r>
       <r>   2.9128  1.0000</r>
       <r>   4.2060  0.0000</r>
       <r>   4.2060  0.0000</r>
       <r>   8.9058  0.0000</r>
       <r>   8.9058  0.0000</r>
      </set>
      <set comment="kpoint 74">
       <r>  -1.0972  1.0000</r>
       <r>  -1.0972  1.0000</r>
       <r>  -1.0972  1.0000</r>
       <r>  -1.0972  1.0000</r>
       <r>   0.6553  1.0000</r>
       <r>   0.6553  1.0000</r>
       <r>   0.6553  1.0000</r>
       <r>   0.6553  1.0000</r>
       <r>   0.9740  1.0000</r>
       <r>   0.9740  1.0000</r>
       <r>   0.9740  1.0000</r>
       <r>   0.9740  1.0000</r>
       <r>   1.0262  1.0000</r>
       <r>   1.0262  1.0000</r>
       <r>   1.0262  1.0000</r>
       <r>   1.0262  1.0000</r>
       <r>   2.0243  1.0000</r>
       <r>   2.0243  1.0000</r>
       <r>   2.0243  1.0000</r>
       <r>   2.0243  1.0000</r>
       <r>   3.4489  1.0000</r>
       <r>   3.4489  1.0000</r>
       <r>   3.4489  1.0000</r>
       <r>   3.4489  1.0000</r>
       <r>   9.6716  0.0000</r>
       <r>   9.6716  0.0000</r>
      </set>
      <set comment="kpoint 75">
       <r>  -2.1591  1.0000</r>
       <r>  -0.8300  1.0000</r>
       <r>  -0.8300  1.0000</r>
       <r>  -0.8300  1.0000</r>
       <r>   0.4108  1.0000</r>
       <r>   0.4108  1.0000</r>
       <r>   0.4108  1.0000</r>
       <r>   0.8195  1.0000</r>
       <r>   0.8989  1.0000</r>
       <r>   0.8989  1.0000</r>
       <r>   0.9007  1.0000</r>
       <r>   0.9007  1.0000</r>
       <r>   0.9007  1.0000</r>
       <r>   1.1140  1.0000</r>
       <r>   1.1140  1.0000</r>
       <r>   1.1140  1.0000</r>
       <r>   1.9604  1.0000</r>
       <r>   1.9604  1.0000</r>
       <r>   2.2534  1.0000</r>
       <r>   2.2534  1.0000</r>
       <r>   2.2534  1.0000</r>
       <r>   4.3686  0.0000</r>
       <r>   4.3686  0.0000</r>
       <r>   4.3686  0.0000</r>
       <r>   8.9860  0.0000</r>
       <r>   8.9860  0.0000</r>
      </set>
      <set comment="kpoint 76">
       <r>  -1.7887  1.0000</r>
       <r>  -1.1098  1.0000</r>
       <r>  -0.8626  1.0000</r>
       <r>  -0.8626  1.0000</r>
       <r>   0.4921  1.0000</r>
       <r>   0.4921  1.0000</r>
       <r>   0.5961  1.0000</r>
       <r>   0.8468  1.0000</r>
       <r>   0.8929  1.0000</r>
       <r>   0.9714  1.0000</r>
       <r>   0.9892  1.0000</r>
       <r>   1.0043  1.0000</r>
       <r>   1.0298  1.0000</r>
       <r>   1.0298  1.0000</r>
       <r>   1.0675  1.0000</r>
       <r>   1.0675  1.0000</r>
       <r>   2.0857  1.0000</r>
       <r>   2.0896  1.0000</r>
       <r>   2.2232  1.0000</r>
       <r>   2.2232  1.0000</r>
       <r>   2.2415  1.0000</r>
       <r>   3.3397  1.0000</r>
       <r>   4.6014  0.0000</r>
       <r>   4.6014  0.0000</r>
       <r>   8.2057  0.0000</r>
       <r>   8.2057  0.0000</r>
      </set>
      <set comment="kpoint 77">
       <r>  -1.4313  1.0000</r>
       <r>  -1.4313  1.0000</r>
       <r>  -0.8745  1.0000</r>
       <r>  -0.8745  1.0000</r>
       <r>   0.5171  1.0000</r>
       <r>   0.5171  1.0000</r>
       <r>   0.7486  1.0000</r>
       <r>   0.7486  1.0000</r>
       <r>   0.9288  1.0000</r>
       <r>   0.9288  1.0000</r>
       <r>   1.0172  1.0000</r>
       <r>   1.0172  1.0000</r>
       <r>   1.0235  1.0000</r>
       <r>   1.0235  1.0000</r>
       <r>   1.1270  1.0000</r>
       <r>   1.1270  1.0000</r>
       <r>   2.1857  1.0000</r>
       <r>   2.1857  1.0000</r>
       <r>   2.2011  1.0000</r>
       <r>   2.2011  1.0000</r>
       <r>   2.5497  1.0000</r>
       <r>   2.5497  1.0000</r>
       <r>   4.7085  0.0000</r>
       <r>   4.7085  0.0000</r>
       <r>   7.9123  0.0000</r>
       <r>   7.9123  0.0000</r>
      </set>
      <set comment="kpoint 78">
       <r>  -1.5466  1.0000</r>
       <r>  -1.0857  1.0000</r>
       <r>  -1.0857  1.0000</r>
       <r>  -0.9656  1.0000</r>
       <r>   0.5858  1.0000</r>
       <r>   0.6409  1.0000</r>
       <r>   0.6409  1.0000</r>
       <r>   0.8266  1.0000</r>
       <r>   0.8552  1.0000</r>
       <r>   0.9400  1.0000</r>
       <r>   0.9400  1.0000</r>
       <r>   0.9580  1.0000</r>
       <r>   1.2266  1.0000</r>
       <r>   1.2266  1.0000</r>
       <r>   1.2629  1.0000</r>
       <r>   1.3053  1.0000</r>
       <r>   2.0498  1.0000</r>
       <r>   2.2084  1.0000</r>
       <r>   2.2156  1.0000</r>
       <r>   2.2156  1.0000</r>
       <r>   2.3132  1.0000</r>
       <r>   3.6150  1.0000</r>
       <r>   3.6150  1.0000</r>
       <r>   4.3874  0.0000</r>
       <r>   7.8586  0.0000</r>
       <r>   8.7147  0.0000</r>
      </set>
      <set comment="kpoint 79">
       <r>  -1.3121  1.0000</r>
       <r>  -1.3121  1.0000</r>
       <r>  -1.0395  1.0000</r>
       <r>  -1.0395  1.0000</r>
       <r>   0.6369  1.0000</r>
       <r>   0.6369  1.0000</r>
       <r>   0.7551  1.0000</r>
       <r>   0.7551  1.0000</r>
       <r>   0.8762  1.0000</r>
       <r>   0.8762  1.0000</r>
       <r>   0.9226  1.0000</r>
       <r>   0.9226  1.0000</r>
       <r>   1.3491  1.0000</r>
       <r>   1.3491  1.0000</r>
       <r>   1.3591  1.0000</r>
       <r>   1.3591  1.0000</r>
       <r>   2.1469  1.0000</r>
       <r>   2.1469  1.0000</r>
       <r>   2.1873  1.0000</r>
       <r>   2.1873  1.0000</r>
       <r>   2.7960  1.0000</r>
       <r>   2.7960  1.0000</r>
       <r>   4.0008  0.0000</r>
       <r>   4.0008  0.0000</r>
       <r>   8.0753  0.0000</r>
       <r>   8.0753  0.0000</r>
      </set>
      <set comment="kpoint 80">
       <r>  -1.1840  1.0000</r>
       <r>  -1.1840  1.0000</r>
       <r>  -1.1840  1.0000</r>
       <r>  -1.1840  1.0000</r>
       <r>   0.7211  1.0000</r>
       <r>   0.7211  1.0000</r>
       <r>   0.7211  1.0000</r>
       <r>   0.7211  1.0000</r>
       <r>   0.8709  1.0000</r>
       <r>   0.8709  1.0000</r>
       <r>   0.8709  1.0000</r>
       <r>   0.8709  1.0000</r>
       <r>   1.4807  1.0000</r>
       <r>   1.4807  1.0000</r>
       <r>   1.4807  1.0000</r>
       <r>   1.4807  1.0000</r>
       <r>   2.1369  1.0000</r>
       <r>   2.1369  1.0000</r>
       <r>   2.1369  1.0000</r>
       <r>   2.1369  1.0000</r>
       <r>   3.2965  1.0000</r>
       <r>   3.2965  1.0000</r>
       <r>   3.2965  1.0000</r>
       <r>   3.2965  1.0000</r>
       <r>   8.6319  0.0000</r>
       <r>   8.6319  0.0000</r>
      </set>
      <set comment="kpoint 81">
       <r>  -1.4244  1.0000</r>
       <r>  -1.1388  1.0000</r>
       <r>  -1.1388  1.0000</r>
       <r>  -1.1388  1.0000</r>
       <r>   0.6960  1.0000</r>
       <r>   0.6960  1.0000</r>
       <r>   0.6960  1.0000</r>
       <r>   0.8165  1.0000</r>
       <r>   0.8165  1.0000</r>
       <r>   0.8699  1.0000</r>
       <r>   0.8699  1.0000</r>
       <r>   0.8699  1.0000</r>
       <r>   1.5469  1.0000</r>
       <r>   1.5469  1.0000</r>
       <r>   1.5469  1.0000</r>
       <r>   1.8865  1.0000</r>
       <r>   2.1569  1.0000</r>
       <r>   2.1569  1.0000</r>
       <r>   2.2389  1.0000</r>
       <r>   2.2389  1.0000</r>
       <r>   2.2389  1.0000</r>
       <r>   3.5952  1.0000</r>
       <r>   3.5952  1.0000</r>
       <r>   3.5952  1.0000</r>
       <r>   8.0110  0.0000</r>
       <r>   8.0110  0.0000</r>
      </set>
      <set comment="kpoint 82">
       <r>  -1.2906  1.0000</r>
       <r>  -1.2906  1.0000</r>
       <r>  -1.1573  1.0000</r>
       <r>  -1.1573  1.0000</r>
       <r>   0.7171  1.0000</r>
       <r>   0.7171  1.0000</r>
       <r>   0.7742  1.0000</r>
       <r>   0.7742  1.0000</r>
       <r>   0.8215  1.0000</r>
       <r>   0.8215  1.0000</r>
       <r>   0.8436  1.0000</r>
       <r>   0.8436  1.0000</r>
       <r>   1.6961  1.0000</r>
       <r>   1.6961  1.0000</r>
       <r>   1.8178  1.0000</r>
       <r>   1.8178  1.0000</r>
       <r>   2.2215  1.0000</r>
       <r>   2.2215  1.0000</r>
       <r>   2.2249  1.0000</r>
       <r>   2.2249  1.0000</r>
       <r>   2.7487  1.0000</r>
       <r>   2.7487  1.0000</r>
       <r>   3.5848  1.0000</r>
       <r>   3.5848  1.0000</r>
       <r>   7.7609  0.0000</r>
       <r>   7.7609  0.0000</r>
      </set>
      <set comment="kpoint 83">
       <r>  -1.2408  1.0000</r>
       <r>  -1.2408  1.0000</r>
       <r>  -1.2408  1.0000</r>
       <r>  -1.2408  1.0000</r>
       <r>   0.7671  1.0000</r>
       <r>   0.7671  1.0000</r>
       <r>   0.7671  1.0000</r>
       <r>   0.7671  1.0000</r>
       <r>   0.8058  1.0000</r>
       <r>   0.8058  1.0000</r>
       <r>   0.8058  1.0000</r>
       <r>   0.8058  1.0000</r>
       <r>   1.9533  1.0000</r>
       <r>   1.9533  1.0000</r>
       <r>   1.9533  1.0000</r>
       <r>   1.9533  1.0000</r>
       <r>   2.2089  1.0000</r>
       <r>   2.2089  1.0000</r>
       <r>   2.2089  1.0000</r>
       <r>   2.2089  1.0000</r>
       <r>   3.0582  1.0000</r>
       <r>   3.0582  1.0000</r>
       <r>   3.0582  1.0000</r>
       <r>   3.0582  1.0000</r>
       <r>   7.9533  0.0000</r>
       <r>   7.9533  0.0000</r>
      </set>
      <set comment="kpoint 84">
       <r>  -1.2604  1.0000</r>
       <r>  -1.2604  1.0000</r>
       <r>  -1.2604  1.0000</r>
       <r>  -1.2604  1.0000</r>
       <r>   0.7835  1.0000</r>
       <r>   0.7835  1.0000</r>
       <r>   0.7835  1.0000</r>
       <r>   0.7835  1.0000</r>
       <r>   0.7835  1.0000</r>
       <r>   0.7835  1.0000</r>
       <r>   0.7835  1.0000</r>
       <r>   0.7835  1.0000</r>
       <r>   2.2337  1.0000</r>
       <r>   2.2337  1.0000</r>
       <r>   2.2337  1.0000</r>
       <r>   2.2337  1.0000</r>
       <r>   2.2337  1.0000</r>
       <r>   2.2337  1.0000</r>
       <r>   2.2337  1.0000</r>
       <r>   2.2337  1.0000</r>
       <r>   2.8669  1.0000</r>
       <r>   2.8669  1.0000</r>
       <r>   2.8669  1.0000</r>
       <r>   2.8669  1.0000</r>
       <r>   7.7160  0.0000</r>
       <r>   7.7160  0.0000</r>
      </set>
     </set>
    </set>
   </array>
  </eigenvalues>
 </calculation>
 <structure name="finalpos" >
  <crystal>
   <varray name="basis" >
    <v>       3.60005165      0.00000000      0.00000000</v>
    <v>       0.00000000      3.60005165      0.00000000</v>
    <v>       0.00000000      0.00000000      3.60005165</v>
   </varray>
   <i name="volume">     46.65800832</i>
   <varray name="rec_basis" >
    <v>       0.27777379      0.00000000      0.00000000</v>
    <v>       0.00000000      0.27777379      0.00000000</v>
    <v>       0.00000000      0.00000000      0.27777379</v>
   </varray>
  </crystal>
  <varray name="positions" >
   <v>       0.00000000      0.00000000      0.00000000</v>
   <v>       0.50000000      0.50000000      0.00000000</v>
   <v>       0.50000000      0.00000000      0.50000000</v>
   <v>       0.00000000      0.50000000      0.50000000</v>
  </varray>
 </structure>
</modeling>
