   4   4   0   0
  0.1698549E+02  0.4080494E-09  0.4080494E-09  0.4080494E-09  0.5000000E-15
  1.000000000000000E-004
  CAR 
 unknown system                          
     21.10984700     -5.44809573  301      3.59450527      1.00000000
     -5.448  0.0000E+00  0.0000E+00
     -5.360  0.0000E+00  0.0000E+00
     -5.271  0.0000E+00  0.0000E+00
     -5.183  0.0000E+00  0.0000E+00
     -5.094  0.0000E+00  0.0000E+00
     -5.005  0.0000E+00  0.0000E+00
     -4.917  0.0000E+00  0.0000E+00
     -4.828  0.0000E+00  0.0000E+00
     -4.740  0.0000E+00  0.0000E+00
     -4.651  0.0000E+00  0.0000E+00
     -4.563  0.0000E+00  0.0000E+00
     -4.474  0.0000E+00  0.0000E+00
     -4.386  0.0000E+00  0.0000E+00
     -4.297  0.4032E-18  0.3569E-19
     -4.209  0.1533E-01  0.1357E-02
     -4.120  0.9085E-01  0.1050E-01
     -4.032  0.1459E+00  0.2372E-01
     -3.943  0.1623E+00  0.4090E-01
     -3.855  0.1826E+00  0.5994E-01
     -3.766  0.2396E+00  0.8423E-01
     -3.678  0.2636E+00  0.1096E+00
     -3.589  0.3092E+00  0.1392E+00
     -3.501  0.3204E+00  0.1705E+00
     -3.412  0.3910E+00  0.2082E+00
     -3.323  0.3868E+00  0.2463E+00
     -3.235  0.4714E+00  0.2892E+00
     -3.146  0.4722E+00  0.3369E+00
     -3.058  0.4973E+00  0.3882E+00
     -2.969  0.5671E+00  0.4454E+00
     -2.881  0.1104E+01  0.5480E+00
     -2.792  0.3125E+01  0.8434E+00
     -2.704  0.5959E+01  0.1406E+01
     -2.615  0.7351E+01  0.2121E+01
     -2.527  0.8755E+01  0.2980E+01
     -2.438  0.1054E+02  0.4007E+01
     -2.350  0.1412E+02  0.5386E+01
     -2.261  0.1221E+02  0.6623E+01
     -2.173  0.1083E+02  0.7675E+01
     -2.084  0.9813E+01  0.8659E+01
     -1.996  0.8413E+01  0.9479E+01
     -1.907  0.7169E+01  0.1018E+02
     -1.819  0.7585E+01  0.1094E+02
     -1.730  0.8581E+01  0.1178E+02
     -1.641  0.9632E+01  0.1272E+02
     -1.553  0.9862E+01  0.1368E+02
     -1.464  0.8804E+01  0.1457E+02
     -1.376  0.9212E+01  0.1548E+02
     -1.287  0.9403E+01  0.1639E+02
     -1.199  0.1043E+02  0.1740E+02
     -1.110  0.1306E+02  0.1868E+02
     -1.022  0.1806E+02  0.2040E+02
     -0.933  0.1407E+02  0.2186E+02
     -0.845  0.1101E+02  0.2293E+02
     -0.756  0.8284E+01  0.2376E+02
     -0.668  0.9782E+01  0.2471E+02
     -0.579  0.8915E+01  0.2560E+02
     -0.491  0.9529E+01  0.2653E+02
     -0.402  0.1118E+02  0.2762E+02
     -0.314  0.1116E+02  0.2872E+02
     -0.225  0.1207E+02  0.2988E+02
     -0.137  0.1104E+02  0.3098E+02
     -0.048  0.9883E+01  0.3195E+02
      0.041  0.9343E+01  0.3287E+02
      0.129  0.8955E+01  0.3376E+02
      0.218  0.9375E+01  0.3467E+02
      0.306  0.9514E+01  0.3561E+02
      0.395  0.1080E+02  0.3667E+02
      0.483  0.1399E+02  0.3802E+02
      0.572  0.1685E+02  0.3968E+02
      0.660  0.9565E+01  0.4068E+02
      0.749  0.6204E+01  0.4131E+02
      0.837  0.7023E+00  0.4143E+02
      0.926  0.9591E+00  0.4153E+02
      1.014  0.6125E+00  0.4159E+02
      1.103  0.8687E+00  0.4168E+02
      1.191  0.7229E+00  0.4174E+02
      1.280  0.8259E+00  0.4182E+02
      1.368  0.7424E+00  0.4190E+02
      1.457  0.9329E+00  0.4198E+02
      1.545  0.6978E+00  0.4205E+02
      1.634  0.9977E+00  0.4214E+02
      1.723  0.5701E+00  0.4220E+02
      1.811  0.9514E+00  0.4229E+02
      1.900  0.7440E+00  0.4237E+02
      1.988  0.6383E+00  0.4243E+02
      2.077  0.1042E+01  0.4253E+02
      2.165  0.6836E+00  0.4260E+02
      2.254  0.7507E+00  0.4267E+02
      2.342  0.1011E+01  0.4277E+02
      2.431  0.6738E+00  0.4283E+02
      2.519  0.9169E+00  0.4292E+02
      2.608  0.8099E+00  0.4301E+02
      2.696  0.7853E+00  0.4308E+02
      2.785  0.9298E+00  0.4317E+02
      2.873  0.1003E+01  0.4326E+02
      2.962  0.6951E+00  0.4333E+02
      3.050  0.1034E+01  0.4343E+02
      3.139  0.9917E+00  0.4353E+02
      3.227  0.7873E+00  0.4361E+02
      3.316  0.9489E+00  0.4371E+02
      3.405  0.1120E+01  0.4381E+02
      3.493  0.7641E+00  0.4390E+02
      3.582  0.9469E+00  0.4399E+02
      3.670  0.1130E+01  0.4410E+02
      3.759  0.8492E+00  0.4418E+02
      3.847  0.7535E+00  0.4426E+02
      3.936  0.1163E+01  0.4437E+02
      4.024  0.9285E+00  0.4446E+02
      4.113  0.8749E+00  0.4455E+02
      4.201  0.1089E+01  0.4465E+02
      4.290  0.9247E+00  0.4474E+02
      4.378  0.8457E+00  0.4483E+02
      4.467  0.9536E+00  0.4492E+02
      4.555  0.9231E+00  0.4502E+02
      4.644  0.9624E+00  0.4511E+02
      4.732  0.8064E+00  0.4519E+02
      4.821  0.1170E+01  0.4530E+02
      4.910  0.9114E+00  0.4539E+02
      4.998  0.9219E+00  0.4547E+02
      5.087  0.9272E+00  0.4556E+02
      5.175  0.1057E+01  0.4566E+02
      5.264  0.8064E+00  0.4574E+02
      5.352  0.9124E+00  0.4583E+02
      5.441  0.1011E+01  0.4593E+02
      5.529  0.1073E+01  0.4603E+02
      5.618  0.7177E+00  0.4611E+02
      5.706  0.8153E+00  0.4619E+02
      5.795  0.9932E+00  0.4629E+02
      5.883  0.8346E+00  0.4637E+02
      5.972  0.8524E+00  0.4645E+02
      6.060  0.6959E+00  0.4652E+02
      6.149  0.1030E+01  0.4662E+02
      6.237  0.7190E+00  0.4669E+02
      6.326  0.6225E+00  0.4675E+02
      6.414  0.8543E+00  0.4684E+02
      6.503  0.7430E+00  0.4691E+02
      6.592  0.6965E+00  0.4698E+02
      6.680  0.6398E+00  0.4704E+02
      6.769  0.7664E+00  0.4712E+02
      6.857  0.5922E+00  0.4717E+02
      6.946  0.7422E+00  0.4724E+02
      7.034  0.5390E+00  0.4730E+02
      7.123  0.5918E+00  0.4735E+02
      7.211  0.7034E+00  0.4742E+02
      7.300  0.1009E+01  0.4752E+02
      7.388  0.1027E+01  0.4763E+02
      7.477  0.1297E+01  0.4776E+02
      7.565  0.1205E+01  0.4788E+02
      7.654  0.1250E+01  0.4800E+02
      7.742  0.1147E+01  0.4811E+02
      7.831  0.1265E+01  0.4824E+02
      7.919  0.1232E+01  0.4836E+02
      8.008  0.1156E+01  0.4848E+02
      8.096  0.1044E+01  0.4859E+02
      8.185  0.1143E+01  0.4870E+02
      8.274  0.1216E+01  0.4882E+02
      8.362  0.1198E+01  0.4893E+02
      8.451  0.1111E+01  0.4904E+02
      8.539  0.1020E+01  0.4915E+02
      8.628  0.1248E+01  0.4926E+02
      8.716  0.9115E+00  0.4935E+02
      8.805  0.1179E+01  0.4947E+02
      8.893  0.1089E+01  0.4957E+02
      8.982  0.9892E+00  0.4966E+02
      9.070  0.1254E+01  0.4978E+02
      9.159  0.9688E+00  0.4988E+02
      9.247  0.9062E+00  0.4996E+02
      9.336  0.1008E+01  0.5007E+02
      9.424  0.1042E+01  0.5017E+02
      9.513  0.8960E+00  0.5026E+02
      9.601  0.9233E+00  0.5035E+02
      9.690  0.1076E+01  0.5046E+02
      9.778  0.1039E+01  0.5056E+02
      9.867  0.9261E+00  0.5064E+02
      9.956  0.9001E+00  0.5073E+02
     10.044  0.1087E+01  0.5084E+02
     10.133  0.8556E+00  0.5092E+02
     10.221  0.9178E+00  0.5102E+02
     10.310  0.9617E+00  0.5111E+02
     10.398  0.1162E+01  0.5123E+02
     10.487  0.1747E+01  0.5140E+02
     10.575  0.1046E+01  0.5151E+02
     10.664  0.1315E+01  0.5164E+02
     10.752  0.1531E+01  0.5178E+02
     10.841  0.1350E+01  0.5191E+02
     10.929  0.1519E+01  0.5206E+02
     11.018  0.1699E+01  0.5223E+02
     11.106  0.1683E+01  0.5239E+02
     11.195  0.1474E+01  0.5254E+02
     11.283  0.1342E+01  0.5267E+02
     11.372  0.1566E+01  0.5282E+02
     11.460  0.1745E+01  0.5300E+02
     11.549  0.1499E+01  0.5314E+02
     11.638  0.1374E+01  0.5328E+02
     11.726  0.1500E+01  0.5342E+02
     11.815  0.1290E+01  0.5355E+02
     11.903  0.1821E+01  0.5373E+02
     11.992  0.1642E+01  0.5388E+02
     12.080  0.1488E+01  0.5403E+02
     12.169  0.1287E+01  0.5416E+02
     12.257  0.1426E+01  0.5430E+02
     12.346  0.1792E+01  0.5447E+02
     12.434  0.1665E+01  0.5465E+02
     12.523  0.1448E+01  0.5479E+02
     12.611  0.1407E+01  0.5493E+02
     12.700  0.1426E+01  0.5507E+02
     12.788  0.1686E+01  0.5524E+02
     12.877  0.1815E+01  0.5541E+02
     12.965  0.1673E+01  0.5558E+02
     13.054  0.1632E+01  0.5573E+02
     13.142  0.1334E+01  0.5587E+02
     13.231  0.1454E+01  0.5603E+02
     13.320  0.1818E+01  0.5620E+02
     13.408  0.1658E+01  0.5637E+02
     13.497  0.1955E+01  0.5655E+02
     13.585  0.1643E+01  0.5671E+02
     13.674  0.1355E+01  0.5685E+02
     13.762  0.1812E+01  0.5702E+02
     13.851  0.1969E+01  0.5721E+02
     13.939  0.1633E+01  0.5737E+02
     14.028  0.1727E+01  0.5754E+02
     14.116  0.1753E+01  0.5771E+02
     14.205  0.1824E+01  0.5789E+02
     14.293  0.1952E+01  0.5808E+02
     14.382  0.1843E+01  0.5826E+02
     14.470  0.1786E+01  0.5844E+02
     14.559  0.1939E+01  0.5864E+02
     14.647  0.2021E+01  0.5883E+02
     14.736  0.1746E+01  0.5900E+02
     14.824  0.1706E+01  0.5917E+02
     14.913  0.1999E+01  0.5937E+02
     15.002  0.1752E+01  0.5954E+02
     15.090  0.1801E+01  0.5971E+02
     15.179  0.1842E+01  0.5988E+02
     15.267  0.1465E+01  0.6003E+02
     15.356  0.1785E+01  0.6021E+02
     15.444  0.1835E+01  0.6038E+02
     15.533  0.1526E+01  0.6053E+02
     15.621  0.1720E+01  0.6070E+02
     15.710  0.1572E+01  0.6086E+02
     15.798  0.1492E+01  0.6102E+02
     15.887  0.1533E+01  0.6117E+02
     15.975  0.1587E+01  0.6132E+02
     16.064  0.1422E+01  0.6147E+02
     16.152  0.1516E+01  0.6162E+02
     16.241  0.1159E+01  0.6174E+02
     16.329  0.1239E+01  0.6187E+02
     16.418  0.1270E+01  0.6199E+02
     16.506  0.9561E+00  0.6209E+02
     16.595  0.1062E+01  0.6219E+02
     16.684  0.1123E+01  0.6230E+02
     16.772  0.1032E+01  0.6240E+02
     16.861  0.8136E+00  0.6248E+02
     16.949  0.9115E+00  0.6257E+02
     17.038  0.7760E+00  0.6265E+02
     17.126  0.7756E+00  0.6272E+02
     17.215  0.6928E+00  0.6280E+02
     17.303  0.7626E+00  0.6287E+02
     17.392  0.5898E+00  0.6293E+02
     17.480  0.7716E+00  0.6301E+02
     17.569  0.5567E+00  0.6306E+02
     17.657  0.5882E+00  0.6312E+02
     17.746  0.6078E+00  0.6318E+02
     17.834  0.4891E+00  0.6323E+02
     17.923  0.5487E+00  0.6328E+02
     18.011  0.5362E+00  0.6333E+02
     18.100  0.4554E+00  0.6337E+02
     18.188  0.3944E+00  0.6341E+02
     18.277  0.4113E+00  0.6346E+02
     18.366  0.3516E+00  0.6349E+02
     18.454  0.5119E+00  0.6354E+02
     18.543  0.2335E+00  0.6356E+02
     18.631  0.4780E+00  0.6361E+02
     18.720  0.1869E+00  0.6364E+02
     18.808  0.4571E+00  0.6368E+02
     18.897  0.2880E+00  0.6371E+02
     18.985  0.3391E+00  0.6374E+02
     19.074  0.2806E+00  0.6377E+02
     19.162  0.4072E+00  0.6381E+02
     19.251  0.2535E+00  0.6383E+02
     19.339  0.3284E+00  0.6387E+02
     19.428  0.3839E+00  0.6390E+02
     19.516  0.4653E+00  0.6395E+02
     19.605  0.2453E+00  0.6397E+02
     19.693  0.1465E+00  0.6399E+02
     19.782  0.7376E-01  0.6399E+02
     19.870  0.5393E-01  0.6400E+02
     19.959  0.1162E-01  0.6400E+02
     20.048  0.0000E+00  0.6400E+02
     20.136  0.0000E+00  0.6400E+02
     20.225  0.0000E+00  0.6400E+02
     20.313  0.0000E+00  0.6400E+02
     20.402  0.0000E+00  0.6400E+02
     20.490  0.0000E+00  0.6400E+02
     20.579  0.0000E+00  0.6400E+02
     20.667  0.0000E+00  0.6400E+02
     20.756  0.0000E+00  0.6400E+02
     20.844  0.0000E+00  0.6400E+02
     20.933  0.0000E+00  0.6400E+02
     21.021  0.0000E+00  0.6400E+02
     21.110  0.0000E+00  0.6400E+02
