    4    4    1    1
  0.1698549E+02  0.4080494E-09  0.4080494E-09  0.4080494E-09  0.5000000E-15
  1.000000000000000E-004
  CAR 
 unknown system                          
   44 1330   32
 
  0.0000000E+00  0.0000000E+00  0.0000000E+00  0.2143347E-04
   1       -4.2409
   2       -2.9393
   3       -2.9393
   4       -2.9393
   5       -2.8002
   6       -2.8002
   7       -2.8002
   8       -1.2918
   9       -1.2918
  10       -1.2918
  11       -0.2488
  12       -0.2488
  13        0.5198
  14        0.5198
  15        0.5198
  16        0.7603
  17        0.7603
  18        0.7603
  19        0.7603
  20        0.7603
  21        0.7603
  22        5.1704
  23        5.1704
  24        5.1704
  25       10.3360
  26       10.3360
  27       10.3360
  28       14.4386
  29       14.4386
  30       14.4386
  31       14.4386
  32       14.4386
 
  0.2777778E-01  0.0000000E+00  0.0000000E+00  0.1286008E-03
   1       -4.2328
   2       -2.9359
   3       -2.9349
   4       -2.9349
   5       -2.7977
   6       -2.7963
   7       -2.7963
   8       -1.2951
   9       -1.2888
  10       -1.2888
  11       -0.2520
  12       -0.2474
  13        0.5155
  14        0.5155
  15        0.5183
  16        0.7443
  17        0.7443
  18        0.7550
  19        0.7550
  20        0.7603
  21        0.7603
  22        5.1120
  23        5.1931
  24        5.1931
  25       10.3371
  26       10.3371
  27       10.4068
  28       14.4091
  29       14.4091
  30       14.4093
  31       14.4093
  32       14.4530
 
  0.5555556E-01  0.0000000E+00  0.0000000E+00  0.1286008E-03
   1       -4.2084
   2       -2.9258
   3       -2.9218
   4       -2.9218
   5       -2.7900
   6       -2.7846
   7       -2.7846
   8       -1.3047
   9       -1.2799
  10       -1.2799
  11       -0.2618
  12       -0.2432
  13        0.5025
  14        0.5025
  15        0.5137
  16        0.6970
  17        0.6970
  18        0.7392
  19        0.7392
  20        0.7604
  21        0.7604
  22        4.9460
  23        5.2603
  24        5.2603
  25       10.3405
  26       10.3405
  27       10.6103
  28       14.3231
  29       14.3231
  30       14.3235
  31       14.3235
  32       14.4961
 
  0.8333333E-01  0.0000000E+00  0.0000000E+00  0.1286008E-03
   1       -4.1678
   2       -2.9090
   3       -2.9001
   4       -2.9001
   5       -2.7772
   6       -2.7651
   7       -2.7651
   8       -1.3207
   9       -1.2650
  10       -1.2650
  11       -0.2778
  12       -0.2363
  13        0.4811
  14        0.4811
  15        0.5060
  16        0.6215
  17        0.6215
  18        0.7131
  19        0.7131
  20        0.7604
  21        0.7604
  22        4.6943
  23        5.3690
  24        5.3690
  25       10.3463
  26       10.3463
  27       10.9245
  28       14.1849
  29       14.1849
  30       14.1897
  31       14.1897
  32       14.5675
 
  0.1111111E+00  0.0000000E+00  0.0000000E+00  0.1286008E-03
   1       -4.1114
   2       -2.8858
   3       -2.8701
   4       -2.8701
   5       -2.7594
   6       -2.7378
   7       -2.7378
   8       -1.3428
   9       -1.2442
  10       -1.2442
  11       -0.2997
  12       -0.2267
  13        0.4515
  14        0.4515
  15        0.4955
  16        0.5217
  17        0.5217
  18        0.6771
  19        0.6771
  20        0.7605
  21        0.7605
  22        4.3814
  23        5.5151
  24        5.5151
  25       10.3547
  26       10.3547
  27       11.3248
  28       14.0011
  29       14.0011
  30       14.0184
  31       14.0184
  32       14.6668
 
  0.1388889E+00  0.0000000E+00  0.0000000E+00  0.1286008E-03
   1       -4.0394
   2       -2.8566
   3       -2.8324
   4       -2.8324
   5       -2.7367
   6       -2.7027
   7       -2.7027
   8       -1.3709
   9       -1.2177
  10       -1.2177
  11       -0.3270
  12       -0.2145
  13        0.4021
  14        0.4021
  15        0.4141
  16        0.4141
  17        0.4820
  18        0.6319
  19        0.6320
  20        0.7605
  21        0.7605
  22        4.0287
  23        5.6941
  24        5.6941
  25       10.3656
  26       10.3656
  27       11.7896
  28       13.7791
  29       13.7791
  30       13.8207
  31       13.8207
  32       14.7932
 
  0.1666667E+00  0.0000000E+00  0.0000000E+00  0.1286008E-03
   1       -3.9524
   2       -2.8218
   3       -2.7873
   4       -2.7873
   5       -2.7092
   6       -2.6599
   7       -2.6599
   8       -1.4046
   9       -1.1853
  10       -1.1853
  11       -0.3591
  12       -0.1997
  13        0.2673
  14        0.2673
  15        0.3694
  16        0.3694
  17        0.4658
  18        0.5782
  19        0.5782
  20        0.7606
  21        0.7606
  22        3.6523
  23        5.9013
  24        5.9013
  25       10.3794
  26       10.3794
  27       12.3030
  28       13.5258
  29       13.5258
  30       13.6067
  31       13.6067
  32       14.9459
 
  0.1944444E+00  0.0000000E+00  0.0000000E+00  0.1286008E-03
   1       -3.8510
   2       -2.7821
   3       -2.7358
   4       -2.7358
   5       -2.6771
   6       -2.6093
   7       -2.6093
   8       -1.4436
   9       -1.1473
  10       -1.1473
  11       -0.3949
  12       -0.1824
  13        0.1213
  14        0.1213
  15        0.3182
  16        0.3182
  17        0.4470
  18        0.5168
  19        0.5168
  20        0.7607
  21        0.7607
  22        3.2638
  23        6.1327
  24        6.1327
  25       10.3963
  26       10.3963
  27       12.8531
  28       13.2475
  29       13.2475
  30       13.3848
  31       13.3848
  32       15.1239
 
  0.2222222E+00  0.0000000E+00  0.0000000E+00  0.1286008E-03
   1       -3.7362
   2       -2.7382
   3       -2.6787
   4       -2.6787
   5       -2.6405
   6       -2.5511
   7       -2.5511
   8       -1.4875
   9       -1.1038
  10       -1.1038
  11       -0.4334
  12       -0.1628
  13       -0.0325
  14       -0.0325
  15        0.2612
  16        0.2612
  17        0.4257
  18        0.4485
  19        0.4485
  20        0.7608
  21        0.7608
  22        2.8712
  23        6.3845
  24        6.3845
  25       10.4164
  26       10.4164
  27       12.9495
  28       12.9495
  29       13.1620
  30       13.1620
  31       13.4316
  32       15.3261
 
  0.2500000E+00  0.0000000E+00  0.0000000E+00  0.1286008E-03
   1       -3.6091
   2       -2.6910
   3       -2.6172
   4       -2.6172
   5       -2.5996
   6       -2.4852
   7       -2.4852
   8       -1.5358
   9       -1.0549
  10       -1.0548
  11       -0.4730
  12       -0.1912
  13       -0.1912
  14       -0.1410
  15        0.1997
  16        0.1997
  17        0.3743
  18        0.3743
  19        0.4022
  20        0.7609
  21        0.7609
  22        2.4807
  23        6.6536
  24        6.6536
  25       10.4399
  26       10.4399
  27       12.6360
  28       12.6360
  29       12.9437
  30       12.9437
  31       14.0319
  32       15.5513
 
  0.2777778E+00  0.0000000E+00  0.0000000E+00  0.1286008E-03
   1       -3.4714
   2       -2.6417
   3       -2.5548
   4       -2.5526
   5       -2.5526
   6       -2.4118
   7       -2.4118
   8       -1.5882
   9       -1.0007
  10       -1.0007
  11       -0.5117
  12       -0.3523
  13       -0.3523
  14       -0.1171
  15        0.1350
  16        0.1350
  17        0.2951
  18        0.2951
  19        0.3766
  20        0.7610
  21        0.7610
  22        2.0971
  23        6.9377
  24        6.9377
  25       10.4669
  26       10.4669
  27       12.3107
  28       12.3107
  29       12.7342
  30       12.7342
  31       14.6488
  32       15.7982
 
  0.3055556E+00  0.0000000E+00  0.0000000E+00  0.1286008E-03
   1       -3.3253
   2       -2.5918
   3       -2.5062
   4       -2.4865
   5       -2.4865
   6       -2.3308
   7       -2.3308
   8       -1.6440
   9       -0.9416
  10       -0.9416
  11       -0.5468
  12       -0.5141
  13       -0.5141
  14       -0.0913
  15        0.0687
  16        0.0687
  17        0.2119
  18        0.2119
  19        0.3492
  20        0.7611
  21        0.7611
  22        1.7242
  23        7.2344
  24        7.2344
  25       10.4972
  26       10.4972
  27       11.9763
  28       11.9763
  29       12.5367
  30       12.5367
  31       15.2777
  32       16.0657
 
  0.3333333E+00  0.0000000E+00  0.0000000E+00  0.1286008E-03
   1       -3.1741
   2       -2.5432
   3       -2.4541
   4       -2.4210
   5       -2.4210
   6       -2.2425
   7       -2.2425
   8       -1.7029
   9       -0.8777
  10       -0.8777
  11       -0.6749
  12       -0.6749
  13       -0.5749
  14       -0.0638
  15        0.0029
  16        0.0029
  17        0.1256
  18        0.1256
  19        0.3202
  20        0.7611
  21        0.7611
  22        1.3654
  23        7.5419
  24        7.5419
  25       10.5304
  26       10.5304
  27       11.6352
  28       11.6352
  29       12.3545
  30       12.3545
  31       15.9137
  32       16.3522
 
  0.3611111E+00  0.0000000E+00  0.0000000E+00  0.1286008E-03
   1       -3.0217
   2       -2.4982
   3       -2.3989
   4       -2.3584
   5       -2.3584
   6       -2.1469
   7       -2.1469
   8       -1.7642
   9       -0.8336
  10       -0.8336
  11       -0.8092
  12       -0.8092
  13       -0.5914
  14       -0.0602
  15       -0.0602
  16       -0.0348
  17        0.0370
  18        0.0370
  19        0.2897
  20        0.7612
  21        0.7612
  22        1.0243
  23        7.8588
  24        7.8588
  25       10.5659
  26       10.5659
  27       11.2895
  28       11.2895
  29       12.1902
  30       12.1902
  31       16.5514
  32       16.6566
 
  0.3888889E+00  0.0000000E+00  0.0000000E+00  0.1286008E-03
   1       -2.8736
   2       -2.4598
   3       -2.3410
   4       -2.3012
   5       -2.3012
   6       -2.0440
   7       -2.0440
   8       -1.8275
   9       -0.9890
  10       -0.9890
  11       -0.7365
  12       -0.7365
  13       -0.5904
  14       -0.1178
  15       -0.1178
  16       -0.0529
  17       -0.0529
  18       -0.0045
  19        0.2582
  20        0.7046
  21        0.7613
  22        0.7613
  23        8.1837
  24        8.1837
  25       10.6020
  26       10.6020
  27       10.9406
  28       10.9406
  29       12.0468
  30       12.0468
  31       16.9774
  32       16.9774
 
  0.4166667E+00  0.0000000E+00  0.0000000E+00  0.1286008E-03
   1       -2.7368
   2       -2.4321
   3       -2.2806
   4       -2.2524
   5       -2.2524
   6       -1.9342
   7       -1.9342
   8       -1.8921
   9       -1.1404
  10       -1.1404
  11       -0.6599
  12       -0.6599
  13       -0.5647
  14       -0.1670
  15       -0.1670
  16       -0.1433
  17       -0.1433
  18        0.0270
  19        0.2257
  20        0.4106
  21        0.7613
  22        0.7613
  23        8.5154
  24        8.5154
  25       10.5901
  26       10.5901
  27       10.6365
  28       10.6365
  29       11.9279
  30       11.9279
  31       17.3132
  32       17.3132
 
  0.4444444E+00  0.0000000E+00  0.0000000E+00  0.1286008E-03
   1       -2.6186
   2       -2.4197
   3       -2.2182
   4       -2.2149
   5       -2.2149
   6       -1.9576
   7       -1.8174
   8       -1.8174
   9       -1.2871
  10       -1.2871
  11       -0.5799
  12       -0.5799
  13       -0.5065
  14       -0.2336
  15       -0.2336
  16       -0.2049
  17       -0.2049
  18        0.0593
  19        0.1472
  20        0.1927
  21        0.7614
  22        0.7614
  23        8.8527
  24        8.8527
  25       10.2392
  26       10.2392
  27       10.6659
  28       10.6659
  29       11.8376
  30       11.8376
  31       17.6626
  32       17.6626
 
  0.4722222E+00  0.0000000E+00  0.0000000E+00  0.1286008E-03
   1       -2.5257
   2       -2.4280
   3       -2.1911
   4       -2.1911
   5       -2.1543
   6       -2.0235
   7       -1.6941
   8       -1.6941
   9       -1.4286
  10       -1.4286
  11       -0.4967
  12       -0.4967
  13       -0.4085
  14       -0.3230
  15       -0.3230
  16       -0.2289
  17       -0.2289
  18       -0.0802
  19        0.0923
  20        0.1593
  21        0.7614
  22        0.7614
  23        9.1948
  24        9.1948
  25        9.8890
  26        9.8890
  27       10.6862
  28       10.6862
  29       11.7807
  30       11.7807
  31       18.0241
  32       18.0241
 
  0.5000000E+00  0.0000000E+00  0.0000000E+00  0.6430041E-04
   1       -2.4622
   2       -2.4622
   3       -2.1830
   4       -2.1830
   5       -2.0892
   6       -2.0892
   7       -1.5644
   8       -1.5644
   9       -1.5644
  10       -1.5644
  11       -0.4109
  12       -0.4109
  13       -0.4109
  14       -0.4109
  15       -0.2665
  16       -0.2665
  17       -0.2371
  18       -0.2371
  19        0.1257
  20        0.1257
  21        0.7614
  22        0.7614
  23        9.5405
  24        9.5405
  25        9.5405
  26        9.5405
  27       10.6934
  28       10.6934
  29       11.7612
  30       11.7612
  31       18.3962
  32       18.3962
 
  0.2777778E-01  0.2777778E-01  0.0000000E+00  0.2572016E-03
   1       -4.2246
   2       -2.9315
   3       -2.9315
   4       -2.9306
   5       -2.7938
   6       -2.7938
   7       -2.7924
   8       -1.2964
   9       -1.2878
  10       -1.2859
  11       -0.2530
  12       -0.2483
  13        0.5112
  14        0.5138
  15        0.5138
  16        0.7319
  17        0.7391
  18        0.7391
  19        0.7550
  20        0.7550
  21        0.7567
  22        5.1346
  23        5.1346
  24        5.2157
  25       10.3382
  26       10.4081
  27       10.4081
  28       14.2959
  29       14.4233
  30       14.4233
  31       14.4236
  32       14.4236
 
  0.5555556E-01  0.2777778E-01  0.0000000E+00  0.5144033E-03
   1       -4.2003
   2       -2.9214
   3       -2.9184
   4       -2.9177
   5       -2.7861
   6       -2.7821
   7       -2.7804
   8       -1.3051
   9       -1.2797
  10       -1.2770
  11       -0.2618
  12       -0.2450
  13        0.4983
  14        0.5003
  15        0.5087
  16        0.6870
  17        0.6924
  18        0.7237
  19        0.7392
  20        0.7549
  21        0.7551
  22        4.9683
  23        5.2014
  24        5.2825
  25       10.3417
  26       10.4120
  27       10.6119
  28       14.1339
  29       14.3373
  30       14.3374
  31       14.4649
  32       14.4661
 
  0.8333333E-01  0.2777778E-01  0.0000000E+00  0.5144033E-03
   1       -4.1598
   2       -2.9045
   3       -2.8967
   4       -2.8965
   5       -2.7733
   6       -2.7626
   7       -2.7606
   8       -1.3208
   9       -1.2651
  10       -1.2622
  11       -0.2775
  12       -0.2381
  13        0.4770
  14        0.4773
  15        0.5001
  16        0.6126
  17        0.6183
  18        0.6984
  19        0.7131
  20        0.7544
  21        0.7551
  22        4.7162
  23        5.3094
  24        5.3906
  25       10.3475
  26       10.4185
  27       10.9266
  28       13.9320
  29       14.1988
  30       14.2032
  31       14.4050
  32       14.5370
 
  0.1111111E+00  0.2777778E-01  0.0000000E+00  0.5144033E-03
   1       -4.1034
   2       -2.8814
   3       -2.8671
   4       -2.8667
   5       -2.7556
   6       -2.7353
   7       -2.7328
   8       -1.3428
   9       -1.2444
  10       -1.2416
  11       -0.2993
  12       -0.2284
  13        0.4428
  14        0.4475
  15        0.4880
  16        0.5137
  17        0.5235
  18        0.6639
  19        0.6771
  20        0.7543
  21        0.7551
  22        4.4031
  23        5.4545
  24        5.5359
  25       10.3558
  26       10.4279
  27       11.3272
  28       13.6995
  29       14.0147
  30       14.0314
  31       14.2934
  32       14.6358
 
  0.1388889E+00  0.2777778E-01  0.0000000E+00  0.5144033E-03
   1       -4.0316
   2       -2.8521
   3       -2.8301
   4       -2.8289
   5       -2.7329
   6       -2.7003
   7       -2.6971
   8       -1.3708
   9       -1.2178
  10       -1.2153
  11       -0.3265
  12       -0.2160
  13        0.3754
  14        0.3951
  15        0.4103
  16        0.4339
  17        0.4719
  18        0.6212
  19        0.6319
  20        0.7543
  21        0.7552
  22        4.0503
  23        5.6320
  24        5.7141
  25       10.3667
  26       10.4402
  27       11.7924
  28       13.4446
  29       13.7924
  30       13.8332
  31       14.1385
  32       14.7612
 
  0.1666667E+00  0.2777778E-01  0.0000000E+00  0.5144033E-03
   1       -3.9447
   2       -2.8173
   3       -2.7859
   4       -2.7838
   5       -2.7055
   6       -2.6575
   7       -2.6536
   8       -1.4043
   9       -1.1855
  10       -1.1832
  11       -0.3584
  12       -0.2010
  13        0.2527
  14        0.2612
  15        0.3658
  16        0.3773
  17        0.4510
  18        0.5718
  19        0.5782
  20        0.7544
  21        0.7552
  22        3.6740
  23        5.8373
  24        5.9205
  25       10.3804
  26       10.4557
  27       12.3059
  28       13.1740
  29       13.5389
  30       13.6187
  31       13.9501
  32       14.9122
 
  0.1944444E+00  0.2777778E-01  0.0000000E+00  0.5144033E-03
   1       -3.8435
   2       -2.7775
   3       -2.7353
   4       -2.7323
   5       -2.6734
   6       -2.6070
   7       -2.6024
   8       -1.4432
   9       -1.1475
  10       -1.1456
  11       -0.3939
  12       -0.1835
  13        0.1095
  14        0.1160
  15        0.3148
  16        0.3234
  17        0.4230
  18        0.5167
  19        0.5192
  20        0.7545
  21        0.7553
  22        3.2858
  23        6.0662
  24        6.1510
  25       10.3971
  26       10.4746
  27       12.8561
  28       12.8925
  29       13.2603
  30       13.3966
  31       13.7381
  32       15.0889
 
  0.2222222E+00  0.2777778E-01  0.0000000E+00  0.5144033E-03
   1       -3.7288
   2       -2.7336
   3       -2.6791
   4       -2.6751
   5       -2.6369
   6       -2.5489
   7       -2.5436
   8       -1.4870
   9       -1.1040
  10       -1.1027
  11       -0.4320
  12       -0.1636
  13       -0.0429
  14       -0.0371
  15        0.2581
  16        0.2654
  17        0.3826
  18        0.4484
  19        0.4696
  20        0.7546
  21        0.7553
  22        2.8937
  23        6.3150
  24        6.4020
  25       10.4167
  26       10.4972
  27       12.6035
  28       12.9621
  29       13.1736
  30       13.4346
  31       13.5115
  32       15.2894
 
  0.2500000E+00  0.2777778E-01  0.0000000E+00  0.5144033E-03
   1       -3.6020
   2       -2.6863
   3       -2.6182
   4       -2.6135
   5       -2.5962
   6       -2.4831
   7       -2.4773
   8       -1.5352
   9       -1.0551
  10       -1.0546
  11       -0.4709
  12       -0.2007
  13       -0.1950
  14       -0.1415
  15        0.1968
  16        0.2033
  17        0.3250
  18        0.3742
  19        0.4287
  20        0.7547
  21        0.7554
  22        2.5041
  23        6.5806
  24        6.6705
  25       10.4394
  26       10.5235
  27       12.3090
  28       12.6485
  29       12.9554
  30       13.2785
  31       14.0348
  32       15.5120
 
  0.2777778E+00  0.2777778E-01  0.0000000E+00  0.5144033E-03
   1       -3.4645
   2       -2.6369
   3       -2.5540
   4       -2.5514
   5       -2.5489
   6       -2.4098
   7       -2.4038
   8       -1.5873
   9       -1.0018
  10       -1.0010
  11       -0.5085
  12       -0.3611
  13       -0.3555
  14       -0.1173
  15        0.1324
  16        0.1381
  17        0.2537
  18        0.2950
  19        0.3943
  20        0.7548
  21        0.7555
  22        2.1215
  23        6.8604
  24        6.9539
  25       10.4648
  26       10.5536
  27       12.0103
  28       12.3230
  29       12.7462
  30       13.0464
  31       14.6518
  32       15.7563
 
  0.3055556E+00  0.2777778E-01  0.0000000E+00  0.5144033E-03
   1       -3.3188
   2       -2.5869
   3       -2.5030
   4       -2.4880
   5       -2.4828
   6       -2.3290
   7       -2.3232
   8       -1.6430
   9       -0.9447
  10       -0.9418
  11       -0.5417
  12       -0.5221
  13       -0.5166
  14       -0.0911
  15        0.0664
  16        0.0715
  17        0.1738
  18        0.2118
  19        0.3621
  20        0.7549
  21        0.7555
  22        1.7501
  23        7.1520
  24        7.2500
  25       10.4919
  26       10.5874
  27       11.7085
  28       11.9886
  29       12.5497
  30       12.8214
  31       15.2808
  32       16.0209
 
  0.3333333E+00  0.2777778E-01  0.0000000E+00  0.5144033E-03
   1       -3.1678
   2       -2.5382
   3       -2.4510
   4       -2.4221
   5       -2.4172
   6       -2.2408
   7       -2.2357
   8       -1.7017
   9       -0.8845
  10       -0.8779
  11       -0.6822
  12       -0.6769
  13       -0.5664
  14       -0.0632
  15        0.0008
  16        0.0054
  17        0.0886
  18        0.1254
  19        0.3302
  20        0.7550
  21        0.7556
  22        1.3933
  23        7.4536
  24        7.5570
  25       10.5177
  26       10.6243
  27       11.4064
  28       11.6475
  29       12.3691
  30       12.6090
  31       15.9171
  32       16.3034
 
  0.3611111E+00  0.2777778E-01  0.0000000E+00  0.5144033E-03
   1       -3.0156
   2       -2.4931
   3       -2.3960
   4       -2.3588
   5       -2.3545
   6       -2.1453
   7       -2.1412
   8       -1.7629
   9       -0.8401
  10       -0.8350
  11       -0.8229
  12       -0.8094
  13       -0.5765
  14       -0.0620
  15       -0.0580
  16       -0.0337
  17       -0.0005
  18        0.0369
  19        0.2977
  20        0.7551
  21        0.7556
  22        1.0550
  23        7.7634
  24        7.8734
  25       10.5331
  26       10.6634
  27       11.1127
  28       11.3018
  29       12.2076
  30       12.4137
  31       16.5554
  32       16.6034
 
  0.3888889E+00  0.2777778E-01  0.0000000E+00  0.5144033E-03
   1       -2.8678
   2       -2.4547
   3       -2.3381
   4       -2.3008
   5       -2.2973
   6       -2.0427
   7       -2.0398
   8       -1.8259
   9       -0.9947
  10       -0.9900
  11       -0.7624
  12       -0.7367
  13       -0.5637
  14       -0.1192
  15       -0.1160
  16       -0.0924
  17       -0.0531
  18       -0.0028
  19        0.2644
  20        0.7392
  21        0.7553
  22        0.7556
  23        8.0798
  24        8.1979
  25       10.4971
  26       10.7028
  27       10.8676
  28       10.9530
  29       12.0688
  30       12.2395
  31       16.9189
  32       16.9311
 
  0.4166667E+00  0.2777778E-01  0.0000000E+00  0.5144033E-03
   1       -2.7311
   2       -2.4268
   3       -2.2779
   4       -2.2510
   5       -2.2485
   6       -1.9330
   7       -1.9315
   8       -1.8904
   9       -1.1452
  10       -1.1410
  11       -0.7036
  12       -0.6602
  13       -0.5208
  14       -0.1866
  15       -0.1681
  16       -0.1656
  17       -0.1435
  18        0.0292
  19        0.2298
  20        0.4512
  21        0.7554
  22        0.7556
  23        8.4015
  24        8.5292
  25       10.3123
  26       10.6026
  27       10.7393
  28       10.7672
  29       11.9572
  30       12.0904
  31       17.2484
  32       17.2628
 
  0.4444444E+00  0.2777778E-01  0.0000000E+00  0.5144033E-03
   1       -2.6131
   2       -2.4143
   3       -2.2157
   4       -2.2126
   5       -2.2110
   6       -1.9558
   7       -1.8165
   8       -1.8162
   9       -1.2909
  10       -1.2874
  11       -0.6403
  12       -0.5801
  13       -0.4465
  14       -0.2826
  15       -0.2338
  16       -0.2057
  17       -0.2040
  18        0.0622
  19        0.1750
  20        0.2155
  21        0.7554
  22        0.7556
  23        8.7269
  24        8.8662
  25       10.0237
  26       10.2518
  27       10.7642
  28       10.7688
  29       11.8783
  30       11.9707
  31       17.5902
  32       17.6072
 
  0.4722222E+00  0.2777778E-01  0.0000000E+00  0.5144033E-03
   1       -2.5202
   2       -2.4225
   3       -2.1882
   4       -2.1874
   5       -2.1519
   6       -2.0215
   7       -1.6943
   8       -1.6934
   9       -1.4313
  10       -1.4285
  11       -0.5645
  12       -0.4969
  13       -0.3798
  14       -0.3421
  15       -0.3232
  16       -0.2293
  17       -0.2284
  18       -0.0279
  19        0.0960
  20        0.1655
  21        0.7555
  22        0.7556
  23        9.0544
  24        9.2080
  25        9.7072
  26        9.9018
  27       10.7793
  28       10.7865
  29       11.8379
  30       11.8856
  31       17.9425
  32       17.9622
 
  0.5000000E+00  0.2777778E-01  0.0000000E+00  0.2572016E-03
   1       -2.4567
   2       -2.4567
   3       -2.1796
   4       -2.1796
   5       -2.0870
   6       -2.0870
   7       -1.5659
   8       -1.5659
   9       -1.5640
  10       -1.5640
  11       -0.4756
  12       -0.4756
  13       -0.4111
  14       -0.4111
  15       -0.2370
  16       -0.2370
  17       -0.2043
  18       -0.2043
  19        0.1303
  20        0.1303
  21        0.7556
  22        0.7556
  23        9.3821
  24        9.3821
  25        9.5535
  26        9.5535
  27       10.7895
  28       10.7895
  29       11.8402
  30       11.8402
  31       18.3038
  32       18.3156
 
  0.5555556E-01  0.5555556E-01  0.0000000E+00  0.2572016E-03
   1       -4.1760
   2       -2.9082
   3       -2.9082
   4       -2.9056
   5       -2.7744
   6       -2.7744
   7       -2.7679
   8       -1.3099
   9       -1.2756
  10       -1.2683
  11       -0.2654
  12       -0.2465
  13        0.4856
  14        0.4933
  15        0.4933
  16        0.6504
  17        0.6787
  18        0.6787
  19        0.7392
  20        0.7392
  21        0.7459
  22        5.0341
  23        5.0341
  24        5.3481
  25       10.3451
  26       10.6169
  27       10.6169
  28       13.9059
  29       14.3792
  30       14.3792
  31       14.3797
  32       14.3797
 
  0.8333333E-01  0.5555556E-01  0.0000000E+00  0.5144033E-03
   1       -4.1357
   2       -2.8913
   3       -2.8864
   4       -2.8856
   5       -2.7618
   6       -2.7550
   7       -2.7471
   8       -1.3231
   9       -1.2633
  10       -1.2539
  11       -0.2785
  12       -0.2419
  13        0.4646
  14        0.4659
  15        0.4814
  16        0.5824
  17        0.6091
  18        0.6566
  19        0.7131
  20        0.7392
  21        0.7408
  22        4.7809
  23        5.1403
  24        5.4544
  25       10.3509
  26       10.6253
  27       10.9329
  28       13.6490
  29       14.2405
  30       14.2437
  31       14.4485
  32       14.4500
 
  0.1111111E+00  0.5555556E-01  0.0000000E+00  0.5144033E-03
   1       -4.0796
   2       -2.8681
   3       -2.8580
   4       -2.8564
   5       -2.7442
   6       -2.7279
   7       -2.7180
   8       -1.3438
   9       -1.2437
  10       -1.2338
  11       -0.2991
  12       -0.2326
  13        0.4194
  14        0.4355
  15        0.4638
  16        0.4879
  17        0.5261
  18        0.6272
  19        0.6771
  20        0.7385
  21        0.7392
  22        4.4669
  23        5.2828
  24        5.5976
  25       10.3591
  26       10.6372
  27       11.3346
  28       13.3717
  29       14.0556
  30       14.0704
  31       14.5406
  32       14.5450
 
  0.1388889E+00  0.5555556E-01  0.0000000E+00  0.5144033E-03
   1       -4.0081
   2       -2.8388
   3       -2.8230
   4       -2.8185
   5       -2.7216
   6       -2.6930
   7       -2.6807
   8       -1.3710
   9       -1.2176
  10       -1.2081
  11       -0.3256
  12       -0.2200
  13        0.3368
  14        0.3728
  15        0.3988
  16        0.4393
  17        0.4520
  18        0.5925
  19        0.6318
  20        0.7374
  21        0.7392
  22        4.1138
  23        5.4567
  24        5.7734
  25       10.3699
  26       10.6529
  27       11.8006
  28       13.0809
  29       13.8324
  30       13.8707
  31       14.4504
  32       14.6681
 
  0.1666667E+00  0.5555556E-01  0.0000000E+00  0.5144033E-03
   1       -3.9217
   2       -2.8038
   3       -2.7811
   4       -2.7733
   5       -2.6944
   6       -2.6504
   7       -2.6355
   8       -1.4040
   9       -1.1856
  10       -1.1770
  11       -0.3567
  12       -0.2045
  13        0.2172
  14        0.2420
  15        0.3549
  16        0.3927
  17        0.4061
  18        0.5548
  19        0.5780
  20        0.7369
  21        0.7392
  22        3.7377
  23        5.6572
  24        5.9774
  25       10.3832
  26       10.6725
  27       12.3146
  28       12.7823
  29       13.5780
  30       13.6549
  31       14.3153
  32       14.8152
 
  0.1944444E+00  0.5555556E-01  0.0000000E+00  0.5144033E-03
   1       -3.8210
   2       -2.7639
   3       -2.7329
   4       -2.7217
   5       -2.6626
   6       -2.6002
   7       -2.5826
   8       -1.4423
   9       -1.1478
  10       -1.1407
  11       -0.3914
  12       -0.1863
  13        0.0777
  14        0.0996
  15        0.3046
  16        0.3356
  17        0.3624
  18        0.5165
  19        0.5169
  20        0.7366
  21        0.7392
  22        3.3501
  23        5.8802
  24        6.2055
  25       10.3991
  26       10.6962
  27       12.4801
  28       12.8649
  29       13.2987
  30       13.4317
  31       14.1443
  32       14.9874
 
  0.2222222E+00  0.5555556E-01  0.0000000E+00  0.5144033E-03
   1       -3.7069
   2       -2.7198
   3       -2.6789
   4       -2.6644
   5       -2.6263
   6       -2.5423
   7       -2.5223
   8       -1.4856
   9       -1.1044
  10       -1.0994
  11       -0.4282
  12       -0.1656
  13       -0.0722
  14       -0.0509
  15        0.2486
  16        0.2758
  17        0.3074
  18        0.4481
  19        0.4806
  20        0.7366
  21        0.7392
  22        2.9594
  23        6.1218
  24        6.4543
  25       10.4172
  26       10.7243
  27       12.1776
  28       12.9999
  29       13.2084
  30       13.4433
  31       13.9475
  32       15.1844
 
  0.2500000E+00  0.5555556E-01  0.0000000E+00  0.5144033E-03
   1       -3.5807
   2       -2.6723
   3       -2.6199
   4       -2.6026
   5       -2.5858
   6       -2.4769
   7       -2.4552
   8       -1.5333
   9       -1.0555
  10       -1.0538
  11       -0.4652