       N       E                     dE             d eps       ncg     rms          rms(c)
DAV:   1    -0.867022291876E+02   -0.86702E+02   -0.34849E+00   432   0.434E+00    0.822E-01
DAV:   2    -0.866578199608E+02    0.44409E-01   -0.13273E-01   468   0.243E+00    0.400E-01
DAV:   3    -0.866559922278E+02    0.18277E-02   -0.24375E-02   448   0.487E-01    0.188E-01
DAV:   4    -0.866560714460E+02   -0.79218E-04   -0.92790E-04   456   0.114E-01    0.871E-02
DAV:   5    -0.866561114491E+02   -0.40003E-04   -0.18331E-04   448   0.900E-02    0.160E-02
DAV:   6    -0.866561105738E+02    0.87530E-06   -0.18859E-05   264   0.317E-02
   1 F= -.86656111E+02 E0= -.86598440E+02  d E =-.173012E+00
