       N       E                     dE             d eps       ncg     rms          rms(c)
DAV:   1     0.194775606192E+04    0.19478E+04   -0.11494E+05   432   0.939E+02
DAV:   2    -0.260623437160E+01   -0.19504E+04   -0.18522E+04   428   0.322E+02
DAV:   3    -0.907503210856E+02   -0.88144E+02   -0.85716E+02   456   0.722E+01
DAV:   4    -0.918187026057E+02   -0.10684E+01   -0.10642E+01   448   0.787E+00
DAV:   5    -0.918266256070E+02   -0.79230E-02   -0.79204E-02   448   0.608E-01    0.129E+01
DAV:   6    -0.867948724802E+02    0.50318E+01   -0.20679E+01   448   0.154E+01    0.254E+00
DAV:   7    -0.867058791548E+02    0.88993E-01   -0.30935E-01   440   0.113E+00    0.148E+00
DAV:   8    -0.866559627110E+02    0.49916E-01   -0.22058E-02   440   0.471E-01    0.846E-02
DAV:   9    -0.866564897347E+02   -0.52702E-03   -0.13048E-03   440   0.101E-01    0.569E-02
DAV:  10    -0.866564396466E+02    0.50088E-04   -0.13373E-04   416   0.319E-02    0.722E-03
DAV:  11    -0.866564357095E+02    0.39371E-05   -0.51609E-06   248   0.573E-03
   1 F= -.86656436E+02 E0= -.86598752E+02  d E =-.866564E+02
