    4    4    1    1
  0.1031045E+02  0.3454983E-09  0.3454983E-09  0.3454983E-09  0.5000000E-15
  1.000000000000000E-004
  CAR 
 unknown system                          
   44 1330   32
 
  0.0000000E+00  0.0000000E+00  0.0000000E+00  0.2143347E-04
   1       -5.3855
   2       -0.7226
   3       -0.7226
   4       -0.7226
   5       -0.1750
   6       -0.1750
   7       -0.1750
   8        1.5427
   9        1.5427
  10        1.5427
  11        2.5649
  12        2.5649
  13        3.2421
  14        3.2421
  15        3.2421
  16        3.4328
  17        3.4328
  18        3.4328
  19        3.4328
  20        3.4328
  21        3.4328
  22        6.4678
  23        6.4678
  24        6.4678
  25       13.1760
  26       13.1760
  27       13.1760
  28       19.3616
  29       19.3616
  30       19.3616
  31       19.3616
  32       19.3616
 
  0.2777778E-01  0.0000000E+00  0.0000000E+00  0.1286008E-03
   1       -5.3751
   2       -0.7221
   3       -0.7174
   4       -0.7174
   5       -0.1720
   6       -0.1718
   7       -0.1718
   8        1.5392
   9        1.5455
  10        1.5455
  11        2.5617
  12        2.5662
  13        3.2380
  14        3.2380
  15        3.2408
  16        3.4093
  17        3.4093
  18        3.4280
  19        3.4280
  20        3.4328
  21        3.4328
  22        6.4044
  23        6.5002
  24        6.5002
  25       13.1790
  26       13.1790
  27       13.2586
  28       19.2849
  29       19.2849
  30       19.3192
  31       19.3192
  32       19.3773
 
  0.5555556E-01  0.0000000E+00  0.0000000E+00  0.1286008E-03
   1       -5.3440
   2       -0.7207
   3       -0.7018
   4       -0.7018
   5       -0.1628
   6       -0.1620
   7       -0.1620
   8        1.5287
   9        1.5536
  10        1.5536
  11        2.5522
  12        2.5699
  13        3.2257
  14        3.2257
  15        3.2369
  16        3.3416
  17        3.3416
  18        3.4135
  19        3.4135
  20        3.4328
  21        3.4328
  22        6.2235
  23        6.5947
  24        6.5947
  25       13.1880
  26       13.1880
  27       13.4972
  28       19.0694
  29       19.0694
  30       19.1960
  31       19.1960
  32       19.4243
 
  0.8333333E-01  0.0000000E+00  0.0000000E+00  0.1286008E-03
   1       -5.2922
   2       -0.7192
   3       -0.6760
   4       -0.6760
   5       -0.1477
   6       -0.1458
   7       -0.1458
   8        1.5114
   9        1.5672
  10        1.5672
  11        2.5365
  12        2.5762
  13        3.2053
  14        3.2053
  15        3.2303
  16        3.2371
  17        3.2371
  18        3.3896
  19        3.3896
  20        3.4329
  21        3.4329
  22        5.9483
  23        6.7437
  24        6.7437
  25       13.2031
  26       13.2031
  27       13.8692
  28       18.7490
  29       18.7490
  30       19.0033
  31       19.0033
  32       19.5022
 
  0.1111111E+00  0.0000000E+00  0.0000000E+00  0.1286008E-03
   1       -5.2199
   2       -0.7184
   3       -0.6406
   4       -0.6406
   5       -0.1265
   6       -0.1230
   7       -0.1230
   8        1.4874
   9        1.5862
  10        1.5862
  11        2.5147
  12        2.5849
  13        3.1050
  14        3.1050
  15        3.1770
  16        3.1770
  17        3.2212
  18        3.3567
  19        3.3567
  20        3.4329
  21        3.4329
  22        5.6061
  23        6.9382
  24        6.9382
  25       13.2245
  26       13.2245
  27       14.3477
  28       18.3581
  29       18.3581
  30       18.7560
  31       18.7560
  32       19.6108
 
  0.1388889E+00  0.0000000E+00  0.0000000E+00  0.1286008E-03
   1       -5.1274
   2       -0.7200
   3       -0.5959
   4       -0.5959
   5       -0.0996
   6       -0.0937
   7       -0.0937
   8        1.4568
   9        1.6106
  10        1.6106
  11        2.4872
  12        2.5959
  13        2.9536
  14        2.9536
  15        3.1412
  16        3.1412
  17        3.2096
  18        3.3153
  19        3.3153
  20        3.4330
  21        3.4330
  22        5.2223
  23        7.1696
  24        7.1696
  25       13.2523
  26       13.2523
  27       14.9087
  28       17.9229
  29       17.9229
  30       18.4698
  31       18.4698
  32       19.7493
 
  0.1666667E+00  0.0000000E+00  0.0000000E+00  0.1286008E-03
   1       -5.0148
   2       -0.7261
   3       -0.5428
   4       -0.5428
   5       -0.0670
   6       -0.0577
   7       -0.0577
   8        1.4201
   9        1.6403
  10        1.6403
  11        2.4543
  12        2.6092
  13        2.7901
  14        2.7901
  15        3.0983
  16        3.0983
  17        3.1957
  18        3.2660
  19        3.2660
  20        3.4331
  21        3.4331
  22        4.8172
  23        7.4309
  24        7.4309
  25       13.2869
  26       13.2869
  27       15.5334
  28       17.4612
  29       17.4612
  30       18.1583
  31       18.1583
  32       19.9171
 
  0.1944444E+00  0.0000000E+00  0.0000000E+00  0.1286008E-03
   1       -4.8825
   2       -0.7396
   3       -0.4822
   4       -0.4822
   5       -0.0290
   6       -0.0151
   7       -0.0151
   8        1.3775
   9        1.6751
  10        1.6751
  11        2.4167
  12        2.6196
  13        2.6196
  14        2.6248
  15        3.0490
  16        3.0490
  17        3.1795
  18        3.2096
  19        3.2096
  20        3.4331
  21        3.4331
  22        4.4069
  23        7.7167
  24        7.7167
  25       13.3286
  26       13.3286
  27       16.2075
  28       16.9845
  29       16.9845
  30       17.8335
  31       17.8335
  32       20.1133
 
  0.2222222E+00  0.0000000E+00  0.0000000E+00  0.1286008E-03
   1       -4.7311
   2       -0.7640
   3       -0.4154
   4       -0.4154
   5        0.0142
   6        0.0342
   7        0.0342
   8        1.3293
   9        1.7150
  10        1.7150
  11        2.3747
  12        2.4461
  13        2.4461
  14        2.6424
  15        2.9940
  16        2.9940
  17        3.1469
  18        3.1469
  19        3.1611
  20        3.4332
  21        3.4332
  22        4.0046
  23        8.0231
  24        8.0231
  25       13.3775
  26       13.3775
  27       16.5001
  28       16.5001
  29       16.9209
  30       17.5044
  31       17.5044
  32       20.3370
 
  0.2500000E+00  0.0000000E+00  0.0000000E+00  0.1286008E-03
   1       -4.5610
   2       -0.8039
   3       -0.3436
   4       -0.3436
   5        0.0623
   6        0.0903
   7        0.0903
   8        1.2761
   9        1.7599
  10        1.7599
  11        2.2725
  12        2.2725
  13        2.3293
  14        2.6620
  15        2.9344
  16        2.9344
  17        3.0786
  18        3.0786
  19        3.1408
  20        3.4333
  21        3.4333
  22        3.6213
  23        8.3471
  24        8.3471
  25       13.4341
  26       13.4341
  27       16.0131
  28       16.0131
  29       17.1785
  30       17.1785
  31       17.6656
  32       20.5873
 
  0.2777778E+00  0.0000000E+00  0.0000000E+00  0.1286008E-03
   1       -4.3729
   2       -0.8644
   3       -0.2686
   4       -0.2686
   5        0.1150
   6        0.1533
   7        0.1533
   8        1.2183
   9        1.8097
  10        1.8097
  11        2.1007
  12        2.1007
  13        2.2813
  14        2.6834
  15        2.8715
  16        2.8715
  17        3.0057
  18        3.0057
  19        3.1187
  20        3.2667
  21        3.4334
  22        3.4334
  23        8.6867
  24        8.6867
  25       13.4984
  26       13.4984
  27       15.5266
  28       15.5266
  29       16.8615
  30       16.8615
  31       18.4357
  32       20.8630
 
  0.3055556E+00  0.0000000E+00  0.0000000E+00  0.1286008E-03
   1       -4.1677
   2       -0.9509
   3       -0.1924
   4       -0.1924
   5        0.1720
   6        0.2232
   7        0.2232
   8        1.1564
   9        1.8641
  10        1.8641
  11        1.9322
  12        1.9322
  13        2.2317
  14        2.7065
  15        2.8069
  16        2.8069
  17        2.9290
  18        2.9290
  19        2.9494
  20        3.0949
  21        3.4335
  22        3.4335
  23        9.0401
  24        9.0401
  25       13.5705
  26       13.5705
  27       15.0429
  28       15.0429
  29       16.5579
  30       16.5579
  31       19.2259
  32       21.1632
 
  0.3333333E+00  0.0000000E+00  0.0000000E+00  0.1286008E-03
   1       -3.9465
   2       -1.0681
   3       -0.1174
   4       -0.1174
   5        0.2329
   6        0.3000
   7        0.3000
   8        1.0909
   9        1.7682
  10        1.7682
  11        1.9229
  12        1.9229
  13        2.1820
  14        2.6765
  15        2.7311
  16        2.7426
  17        2.7426
  18        2.8494
  19        2.8494
  20        3.0696
  21        3.4336
  22        3.4336
  23        9.4062
  24        9.4062
  25       13.6500
  26       13.6500
  27       14.5636
  28       14.5636
  29       16.2719
  30       16.2719
  31       20.0319
  32       21.4868
 
  0.3611111E+00  0.0000000E+00  0.0000000E+00  0.1286008E-03
   1       -3.7106
   2       -1.2191
   3       -0.0461
   4       -0.0461
   5        0.2972
   6        0.3839
   7        0.3839
   8        1.0224
   9        1.6094
  10        1.6094
  11        1.9860
  12        1.9860
  13        2.1336
  14        2.4524
  15        2.6810
  16        2.6810
  17        2.7570
  18        2.7676
  19        2.7676
  20        3.0431
  21        3.4336
  22        3.4336
  23        9.7841
  24        9.7841
  25       13.7358
  26       13.7358
  27       14.0898
  28       14.0898
  29       16.0072
  30       16.0072
  31       20.8490
  32       21.8327
 
  0.3888889E+00  0.0000000E+00  0.0000000E+00  0.1286008E-03
   1       -3.4617
   2       -1.4038
   3        0.0185
   4        0.0185
   5        0.3646
   6        0.4748
   7        0.4748
   8        0.9514
   9        1.4564
  10        1.4564
  11        2.0530
  12        2.0530
  13        2.0886
  14        2.2784
  15        2.6247
  16        2.6247
  17        2.6846
  18        2.6846
  19        2.7840
  20        3.0156
  21        3.4337
  22        3.4337
  23       10.1729
  24       10.1729
  25       13.6224
  26       13.6224
  27       13.8258
  28       13.8258
  29       15.7682
  30       15.7682
  31       21.6725
  32       22.1999
 
  0.4166667E+00  0.0000000E+00  0.0000000E+00  0.1286008E-03
   1       -3.2017
   2       -1.6191
   3        0.0733
   4        0.0733
   5        0.4345
   6        0.5728
   7        0.5728
   8        0.8786
   9        1.3096
  10        1.3096
  11        2.0492
  12        2.1237
  13        2.1237
  14        2.1518
  15        2.5767
  16        2.5767
  17        2.6010
  18        2.6010
  19        2.8119
  20        2.9872
  21        3.4337
  22        3.4337
  23       10.5722
  24       10.5722
  25       13.1620
  26       13.1620
  27       13.9156
  28       13.9156
  29       15.5610
  30       15.5610
  31       22.4976
  32       22.5874
 
  0.4444444E+00  0.0000000E+00  0.0000000E+00  0.1286008E-03
   1       -2.9335
   2       -1.8593
   3        0.1151
   4        0.1151
   5        0.5065
   6        0.6780
   7        0.6780
   8        0.8044
   9        1.1695
  10        1.1695
  11        2.0185
  12        2.0675
  13        2.1976
  14        2.1976
  15        2.5176
  16        2.5176
  17        2.5397
  18        2.5397
  19        2.8406
  20        2.9582
  21        3.4338
  22        3.4338
  23       10.9814
  24       10.9814
  25       12.7092
  26       12.7092
  27       13.9970
  28       13.9970
  29       15.3948
  30       15.3948
  31       22.9942
  32       22.9942
 
  0.4722222E+00  0.0000000E+00  0.0000000E+00  0.1286008E-03
   1       -2.6604
   2       -2.1175
   3        0.1415
   4        0.1415
   5        0.5801
   6        0.7296
   7        0.7903
   8        0.7903
   9        1.0361
  10        1.0361
  11        2.0000
  12        2.0186
  13        2.2744
  14        2.2744
  15        2.4349
  16        2.4349
  17        2.5163
  18        2.5163
  19        2.8698
  20        2.9288
  21        3.4338
  22        3.4338
  23       11.4001
  24       11.4001
  25       12.2643
  26       12.2643
  27       14.0569
  28       14.0569
  29       15.2837
  30       15.2837
  31       23.4192
  32       23.4192
 
  0.5000000E+00  0.0000000E+00  0.0000000E+00  0.6430041E-04
   1       -2.3866
   2       -2.3866
   3        0.1505
   4        0.1505
   5        0.6546
   6        0.6546
   7        0.9096
   8        0.9096
   9        0.9096
  10        0.9096
  11        1.9982
  12        1.9982
  13        2.3537
  14        2.3537
  15        2.3537
  16        2.3537
  17        2.5083
  18        2.5083
  19        2.8993
  20        2.8993
  21        3.4338
  22        3.4338
  23       11.8278
  24       11.8278
  25       11.8278
  26       11.8278
  27       14.0796
  28       14.0796
  29       15.2439
  30       15.2439
  31       23.8617
  32       23.8617
 
  0.2777778E-01  0.2777778E-01  0.0000000E+00  0.2572016E-03
   1       -5.3648
   2       -0.7169
   3       -0.7169
   4       -0.7122
   5       -0.1687
   6       -0.1687
   7       -0.1685
   8        1.5371
   9        1.5468
  10        1.5481
  11        2.5608
  12        2.5652
  13        3.2339
  14        3.2365
  15        3.2365
  16        3.3893
  17        3.4045
  18        3.4045
  19        3.4280
  20        3.4280
  21        3.4298
  22        6.4368
  23        6.4368
  24        6.5322
  25       13.1819
  26       13.2617
  27       13.2617
  28       19.1018
  29       19.3004
  30       19.3004
  31       19.3348
  32       19.3348
 
  0.5555556E-01  0.2777778E-01  0.0000000E+00  0.5144033E-03
   1       -5.3336
   2       -0.7155
   3       -0.7012
   4       -0.6966
   5       -0.1596
   6       -0.1590
   7       -0.1589
   8        1.5274
   9        1.5542
  10        1.5562
  11        2.5521
  12        2.5682
  13        3.2217
  14        3.2233
  15        3.2320
  16        3.3246
  17        3.3372
  18        3.3900
  19        3.4135
  20        3.4280
  21        3.4281
  22        6.2560
  23        6.5311
  24        6.6254
  25       13.1909
  26       13.2713
  27       13.5008
  28       18.8113
  29       19.0845
  30       19.2113
  31       19.3468
  32       19.3679
 
  0.8333333E-01  0.2777778E-01  0.0000000E+00  0.5144033E-03
   1       -5.2819
   2       -0.7138
   3       -0.6754
   4       -0.6709
   5       -0.1445
   6       -0.1428
   7       -0.1427
   8        1.5103
   9        1.5676
  10        1.5697
  11        2.5366
  12        2.5744
  13        3.1965
  14        3.2013
  15        3.2223
  16        3.2243
  17        3.2386
  18        3.3664
  19        3.3896
  20        3.4276
  21        3.4280
  22        5.9810
  23        6.6798
  24        6.7728
  25       13.2059
  26       13.2873
  27       13.8734
  28       18.4520
  29       18.7636
  30       19.0182
  31       19.2401
  32       19.4243
 
  0.1111111E+00  0.2777778E-01  0.0000000E+00  0.5144033E-03
   1       -5.2097
   2       -0.7130
   3       -0.6398
   4       -0.6355
   5       -0.1234
   6       -0.1201
   7       -0.1200
   8        1.4864
   9        1.5865
  10        1.5885
  11        2.5150
  12        2.5831
  13        3.0921
  14        3.0933
  15        3.1732
  16        3.1810
  17        3.2132
  18        3.3341
  19        3.3567
  20        3.4275
  21        3.4280
  22        5.6397
  23        6.8734
  24        6.9654
  25       13.2272
  26       13.3100
  27       14.3525
  28       18.0458
  29       18.3723
  30       18.7706
  31       19.0313
  32       19.5321
 
  0.1388889E+00  0.2777778E-01  0.0000000E+00  0.5144033E-03
   1       -5.1171
   2       -0.7145
   3       -0.5951
   4       -0.5910
   5       -0.0965
   6       -0.0908
   7       -0.0907
   8        1.4560
   9        1.6109
  10        1.6126
  11        2.4876
  12        2.5943
  13        2.9427
  14        2.9436
  15        3.1376
  16        3.1432
  17        3.1977
  18        3.2945
  19        3.3153
  20        3.4275
  21        3.4281
  22        5.2575
  23        7.1035
  24        7.1950
  25       13.2548
  26       13.3396
  27       14.9141
  28       17.6097
  29       17.9367
  30       18.4838
  31       18.7637
  32       19.6685
 
  0.1666667E+00  0.2777778E-01  0.0000000E+00  0.5144033E-03
   1       -5.0046
   2       -0.7205
   3       -0.5419
   4       -0.5380
   5       -0.0640
   6       -0.0549
   7       -0.0549
   8        1.4194
   9        1.6405
  10        1.6418
  11        2.4550
  12        2.6078
  13        2.7805
  14        2.7809
  15        3.0949
  16        3.0998
  17        3.1751
  18        3.2506
  19        3.2660
  20        3.4275
  21        3.4281
  22        4.8552
  23        7.3628
  24        7.4546
  25       13.2891
  26       13.3763
  27       15.5391
  28       17.1556
  29       17.4747
  30       18.1720
  31       18.4575
  32       19.8368
 
  0.1944444E+00  0.2777778E-01  0.0000000E+00  0.5144033E-03
   1       -4.8724
   2       -0.7338
   3       -0.4811
   4       -0.4776
   5       -0.0261
   6       -0.0125
   7       -0.0124
   8        1.3769
   9        1.6753
  10        1.6762
  11        2.4176
  12        2.6102
  13        2.6119
  14        2.6236
  15        3.0458
  16        3.0503
  17        3.1386
  18        3.2096
  19        3.2096
  20        3.4276
  21        3.4282
  22        4.4496
  23        7.6460
  24        7.7390
  25       13.3301
  26       13.4205
  27       16.2135
  28       16.6918
  29       16.9978
  30       17.8467
  31       18.1288
  32       20.0275
 
  0.2222222E+00  0.2777778E-01  0.0000000E+00  0.5144033E-03
   1       -4.7211
   2       -0.7580
   3       -0.4141
   4       -0.4109
   5        0.0170
   6        0.0366
   7        0.0369
   8        1.3289
   9        1.7152
  10        1.7155
  11        2.3760
  12        2.4370
  13        2.4398
  14        2.6415
  15        2.9910
  16        2.9952
  17        3.0814
  18        3.1468
  19        3.1774
  20        3.4277
  21        3.4283
  22        4.0553
  23        7.9492
  24        8.0441
  25       13.3780
  26       13.4725
  27       16.2242
  28       16.5133
  29       16.9269
  30       17.5172
  31       17.7901
  32       20.2482
 
  0.2500000E+00  0.2777778E-01  0.0000000E+00  0.5144033E-03
   1       -4.5510
   2       -0.7977
   3       -0.3421
   4       -0.3392
   5        0.0650
   6        0.0924
   7        0.0928
   8        1.2758
   9        1.7596
  10        1.7601
  11        2.2636
  12        2.2673
  13        2.3311
  14        2.6614
  15        2.9317
  16        2.9356
  17        3.0052
  18        3.0786
  19        3.1499
  20        3.4278
  21        3.4283
  22        3.6869
  23        8.2694
  24        8.3670
  25       13.4327
  26       13.5325
  27       15.7566
  28       16.0262
  29       17.1910
  30       17.4507
  31       17.6715
  32       20.4948
 
  0.2777778E+00  0.2777778E-01  0.0000000E+00  0.5144033E-03
   1       -4.3631
   2       -0.8580
   3       -0.2669
   4       -0.2644
   5        0.1176
   6        0.1550
   7        0.1557
   8        1.2182
   9        1.8081
  10        1.8098
  11        2.0921
  12        2.0965
  13        2.2840
  14        2.6831
  15        2.8690
  16        2.8727
  17        2.9068
  18        3.0056
  19        3.1215
  20        3.3639
  21        3.4279
  22        3.4284
  23        8.6043
  24        8.7055
  25       13.4935
  26       13.6009
  27       15.2926
  28       15.5397
  29       16.8738
  30       17.1177
  31       18.4410
  32       20.7662
 
  0.3055556E+00  0.2777778E-01  0.0000000E+00  0.5144033E-03
   1       -4.1581
   2       -0.9442
   3       -0.1904
   4       -0.1882
   5        0.1745
   6        0.2244
   7        0.2254
   8        1.1564
   9        1.8607
  10        1.8642
  11        1.9240
  12        1.9288
  13        2.2359
  14        2.7065
  15        2.7693
  16        2.8047
  17        2.8081
  18        2.9289
  19        3.0672
  20        3.1378
  21        3.4280
  22        3.4285
  23        8.9525
  24        9.0581
  25       13.5579
  26       13.6775
  27       14.8364
  28       15.0560
  29       16.5702
  30       16.7965
  31       19.2300
  32       21.0616
 
  0.3333333E+00  0.2777778E-01  0.0000000E+00  0.5144033E-03
   1       -3.9370
   2       -1.0612
   3       -0.1151
   4       -0.1132
   5        0.2352
   6        0.3006
   7        0.3020
   8        1.0911
   9        1.7604
  10        1.7656
  11        1.9163
  12        1.9230
  13        2.1891
  14        2.5867
  15        2.7315
  16        2.7407
  17        2.7438
  18        2.8493
  19        2.9273
  20        3.0824
  21        3.4281
  22        3.4285
  23        9.3125
  24        9.4235
  25       13.6162
  26       13.7619
  27       14.3985
  28       14.5767
  29       16.2845
  30       16.4917
  31       20.0332
  32       21.3784
 
  0.3611111E+00  0.2777778E-01  0.0000000E+00  0.5144033E-03
   1       -3.7012
   2       -1.2119
   3       -0.0435
   4       -0.0418
   5        0.2994
   6        0.3838
   7        0.3857
   8        1.0228
   9        1.6021
  10        1.6075
  11        1.9719
  12        1.9861
  13        2.1477
  14        2.3999
  15        2.6794
  16        2.6821
  17        2.7578
  18        2.7675
  19        2.8124
  20        3.0518
  21        3.4282
  22        3.4285
  23        9.6835
  24        9.8007
  25       13.6104
  26       13.8529
  27       14.0373
  28       14.1031
  29       16.0208
  30       16.2073
  31       20.8435
  32       21.7209
 
  0.3888889E+00  0.2777778E-01  0.0000000E+00  0.5144033E-03
   1       -3.4525
   2       -1.3964
   3        0.0215
   4        0.0228
   5        0.3666
   6        0.4739
   7        0.4764
   8        0.9520
   9        1.4496
  10        1.4551
  11        2.0149
  12        2.0531
  13        2.1263
  14        2.2429
  15        2.6234
  16        2.6257
  17        2.6845
  18        2.7142
  19        2.7852
  20        3.0224
  21        3.4283
  22        3.4286
  23       10.0645
  24       10.1890
  25       13.3498
  26       13.6358
  27       13.9422
  28       13.9478
  29       15.7839
  30       15.9475
  31       21.6453
  32       22.0752
 
  0.4166667E+00  0.2777778E-01  0.0000000E+00  0.5144033E-03
   1       -3.1927
   2       -1.6115
   3        0.0766
   4        0.0777
   5        0.4364
   6        0.5711
   7        0.5742
   8        0.8793
   9        1.3034
  10        1.3088
  11        2.0171
  12        2.1237
  13        2.1253
  14        2.1550
  15        2.5757
  16        2.5775
  17        2.6009
  18        2.6228
  19        2.8136
  20        2.9928
  21        3.4284
  22        3.4286
  23       10.4548
  24       10.5877
  25       12.9454
  26       13.1756
  27       13.9994
  28       14.0414
  29       15.5810
  30       15.7177
  31       22.3593
  32       22.4518
 
  0.4444444E+00  0.2777778E-01  0.0000000E+00  0.5144033E-03
   1       -2.9247
   2       -1.8515
   3        0.1188
   4        0.1196
   5        0.5082
   6        0.6754
   7        0.6791
   8        0.8054
   9        1.1639
  10        1.1691
  11        1.9974
  12        2.0460
  13        2.1976
  14        2.2173
  15        2.5175
  16        2.5352
  17        2.5390
  18        2.5403
  19        2.8428
  20        2.9629
  21        3.4284
  22        3.4286
  23       10.8538
  24       10.9965
  25       12.5207
  26       12.7230
  27       14.0789
  28       14.1233
  29       15.4238
  30       15.5262
  31       22.8453
  32       22.8601
 
  0.4722222E+00  0.2777778E-01  0.0000000E+00  0.5144033E-03
   1       -2.6518
   2       -2.1094
   3        0.1454
   4        0.1459
   5        0.5816
   6        0.7307
   7        0.7868
   8        0.7910
   9        1.0311
  10        1.0362
  11        1.9822
  12        2.0000
  13        2.2744
  14        2.2904
  15        2.4349
  16        2.4505
  17        2.5160
  18        2.5166
  19        2.8725
  20        2.9328
  21        3.4285
  22        3.4286
  23       11.2609
  24       11.4147
  25       12.0957
  26       12.2784
  27       14.1487
  28       14.1774
  29       15.3294
  30       15.3860
  31       23.2541
  32       23.3017
 
  0.5000000E+00  0.2777778E-01  0.0000000E+00  0.2572016E-03
   1       -2.3783
   2       -2.3783
   3        0.1547
   4        0.1547
   5        0.6559
   6        0.6559
   7        0.9054
   8        0.9054
   9        0.9101
  10        0.9101
  11        1.9808
  12        1.9808
  13        2.3537
  14        2.3537
  15        2.3687
  16        2.3687
  17        2.5083
  18        2.5083
  19        2.9026
  20        2.9026
  21        3.4285
  22        3.4285
  23       11.6752
  24       11.6752
  25       11.8422
  26       11.8422
  27       14.1868
  28       14.1868
  29       15.3156
  30       15.3156
  31       23.6764
  32       23.7186
 
  0.5555556E-01  0.5555556E-01  0.0000000E+00  0.2572016E-03
   1       -5.3026
   2       -0.6997
   3       -0.6997
   4       -0.6812
   5       -0.1499
   6       -0.1499
   7       -0.1493
   8        1.5206
   9        1.5589
  10        1.5641
  11        2.5485
  12        2.5664
  13        3.2096
  14        3.2159
  15        3.2159
  16        3.2689
  17        3.3244
  18        3.3244
  19        3.4135
  20        3.4135
  21        3.4206
  22        6.3502
  23        6.3502
  24        6.7153
  25       13.1997
  26       13.5118
  27       13.5118
  28       18.4378
  29       19.1297
  30       19.1297
  31       19.2572
  32       19.2572
 
  0.8333333E-01  0.5555556E-01  0.0000000E+00  0.5144033E-03
   1       -5.2509
   2       -0.6979
   3       -0.6737
   4       -0.6557
   5       -0.1349
   6       -0.1338
   7       -0.1333
   8        1.5055
   9        1.5705
  10        1.5771
  11        2.5356
  12        2.5705
  13        3.1742
  14        3.1754
  15        3.1896
  16        3.2024
  17        3.2393
  18        3.3043
  19        3.3896
  20        3.4135
  21        3.4161
  22        6.0757
  23        6.4980
  24        6.8580
  25       13.2145
  26       13.5302
  27       13.8862
  28       18.0198
  29       18.8073
  30       19.0631
  31       19.2046
  32       19.3335
 
  0.1111111E+00  0.5555556E-01  0.0000000E+00  0.5144033E-03
   1       -5.1788
   2       -0.6968
   3       -0.6379
   4       -0.6205
   5       -0.1140
   6       -0.1113
   7       -0.1108
   8        1.4826
   9        1.5885
  10        1.5952
  11        2.5150
  12        2.5788
  13        3.0525
  14        3.0635
  15        3.1618
  16        3.1807
  17        3.1877
  18        3.2791
  19        3.3566
  20        3.4135
  21        3.4139
  22        5.7361
  23        6.6897
  24        7.0455
  25       13.2353
  26       13.5562
  27       14.3671
  28       17.5752
  29       18.4146
  30       18.8141
  31       19.3089
  32       19.3855
 
  0.1388889E+00  0.5555556E-01  0.0000000E+00  0.5144033E-03
   1       -5.0864
   2       -0.6980
   3       -0.5928
   4       -0.5763
   5       -0.0873
   6       -0.0822
   7       -0.0820
   8        1.4529
   9        1.6123
  10        1.6184
  11        2.4884
  12        2.5902
  13        2.9093
  14        2.9153
  15        3.1267
  16        3.1475
  17        3.1476
  18        3.2521
  19        3.3152
  20        3.4127
  21        3.4135
  22        5.3575
  23        6.9163
  24        7.2700
  25       13.2622
  26       13.5901
  27       14.9302
  28       17.1161
  29       17.9779
  30       18.5260
  31       19.1946
  32       19.4418
 
  0.1666667E+00  0.5555556E-01  0.0000000E+00  0.5144033E-03
   1       -4.9741
   2       -0.7035
   3       -0.5392
   4       -0.5237
   5       -0.0550
   6       -0.0466
   7       -0.0465
   8        1.4168
   9        1.6416
  10        1.6465
  11        2.4565
  12        2.6041
  13        2.7526
  14        2.7529
  15        3.0846
  16        3.1001
  17        3.1034
  18        3.2258
  19        3.2659
  20        3.4121
  21        3.4135
  22        4.9612
  23        7.1707
  24        7.5249
  25       13.2952
  26       13.6322
  27       15.5563
  28       16.6509
  29       17.5150
  30       18.2128
  31       18.9395
  32       19.6025
 
  0.1944444E+00  0.5555556E-01  0.0000000E+00  0.5144033E-03
   1       -4.8421
   2       -0.7163
   3       -0.4780
   4       -0.4637
   5       -0.0173
   6       -0.0047
   7       -0.0042
   8        1.3748
   9        1.6762
  10        1.6794
  11        2.4199
  12        2.5827
  13        2.5887
  14        2.6205
  15        3.0361
  16        3.0374
  17        3.0536
  18        3.2003
  19        3.2095
  20        3.4119
  21        3.4135
  22        4.5652
  23        7.4474
  24        7.8050
  25       13.3341
  26       13.6828
  27       16.1856
  28       16.2314
  29       17.0375
  30       17.8862
  31       18.6417
  32       19.7901
 
  0.2222222E+00  0.5555556E-01  0.0000000E+00  0.5144033E-03
   1       -4.6910
   2       -0.7401
   3       -0.4104
   4       -0.3974
   5        0.0255
   6        0.0436
   7        0.0447
   8        1.3274
   9        1.7160
  10        1.7169
  11        2.3794
  12        2.4100
  13        2.4205
  14        2.6391
  15        2.9590
  16        2.9821
  17        2.9984
  18        3.1467
  19        3.1743
  20        3.4117
  21        3.4135
  22        4.1853
  23        7.7424
  24        8.1064
  25       13.3782
  26       13.7423
  27       15.7249
  28       16.5526
  29       16.9450
  30       17.5557
  31       18.3185
  32       20.0035
 
  0.2500000E+00  0.5555556E-01  0.0000000E+00  0.5144033E-03
   1       -4.5213
   2       -0.7791
   3       -0.3378
   4       -0.3261
   5        0.0732
   6        0.0986
   7        0.1003
   8        1.2748
   9        1.7585
  10        1.7608
  11        2.2374