 vasp.4.6.28 25Jul05 complex 
 executed on             LinuxIFC date 2017.01.18  12:37:25
 running on    4 nodes
 distr:  one band on    1 nodes,    4 groups


--------------------------------------------------------------------------------------------------------


 INCAR:
 POTCAR:   PAW_PBE Ag 06Sep2000                   
 POTCAR:   PAW_PBE Ag 06Sep2000                   
   VRHFIN =Ag : s1 d10                                                          
   LEXCH  = PE                                                                  
   EATOM  =  1037.4134 eV,   76.2477 Ry                                         
                                                                                
   TITEL  = PAW_PBE Ag 06Sep2000                                                
   LULTRA =        F    use ultrasoft PP ?                                      
   IUNSCR =        1    unscreen: 0-lin 1-nonlin 2-no                           
   RPACOR =    2.000    partial core radius                                     
   POMASS =  107.868; ZVAL   =   11.000    mass and valenz                      
   RCORE  =    2.400    outmost cutoff radius                                   
   RWIGS  =    2.840; RWIGS  =    1.503    wigner-seitz radius (au A)           
   ENMAX  =  249.846; ENMIN  =  187.385 eV                                      
   RCLOC  =    1.962    cutoff for local pot                                    
   LCOR   =        T    correct aug charges                                     
   LPAW   =        T    paw PP                                                  
   EAUG   =  412.496                                                            
   DEXC   =    -.047                                                            
   RMAX   =    2.917    core radius for proj-oper                               
   RAUG   =    1.300    factor for augmentation sphere                          
   RDEP   =    2.416    radius for radial grids                                 
   QCUT   =   -4.285; QGAM   =    8.570    optimization parameters              
                                                                                
   Description                                                                  
     l     E      TYP  RCUT    TYP  RCUT                                        
     2   .000     23  2.400                                                     
     2   .000     23  2.400                                                     
     0   .000     23  2.400                                                     
     0   .000     23  2.400                                                     
     1  -.200     23  2.400                                                     
     1  1.500     23  2.400                                                     
     3   .000      7   .000                                                     
  local pseudopotential read in
  partial core-charges read in
  atomic valenz-charges read in
  non local Contribution for L=           2  read in
    real space projection operators read in
  non local Contribution for L=           2  read in
    real space projection operators read in
  non local Contribution for L=           0  read in
    real space projection operators read in
  non local Contribution for L=           0  read in
    real space projection operators read in
  non local Contribution for L=           1  read in
    real space projection operators read in
  non local Contribution for L=           1  read in
    real space projection operators read in
    PAW grid and wavefunctions read in
 
   number of l-projection  operators is LMAX  =           6
   number of lm-projection operators is LMMAX =          18
 

 ----------------------------------------------------------------------------- 
|                                                                             |
|  ADVICE TO THIS USER RUNNING 'VASP/VAMP'   (HEAR YOUR MASTER'S VOICE ...):  |
|                                                                             |
|      You have a (more or less) 'large supercell' and for larger cells       |
|      it might be more efficient to use real space projection operators      |
|      So try LREAL= Auto  in the INCAR   file.                               |
|      Mind: If you want to do an extremely accurate calculations keep the    |
|      reciprocal projection scheme          (i.e. LREAL=.FALSE.)             |
|                                                                             |
 ----------------------------------------------------------------------------- 

 PAW_PBE Ag 06Sep2000                   :
 energy of atom  1       EATOM=-1037.4134
 kinetic energy error for atom=    0.0019 (will be added to EATOM!!)
 
 EXHCAR: internal setup
 exchange correlation table for  LEXCH =        8
   RHO(1)=    0.500       N(1)  =     2000
   RHO(2)=  100.500       N(2)  =     4000
 
 POSCAR: No title                                
  positions in direct lattice
  No initial velocities read in
 


--------------------------------------------------------------------------------------------------------


 ion  position               nearest neighbor table
   1  0.750  0.750  0.500-   3 3.00   5 3.00  14 3.00  19 3.00  20 3.00  26 3.00   6 3.00  29 3.00
                            11 3.00  18 3.00  10 3.00   8 3.00
   2  0.750  0.750  0.000-   8 3.00  10 3.00  11 3.00  18 3.00  22 3.00  27 3.00  32 3.00   5 3.00
                            26 3.00   3 3.00  20 3.00  12 3.02
   3  0.750  0.000  0.250-   1 3.00   5 3.00   9 3.00  19 3.00  28 3.00  13 3.00  18 3.00  27 3.00
                             6 3.00   2 3.00   4 3.00  12 3.02
   4  0.750  0.250  0.500-   6 3.00   8 3.00  10 3.00  13 3.00  29 3.00  31 3.00  14 3.00  19 3.00
                            21 3.00  28 3.00   3 3.00  20 3.00
   5  0.000  0.750  0.250-   1 3.00   3 3.00  14 3.00  15 3.00  25 3.00  16 3.00  10 3.00   7 3.00
                             2 3.00  22 3.00   6 3.00  12 3.00
   6  0.000  0.000  0.500-   4 3.00   7 3.00   8 3.00  11 3.00  13 3.00  16 3.00   1 3.00  17 3.00
                             3 3.00  23 3.00  21 3.00   5 3.00
   7  0.250  0.750  0.500-   6 3.00  11 3.00  16 3.00  18 3.00  29 3.00  30 3.00  14 3.00  19 3.00
                             5 3.00  26 3.00  25 3.00  23 3.00
   8  0.750  0.000  0.750-   2 3.00   4 3.00   6 3.00  11 3.00  27 3.00  31 3.00  21 3.00  26 3.00
                            19 3.00   1 3.00   9 3.00  12 3.02
   9  0.750  0.250  0.000-   3 3.00  20 3.00  21 3.00  28 3.00  32 3.00  22 3.00  27 3.00  31 3.00
                            13 3.00   8 3.00  10 3.00  12 3.02
  10  0.750  0.500  0.250-   2 3.00   4 3.00  13 3.00  18 3.00  22 3.00  29 3.00  28 3.00   5 3.00
                            14 3.00  32 3.00   9 3.00   1 3.00
  11  0.000  0.750  0.750-   2 3.00   6 3.00   7 3.00   8 3.00  22 3.00  30 3.00  23 3.00  20 3.00
                             1 3.00  15 3.00  14 3.00  12 3.00
  12  0.002  0.000  0.000-  15 2.99  23 2.99  16 2.99  24 2.99   5 3.00  21 3.00  13 3.00  11 3.00
                             9 3.02   3 3.02   2 3.02   8 3.02
  13  0.000  0.250  0.250-   4 3.00   6 3.00  10 3.00  16 3.00  22 3.00  24 3.00   3 3.00  25 3.00
                            17 3.00   9 3.00  14 3.00  12 3.00
  14  0.000  0.500  0.500-   1 3.00   5 3.00  17 3.00  20 3.00  21 3.00  25 3.00   4 3.00   7 3.00
                            10 3.00  30 3.00  13 3.00  11 3.00
  15  0.250  0.750  0.000-  12 2.99   5 3.00  23 3.00  25 3.00  26 3.00  32 3.00  27 3.00  22 3.00
                            11 3.00  18 3.00  30 3.00  16 3.00
  16  0.250  0.000  0.250-  12 2.99   7 3.00   6 3.00  13 3.00  18 3.00  24 3.00  27 3.00   5 3.00
                            28 3.00  19 3.00  17 3.00  15 3.00
  17  0.250  0.250  0.500-  14 3.00  19 3.00  21 3.00  23 3.00  25 3.00  28 3.00   6 3.00  29 3.00
                            13 3.00  31 3.00  30 3.00  16 3.00
  18  0.500  0.750  0.250-   2 3.00   7 3.00  10 3.00  16 3.00  27 3.00  29 3.00   3 3.00  25 3.00
                             1 3.00  15 3.00  19 3.00  32 3.00
  19  0.500  0.000  0.500-   1 3.00   3 3.00  17 3.00  23 3.00  26 3.00  28 3.00   4 3.00   7 3.00
                             8 3.00  16 3.00  18 3.00  31 3.00
  20  0.750  0.500  0.750-   1 3.00   9 3.00  14 3.00  21 3.00  26 3.00  32 3.00  31 3.00  11 3.00
                            22 3.00  29 3.00   4 3.00   2 3.00
  21  0.000  0.250  0.750-   9 3.00  14 3.00  17 3.00  20 3.00  23 3.00   8 3.00  30 3.00  24 3.00
                             4 3.00  22 3.00   6 3.00  12 3.00
  22  0.000  0.500  0.000-   2 3.00  10 3.00  11 3.00  13 3.00  24 3.00  30 3.00   9 3.00  15 3.00
                            25 3.00  20 3.00  21 3.00   5 3.00
  23  0.250  0.000  0.750-  12 2.99  15 3.00  17 3.00  19 3.00  21 3.00  26 3.00  11 3.00  31 3.00
                            27 3.00   6 3.00  24 3.00   7 3.00
  24  0.250  0.250  0.000-  12 2.99  13 3.00  16 3.00  22 3.00  27 3.00  30 3.00  31 3.00  32 3.00
                            28 3.00  21 3.00  25 3.00  23 3.00
  25  0.250  0.500  0.250-   5 3.00  14 3.00  15 3.00  17 3.00  28 3.00  32 3.00  13 3.00  18 3.00
                            29 3.00  22 3.00  24 3.00   7 3.00
  26  0.500  0.750  0.750-   1 3.00  15 3.00  19 3.00  20 3.00  23 3.00  32 3.00  30 3.00   8 3.00
                             7 3.00   2 3.00  27 3.00  29 3.00
  27  0.500  0.000  0.000-   2 3.00   8 3.00  16 3.00  18 3.00  24 3.00  31 3.00   9 3.00  15 3.00
                             3 3.00  23 3.00  28 3.00  26 3.00
  28  0.500  0.250  0.250-   3 3.00   9 3.00  17 3.00  19 3.00  25 3.00  32 3.00  10 3.00  16 3.00
                             4 3.00  24 3.00  29 3.00  27 3.00
  29  0.500  0.500  0.500-   4 3.00   7 3.00  10 3.00  18 3.00  30 3.00  31 3.00  17 3.00   1 3.00
                            20 3.00  25 3.00  26 3.00  28 3.00
  30  0.250  0.500  0.750-   7 3.00  11 3.00  22 3.00  24 3.00  29 3.00  31 3.00  21 3.00  26 3.00
                            14 3.00  32 3.00  17 3.00  15 3.00
  31  0.500  0.250  0.750-   4 3.00   8 3.00  24 3.00  27 3.00  29 3.00  30 3.00  20 3.00  23 3.00
                             9 3.00  17 3.00  19 3.00  32 3.00
  32  0.500  0.500  0.000-   9 3.00  15 3.00  20 3.00  25 3.00  26 3.00  28 3.00  24 3.00   2 3.00
                            10 3.00  30 3.00  18 3.00  31 3.00
 
  LATTYP: Found a simple cubic cell.
 ALAT       =     8.4940890200
  
  Lattice vectors:
  
 A1 = (   8.4940890200,   0.0000000000,   0.0000000000)
 A2 = (   0.0000001600,   8.4940890200,   0.0000000000)
 A3 = (   0.0000001600,   0.0000001600,   8.4940890200)
 Subroutine PRICEL returns:
 Original cell was already a primitive cell.
 

Analysis of symmetry for initial positions (statically):

 Routine SETGRP: Setting up the symmetry group for a 
 simple cubic supercell.


 Subroutine GETGRP returns: Found  8 space group operations
 (whereof  8 operations were pure point group operations)
 out of a pool of 48 trial point group operations.


The static configuration has the point symmetry C_4v.

Analysis of symmetry for dynamics (positions and initial velocities):

 Subroutine DYNSYM returns: Found  8 space group operations
 (whereof  8 operations were pure point group operations)
 out of a pool of  8 trial space group operations
 (whereof  8 operations were pure point group operations)
 and found also     1 'primitive' translations


The dynamic configuration has the point symmetry C_4v.
 
 
 KPOINTS: Automatic mesh                          

Automatic generation of k-mesh.
 
 Subroutine IBZKPT returns following result:
 ===========================================
 
 Found     40 irreducible k-points:
 
 Following reciprocal coordinates:
            Coordinates               Weight
  0.062500  0.062500  0.062500      8.000000
  0.187500  0.062500  0.062500      8.000000
  0.312500  0.062500  0.062500      8.000000
  0.437500  0.062500  0.062500      8.000000
  0.062500  0.187500  0.062500     16.000000
  0.187500  0.187500  0.062500     16.000000
  0.312500  0.187500  0.062500     16.000000
  0.437500  0.187500  0.062500     16.000000
  0.062500  0.312500  0.062500     16.000000
  0.187500  0.312500  0.062500     16.000000
  0.312500  0.312500  0.062500     16.000000
  0.437500  0.312500  0.062500     16.000000
  0.062500  0.437500  0.062500     16.000000
  0.187500  0.437500  0.062500     16.000000
  0.312500  0.437500  0.062500     16.000000
  0.437500  0.437500  0.062500     16.000000
  0.062500  0.187500  0.187500      8.000000
  0.187500  0.187500  0.187500      8.000000
  0.312500  0.187500  0.187500      8.000000
  0.437500  0.187500  0.187500      8.000000
  0.062500  0.312500  0.187500     16.000000
  0.187500  0.312500  0.187500     16.000000
  0.312500  0.312500  0.187500     16.000000
  0.437500  0.312500  0.187500     16.000000
  0.062500  0.437500  0.187500     16.000000
  0.187500  0.437500  0.187500     16.000000
  0.312500  0.437500  0.187500     16.000000
  0.437500  0.437500  0.187500     16.000000
  0.062500  0.312500  0.312500      8.000000
  0.187500  0.312500  0.312500      8.000000
  0.312500  0.312500  0.312500      8.000000
  0.437500  0.312500  0.312500      8.000000
  0.062500  0.437500  0.312500     16.000000
  0.187500  0.437500  0.312500     16.000000
  0.312500  0.437500  0.312500     16.000000
  0.437500  0.437500  0.312500     16.000000
  0.062500  0.437500  0.437500      8.000000
  0.187500  0.437500  0.437500      8.000000
  0.312500  0.437500  0.437500      8.000000
  0.437500  0.437500  0.437500      8.000000
 
 Following cartesian coordinates:
            Coordinates               Weight
  0.007358  0.007358  0.007358      8.000000
  0.022074  0.007358  0.007358      8.000000
  0.036790  0.007358  0.007358      8.000000
  0.051506  0.007358  0.007358      8.000000
  0.007358  0.022074  0.007358     16.000000
  0.022074  0.022074  0.007358     16.000000
  0.036790  0.022074  0.007358     16.000000
  0.051506  0.022074  0.007358     16.000000
  0.007358  0.036790  0.007358     16.000000
  0.022074  0.036790  0.007358     16.000000
  0.036790  0.036790  0.007358     16.000000
  0.051506  0.036790  0.007358     16.000000
  0.007358  0.051506  0.007358     16.000000
  0.022074  0.051506  0.007358     16.000000
  0.036790  0.051506  0.007358     16.000000
  0.051506  0.051506  0.007358     16.000000
  0.007358  0.022074  0.022074      8.000000
  0.022074  0.022074  0.022074      8.000000
  0.036790  0.022074  0.022074      8.000000
  0.051506  0.022074  0.022074      8.000000
  0.007358  0.036790  0.022074     16.000000
  0.022074  0.036790  0.022074     16.000000
  0.036790  0.036790  0.022074     16.000000
  0.051506  0.036790  0.022074     16.000000
  0.007358  0.051506  0.022074     16.000000
  0.022074  0.051506  0.022074     16.000000
  0.036790  0.051506  0.022074     16.000000
  0.051506  0.051506  0.022074     16.000000
  0.007358  0.036790  0.036790      8.000000
  0.022074  0.036790  0.036790      8.000000
  0.036790  0.036790  0.036790      8.000000
  0.051506  0.036790  0.036790      8.000000
  0.007358  0.051506  0.036790     16.000000
  0.022074  0.051506  0.036790     16.000000
  0.036790  0.051506  0.036790     16.000000
  0.051506  0.051506  0.036790     16.000000
  0.007358  0.051506  0.051506      8.000000
  0.022074  0.051506  0.051506      8.000000
  0.036790  0.051506  0.051506      8.000000
  0.051506  0.051506  0.051506      8.000000
 


--------------------------------------------------------------------------------------------------------




 Dimension of arrays:
   k-Points           NKPTS =     40   number of bands    NBANDS=    212
   number of dos      NEDOS =    301   number of ions     NIONS =     32
   non local maximal  LDIM  =      6   non local SUM 2l+1 LMDIM =     18
   total plane-waves  NPLWV = 343000
   max r-space proj   IRMAX =      1   max aug-charges    IRDMAX= 220326
   dimension x,y,z NGX =    70 NGY =   70 NGZ =   70
   dimension x,y,z NGXF=   140 NGYF=  140 NGZF=  140
   support grid    NGXF=   280 NGYF=  280 NGZF=  280
   ions per type =              32
 NGX,Y,Z   is equivalent  to a cutoff of  13.70, 13.70, 13.70 a.u.
 NGXF,Y,Z  is equivalent  to a cutoff of  27.40, 27.40, 27.40 a.u.


 I would recommend the setting:
   dimension x,y,z NGX =    68 NGY =   68 NGZ =   68
 SYSTEM =  No title                                
 POSCAR =  No title                                

 Startparameter for this run:
   NWRITE =      2    write-flag & timer
   PREC   = accura    medium, high low
   ISTART =      1    job   : 0-new  1-cont  2-samecut
   ICHARG =      0    charge: 1-file 2-atom 10-const
   ISPIN  =      1    spin polarized calculation?
   LNONCOLLINEAR =      F non collinear calculations
   LSORBIT =      F    spin-orbit coupling
   INIWAV =      1    electr: 0-lowe 1-rand  2-diag
   LASPH  =      F    aspherical Exc in radial PAW
   METAGGA=      F    non-selfconsistent MetaGGA calc.

 Electronic Relaxation 1
   ENCUT  =  600.0 eV  44.10 Ry    6.64 a.u.  16.96 16.96 16.96*2*pi/ulx,y,z
   ENINI  =  600.0     initial cutoff
   ENAUG  =  412.5 eV  augmentation charge cutoff
   NELM   =     60;   NELMIN=  2; NELMDL=  0     # of ELM steps 
   EDIFF  = 0.1E-04   stopping-criterion for ELM
   LREAL  =      F    real-space projection
   LCOMPAT=      F    compatible to vasp.4.4
   LREAL_COMPAT= F    compatible to vasp.4.5.1-3
   GGA_COMPAT  = T    GGA compatible to vasp.4.4-vasp.4.6
   LMAXPAW     = -100 max onsite density
   LMAXMIX     =    2 max onsite mixed and CHGCAR
   VOSKOWN=      1    Vosko Wilk Nusair interpolation
   ROPT   =    0.00000
 Ionic relaxation
   EDIFFG = -.2E-01   stopping-criterion for IOM
   NSW    =      0    number of steps for IOM
   NBLOCK =      1;   KBLOCK =      1    inner block; outer block 
   IBRION =     -1    ionic relax: 0-MD 1-quasi-New 2-CG
   NFREE  =      0    steps in history (QN), initial steepest desc. (CG)
   ISIF   =      2    stress and relaxation
   IWAVPR =     10    prediction:  0-non 1-charg 2-wave 3-comb
   ISYM   =      2    0-nonsym 1-usesym 2-fastsym
   LCORR  =      T    Harris-Foulkes like correction to forces

   POTIM  =   0.50    time-step for ionic-motion
   TEIN   =    0.0    initial temperature
   TEBEG  =    0.0;   TEEND  =   0.0 temperature during run
   SMASS  =  -3.00    Nose mass-parameter (am)
   estimated Nose-frequenzy (Omega)   =  0.10E-29 period in steps =****** mass=  -0.165E-26a.u.
   NPACO  =    256;   APACO  = 16.0  distance and # of slots for P.C.
   PSTRESS=    0.0 pullay stress

  Mass of Ions in am
   POMASS = 107.87
  Ionic Valenz
   ZVAL   =  11.00
  Atomic Wigner-Seitz radii
   RWIGS  =   1.34
   NELECT =     352.0000    total number of electrons
   NUPDOWN=      -1.0000    fix difference up-down

 DOS related values:
   EMIN   =  10.00;   EMAX   =-10.00  energy-range for DOS
   ISMEAR =     1;   SIGMA  =   0.20  broadening in eV -4-tet -1-fermi 0-gaus

 Electronic relaxation 2 (details)
   IALGO  =     48    algorithm
   LDIAG  =      T    sub-space diagonalisation
   IMIX   =      4    mixing-type and parameters
     AMIX     =   0.40;   BMIX     =  1.00
     AMIX_MAG =   1.60;   BMIX_MAG =  1.00
     AMIN     =   0.10
     WC   =   100.;   INIMIX=   1;  MIXPRE=   1

 Intra band minimization:
   WEIMIN = 0.0000     energy-eigenvalue tresh-hold
   EBREAK =  0.12E-07  absolut break condition
   DEPER  =   0.30     relativ break condition  

   TIME   =   0.10     timestep for ELM

  volume/ion in A,a.u.               =      19.15       129.24
  Fermi-wavevector in a.u.,eV,Ry     =   1.360835 25.196259  1.851873

 Second variation
   LSECVAR=     F    do a second variation
 
 Write flags
   LWAVE  =      F    write WAVECAR
   LCHARG =      F    write CHGCAR
   LVTOT  =      F    write LOCPOT, local potential
   LELF   =      F    write electronic localiz. function (ELF)
   LORBIT =      0    0 simple, 1 ext, 2 COOP (PROOUT)


 Dipole corrections
   IDIPOL =      0    1-x, 2-y, 3-z
   LDIPOL =      F    correct potential



--------------------------------------------------------------------------------------------------------


 Static calculation
 charge density will be updated during run
 non-spin polarized calculation
 RMM-DIIS sequential band-by-band
 performe sub-space diagonalisation
    before iterative eigenvector-optimisation
 modified Broyden-mixing scheme, WC =      100.0
 initial mixing is a Kerker type mixing with AMIX =  0.4000 and BMIX =      1.0000
 Hartree-type preconditioning will be used
 using additional bands           36
 reciprocal scheme for non local part
 use partial core corrections
 calculate Harris-corrections to forces 
   (improved forces if not selfconsistent)
 use gradient corrections 
 use of overlap-Matrix (Vanderbilt PP)
 Methfessel and Paxton  Order N= 1 SIGMA  =   0.20


--------------------------------------------------------------------------------------------------------


  energy-cutoff  :      600.00
  volume of cell :      612.84
      direct lattice vectors                 reciprocal lattice vectors
     8.494089020  0.000000000  0.000000000     0.117728929 -0.000000002 -0.000000002
     0.000000160  8.494089020  0.000000000     0.000000000  0.117728929 -0.000000002
     0.000000160  0.000000160  8.494089020     0.000000000  0.000000000  0.117728929

  length of vectors
     8.494089020  8.494089020  8.494089020     0.117728929  0.117728929  0.117728929


 
 old parameters found on file WAVECAR:
  energy-cutoff  :      600.00
  volume of cell :      612.84
      direct lattice vectors                 reciprocal lattice vectors
     8.494089020  0.000000000  0.000000000     0.117728929 -0.000000002 -0.000000002
     0.000000160  8.494089020  0.000000000     0.000000000  0.117728929 -0.000000002
     0.000000160  0.000000160  8.494089020     0.000000000  0.000000000  0.117728929

  length of vectors

 
 k-points in units of 2pi/SCALE and weight: Automatic mesh                          
   0.00735806  0.00735806  0.00735806       0.016
   0.02207417  0.00735806  0.00735806       0.016
   0.03679029  0.00735806  0.00735806       0.016
   0.05150641  0.00735806  0.00735806       0.016
   0.00735806  0.02207417  0.00735806       0.031
   0.02207417  0.02207417  0.00735806       0.031
   0.03679029  0.02207417  0.00735806       0.031
   0.05150641  0.02207417  0.00735806       0.031
   0.00735806  0.03679029  0.00735806       0.031
   0.02207417  0.03679029  0.00735806       0.031
   0.03679029  0.03679029  0.00735806       0.031
   0.05150641  0.03679029  0.00735806       0.031
   0.00735806  0.05150641  0.00735806       0.031
   0.02207417  0.05150641  0.00735806       0.031
   0.03679029  0.05150641  0.00735806       0.031
   0.05150641  0.05150641  0.00735806       0.031
   0.00735806  0.02207417  0.02207417       0.016
   0.02207417  0.02207417  0.02207417       0.016
   0.03679029  0.02207417  0.02207417       0.016
   0.05150641  0.02207417  0.02207417       0.016
   0.00735806  0.03679029  0.02207417       0.031
   0.02207417  0.03679029  0.02207417       0.031
   0.03679029  0.03679029  0.02207417       0.031
   0.05150641  0.03679029  0.02207417       0.031
   0.00735806  0.05150641  0.02207417       0.031
   0.02207417  0.05150641  0.02207417       0.031
   0.03679029  0.05150641  0.02207417       0.031
   0.05150641  0.05150641  0.02207417       0.031
   0.00735806  0.03679029  0.03679029       0.016
   0.02207417  0.03679029  0.03679029       0.016
   0.03679029  0.03679029  0.03679029       0.016
   0.05150641  0.03679029  0.03679029       0.016
   0.00735806  0.05150641  0.03679029       0.031
   0.02207417  0.05150641  0.03679029       0.031
   0.03679029  0.05150641  0.03679029       0.031
   0.05150641  0.05150641  0.03679029       0.031
   0.00735806  0.05150641  0.05150641       0.016
   0.02207417  0.05150641  0.05150640       0.016
   0.03679029  0.05150641  0.05150640       0.016
   0.05150641  0.05150641  0.05150640       0.016
 
 k-points in reciprocal lattice and weights: Automatic mesh                          
   0.06250000  0.06250000  0.06250000       0.016
   0.18750000  0.06250000  0.06250000       0.016
   0.31250000  0.06250000  0.06250000       0.016
   0.43750000  0.06250000  0.06250000       0.016
   0.06250000  0.18750000  0.06250000       0.031
   0.18750000  0.18750000  0.06250000       0.031
   0.31250000  0.18750000  0.06250000       0.031
   0.43750000  0.18750000  0.06250000       0.031
   0.06250000  0.31250000  0.06250000       0.031
   0.18750000  0.31250000  0.06250000       0.031
   0.31250000  0.31250000  0.06250000       0.031
   0.43750000  0.31250000  0.06250000       0.031
   0.06250000  0.43750000  0.06250000       0.031
   0.18750000  0.43750000  0.06250000       0.031
   0.31250000  0.43750000  0.06250000       0.031
   0.43750000  0.43750000  0.06250000       0.031
   0.06250000  0.18750000  0.18750000       0.016
   0.18750000  0.18750000  0.18750000       0.016
   0.31250000  0.18750000  0.18750000       0.016
   0.43750000  0.18750000  0.18750000       0.016
   0.06250000  0.31250000  0.18750000       0.031
   0.18750000  0.31250000  0.18750000       0.031
   0.31250000  0.31250000  0.18750000       0.031
   0.43750000  0.31250000  0.18750000       0.031
   0.06250000  0.43750000  0.18750000       0.031
   0.18750000  0.43750000  0.18750000       0.031
   0.31250000  0.43750000  0.18750000       0.031
   0.43750000  0.43750000  0.18750000       0.031
   0.06250000  0.31250000  0.31250000       0.016
   0.18750000  0.31250000  0.31250000       0.016
   0.31250000  0.31250000  0.31250000       0.016
   0.43750000  0.31250000  0.31250000       0.016
   0.06250000  0.43750000  0.31250000       0.031
   0.18750000  0.43750000  0.31250000       0.031
   0.31250000  0.43750000  0.31250000       0.031
   0.43750000  0.43750000  0.31250000       0.031
   0.06250000  0.43750000  0.43750000       0.016
   0.18750000  0.43750000  0.43750000       0.016
   0.31250000  0.43750000  0.43750000       0.016
   0.43750000  0.43750000  0.43750000       0.016
 
 position of ions in fractional coordinates (direct lattice) 
   0.75000000  0.75000000  0.50000000
   0.75000000  0.75000000  0.00000000
   0.75000000  0.00000000  0.25000000
   0.75000000  0.25000000  0.50000000
   0.00000000  0.75000000  0.25000000
   0.00000000  0.00000000  0.50000000
   0.25000000  0.75000000  0.50000000
   0.75000000  0.00000000  0.75000000
   0.75000000  0.25000000  0.00000000
   0.75000000  0.50000000  0.25000000
   0.00000000  0.75000000  0.75000000
   0.00235500  0.00000000  0.00000000
   0.00000000  0.25000000  0.25000000
   0.00000000  0.50000000  0.50000000
   0.25000000  0.75000000  0.00000000
   0.25000000  0.00000000  0.25000000
   0.25000000  0.25000000  0.50000000
   0.50000000  0.75000000  0.25000000
   0.50000000  0.00000000  0.50000000
   0.75000000  0.50000000  0.75000000
   0.00000000  0.25000000  0.75000000
   0.00000000  0.50000000  0.00000000
   0.25000000  0.00000000  0.75000000
   0.25000000  0.25000000  0.00000000
   0.25000000  0.50000000  0.25000000
   0.50000000  0.75000000  0.75000000
   0.50000000  0.00000000  0.00000000
   0.50000000  0.25000000  0.25000000
   0.50000000  0.50000000  0.50000000
   0.25000000  0.50000000  0.75000000
   0.50000000  0.25000000  0.75000000
   0.50000000  0.50000000  0.00000000
 
 position of ions in cartesian coordinates  (Angst):
   6.37056697  6.37056685  4.24704451
   6.37056689  6.37056677  0.00000000
   6.37056681  0.00000004  2.12352226
   6.37056689  2.12352234  4.24704451
   0.00000016  6.37056681  2.12352226
   0.00000008  0.00000008  4.24704451
   2.12352246  6.37056685  4.24704451
   6.37056689  0.00000012  6.37056677
   6.37056681  2.12352226  0.00000000
   6.37056689  4.24704455  2.12352226
   0.00000024  6.37056689  6.37056677
   0.02000358  0.00000000  0.00000000
   0.00000008  2.12352230  2.12352226
   0.00000016  4.24704459  4.24704451
   2.12352238  6.37056677  0.00000000
   2.12352230  0.00000004  2.12352226
   2.12352238  2.12352234  4.24704451
   4.24704467  6.37056681  2.12352226
   4.24704459  0.00000008  4.24704451
   6.37056697  4.24704463  6.37056677
   0.00000016  2.12352238  6.37056677
   0.00000008  4.24704451  0.00000000
   2.12352238  0.00000012  6.37056677
   2.12352230  2.12352226  0.00000000
   2.12352238  4.24704455  2.12352226
   4.24704475  6.37056689  6.37056677
   4.24704451  0.00000000  0.00000000
   4.24704459  2.12352230  2.12352226
   4.24704467  4.24704459  4.24704451
   2.12352246  4.24704463  6.37056677
   4.24704467  2.12352238  6.37056677
   4.24704459  4.24704451  0.00000000
 


--------------------------------------------------------------------------------------------------------


 k-point  1 :  0.06250.06250.0625  plane waves:  20392
 k-point  2 :  0.18750.06250.0625  plane waves:  20420
 k-point  3 :  0.31250.06250.0625  plane waves:  20434
 k-point  4 :  0.43750.06250.0625  plane waves:  20413
 k-point  5 :  0.06250.18750.0625  plane waves:  20420
 k-point  6 :  0.18750.18750.0625  plane waves:  20424
 k-point  7 :  0.31250.18750.0625  plane waves:  20453
 k-point  8 :  0.43750.18750.0625  plane waves:  20458
 k-point  9 :  0.06250.31250.0625  plane waves:  20434
 k-point 10 :  0.18750.31250.0625  plane waves:  20453
 k-point 11 :  0.31250.31250.0625  plane waves:  20445
 k-point 12 :  0.43750.31250.0625  plane waves:  20483
 k-point 13 :  0.06250.43750.0625  plane waves:  20413
 k-point 14 :  0.18750.43750.0625  plane waves:  20458
 k-point 15 :  0.31250.43750.0625  plane waves:  20483
 k-point 16 :  0.43750.43750.0625  plane waves:  20473
 k-point 17 :  0.06250.18750.1875  plane waves:  20424
 k-point 18 :  0.18750.18750.1875  plane waves:  20452
 k-point 19 :  0.31250.18750.1875  plane waves:  20457
 k-point 20 :  0.43750.18750.1875  plane waves:  20458
 k-point 21 :  0.06250.31250.1875  plane waves:  20453
 k-point 22 :  0.18750.31250.1875  plane waves:  20457
 k-point 23 :  0.31250.31250.1875  plane waves:  20448
 k-point 24 :  0.43750.31250.1875  plane waves:  20464
 k-point 25 :  0.06250.43750.1875  plane waves:  20458
 k-point 26 :  0.18750.43750.1875  plane waves:  20458
 k-point 27 :  0.31250.43750.1875  plane waves:  20464
 k-point 28 :  0.43750.43750.1875  plane waves:  20469
 k-point 29 :  0.06250.31250.3125  plane waves:  20445
 k-point 30 :  0.18750.31250.3125  plane waves:  20448
 k-point 31 :  0.31250.31250.3125  plane waves:  20471
 k-point 32 :  0.43750.31250.3125  plane waves:  20462
 k-point 33 :  0.06250.43750.3125  plane waves:  20483
 k-point 34 :  0.18750.43750.3125  plane waves:  20464
 k-point 35 :  0.31250.43750.3125  plane waves:  20462
 k-point 36 :  0.43750.43750.3125  plane waves:  20444
 k-point 37 :  0.06250.43750.4375  plane waves:  20473
 k-point 38 :  0.18750.43750.4375  plane waves:  20469
 k-point 39 :  0.31250.43750.4375  plane waves:  20444
 k-point 40 :  0.43750.43750.4375  plane waves:  20474

 maximum and minimum number of plane-waves per node :  20483 20392

 maximum number of plane-waves:  20483
 maximal index in each direction: 
   IXMAX= 16   IYMAX= 16   IZMAX= 16
   IXMIN=-17   IYMIN=-17   IZMIN=-17

 NGX is ok and might be reduce to  68
 NGY is ok and might be reduce to  68
 NGZ is ok and might be reduce to  68

 parallel 3dFFT wavefunction:
    minimum data exchange during FFTs selected (reduces bandwidth)
 parallel 3dFFT charge:
    minimum data exchange during FFTs selected (reduces bandwidth)

 For storing wavefunctions 2774.85 MBYTES are necessary
 For predicting wavefunctions  149.79 MBYTES are necessary
Broyden mixing: mesh for mixing (old mesh)
   NGX = 33   NGY = 33   NGZ = 33
  (NGX  =140   NGY  =140   NGZ  =140)
 gives a total of  35937 points
 charge density for first step will be calculated from the start-wavefunctions


--------------------------------------------------------------------------------------------------------


 Maximum index for augmentation-charges        53391 (set IRDMAX)


--------------------------------------------------------------------------------------------------------


 initial charge from wavefunction
 First call to EWALD:  gamma=   0.209
 Maximum number of real-space cells 3x 3x 3
 Maximum number of reciprocal cells 3x 3x 3

    FEWALD:  VPU time    0.01: CPU time    0.01


----------------------------------------- Iteration    1(   1)  ---------------------------------------


    POTLOK:  VPU time    3.22: CPU time    3.22
    SETDIJ:  VPU time    7.23: CPU time    7.24
    EDDIAG:  VPU time  276.89: CPU time  278.06
  RMM-DIIS:  VPU time 3043.51: CPU time 3047.07
    ORTHCH:  VPU time   37.03: CPU time   37.04
    DOS   :  VPU time    0.00: CPU time   -0.00
    CHARGE:  VPU time  102.65: CPU time  102.67
    MIXING:  VPU time    0.09: CPU time    0.09
    ------------------------------------------
      LOOP:  VPU time 3470.77: CPU time 3475.54

 eigenvalue-minimisations  : 17406
 total energy-change (2. order) :-0.9154543E+02  (-0.5944304E+02)
 number of electron  352.0000013 magnetization 
 augmentation part   172.0768841 magnetization 

 Broyden mixing:
  rms(total) = 0.73780E+00    rms(broyden)= 0.67124E+00
  rms(prec ) = 0.97869E+00
  weight for this iteration     100.00

 Free energy of the ion-electron system (eV)
  ---------------------------------------------------
  alpha Z        PSCENC =      2967.13959007
  Ewald energy   TEWEN  =    -30095.38298250
  -1/2 Hartree   DENC   =     -6596.73529797
  -V(xc)+E(xc)   XCENC  =      -394.46323979
  PAW double counting   =     26814.97191635   -25381.28541578
  entropy T*S    EENTRO =        -0.01804770
  eigenvalues    EBANDS =      -602.93983342
  atomic energy  EATOM  =     33197.16788402
  ---------------------------------------------------
  free energy    TOTEN  =       -91.54542674 eV

  energy without entropy =      -91.52737904  energy(sigma->0) =      -91.53941084


--------------------------------------------------------------------------------------------------------




----------------------------------------- Iteration    1(   2)  ---------------------------------------


    POTLOK:  VPU time    2.49: CPU time    2.49
    SETDIJ:  VPU time    5.96: CPU time    5.96
    EDDIAG:  VPU time  279.55: CPU time  279.80
  RMM-DIIS:  VPU time 3214.51: CPU time 3217.35
    ORTHCH:  VPU time   43.33: CPU time   43.36
    DOS   :  VPU time    0.00: CPU time   -0.00
    CHARGE:  VPU time  143.37: CPU time  143.51
    MIXING:  VPU time    0.11: CPU time    0.11
    ------------------------------------------
      LOOP:  VPU time 3689.51: CPU time 3693.49

 eigenvalue-minimisations  : 17765
 total energy-change (2. order) : 0.1595569E+01  (-0.1263538E+01)
 number of electron  352.0000013 magnetization 
 augmentation part   169.0353511 magnetization 

 Broyden mixing:
  rms(total) = 0.11869E+00    rms(broyden)= 0.11868E+00
  rms(prec ) = 0.14548E+00
  weight for this iteration     100.00

 eigenvalues of (default mixing * dielectric matrix)
  average eigenvalue GAMMA=   0.8795
  0.8795

 Free energy of the ion-electron system (eV)
  ---------------------------------------------------
  alpha Z        PSCENC =      2967.13959007
  Ewald energy   TEWEN  =    -30095.38298250
  -1/2 Hartree   DENC   =     -6714.45593350
  -V(xc)+E(xc)   XCENC  =      -364.90532660
  PAW double counting   =     27297.03905172   -25869.77016696
  entropy T*S    EENTRO =        -0.01187823
  eigenvalues    EBANDS =      -506.77009539
  atomic energy  EATOM  =     33197.16788402
  ---------------------------------------------------
  free energy    TOTEN  =       -89.94985738 eV

  energy without entropy =      -89.93797915  energy(sigma->0) =      -89.94589797


--------------------------------------------------------------------------------------------------------




----------------------------------------- Iteration    1(   3)  ---------------------------------------


    POTLOK:  VPU time    3.19: CPU time    3.19
    SETDIJ:  VPU time    7.25: CPU time    7.26
    EDDIAG:  VPU time  252.27: CPU time  252.38
  RMM-DIIS:  VPU time 3158.77: CPU time 3161.31
    ORTHCH:  VPU time   36.75: CPU time   36.76
    DOS   :  VPU time    0.00: CPU time   -0.00
    CHARGE:  VPU time  119.62: CPU time  119.66
    MIXING:  VPU time    0.31: CPU time    0.31
    ------------------------------------------
      LOOP:  VPU time 3578.32: CPU time 3581.04

 eigenvalue-minimisations  : 18283
 total energy-change (2. order) : 0.2786264E-02  (-0.1528647E-01)
 number of electron  352.0000013 magnetization 
 augmentation part   169.1423198 magnetization 

 Broyden mixing:
  rms(total) = 0.64701E-01    rms(broyden)= 0.64701E-01
  rms(prec ) = 0.74381E-01
  weight for this iteration     100.00

 eigenvalues of (default mixing * dielectric matrix)
  average eigenvalue GAMMA=   1.6286
  0.9723  2.2849

 Free energy of the ion-electron system (eV)
  ---------------------------------------------------
  alpha Z        PSCENC =      2967.13959007
  Ewald energy   TEWEN  =    -30095.38298250
  -1/2 Hartree   DENC   =     -6704.57495341
  -V(xc)+E(xc)   XCENC  =      -365.24217369
  PAW double counting   =     27408.02327268   -25980.89415978
  entropy T*S    EENTRO =        -0.01201674
  eigenvalues    EBANDS =      -516.17153176
  atomic energy  EATOM  =     33197.16788402
  ---------------------------------------------------
  free energy    TOTEN  =       -89.94707112 eV

  energy without entropy =      -89.93505438  energy(sigma->0) =      -89.94306554


--------------------------------------------------------------------------------------------------------




----------------------------------------- Iteration    1(   4)  ---------------------------------------


    POTLOK:  VPU time    2.60: CPU time    2.60
    SETDIJ:  VPU time    5.87: CPU time    5.88
    EDDIAG:  VPU time  244.94: CPU time  245.04
  RMM-DIIS:  VPU time 2769.22: CPU time 2770.91
    ORTHCH:  VPU time   43.33: CPU time   43.38
    DOS   :  VPU time    0.00: CPU time   -0.00
    CHARGE:  VPU time  143.73: CPU time  143.86
    MIXING:  VPU time    0.11: CPU time    0.11
    ------------------------------------------
      LOOP:  VPU time 3209.98: CPU time 3211.95

 eigenvalue-minimisations  : 18189
 total energy-change (2. order) :-0.2638771E-03  (-0.3207775E-02)
 number of electron  352.0000013 magnetization 
 augmentation part   169.3094506 magnetization 

 Broyden mixing:
  rms(total) = 0.19032E-01    rms(broyden)= 0.19032E-01
  rms(prec ) = 0.27081E-01
  weight for this iteration     100.00

 eigenvalues of (default mixing * dielectric matrix)
  average eigenvalue GAMMA=   1.5456
  2.4883  1.0742  1.0742

 Free energy of the ion-electron system (eV)
  ---------------------------------------------------
  alpha Z        PSCENC =      2967.13959007
  Ewald energy   TEWEN  =    -30095.38298250
  -1/2 Hartree   DENC   =     -6696.78081112
  -V(xc)+E(xc)   XCENC  =      -365.50098414
  PAW double counting   =     27563.73907585   -26136.88234589
  entropy T*S    EENTRO =        -0.01215583
  eigenvalues    EBANDS =      -523.43460544
  atomic energy  EATOM  =     33197.16788402
  ---------------------------------------------------
  free energy    TOTEN  =       -89.94733500 eV

  energy without entropy =      -89.93517916  energy(sigma->0) =      -89.94328305


--------------------------------------------------------------------------------------------------------




----------------------------------------- Iteration    1(   5)  ---------------------------------------


    POTLOK:  VPU time    3.14: CPU time    3.14
    SETDIJ:  VPU time    7.30: CPU time    7.31
    EDDIAG:  VPU time  291.62: CPU time  291.89
  RMM-DIIS:  VPU time 2524.93: CPU time 2526.47
    ORTHCH:  VPU time   32.82: CPU time   32.84
    DOS   :  VPU time   -0.00: CPU time   -0.00
    CHARGE:  VPU time  141.18: CPU time  141.31
    MIXING:  VPU time    0.11: CPU time    0.11
    ------------------------------------------
      LOOP:  VPU time 3001.27: CPU time 3003.24

 eigenvalue-minimisations  : 18187
 total energy-change (2. order) : 0.5269820E-03  (-0.7457527E-03)
 number of electron  352.0000013 magnetization 
 augmentation part   169.2265387 magnetization 

 Broyden mixing:
  rms(total) = 0.49570E-02    rms(broyden)= 0.49568E-02
  rms(prec ) = 0.71081E-02
  weight for this iteration     100.00

 eigenvalues of (default mixing * dielectric matrix)
  average eigenvalue GAMMA=   1.4043
  2.5298  1.2023  0.9425  0.9425

 Free energy of the ion-electron system (eV)
  ---------------------------------------------------
  alpha Z        PSCENC =      2967.13959007
  Ewald energy   TEWEN  =    -30095.38298250
  -1/2 Hartree   DENC   =     -6700.91676090
  -V(xc)+E(xc)   XCENC  =      -365.34931308
  PAW double counting   =     27633.93171128   -26207.39971662
  entropy T*S    EENTRO =        -0.01208768
  eigenvalues    EBANDS =      -519.12513261
  atomic energy  EATOM  =     33197.16788402
  ---------------------------------------------------
  free energy    TOTEN  =       -89.94680801 eV

  energy without entropy =      -89.93472034  energy(sigma->0) =      -89.94277879


--------------------------------------------------------------------------------------------------------




----------------------------------------- Iteration    1(   6)  ---------------------------------------


    POTLOK:  VPU time    3.19: CPU time    3.19
    SETDIJ:  VPU time    7.29: CPU time    7.30
    EDDIAG:  VPU time  291.79: CPU time  292.05
  RMM-DIIS:  VPU time 3268.38: CPU time 3271.23
    ORTHCH:  VPU time   32.28: CPU time   32.29
    DOS   :  VPU time    0.00: CPU time   -0.00
    CHARGE:  VPU time  116.59: CPU time  116.69
    MIXING:  VPU time    0.09: CPU time    0.09
    ------------------------------------------
      LOOP:  VPU time 3719.77: CPU time 3723.01

 eigenvalue-minimisations  : 18253
 total energy-change (2. order) : 0.3396640E-04  (-0.8587198E-05)
 number of electron  352.0000013 magnetization 
 augmentation part   169.2311115 magnetization 

 Broyden mixing:
  rms(total) = 0.30312E-02    rms(broyden)= 0.30312E-02
  rms(prec ) = 0.41818E-02
  weight for this iteration     100.00

 eigenvalues of (default mixing * dielectric matrix)
  average eigenvalue GAMMA=   1.4445
  2.5587  1.7746  1.0086  1.0086  0.8720

 Free energy of the ion-electron system (eV)
  ---------------------------------------------------
  alpha Z        PSCENC =      2967.13959007
  Ewald energy   TEWEN  =    -30095.38298250
  -1/2 Hartree   DENC   =     -6700.67118487
  -V(xc)+E(xc)   XCENC  =      -365.35719572
  PAW double counting   =     27635.62056320   -26209.06228692
  entropy T*S    EENTRO =        -0.01209297
  eigenvalues    EBANDS =      -519.38906836
  atomic energy  EATOM  =     33197.16788402
  ---------------------------------------------------
  free energy    TOTEN  =       -89.94677405 eV

  energy without entropy =      -89.93468108  energy(sigma->0) =      -89.94274306


--------------------------------------------------------------------------------------------------------




----------------------------------------- Iteration    1(   7)  ---------------------------------------


    POTLOK:  VPU time    2.76: CPU time    2.76
    SETDIJ:  VPU time    5.65: CPU time    5.65
    EDDIAG:  VPU time  266.87: CPU time  267.12
  RMM-DIIS:  VPU time 3155.80: CPU time 3158.53
    ORTHCH:  VPU time   28.56: CPU time   28.57
    DOS   :  VPU time    0.00: CPU time   -0.00
    CHARGE:  VPU time   91.89: CPU time   91.93
    MIXING:  VPU time    0.16: CPU time    0.16
    ------------------------------------------
      LOOP:  VPU time 3551.83: CPU time 3554.87

 eigenvalue-minimisations  : 18256
 total energy-change (2. order) : 0.2405724E-04  (-0.1182800E-04)
 number of electron  352.0000013 magnetization 
 augmentation part   169.2412821 magnetization 

 Broyden mixing:
  rms(total) = 0.30880E-03    rms(broyden)= 0.30876E-03
  rms(prec ) = 0.47527E-03
  weight for this iteration     100.00

 eigenvalues of (default mixing * dielectric matrix)
  average eigenvalue GAMMA=   1.4895
  2.6165  1.9707  1.5220  0.9707  0.9707  0.8866

 Free energy of the ion-electron system (eV)
  ---------------------------------------------------
  alpha Z        PSCENC =      2967.13959007
  Ewald energy   TEWEN  =    -30095.38298250
  -1/2 Hartree   DENC   =     -6700.22387202
  -V(xc)+E(xc)   XCENC  =      -365.37232956
  PAW double counting   =     27635.40151662   -26208.80715439
  entropy T*S    EENTRO =        -0.01210138
  eigenvalues    EBANDS =      -519.85730084
  atomic energy  EATOM  =     33197.16788402
  ---------------------------------------------------
  free energy    TOTEN  =       -89.94674999 eV

  energy without entropy =      -89.93464861  energy(sigma->0) =      -89.94271620


--------------------------------------------------------------------------------------------------------




----------------------------------------- Iteration    1(   8)  ---------------------------------------


    POTLOK:  VPU time    1.98: CPU time    1.98
    SETDIJ:  VPU time    4.31: CPU time    4.32
    EDDIAG:  VPU time  267.94: CPU time  268.17
  RMM-DIIS:  VPU time 1995.55: CPU time 1997.32
    ORTHCH:  VPU time   42.37: CPU time   42.41
    DOS   :  VPU time   -0.00: CPU time   -0.00
    ------------------------------------------
      LOOP:  VPU time 2312.33: CPU time 2314.37

 eigenvalue-minimisations  : 10135
 total energy-change (2. order) : 0.3647605E-05  (-0.4274280E-06)
 number of electron  352.0000013 magnetization 
 augmentation part   169.2412821 magnetization 

 Free energy of the ion-electron system (eV)
  ---------------------------------------------------
  alpha Z        PSCENC =      2967.13959007
  Ewald energy   TEWEN  =    -30095.38298250
  -1/2 Hartree   DENC   =     -6700.18721633
  -V(xc)+E(xc)   XCENC  =      -365.37335184
  PAW double counting   =     27634.92000398   -26208.31205479
  entropy T*S    EENTRO =        -0.01210228
  eigenvalues    EBANDS =      -519.90651667
  atomic energy  EATOM  =     33197.16788402
  ---------------------------------------------------
  free energy    TOTEN  =       -89.94674634 eV

  energy without entropy =      -89.93464407  energy(sigma->0) =      -89.94271225


--------------------------------------------------------------------------------------------------------




 average (electrostatic) potential at core
  the test charge radii are     1.1249
  (the norm of the test charge is              1.0000)
       1 -41.9795       2 -41.9775       3 -41.9775       4 -41.9795       5 -41.9796
       6 -41.9796       7 -41.9797       8 -41.9775       9 -41.9775      10 -41.9795
      11 -41.9796      12 -41.9797      13 -41.9796      14 -41.9796      15 -41.9817
      16 -41.9817      17 -41.9797      18 -41.9796      19 -41.9796      20 -41.9795
      21 -41.9796      22 -41.9796      23 -41.9817      24 -41.9817      25 -41.9797
      26 -41.9796      27 -41.9796      28 -41.9796      29 -41.9796      30 -41.9797
      31 -41.9796      32 -41.9796
 
 
 
 E-fermi :   2.5917     XC(G=0): -11.5302     alpha+bet : -7.6030
   add alpha+bet to get absolut eigen values

 k-point   1 :       0.0625    0.0625    0.0625
  band No.  band energies     occupation 
      1      -4.3782      2.00000
      2      -3.2059      2.00000
      3      -3.2059      2.00000
      4      -3.2059      2.00000
      5      -3.1903      2.00000
      6      -3.1803      2.00000
      7      -3.1802      2.00000
      8      -3.1802      2.00000
      9      -3.1090      2.00000
     10      -3.1089      2.00000
     11      -3.1088      2.00000
     12      -2.8548      2.00000
     13      -2.8529      2.00000
     14      -2.8512      2.00000
     15      -2.7669      2.00000
     16      -2.7655      2.00000
     17      -2.7641      2.00000
     18      -2.5943      2.00000
     19      -2.5934      2.00000
     20      -2.5924      2.00000
     21      -2.5915      2.00000
     22      -2.5915      2.00000
     23      -2.5913      2.00000
     24      -2.5912      2.00000
     25      -2.5909      2.00000
     26      -2.5886      2.00000
     27      -2.4751      2.00000
     28      -2.4738      2.00000
     29      -2.4727      2.00000
     30      -2.3858      2.00000
     31      -2.3844      2.00000
     32      -2.3830      2.00000
     33      -2.3655      2.00000
     34      -2.3645      2.00000
     35      -2.3633      2.00000
     36      -2.3492      2.00000
     37      -2.3484      2.00000
     38      -2.3474      2.00000
     39      -2.3472      2.00000
     40      -2.3463      2.00000
     41      -2.3455      2.00000
     42      -2.2169      2.00000
     43      -2.2168      2.00000
     44      -2.2156      2.00000
     45      -2.2155      2.00000
     46      -2.2143      2.00000
     47      -2.2143      2.00000
     48      -2.1432      2.00000
     49      -2.1414      2.00000
     50      -2.1410      2.00000
     51      -2.1396      2.00000
     52      -2.1393      2.00000
     53      -2.1383      2.00000
     54      -2.1375      2.00000
     55      -2.1372      2.00000
     56      -2.1361      2.00000
     57      -2.0967      2.00000
     58      -2.0955      2.00000
     59      -2.0941      2.00000
     60      -1.9732      2.00000
     61      -1.9731      2.00000
     62      -1.9718      2.00000
     63      -1.9718      2.00000
     64      -1.9706      2.00000
     65      -1.9705      2.00000
     66      -1.9205      2.00000
     67      -1.9204      2.00000
     68      -1.9203      2.00000
     69      -1.9075      2.00000
     70      -1.9074      2.00000
     71      -1.9038      2.00000
     72      -1.8994      2.00000
     73      -1.8993      2.00000
     74      -1.8993      2.00000
     75      -1.8908      2.00000
     76      -1.8908      2.00000
     77      -1.8045      2.00000
     78      -1.8029      2.00000
     79      -1.8023      2.00000
     80      -1.8023      2.00000
     81      -1.8017      2.00000
     82      -1.8003      2.00000
     83      -1.7811      2.00000
     84      -1.7804      2.00000
     85      -1.7796      2.00000
     86      -1.7410      2.00000
     87      -1.7399      2.00000
     88      -1.7386      2.00000
     89      -1.3910      2.00000
     90      -1.3905      2.00000
     91      -1.3899      2.00000
     92      -1.3381      2.00000
     93      -1.3373      2.00000
     94      -1.3360      2.00000
     95      -1.3359      2.00000
     96      -1.3348      2.00000
     97      -1.3343      2.00000
     98      -1.3282      2.00000
     99      -1.3280      2.00000
    100      -1.3269      2.00000
    101      -1.3268      2.00000
    102      -1.3255      2.00000
    103      -1.3253      2.00000
    104      -1.2678      2.00000
    105      -1.2667      2.00000
    106      -1.2655      2.00000
    107      -1.1675      2.00000
    108      -1.1659      2.00000
    109      -1.1641      2.00000
    110      -1.1143      2.00000
    111      -1.1125      2.00000
    112      -1.1111      2.00000
    113      -1.1038      2.00000
    114      -1.1024      2.00000
    115      -1.1008      2.00000
    116      -1.0599      2.00000
    117      -1.0598      2.00000
    118      -1.0284      2.00000
    119      -1.0275      2.00000
    120      -1.0256      2.00000
    121      -1.0255      2.00000
    122      -1.0249      2.00000
    123      -1.0248      2.00000
    124      -1.0247      2.00000
    125      -1.0228      2.00000
    126      -1.0227      2.00000
    127      -1.0103      2.00000
    128      -1.0092      2.00000
    129      -1.0082      2.00000
    130      -1.0078      2.00000
    131      -1.0070      2.00000
    132      -1.0055      2.00000
    133      -0.9452      2.00000
    134      -0.9443      2.00000
    135      -0.9436      2.00000
    136      -0.7779      2.00000
    137      -0.7771      2.00000
    138      -0.7764      2.00000
    139      -0.7134      2.00000
    140      -0.7131      2.00000
    141      -0.7127      2.00000
    142      -0.6675      2.00000
    143      -0.6662      2.00000
    144      -0.6647      2.00000
    145      -0.4589      2.00000
    146      -0.4585      2.00000
    147      -0.4583      2.00000
    148      -0.4466      2.00000
    149      -0.4465      2.00000
    150      -0.4465      2.00000
    151      -0.4210      2.00000
    152      -0.4209      2.00000
    153      -0.4078      2.00000
    154      -0.4078      2.00000
    155      -0.4077      2.00000
    156      -0.2720      2.00000
    157      -0.2720      2.00000
    158      -0.2719      2.00000
    159      -0.2513      2.00000
    160      -0.2513      2.00000
    161      -0.2511      2.00000
    162      -0.2511      2.00000
    163      -0.2510      2.00000
    164      -0.2508      2.00000
    165      -0.2489      2.00000
    166      -0.2489      2.00000
    167      -0.2486      2.00000
    168       1.3872      2.00000
    169       1.3887      2.00000
    170       1.3901      2.00000
    171       1.9371      2.00004
    172       1.9376      2.00004
    173       1.9392      2.00004
    174       1.9392      2.00004
    175       1.9408      2.00004
    176       1.9412      2.00004
    177       2.2151      2.02291
    178       2.4889      1.75517
    179       2.4892      1.75372
    180       2.4893      1.75334
    181       2.5054      1.66030
    182       2.5068      1.65206
    183       2.5082      1.64280
    184       4.2358     -0.00000
    185       4.2361     -0.00000
    186       4.2364     -0.00000
    187       5.6001     -0.00000
    188       5.6003     -0.00000
    189       5.6006     -0.00000
    190       5.8417     -0.00000
    191       7.5619     -0.00000
    192       7.5623     -0.00000
    193       7.5641     -0.00000
    194       7.5641     -0.00000
    195       7.5658     -0.00000
    196       7.5662     -0.00000
    197       8.2118      0.00000
    198       8.2120      0.00000
    199       8.2143      0.00000
    200       8.2143      0.00000
    201       8.2166      0.00000
    202       8.2168      0.00000
    203       8.5415      0.00000
    204       8.5418      0.00000
    205       8.5420      0.00000
    206       9.1260      0.00000
    207       9.1268      0.00000
    208       9.1271      0.00000
    209       9.1277      0.00000
    210      10.1516      0.00000
    211      10.2007      0.00000
    212      10.3869      0.00000

 k-point   2 :       0.1875    0.0625    0.0625
  band No.  band energies     occupation 
      1      -4.3039      2.00000
      2      -3.1776      2.00000
      3      -3.1703      2.00000
      4      -3.1703      2.00000
      5      -3.1657      2.00000
      6      -3.1461      2.00000
      7      -3.1461      2.00000
      8      -3.1365      2.00000
      9      -3.0877      2.00000
     10      -3.0753      2.00000
     11      -3.0753      2.00000
     12      -3.0714      2.00000
     13      -2.8086      2.00000
     14      -2.8085      2.00000
     15      -2.7860      2.00000
     16      -2.7240      2.00000
     17      -2.7240      2.00000
     18      -2.7062      2.00000
     19      -2.6567      2.00000
     20      -2.6566      2.00000
     21      -2.5708      2.00000
     22      -2.5708      2.00000
     23      -2.5680      2.00000
     24      -2.5678      2.00000
     25      -2.5615      2.00000
     26      -2.5614      2.00000
     27      -2.5510      2.00000
     28      -2.5160      2.00000
     29      -2.5159      2.00000
     30      -2.5072      2.00000
     31      -2.4543      2.00000
     32      -2.4542      2.00000
     33      -2.4313      2.00000
     34      -2.4313      2.00000
     35      -2.4190      2.00000
     36      -2.4189      2.00000
     37      -2.3894      2.00000
     38      -2.3893      2.00000
     39      -2.3554      2.00000
     40      -2.3428      2.00000
     41      -2.3428      2.00000
     42      -2.3301      2.00000
     43      -2.3301      2.00000
     44      -2.2155      2.00000
     45      -2.2155      2.00000
     46      -2.2135      2.00000
     47      -2.2134      2.00000
     48      -2.1588      2.00000
     49      -2.1581      2.00000
     50      -2.1541      2.00000
     51      -2.1538      2.00000
     52      -2.1526      2.00000
     53      -2.1522      2.00000
     54      -2.0959      2.00000
     55      -2.0777      2.00000
     56      -2.0777      2.00000
     57      -2.0636      2.00000
     58      -2.0636      2.00000
     59      -2.0370      2.00000
     60      -1.9894      2.00000
     61      -1.9894      2.00000
     62      -1.9682      2.00000
     63      -1.9682      2.00000
     64      -1.9436      2.00000
     65      -1.9326      2.00000
     66      -1.9325      2.00000
     67      -1.9270      2.00000
     68      -1.9076      2.00000
     69      -1.9075      2.00000
     70      -1.9070      2.00000
     71      -1.9069      2.00000
     72      -1.9052      2.00000
     73      -1.8905      2.00000
     74      -1.8726      2.00000
     75      -1.8726      2.00000
     76      -1.8683      2.00000
     77      -1.8667      2.00000
     78      -1.8665      2.00000
     79      -1.8460      2.00000
     80      -1.8459      2.00000
     81      -1.7808      2.00000
     82      -1.7808      2.00000
     83      -1.7063      2.00000
     84      -1.7063      2.00000
     85      -1.6557      2.00000
     86      -1.6557      2.00000
     87      -1.6156      2.00000
     88      -1.5995      2.00000
     89      -1.4869      2.00000
     90      -1.4858      2.00000
     91      -1.4858      2.00000
     92      -1.4557      2.00000
     93      -1.4200      2.00000
     94      -1.4129      2.00000
     95      -1.4129      2.00000
     96      -1.4112      2.00000
     97      -1.3579      2.00000
     98      -1.3579      2.00000
     99      -1.3454      2.00000
    100      -1.3453      2.00000
    101      -1.2756      2.00000
    102      -1.2756      2.00000
    103      -1.2718      2.00000
    104      -1.2716      2.00000
    105      -1.2493      2.00000
    106      -1.2493      2.00000
    107      -1.2281      2.00000
    108      -1.2281      2.00000
    109      -1.2239      2.00000
    110      -1.1593      2.00000
    111      -1.1593      2.00000
    112      -1.1231      2.00000
    113      -1.1231      2.00000
    114      -1.0850      2.00000
    115      -1.0481      2.00000
    116      -1.0376      2.00000
    117      -1.0375      2.00000
    118      -1.0306      2.00000
    119      -1.0305      2.00000
    120      -1.0230      2.00000
    121      -1.0229      2.00000
    122      -0.9967      2.00000
    123      -0.9854      2.00000
    124      -0.9633      2.00000
    125      -0.9633      2.00000
    126      -0.9543      2.00000
    127      -0.9125      2.00000
    128      -0.9124      2.00000
    129      -0.9079      2.00000
    130      -0.9079      2.00000
    131      -0.8891      2.00000
    132      -0.8891      2.00000
    133      -0.8597      2.00000
    134      -0.8520      2.00000
    135      -0.8520      2.00000
    136      -0.8389      2.00000
    137      -0.7322      2.00000
    138      -0.7322      2.00000
    139      -0.7082      2.00000
    140      -0.7082      2.00000
    141      -0.6486      2.00000
    142      -0.5689      2.00000
    143      -0.5541      2.00000
    144      -0.5541      2.00000
    145      -0.4828      2.00000
    146      -0.4827      2.00000
    147      -0.4712      2.00000
    148      -0.4640      2.00000
    149      -0.4622      2.00000
    150      -0.4373      2.00000
    151      -0.4372      2.00000
    152      -0.4251      2.00000
    153      -0.4232      2.00000
    154      -0.4232      2.00000
    155      -0.3809      2.00000
    156      -0.3809      2.00000
    157      -0.3143      2.00000
    158      -0.2957      2.00000
    159      -0.2957      2.00000
    160      -0.2950      2.00000
    161      -0.2950      2.00000
    162      -0.2869      2.00000
    163      -0.2521      2.00000
    164      -0.2512      2.00000
    165      -0.2511      2.00000
    166      -0.2501      2.00000
    167      -0.1329      2.00000
    168       0.9084      2.00000
    169       0.9084      2.00000
    170       1.4009      2.00000
    171       1.4331      2.00000
    172       1.4331      2.00000
    173       1.9413      2.00004
    174       1.9616      2.00008
    175       1.9617      2.00008
    176       2.4099      2.02587
    177       2.4099      2.02581
    178       2.5347      1.46142
    179       2.5653      1.22115
    180       2.5653      1.22100
    181       2.6843      0.30186
    182       3.1416     -0.00071
    183       3.1416     -0.00071
    184       3.7119     -0.00000
    185       4.4118     -0.00000
    186       4.4118     -0.00000
    187       5.6220     -0.00000
    188       5.8708     -0.00000
    189       5.8709     -0.00000
    190       6.2809     -0.00000
    191       6.7219     -0.00000
    192       6.7219     -0.00000
    193       6.9165     -0.00000
    194       6.9165     -0.00000
    195       7.3044     -0.00000
    196       7.3044     -0.00000
    197       7.6805     -0.00000
    198       7.6805     -0.00000
    199       8.3295      0.00000
    200       8.3295      0.00000
    201       8.5588      0.00000
    202       8.5588      0.00000
    203       8.7246      0.00000
    204       8.7247      0.00000
    205       9.0391      0.00000
    206       9.1919      0.00000
    207       9.2033      0.00000
    208       9.2057      0.00000
    209       9.4258      0.00000
    210       9.4850      0.00000
    211       9.5330      0.00000
    212       9.6047      0.00000

 k-point   3 :       0.3125    0.0625    0.0625
  band No.  band energies     occupation 
      1      -4.1575      2.00000
      2      -3.3688      2.00000
      3      -3.1230      2.00000
      4      -3.1067      2.00000
      5      -3.1017      2.00000
      6      -3.1017      2.00000
      7      -3.0784      2.00000
      8      -3.0784      2.00000
      9      -3.0602      2.00000
     10      -3.0459      2.00000
     11      -3.0081      2.00000
     12      -3.0081      2.00000
     13      -2.8617      2.00000
     14      -2.8119      2.00000
     15      -2.7653      2.00000
     16      -2.7651      2.00000
     17      -2.7319      2.00000
     18      -2.7259      2.00000
     19      -2.7258      2.00000
     20      -2.6914      2.00000
     21      -2.6914      2.00000
     22      -2.6667      2.00000
     23      -2.6489      2.00000
     24      -2.6489      2.00000
     25      -2.6188      2.00000
     26      -2.6188      2.00000
     27      -2.5359      2.00000
     28      -2.5358      2.00000
     29      -2.5154      2.00000
     30      -2.5154      2.00000
     31      -2.5044      2.00000
     32      -2.5043      2.00000
     33      -2.4454      2.00000
     34      -2.4453      2.00000
     35      -2.4369      2.00000
     36      -2.4368      2.00000
     37      -2.4146      2.00000
     38      -2.4146      2.00000
     39      -2.3955      2.00000
     40      -2.3955      2.00000
     41      -2.3186      2.00000
     42      -2.3186      2.00000
     43      -2.2419      2.00000
     44      -2.2120      2.00000
     45      -2.2118      2.00000
     46      -2.2073      2.00000
     47      -2.2072      2.00000
     48      -2.1998      2.00000
     49      -2.1996      2.00000
     50      -2.1898      2.00000
     51      -2.1893      2.00000
     52      -2.1750      2.00000
     53      -2.1750      2.00000
     54      -2.0772      2.00000
     55      -2.0695      2.00000
     56      -2.0695      2.00000
     57      -2.0409      2.00000
     58      -2.0409      2.00000
     59      -2.0159      2.00000
     60      -2.0159      2.00000
     61      -1.9930      2.00000
     62      -1.9930      2.00000
     63      -1.9850      2.00000
     64      -1.9764      2.00000
     65      -1.9749      2.00000
     66      -1.9689      2.00000
     67      -1.9687      2.00000
     68      -1.9626      2.00000
     69      -1.9625      2.00000
     70      -1.9528      2.00000
     71      -1.9527      2.00000
     72      -1.9184      2.00000
     73      -1.9184      2.00000
     74      -1.9134      2.00000
     75      -1.8492      2.00000
     76      -1.8432      2.00000
     77      -1.8431      2.00000
     78      -1.8227      2.00000
     79      -1.8226      2.00000
     80      -1.8195      2.00000
     81      -1.8185      2.00000
     82      -1.8102      2.00000
     83      -1.6373      2.00000
     84      -1.6373      2.00000
     85      -1.5977      2.00000
     86      -1.5701      2.00000
     87      -1.5701      2.00000
     88      -1.5525      2.00000
     89      -1.5472      2.00000
     90      -1.5472      2.00000
     91      -1.5415      2.00000
     92      -1.5293      2.00000
     93      -1.4237      2.00000
     94      -1.4237      2.00000
     95      -1.3954      2.00000
     96      -1.3842      2.00000
     97      -1.3841      2.00000
     98      -1.3620      2.00000
     99      -1.3009      2.00000
    100      -1.3009      2.00000
    101      -1.2870      2.00000
    102      -1.2803      2.00000
    103      -1.2802      2.00000
    104      -1.1906      2.00000
    105      -1.1905      2.00000
    106      -1.1764      2.00000
    107      -1.1763      2.00000
    108      -1.1535      2.00000
    109      -1.1535      2.00000
    110      -1.1401      2.00000
    111      -1.1401      2.00000
    112      -1.1324      2.00000
    113      -1.1288      2.00000
    114      -1.1288      2.00000
    115      -1.0453      2.00000
    116      -1.0453      2.00000
    117      -1.0254      2.00000
    118      -1.0250      2.00000
    119      -1.0245      2.00000
    120      -1.0168      2.00000
    121      -1.0168      2.00000
    122      -0.9263      2.00000
    123      -0.9263      2.00000
    124      -0.8966      2.00000
    125      -0.8685      2.00000
    126      -0.8613      2.00000
    127      -0.8612      2.00000
    128      -0.8124      2.00000
    129      -0.7998      2.00000
    130      -0.7840      2.00000
    131      -0.7838      2.00000
    132      -0.7828      2.00000
    133      -0.7827      2.00000
    134      -0.7565      2.00000
    135      -0.7565      2.00000
    136      -0.7484      2.00000
    137      -0.7383      2.00000
    138      -0.7383      2.00000
    139      -0.7341      2.00000
    140      -0.7123      2.00000
    141      -0.7123      2.00000
    142      -0.6130      2.00000
    143      -0.5990      2.00000
    144      -0.5990      2.00000
    145      -0.5846      2.00000
    146      -0.5346      2.00000
    147      -0.5323      2.00000
    148      -0.5323      2.00000
    149      -0.4957      2.00000
    150      -0.4871      2.00000
    151      -0.4871      2.00000
    152      -0.4754      2.00000
    153      -0.4753      2.00000
    154      -0.4717      2.00000
    155      -0.3959      2.00000
    156      -0.3787      2.00000
    157      -0.3787      2.00000
    158      -0.3777      2.00000
    159      -0.3777      2.00000
    160      -0.3570      2.00000
    161      -0.2523      2.00000
    162      -0.2514      2.00000
    163      -0.2512      2.00000
    164      -0.2502      2.00000
    165      -0.1359      2.00000
    166      -0.1358      2.00000
    167       0.4896      2.00000
    168       0.4896      2.00000
    169       0.5339      2.00000
    170       0.9803      2.00000
    171       0.9803      2.00000
    172       1.4291      2.00000
    173       1.7227      2.00000
    174       2.0075      2.00029
    175       2.0076      2.00029
    176       2.2921      2.05549
    177       2.2922      2.05551
    178       2.5879      1.03227
    179       2.7537      0.01493
    180       2.9417     -0.03284
    181       3.2682     -0.00002
    182       3.2682     -0.00002
    183       3.8472     -0.00000
    184       3.8472     -0.00000
    185       4.7379     -0.00000
    186       4.7379     -0.00000
    187       5.7913     -0.00000
    188       5.7913     -0.00000
    189       5.9359     -0.00000
    190       6.2904     -0.00000
    191       6.2905     -0.00000
    192       6.3606     -0.00000
    193       6.3610     -0.00000
    194       6.3670     -0.00000
    195       6.3675     -0.00000
    196       6.8663     -0.00000
    197       7.8900     -0.00000
    198       7.8900     -0.00000
    199       8.0905      0.00000
    200       8.5337      0.00000
    201       8.5338      0.00000
    202       8.5935      0.00000
    203       8.5936      0.00000
    204       8.6593      0.00000
    205       8.6594      0.00000
    206       8.7880      0.00000
    207       8.7886      0.00000
    208       9.0201      0.00000
    209       9.0202      0.00000
    210       9.2930      0.00000
    211       9.6136      0.00000
    212       9.6632      0.00000

 k-point   4 :       0.4375    0.0625    0.0625
  band No.  band energies     occupation 
      1      -3.9441      2.00000
      2      -3.6741      2.00000
      3      -3.0465      2.00000
      4      -3.0137      2.00000
      5      -3.0053      2.00000
      6      -3.0052      2.00000
      7      -2.9847      2.00000
      8      -2.9784      2.00000
      9      -2.9784      2.00000
     10      -2.9553      2.00000
     11      -2.9537      2.00000
     12      -2.9085      2.00000
     13      -2.9084      2.00000
     14      -2.9057      2.00000
     15      -2.8886      2.00000
     16      -2.8886      2.00000
     17      -2.8877      2.00000
     18      -2.8481      2.00000
     19      -2.8480      2.00000
     20      -2.8203      2.00000
     21      -2.7778      2.00000
     22      -2.7778      2.00000
     23      -2.6200      2.00000
     24      -2.6200      2.00000
     25      -2.5591      2.00000
     26      -2.5590      2.00000
     27      -2.5157      2.00000
     28      -2.5156      2.00000
     29      -2.4986      2.00000
     30      -2.4985      2.00000
     31      -2.4730      2.00000
     32      -2.4730      2.00000
     33      -2.4690      2.00000
     34      -2.4689      2.00000
     35      -2.4272      2.00000
     36      -2.4271      2.00000
     37      -2.4255      2.00000
     38      -2.4254      2.00000
     39      -2.3546      2.00000
     40      -2.3544      2.00000
     41      -2.3495      2.00000
     42      -2.3493      2.00000
     43      -2.2980      2.00000
     44      -2.2980      2.00000
     45      -2.2755      2.00000
     46      -2.2754      2.00000
     47      -2.2177      2.00000
     48      -2.2175      2.00000
     49      -2.2143      2.00000
     50      -2.2141      2.00000
     51      -2.1783      2.00000
     52      -2.1782      2.00000
     53      -2.1378      2.00000
     54      -2.1234      2.00000
     55      -2.1233      2.00000
     56      -2.0480      2.00000
     57      -2.0465      2.00000
     58      -2.0361      2.00000
     59      -2.0361      2.00000
     60      -2.0332      2.00000
     61      -2.0331      2.00000
     62      -2.0107      2.00000
     63      -2.0094      2.00000
     64      -2.0093      2.00000
     65      -1.9794      2.00000
     66      -1.9793      2.00000
     67      -1.9565      2.00000
     68      -1.9563      2.00000
     69      -1.9536      2.00000
     70      -1.9475      2.00000
     71      -1.9473      2.00000
     72      -1.9300      2.00000
     73      -1.8811      2.00000
     74      -1.8810      2.00000
     75      -1.8361      2.00000
     76      -1.8360      2.00000
     77      -1.7847      2.00000
     78      -1.7598      2.00000
     79      -1.7597      2.00000
     80      -1.7509      2.00000
     81      -1.7508      2.00000
     82      -1.7474      2.00000
     83      -1.7474      2.00000
     84      -1.7326      2.00000
     85      -1.7299      2.00000
     86      -1.7299      2.00000
     87      -1.6993      2.00000
     88      -1.6612      2.00000
     89      -1.6612      2.00000
     90      -1.6553      2.00000
     91      -1.6544      2.00000
     92      -1.6370      2.00000
     93      -1.2866      2.00000
     94      -1.2866      2.00000
     95      -1.2840      2.00000
     96      -1.2839      2.00000
     97      -1.2568      2.00000
     98      -1.1946      2.00000
     99      -1.1629      2.00000
    100      -1.1540      2.00000
    101      -1.1539      2.00000
    102      -1.1469      2.00000
    103      -1.1469      2.00000
    104      -1.1360      2.00000
    105      -1.1360      2.00000
    106      -1.1334      2.00000
    107      -1.1332      2.00000
    108      -1.1222      2.00000
    109      -1.1222      2.00000
    110      -1.0918      2.00000
    111      -1.0788      2.00000
    112      -1.0788      2.00000
    113      -1.0769      2.00000
    114      -1.0766      2.00000
    115      -1.0741      2.00000
    116      -1.0740      2.00000
    117      -1.0401      2.00000
    118      -1.0401      2.00000
    119      -0.9927      2.00000
    120      -0.9926      2.00000
    121      -0.9910      2.00000
    122      -0.9478      2.00000
    123      -0.9422      2.00000
    124      -0.9422      2.00000
    125      -0.9373      2.00000
    126      -0.9190      2.00000
    127      -0.9190      2.00000
    128      -0.8559      2.00000
    129      -0.8559      2.00000
    130      -0.8498      2.00000
    131      -0.8498      2.00000
    132      -0.8303      2.00000
    133      -0.7442      2.00000
    134      -0.7441      2.00000
    135      -0.7427      2.00000
    136      -0.6634      2.00000
    137      -0.6633      2.00000
    138      -0.6607      2.00000
    139      -0.6522      2.00000
    140      -0.6395      2.00000
    141      -0.6318      2.00000
    142      -0.6317      2.00000
    143      -0.6293      2.00000
    144      -0.6199      2.00000
    145      -0.6198      2.00000
    146      -0.6133      2.00000
    147      -0.6133      2.00000
    148      -0.5579      2.00000
    149      -0.5578      2.00000
    150      -0.5564      2.00000
    151      -0.5447      2.00000
    152      -0.5191      2.00000
    153      -0.5108      2.00000
    154      -0.4898      2.00000
    155      -0.4898      2.00000
    156      -0.4889      2.00000
    157      -0.4889      2.00000
    158      -0.4427      2.00000
    159      -0.2524      2.00000
    160      -0.2514      2.00000
    161      -0.2513      2.00000
    162      -0.2503      2.00000
    163      -0.2025      2.00000
    164      -0.2025      2.00000
    165       0.1222      2.00000
    166       0.1222      2.00000
    167       0.2015      2.00000
    168       0.2015      2.00000
    169       0.5721      2.00000
    170       0.5721      2.00000
    171       1.2922      2.00000
    172       1.4818      2.00000
    173       1.5735      2.00000
    174       2.0784      2.00171
    175       2.0786      2.00172
    176       2.1087      2.00336
    177       2.1753      2.01215
    178       2.1753      2.01216
    179       2.6581      0.47122
    180       2.7262      0.10017
    181       4.0452     -0.00000
    182       4.0452     -0.00000
    183       4.6232     -0.00000
    184       4.6232     -0.00000
    185       4.8901     -0.00000
    186       4.8901     -0.00000
    187       5.1794     -0.00000
    188       5.1794     -0.00000
    189       5.4659     -0.00000
    190       5.4660     -0.00000
    191       5.7051     -0.00000
    192       5.7051     -0.00000
    193       6.4966     -0.00000
    194       7.0139     -0.00000
    195       7.0139     -0.00000
    196       7.2324     -0.00000
    197       7.5662     -0.00000
    198       7.7887     -0.00000
    199       7.7887     -0.00000
    200       8.1938      0.00000
    201       8.1939      0.00000
    202       8.3610      0.00000
    203       8.5755      0.00000
    204       8.5755      0.00000
    205       8.6468      0.00000
    206       8.6469      0.00000
    207       8.7170      0.00000
    208       8.7173      0.00000
    209       8.8245      0.00000
    210       8.8266      0.00000
    211       9.1909      0.00000
    212       9.8089      0.00000

 k-point   5 :       0.0625    0.1875    0.0625
  band No.  band energies     occupation 
      1      -4.3039      2.00000
      2      -3.1776      2.00000
      3      -3.1704      2.00000
      4      -3.1703      2.00000
      5      -3.1657      2.00000
      6      -3.1462      2.00000
      7      -3.1460      2.00000
      8      -3.1365      2.00000
      9      -3.0877      2.00000
     10      -3.0754      2.00000
     11      -3.0752      2.00000
     12      -3.0713      2.00000
     13      -2.8098      2.00000
     14      -2.8073      2.00000
     15      -2.7861      2.00000
     16      -2.7251      2.00000
     17      -2.7230      2.00000
     18      -2.7062      2.00000
     19      -2.6568      2.00000
     20      -2.6566      2.00000
     21      -2.5719      2.00000
     22      -2.5700      2.00000
     23      -2.5685      2.00000
     24      -2.5670      2.00000
     25      -2.5624      2.00000
     26      -2.5603      2.00000
     27      -2.5511      2.00000
     28      -2.5161      2.00000
     29      -2.5157      2.00000
     30      -2.5071      2.00000
     31      -2.4551      2.00000
     32      -2.4534      2.00000
     33      -2.4316      2.00000
     34      -2.4313      2.00000
     35      -2.4198      2.00000
     36      -2.4180      2.00000
     37      -2.3902      2.00000
     38      -2.3886      2.00000
     39      -2.3555      2.00000
     40      -2.3440      2.00000
     41      -2.3416      2.00000
     42      -2.3308      2.00000
     43      -2.3293      2.00000
     44      -2.2158      2.00000
     45      -2.2151      2.00000
[...]
    108      -1.2423      2.00000
    109      -1.2416      2.00000
    110      -1.2402      2.00000
    111      -1.2401      2.00000
    112      -1.2393      2.00000
    113      -1.2389      2.00000
    114      -1.2386      2.00000
    115      -1.2377      2.00000
    116      -1.2357      2.00000
    117      -1.1760      2.00000
    118      -1.1742      2.00000
    119      -1.1723      2.00000
    120      -1.1295      2.00000
    121      -1.1293      2.00000
    122      -1.1282      2.00000
    123      -1.1281      2.00000
    124      -1.1269      2.00000
    125      -1.1268      2.00000
    126      -1.0567      2.00000
    127      -1.0566      2.00000
    128      -1.0566      2.00000
    129      -1.0154      2.00000
    130      -1.0152      2.00000
    131      -1.0036      2.00000
    132      -1.0024      2.00000
    133      -1.0011      2.00000
    134      -0.9883      2.00000
    135      -0.9867      2.00000
    136      -0.9853      2.00000
    137      -0.9142      2.00000
    138      -0.9129      2.00000
    139      -0.9115      2.00000
    140      -0.8650      2.00000
    141      -0.8650      2.00000
    142      -0.8158      2.00000
    143      -0.8147      2.00000
    144      -0.8137      2.00000
    145      -0.3912      2.00000
    146      -0.3910      2.00000
    147      -0.3906      2.00000
    148      -0.3756      2.00000
    149      -0.3749      2.00000
    150      -0.3748      2.00000
    151      -0.3748      2.00000
    152      -0.3746      2.00000
    153      -0.3746      2.00000
    154      -0.3745      2.00000
    155      -0.3743      2.00000
    156      -0.3743      2.00000
    157      -0.3742      2.00000
    158      -0.3740      2.00000
    159      -0.3734      2.00000
    160      -0.3722      2.00000
    161      -0.3721      2.00000
    162      -0.3718      2.00000
    163      -0.3609      2.00000
    164      -0.3606      2.00000
    165      -0.3603      2.00000
    166      -0.3521      2.00000
    167      -0.3520      2.00000
    168      -0.3518      2.00000
    169       2.6931      0.25209
    170       2.6948      0.24308
    171       2.6964      0.23441
    172       3.0294     -0.00830
    173       3.0309     -0.00808
    174       3.0324     -0.00785
    175       3.0324     -0.00785
    176       3.0338     -0.00764
    177       3.0353     -0.00743
    178       3.3241     -0.00000
    179       3.3247     -0.00000
    180       3.3251     -0.00000
    181       3.5520     -0.00000
    182       3.5527     -0.00000
    183       3.5534     -0.00000
    184       3.9060     -0.00000
    185       3.9078     -0.00000
    186       3.9091     -0.00000
    187       3.9091     -0.00000
    188       3.9105     -0.00000
    189       3.9122     -0.00000
    190       4.2199     -0.00000
    191       4.2216     -0.00000
    192       4.2233     -0.00000
    193       7.2274     -0.00000
    194       7.2279     -0.00000
    195       7.2284     -0.00000
    196       7.5771     -0.00000
    197       7.5779     -0.00000
    198       7.5787     -0.00000
    199       8.0024     -0.00000
    200       8.0029     -0.00000
    201       8.0052     -0.00000
    202       8.0054     -0.00000
    203       8.0075     -0.00000
    204       8.0081     -0.00000
    205       8.3612      0.00000
    206       8.3617      0.00000
    207       8.3637      0.00000
    208       8.3642      0.00000
    209       8.3659      0.00000
    210       8.4216      0.00000
    211       8.7744      0.00000
    212       9.0604      0.00000


--------------------------------------------------------------------------------------------------------


 soft charge-density along one line, spin component           1
         0         1         2         3         4         5         6         7         8         9
 total charge-density along one line
 
 pseudopotential strength for first ion, spin component:           1
-12.372   0.000  -0.000   0.000  -0.000   0.169  -0.000   0.000
  0.000 -12.372   0.000  -0.000  -0.000  -0.000   0.169  -0.000
 -0.000   0.000 -12.364   0.000  -0.000   0.000  -0.000   0.167
  0.000  -0.000   0.000 -12.372   0.000  -0.000   0.000  -0.000
 -0.000  -0.000  -0.000   0.000 -12.364   0.000   0.000   0.000
  0.169  -0.000   0.000  -0.000   0.000   0.450   0.000  -0.000
 -0.000   0.169  -0.000   0.000   0.000   0.000   0.450   0.000
  0.000  -0.000   0.167  -0.000   0.000  -0.000   0.000   0.450
 -0.000   0.000  -0.000   0.169  -0.000   0.000  -0.000   0.000
  0.000   0.000   0.000  -0.000   0.167  -0.000  -0.000  -0.000
  0.000  -0.000  -0.000  -0.000  -0.000   0.000   0.000   0.000
  0.000   0.000   0.000   0.000   0.000  -0.000  -0.000  -0.000
 -0.000   0.000  -0.000  -0.000  -0.000   0.000  -0.000   0.000
 -0.000   0.000   0.000  -0.000  -0.000   0.000  -0.000  -0.000
  0.000  -0.000   0.000   0.000  -0.000  -0.000   0.000  -0.000
  0.000  -0.000   0.000   0.000   0.000  -0.000   0.000  -0.000
  0.000  -0.000  -0.000   0.000   0.000  -0.000   0.000   0.000
 -0.000   0.000  -0.000  -0.000   0.000   0.000  -0.000   0.000
 total augmentation occupancy for first ion, spin component:           1
  1.940   0.000  -0.001  -0.000  -0.001  -0.029  -0.000  -0.000  -0.000   0.000   0.005  -0.000  -0.000   0.000  -0.000  -0.000
  0.000   1.942  -0.001  -0.000  -0.001  -0.000  -0.032   0.002   0.000   0.000   0.003  -0.001   0.000  -0.000  -0.000  -0.000
 -0.001  -0.001   1.966  -0.001  -0.002  -0.000   0.002  -0.057   0.001   0.002   0.012   0.001  -0.000   0.000  -0.000  -0.000
 -0.000  -0.000  -0.001   1.945  -0.000  -0.000   0.000   0.001  -0.034   0.001   0.002  -0.001   0.000   0.000   0.000  -0.000
 -0.001  -0.001  -0.002  -0.000   1.959   0.000   0.000   0.002   0.001  -0.052   0.007   0.000   0.000   0.000  -0.000  -0.000
 -0.029  -0.000  -0.000  -0.000   0.000   0.062   0.000   0.001   0.000  -0.000  -0.002   0.001  -0.000  -0.000   0.000   0.000
 -0.000  -0.032   0.002   0.000   0.000   0.000   0.064  -0.002  -0.000   0.001  -0.001   0.001   0.000   0.000   0.000   0.000
 -0.000   0.002  -0.057   0.001   0.002   0.001  -0.002   0.055  -0.001  -0.001  -0.009   0.000   0.000  -0.000   0.000  -0.000
 -0.000   0.000   0.001  -0.034   0.001   0.000  -0.000  -0.001   0.066  -0.002   0.001   0.001  -0.000   0.000  -0.000   0.000
  0.000   0.000   0.002   0.001  -0.052  -0.000   0.001  -0.001  -0.002   0.052  -0.005   0.000   0.000  -0.000  -0.000   0.000
  0.005   0.003   0.012   0.002   0.007  -0.002  -0.001  -0.009   0.001  -0.005   0.993  -0.316  -0.000  -0.000   0.000   0.000
 -0.000  -0.001   0.001  -0.001   0.000   0.001   0.001   0.000   0.001   0.000  -0.316   0.154   0.000   0.000  -0.000  -0.000
 -0.000   0.000  -0.000   0.000   0.000  -0.000   0.000   0.000  -0.000   0.000  -0.000   0.000   0.093   0.000   0.002  -0.005
  0.000  -0.000   0.000   0.000   0.000  -0.000   0.000  -0.000   0.000  -0.000  -0.000   0.000   0.000   0.097  -0.001  -0.000
 -0.000  -0.000  -0.000   0.000  -0.000   0.000   0.000   0.000  -0.000  -0.000   0.000  -0.000   0.002  -0.001   0.095  -0.000
 -0.000  -0.000  -0.000  -0.000  -0.000   0.000   0.000  -0.000   0.000   0.000   0.000  -0.000  -0.005  -0.000  -0.000   0.000
 -0.000  -0.000  -0.000  -0.000  -0.000   0.000   0.000   0.000   0.000   0.000   0.000   0.000  -0.000  -0.005  -0.000   0.000
  0.000   0.000   0.000   0.000  -0.000  -0.000  -0.000  -0.000  -0.000   0.000  -0.000   0.000  -0.000  -0.000  -0.005   0.000


------------------------ aborting loop because EDIFF is reached ----------------------------------------




--------------------------------------------------------------------------------------------------------


    CHARGE:  VPU time  144.22: CPU time  144.35
    FORLOC:  VPU time    0.57: CPU time    0.57
    FORNL :  VPU time  414.84: CPU time  415.03
    STRESS:  VPU time  486.38: CPU time  486.49
    FORCOR:  VPU time    1.58: CPU time    1.58
    FORHAR:  VPU time    0.51: CPU time    0.51
    MIXING:  VPU time    0.04: CPU time    0.04


--------------------------------------------------------------------------------------------------------



  FREE ENERGIE OF THE ION-ELECTRON SYSTEM (eV)
  ---------------------------------------------------
  free  energy   TOTEN  =       -89.946746 eV

  energy  without entropy=      -89.934644  energy(sigma->0) =      -89.942712
 

  FORCE on cell =-STRESS in cart. coord.  units (eV/reduce length):
  Direction    X        Y        Z        XY       YZ       ZX
  --------------------------------------------------------------------------------------
  Alpha Z   2967.14   2967.14   2967.14
  Ewald   -10031.93 -10031.79 -10031.79     -0.00     -0.00     -0.00
  Hartree   2233.40   2233.50   2233.50     -0.00     -0.00     -0.00
  E(xc)    -1855.95  -1855.95  -1855.95     -0.00     -0.00     -0.00
  Local     3117.91   3117.67   3117.67      0.00      0.00      0.00
  n-local  -2135.53  -2139.01  -2132.05      2.20      1.18      0.16
  augment   1339.16   1339.15   1339.15     -0.00     -0.00     -0.00
  Kinetic   4348.67   4342.85   4354.49      1.53     -0.34     -2.20
  -------------------------------------------------------------------------------------
  Total      -17.13    -17.14    -17.14     -0.00     -0.00     -0.00
  in kB      -44.79    -44.81    -44.81     -0.00     -0.00     -0.00
  external pressure =      -44.81 kB  Pullay stress =        0.00 kB


 VOLUME and BASIS-vectors are now :
 -----------------------------------------------------------------------------
  energy-cutoff  :      600.00
  volume of cell :      612.84
      direct lattice vectors                 reciprocal lattice vectors
     8.494089020  0.000000000  0.000000000     0.117728929 -0.000000002 -0.000000002
     0.000000160  8.494089020  0.000000000     0.000000000  0.117728929 -0.000000002
     0.000000160  0.000000160  8.494089020     0.000000000  0.000000000  0.117728929

  length of vectors
     8.494089020  8.494089020  8.494089020     0.117728929  0.117728929  0.117728929


 FORCES acting on ions
    electron-ion (+dipol)            ewald-force                    non-local-force                 convergence-correction
 -----------------------------------------------------------------------------------------------
   -.299E-01 -.148E+00 0.148E-07   0.327E-01 0.148E+00 -.157E-07   -.210E-02 0.492E-03 0.000E+00   -.288E-03 0.267E-03 -.125E-09
   -.948E+00 -.178E+01 0.853E-08   0.945E+00 0.178E+01 -.324E-09   0.950E-02 0.713E-02 0.136E-19   0.154E-02 0.192E-02 0.122E-09
   -.948E+00 0.314E-07 0.178E+01   0.945E+00 -.332E-07 -.178E+01   0.950E-02 -.134E-09 -.713E-02   0.154E-02 -.162E-09 -.192E-02
   -.299E-01 0.148E+00 -.802E-08   0.327E-01 -.148E+00 0.866E-08   -.210E-02 -.492E-03 0.000E+00   -.288E-03 -.267E-03 0.114E-09
   0.116E+01 -.868E-02 0.868E-02   -.116E+01 0.862E-02 -.862E-02   0.202E-02 0.567E-04 -.567E-04   -.265E-03 0.266E-04 -.266E-04
   0.614E+00 -.230E-08 -.419E-07   -.617E+00 0.171E-08 0.461E-07   0.201E-02 0.348E-19 -.169E-20   0.107E-04 -.304E-09 0.586E-09
   -.243E-01 0.149E+00 -.837E-08   0.272E-01 -.148E+00 0.903E-08   -.213E-02 -.458E-03 0.000E+00   -.251E-03 -.325E-03 0.114E-09
   -.948E+00 -.250E-07 -.178E+01   0.945E+00 0.332E-07 0.178E+01   0.950E-02 0.134E-09 0.713E-02   0.154E-02 0.158E-09 0.192E-02
   -.948E+00 0.178E+01 -.206E-08   0.945E+00 -.178E+01 0.265E-09   0.950E-02 -.713E-02 -.136E-19   0.154E-02 -.192E-02 -.126E-09
   -.299E-01 -.530E-08 0.148E+00   0.327E-01 0.588E-08 -.148E+00   -.210E-02 -.926E-11 -.492E-03   -.288E-03 0.109E-09 -.267E-03
   0.116E+01 -.868E-02 -.868E-02   -.116E+01 0.862E-02 0.862E-02   0.202E-02 0.567E-04 0.567E-04   -.265E-03 0.266E-04 0.266E-04
   0.739E+01 -.121E-06 0.999E-07   -.738E+01 0.132E-06 0.132E-06   -.565E-01 -.511E-19 0.000E+00   -.777E-02 -.613E-09 -.613E-09
   0.116E+01 0.868E-02 0.868E-02   -.116E+01 -.862E-02 -.862E-02   0.202E-02 -.567E-04 -.567E-04   -.265E-03 -.266E-04 -.266E-04
   0.257E+00 -.118E-07 -.117E-07   -.255E+00 0.122E-07 0.122E-07   -.257E-02 -.114E-19 0.000E+00   0.552E-03 0.273E-09 0.273E-09
   -.937E+00 0.181E+01 -.219E-08   0.934E+00 -.181E+01 0.294E-09   0.947E-02 -.720E-02 0.000E+00   0.152E-02 -.189E-02 -.126E-09
   -.937E+00 -.255E-07 -.181E+01   0.934E+00 0.337E-07 0.181E+01   0.947E-02 0.136E-09 0.720E-02   0.152E-02 0.199E-09 0.189E-02
   -.243E-01 -.149E+00 0.145E-07   0.272E-01 0.148E+00 -.155E-07   -.213E-02 0.458E-03 0.169E-20   -.251E-03 0.325E-03 -.159E-09
   -.651E+00 0.255E-02 -.255E-02   0.655E+00 -.258E-02 0.258E-02   -.229E-02 0.500E-04 -.500E-04   -.340E-03 -.188E-04 0.188E-04
   -.493E+00 0.225E-08 0.289E-07   0.485E+00 -.169E-08 -.291E-07   0.646E-02 -.424E-20 0.000E+00   0.463E-03 0.289E-09 -.490E-09
   -.299E-01 0.119E-07 -.148E+00   0.327E-01 -.129E-07 0.148E+00   -.210E-02 0.926E-11 0.492E-03   -.288E-03 -.120E-09 0.267E-03
   0.116E+01 0.868E-02 -.868E-02   -.116E+01 -.862E-02 0.862E-02   0.202E-02 -.567E-04 0.567E-04   -.265E-03 -.266E-04 0.266E-04
   0.614E+00 -.428E-07 -.226E-08   -.617E+00 0.461E-07 0.171E-08   0.201E-02 -.189E-20 0.000E+00   0.991E-05 0.586E-09 -.304E-09
   -.937E+00 0.318E-07 0.181E+01   0.934E+00 -.337E-07 -.181E+01   0.947E-02 -.136E-09 -.720E-02   0.152E-02 -.162E-09 -.189E-02
   -.937E+00 -.181E+01 0.862E-08   0.934E+00 0.181E+01 -.294E-09   0.947E-02 0.720E-02 0.000E+00   0.152E-02 0.189E-02 0.164E-09
   -.243E-01 0.116E-07 -.149E+00   0.272E-01 -.127E-07 0.148E+00   -.213E-02 0.863E-11 0.458E-03   -.251E-03 -.154E-09 0.325E-03
   -.651E+00 0.255E-02 0.255E-02   0.655E+00 -.258E-02 -.258E-02   -.229E-02 0.500E-04 0.500E-04   -.340E-03 -.188E-04 -.188E-04
   -.193E+01 0.470E-08 -.222E-06   0.195E+01 -.227E-08 -.227E-08   -.142E-01 -.233E-20 0.000E+00   -.100E-03 0.558E-09 0.558E-09
   -.651E+00 -.255E-02 -.255E-02   0.655E+00 0.258E-02 0.258E-02   -.229E-02 -.500E-04 -.500E-04   -.340E-03 0.188E-04 0.188E-04
   -.238E+00 0.105E-07 0.106E-07   0.238E+00 -.108E-07 -.108E-07   -.280E-03 -.114E-21 0.000E+00   -.282E-03 -.279E-09 -.279E-09
   -.243E-01 -.563E-08 0.149E+00   0.272E-01 0.624E-08 -.148E+00   -.213E-02 -.863E-11 -.458E-03   -.251E-03 0.108E-09 -.325E-03
   -.651E+00 -.255E-02 0.255E-02   0.655E+00 0.258E-02 -.258E-02   -.229E-02 -.500E-04 0.500E-04   -.340E-03 0.188E-04 -.188E-04
   -.493E+00 0.280E-07 0.229E-08   0.485E+00 -.291E-07 -.169E-08   0.646E-02 0.306E-20 0.000E+00   0.463E-03 -.490E-09 0.289E-09
 -----------------------------------------------------------------------------------------------
   -.210E-02 -.293E-10 -.212E-08   0.958E-13 0.177E-12 0.301E-12   0.139E-02 -.105E-19 0.244E-18   0.103E-02 -.324E-10 -.326E-10
 
 
 POSITION                                       TOTAL-FORCE (eV/Angst)
 -----------------------------------------------------------------------------------
      6.37057      6.37057      4.24704         0.000460      0.000108      0.000000
      6.37057      6.37057      0.00000         0.007536      0.008810      0.000000
      6.37057      0.00000      2.12352         0.007536     -0.000000     -0.008810
      6.37057      2.12352      4.24704         0.000460     -0.000108      0.000000
      0.00000      6.37057      2.12352        -0.001541      0.000026     -0.000026
      0.00000      0.00000      4.24704        -0.000660      0.000000      0.000000
      2.12352      6.37057      4.24704         0.000459     -0.000106      0.000000
      6.37057      0.00000      6.37057         0.007536      0.000000      0.008810
      6.37057      2.12352      0.00000         0.007536     -0.008810     -0.000000
      6.37057      4.24704      2.12352         0.000460     -0.000000     -0.000108
      0.00000      6.37057      6.37057        -0.001541      0.000026      0.000026
      0.02000      0.00000      0.00000        -0.063490      0.000000     -0.000000
      0.00000      2.12352      2.12352        -0.001541     -0.000026     -0.000026
      0.00000      4.24704      4.24704        -0.000162     -0.000000      0.000000
      2.12352      6.37057      0.00000         0.008115     -0.009576      0.000000
      2.12352      0.00000      2.12352         0.008115      0.000000      0.009576
      2.12352      2.12352      4.24704         0.000459      0.000106      0.000000
      4.24704      6.37057      2.12352         0.001187     -0.000006      0.000006
      4.24704      0.00000      4.24704        -0.000920      0.000000      0.000000
      6.37057      4.24704      6.37057         0.000460      0.000000      0.000108
      0.00000      2.12352      6.37057        -0.001541     -0.000026      0.000026
      0.00000      4.24704      0.00000        -0.000660     -0.000000     -0.000000
      2.12352      0.00000      6.37057         0.008115     -0.000000     -0.009576
      2.12352      2.12352      0.00000         0.008115      0.009576      0.000000
      2.12352      4.24704      2.12352         0.000459      0.000000      0.000106
      4.24704      6.37057      6.37057         0.001187     -0.000006     -0.000006
      4.24704      0.00000      0.00000         0.002213      0.000000     -0.000000
      4.24704      2.12352      2.12352         0.001187      0.000006      0.000006
      4.24704      4.24704      4.24704        -0.000266     -0.000000      0.000000
      2.12352      4.24704      6.37057         0.000459     -0.000000     -0.000106
      4.24704      2.12352      6.37057         0.001187      0.000006     -0.000006
      4.24704      4.24704      0.00000        -0.000920      0.000000     -0.000000
 -----------------------------------------------------------------------------------
    total drift:                                0.000316     -0.000000     -0.000000


--------------------------------------------------------------------------------------------------------



 mean value of Nose-termostat <S>:     1.000 mean value of <T> :     0.000
 mean temperature <T/S>/<1/S>  :     0.000

     LOOP+:  VPU time27582.44: CPU time27606.62

 ----------------------------------------------------------------------------- 
|                                                                             |
|           W    W    AA    RRRRR   N    N  II  N    N   GGGG   !!!           |
|           W    W   A  A   R    R  NN   N  II  NN   N  G    G  !!!           |
|           W    W  A    A  R    R  N N  N  II  N N  N  G       !!!           |
|           W WW W  AAAAAA  RRRRR   N  N N  II  N  N N  G  GGG   !            |
|           WW  WW  A    A  R   R   N   NN  II  N   NN  G    G                |
|           W    W  A    A  R    R  N    N  II  N    N   GGGG   !!!           |
|                                                                             |
|      The partial DOS and the PROCAR file are not evaluated for NPAR/=1      |
|      please rerun with NPAR=1                                               |
|                                                                             |
 ----------------------------------------------------------------------------- 

  
  
 General timing and accounting informations for this job:
 ========================================================
  
                  Total CPU time used (sec):    28382.043
                            User time (sec):    25808.044
                          System time (sec):     2574.000
                         Elapsed time (sec):    28406.666
  
                   Maximum memory used (kb):     3595256.
                   Average memory used (kb):           0.
  
                          Minor page faults:       659321
                          Major page faults:            0
                 Voluntary context switches:          922
