   4   4   0   0
  0.2019243E+02  0.4322645E-09  0.4322645E-09  0.4322645E-09  0.5000000E-15
  1.000000000000000E-004
  CAR 
 unknown system                          
     16.68808388     -4.73972798  301      6.02412233      1.00000000
     -4.740  0.0000E+00  0.0000E+00
     -4.668  0.0000E+00  0.0000E+00
     -4.597  0.0000E+00  0.0000E+00
     -4.525  0.0000E+00  0.0000E+00
     -4.454  0.0000E+00  0.0000E+00
     -4.383  0.0000E+00  0.0000E+00
     -4.311  0.0000E+00  0.0000E+00
     -4.240  0.0000E+00  0.0000E+00
     -4.168  0.0000E+00  0.0000E+00
     -4.097  0.0000E+00  0.0000E+00
     -4.025  0.0000E+00  0.0000E+00
     -3.954  0.0000E+00  0.0000E+00
     -3.883  0.0000E+00  0.0000E+00
     -3.811  0.3935E-13  0.2811E-14
     -3.740  0.2214E-01  0.1582E-02
     -3.668  0.1348E+00  0.1122E-01
     -3.597  0.2098E+00  0.2631E-01
     -3.525  0.2444E+00  0.4401E-01
     -3.454  0.2958E+00  0.6517E-01
     -3.383  0.3338E+00  0.8910E-01
     -3.311  0.3696E+00  0.1157E+00
     -3.240  0.3882E+00  0.1436E+00
     -3.168  0.3984E+00  0.1722E+00
     -3.097  0.4913E+00  0.2073E+00
     -3.026  0.4477E+00  0.2394E+00
     -2.954  0.5224E+00  0.2769E+00
     -2.883  0.4594E+00  0.3099E+00
     -2.811  0.6123E+00  0.3537E+00
     -2.740  0.5139E+00  0.3907E+00
     -2.668  0.6025E+00  0.4338E+00
     -2.597  0.5792E+00  0.4753E+00
     -2.526  0.6414E+00  0.5213E+00
     -2.454  0.6469E+00  0.5677E+00
     -2.383  0.6459E+00  0.6142E+00
     -2.311  0.7032E+00  0.6646E+00
     -2.240  0.7206E+00  0.7163E+00
     -2.168  0.6667E+00  0.7642E+00
     -2.097  0.7495E+00  0.8184E+00
     -2.026  0.7004E+00  0.8688E+00
     -1.954  0.8089E+00  0.9266E+00
     -1.883  0.7713E+00  0.9819E+00
     -1.811  0.7235E+00  0.1034E+01
     -1.740  0.8597E+00  0.1095E+01
     -1.668  0.8498E+00  0.1156E+01
     -1.597  0.8007E+00  0.1214E+01
     -1.526  0.7891E+00  0.1270E+01
     -1.454  0.9658E+00  0.1339E+01
     -1.383  0.8134E+00  0.1398E+01
     -1.311  0.9107E+00  0.1463E+01
     -1.240  0.9044E+00  0.1528E+01
     -1.168  0.9627E+00  0.1596E+01
     -1.097  0.8579E+00  0.1658E+01
     -1.026  0.9851E+00  0.1729E+01
     -0.954  0.9667E+00  0.1798E+01
     -0.883  0.9504E+00  0.1866E+01
     -0.811  0.9523E+00  0.1934E+01
     -0.740  0.1017E+01  0.2008E+01
     -0.668  0.1004E+01  0.2080E+01
     -0.597  0.1015E+01  0.2153E+01
     -0.526  0.1018E+01  0.2226E+01
     -0.454  0.1072E+01  0.2304E+01
     -0.383  0.1022E+01  0.2378E+01
     -0.311  0.1089E+01  0.2457E+01
     -0.240  0.9715E+00  0.2527E+01
     -0.168  0.1227E+01  0.2615E+01
     -0.097  0.9883E+00  0.2687E+01
     -0.026  0.1073E+01  0.2764E+01
      0.046  0.1231E+01  0.2852E+01
      0.117  0.1059E+01  0.2928E+01
      0.189  0.1188E+01  0.3014E+01
      0.260  0.1230E+01  0.3102E+01
      0.332  0.1054E+01  0.3178E+01
      0.403  0.1231E+01  0.3267E+01
      0.474  0.1183E+01  0.3352E+01
      0.546  0.1217E+01  0.3439E+01
      0.617  0.1095E+01  0.3518E+01
      0.689  0.1296E+01  0.3611E+01
      0.760  0.1274E+01  0.3703E+01
      0.832  0.1191E+01  0.3788E+01
      0.903  0.1267E+01  0.3879E+01
      0.974  0.1186E+01  0.3965E+01
      1.046  0.1260E+01  0.4055E+01
      1.117  0.1501E+01  0.4163E+01
      1.189  0.1189E+01  0.4249E+01
      1.260  0.1221E+01  0.4337E+01
      1.331  0.1314E+01  0.4432E+01
      1.403  0.1422E+01  0.4535E+01
      1.474  0.1294E+01  0.4627E+01
      1.546  0.1346E+01  0.4724E+01
      1.617  0.1252E+01  0.4814E+01
      1.689  0.1507E+01  0.4922E+01
      1.760  0.1337E+01  0.5018E+01
      1.831  0.1456E+01  0.5123E+01
      1.903  0.1401E+01  0.5224E+01
      1.974  0.1385E+01  0.5323E+01
      2.046  0.1453E+01  0.5427E+01
      2.117  0.1465E+01  0.5532E+01
      2.189  0.1481E+01  0.5638E+01
      2.260  0.1303E+01  0.5732E+01
      2.331  0.1294E+01  0.5825E+01
      2.403  0.1572E+01  0.5938E+01
      2.474  0.1364E+01  0.6036E+01
      2.546  0.1536E+01  0.6146E+01
      2.617  0.1437E+01  0.6249E+01
      2.689  0.1551E+01  0.6361E+01
      2.760  0.1382E+01  0.6460E+01
      2.831  0.1558E+01  0.6572E+01
      2.903  0.1598E+01  0.6687E+01
      2.974  0.1454E+01  0.6791E+01
      3.046  0.1599E+01  0.6905E+01
      3.117  0.1447E+01  0.7010E+01
      3.189  0.1598E+01  0.7125E+01
      3.260  0.1728E+01  0.7249E+01
      3.331  0.1540E+01  0.7360E+01
      3.403  0.1494E+01  0.7467E+01
      3.474  0.1630E+01  0.7584E+01
      3.546  0.1858E+01  0.7717E+01
      3.617  0.1502E+01  0.7825E+01
      3.689  0.1724E+01  0.7948E+01
      3.760  0.1853E+01  0.8081E+01
      3.831  0.1651E+01  0.8200E+01
      3.903  0.1597E+01  0.8314E+01
      3.974  0.1661E+01  0.8434E+01
      4.046  0.1764E+01  0.8561E+01
      4.117  0.1433E+01  0.8663E+01
      4.189  0.1837E+01  0.8795E+01
      4.260  0.1411E+01  0.8897E+01
      4.331  0.1699E+01  0.9019E+01
      4.403  0.1490E+01  0.9126E+01
      4.474  0.1882E+01  0.9261E+01
      4.546  0.1328E+01  0.9357E+01
      4.617  0.1703E+01  0.9479E+01
      4.689  0.1694E+01  0.9601E+01
      4.760  0.1813E+01  0.9731E+01
      4.831  0.1675E+01  0.9851E+01
      4.903  0.1662E+01  0.9970E+01
      4.974  0.1710E+01  0.1009E+02
      5.046  0.1853E+01  0.1023E+02
      5.117  0.1841E+01  0.1036E+02
      5.188  0.1667E+01  0.1048E+02
      5.260  0.1833E+01  0.1061E+02
      5.331  0.1795E+01  0.1074E+02
      5.403  0.1695E+01  0.1086E+02
      5.474  0.1784E+01  0.1099E+02
      5.546  0.1723E+01  0.1111E+02
      5.617  0.1867E+01  0.1125E+02
      5.688  0.1745E+01  0.1137E+02
      5.760  0.1845E+01  0.1151E+02
      5.831  0.1695E+01  0.1163E+02
      5.903  0.1802E+01  0.1176E+02
      5.974  0.1988E+01  0.1190E+02
      6.046  0.1880E+01  0.1203E+02
      6.117  0.1829E+01  0.1217E+02
      6.188  0.1726E+01  0.1229E+02
      6.260  0.2017E+01  0.1244E+02
      6.331  0.1900E+01  0.1257E+02
      6.403  0.1886E+01  0.1271E+02
      6.474  0.1806E+01  0.1284E+02
      6.546  0.1928E+01  0.1298E+02
      6.617  0.1986E+01  0.1312E+02
      6.688  0.1940E+01  0.1326E+02
      6.760  0.1833E+01  0.1339E+02
      6.831  0.1955E+01  0.1353E+02
      6.903  0.1870E+01  0.1366E+02
      6.974  0.2105E+01  0.1382E+02
      7.046  0.2045E+01  0.1396E+02
      7.117  0.1985E+01  0.1410E+02
      7.188  0.1834E+01  0.1424E+02
      7.260  0.1866E+01  0.1437E+02
      7.331  0.2094E+01  0.1452E+02
      7.403  0.2186E+01  0.1468E+02
      7.474  0.1995E+01  0.1482E+02
      7.546  0.1865E+01  0.1496E+02
      7.617  0.2114E+01  0.1511E+02
      7.688  0.1984E+01  0.1525E+02
      7.760  0.2024E+01  0.1539E+02
      7.831  0.2095E+01  0.1555E+02
      7.903  0.1974E+01  0.1569E+02
      7.974  0.2316E+01  0.1585E+02
      8.046  0.2092E+01  0.1600E+02
      8.117  0.1891E+01  0.1614E+02
      8.188  0.2005E+01  0.1628E+02
      8.260  0.2014E+01  0.1643E+02
      8.331  0.2431E+01  0.1660E+02
      8.403  0.2097E+01  0.1675E+02
      8.474  0.2147E+01  0.1691E+02
      8.546  0.1995E+01  0.1705E+02
      8.617  0.2220E+01  0.1721E+02
      8.688  0.2055E+01  0.1736E+02
      8.760  0.2392E+01  0.1753E+02
      8.831  0.1902E+01  0.1767E+02
      8.903  0.2332E+01  0.1783E+02
      8.974  0.2182E+01  0.1799E+02
      9.045  0.2093E+01  0.1814E+02
      9.117  0.2312E+01  0.1831E+02
      9.188  0.2229E+01  0.1847E+02
      9.260  0.2179E+01  0.1862E+02
      9.331  0.2141E+01  0.1878E+02
      9.403  0.2458E+01  0.1895E+02
      9.474  0.2037E+01  0.1910E+02
      9.545  0.2558E+01  0.1928E+02
      9.617  0.2209E+01  0.1944E+02
      9.688  0.2102E+01  0.1959E+02
      9.760  0.2355E+01  0.1976E+02
      9.831  0.2331E+01  0.1993E+02
      9.903  0.2457E+01  0.2011E+02
      9.974  0.2024E+01  0.2025E+02
     10.045  0.2740E+01  0.2045E+02
     10.117  0.2336E+01  0.2062E+02
     10.188  0.2181E+01  0.2077E+02
     10.260  0.2418E+01  0.2095E+02
     10.331  0.2407E+01  0.2112E+02
     10.403  0.2483E+01  0.2130E+02
     10.474  0.2447E+01  0.2147E+02
     10.545  0.2530E+01  0.2166E+02
     10.617  0.2400E+01  0.2183E+02
     10.688  0.2603E+01  0.2202E+02
     10.760  0.2576E+01  0.2220E+02
     10.831  0.2809E+01  0.2240E+02
     10.903  0.2341E+01  0.2257E+02
     10.974  0.2964E+01  0.2278E+02
     11.045  0.2626E+01  0.2297E+02
     11.117  0.2676E+01  0.2316E+02
     11.188  0.2741E+01  0.2336E+02
     11.260  0.2282E+01  0.2352E+02
     11.331  0.2680E+01  0.2372E+02
     11.403  0.2477E+01  0.2389E+02
     11.474  0.2320E+01  0.2406E+02
     11.545  0.2685E+01  0.2425E+02
     11.617  0.2341E+01  0.2442E+02
     11.688  0.2652E+01  0.2461E+02
     11.760  0.2402E+01  0.2478E+02
     11.831  0.2379E+01  0.2496E+02
     11.903  0.2221E+01  0.2512E+02
     11.974  0.2400E+01  0.2529E+02
     12.045  0.2493E+01  0.2547E+02
     12.117  0.2236E+01  0.2563E+02
     12.188  0.2209E+01  0.2579E+02
     12.260  0.2370E+01  0.2596E+02
     12.331  0.2551E+01  0.2614E+02
     12.403  0.2277E+01  0.2630E+02
     12.474  0.2335E+01  0.2647E+02
     12.545  0.2068E+01  0.2662E+02
     12.617  0.2257E+01  0.2678E+02
     12.688  0.2678E+01  0.2697E+02
     12.760  0.2265E+01  0.2714E+02
     12.831  0.2120E+01  0.2729E+02
     12.903  0.2551E+01  0.2747E+02
     12.974  0.2506E+01  0.2765E+02
     13.045  0.2058E+01  0.2780E+02
     13.117  0.2350E+01  0.2797E+02
     13.188  0.2226E+01  0.2813E+02
     13.260  0.2242E+01  0.2829E+02
     13.331  0.2739E+01  0.2849E+02
     13.402  0.2216E+01  0.2865E+02
     13.474  0.2002E+01  0.2879E+02
     13.545  0.2391E+01  0.2896E+02
     13.617  0.2371E+01  0.2913E+02
     13.688  0.2206E+01  0.2929E+02
     13.760  0.2123E+01  0.2944E+02
     13.831  0.2003E+01  0.2959E+02
     13.902  0.2443E+01  0.2976E+02
     13.974  0.2090E+01  0.2991E+02
     14.045  0.2086E+01  0.3006E+02
     14.117  0.2082E+01  0.3021E+02
     14.188  0.1784E+01  0.3034E+02
     14.260  0.2007E+01  0.3048E+02
     14.331  0.1509E+01  0.3059E+02
     14.402  0.1903E+01  0.3073E+02
     14.474  0.1582E+01  0.3084E+02
     14.545  0.1179E+01  0.3093E+02
     14.617  0.1589E+01  0.3104E+02
     14.688  0.1316E+01  0.3114E+02
     14.760  0.1470E+01  0.3124E+02
     14.831  0.1073E+01  0.3132E+02
     14.902  0.1117E+01  0.3140E+02
     14.974  0.1082E+01  0.3148E+02
     15.045  0.1072E+01  0.3155E+02
     15.117  0.1006E+01  0.3163E+02
     15.188  0.1180E+01  0.3171E+02
     15.260  0.7875E+00  0.3177E+02
     15.331  0.9007E+00  0.3183E+02
     15.402  0.7087E+00  0.3188E+02
     15.474  0.6517E+00  0.3193E+02
     15.545  0.5483E+00  0.3197E+02
     15.617  0.3177E+00  0.3199E+02
     15.688  0.9234E-01  0.3200E+02
     15.760  0.1440E-01  0.3200E+02
     15.831  0.0000E+00  0.3200E+02
     15.902  0.0000E+00  0.3200E+02
     15.974  0.0000E+00  0.3200E+02
     16.045  0.0000E+00  0.3200E+02
     16.117  0.0000E+00  0.3200E+02
     16.188  0.0000E+00  0.3200E+02
     16.260  0.0000E+00  0.3200E+02
     16.331  0.0000E+00  0.3200E+02
     16.402  0.0000E+00  0.3200E+02
     16.474  0.0000E+00  0.3200E+02
     16.545  0.0000E+00  0.3200E+02
     16.617  0.0000E+00  0.3200E+02
     16.688  0.0000E+00  0.3200E+02
