    4    4    1    1
  0.2019243E+02  0.4322645E-09  0.4322645E-09  0.4322645E-09  0.5000000E-15
  1.000000000000000E-004
  CAR 
 unknown system                          
   12 1330   16
 
  0.0000000E+00  0.0000000E+00  0.0000000E+00  0.2143347E-04
   1       -3.7657
   2        3.6086
   3        3.6086
   4        3.6086
   5        4.4075
   6        4.4075
   7        4.4075
   8       10.7855
   9       10.7855
  10       10.7855
  11       10.7855
  12       10.7855
  13       10.7855
  14       11.2468
  15       11.2468
  16       11.2468
 
  0.2777778E-01  0.0000000E+00  0.0000000E+00  0.1286008E-03
   1       -3.7596
   2        3.4319
   3        3.6143
   4        3.6143
   5        4.4134
   6        4.4134
   7        4.5950
   8       10.5503
   9       10.5503
  10       10.7301
  11       10.7301
  12       10.7909
  13       10.7909
  14       11.2528
  15       11.4932
  16       11.4932
 
  0.5555556E-01  0.0000000E+00  0.0000000E+00  0.1286008E-03
   1       -3.7413
   2        3.0946
   3        3.6314
   4        3.6314
   5        4.4313
   6        4.4313
   7        4.9645
   8       10.1847
   9       10.1847
  10       10.5777
  11       10.5777
  12       10.8069
  13       10.8069
  14       11.2708
  15       11.8927
  16       11.8927
 
  0.8333333E-01  0.0000000E+00  0.0000000E+00  0.1286008E-03
   1       -3.7108
   2        2.7273
   3        3.6599
   4        3.6599
   5        4.4612
   6        4.4612
   7        5.3855
   8        9.8121
   9        9.8121
  10       10.3576
  11       10.3576
  12       10.8337
  13       10.8337
  14       11.3009
  15       12.3216
  16       12.3216
 
  0.1111111E+00  0.0000000E+00  0.0000000E+00  0.1286008E-03
   1       -3.6680
   2        2.3576
   3        3.6998
   4        3.6998
   5        4.5029
   6        4.5029
   7        5.8304
   8        9.4459
   9        9.4459
  10       10.0966
  11       10.0966
  12       10.8712
  13       10.8712
  14       11.3430
  15       12.7666
  16       12.7666
 
  0.1388889E+00  0.0000000E+00  0.0000000E+00  0.1286008E-03
   1       -3.6131
   2        1.9932
   3        3.7511
   4        3.7511
   5        4.5565
   6        4.5565
   7        6.2913
   8        9.0890
   9        9.0890
  10        9.8133
  11        9.8133
  12       10.9194
  13       10.9194
  14       11.3971
  15       13.2249
  16       13.2249
 
  0.1666667E+00  0.0000000E+00  0.0000000E+00  0.1286008E-03
   1       -3.5460
   2        1.6371
   3        3.8139
   4        3.8139
   5        4.6219
   6        4.6219
   7        6.7653
   8        8.7424
   9        8.7424
  10        9.5192
  11        9.5192
  12       10.9783
  13       10.9783
  14       11.4632
  15       13.6895
  16       13.6952
 
  0.1944444E+00  0.0000000E+00  0.0000000E+00  0.1286008E-03
   1       -3.4667
   2        1.2904
   3        3.8880
   4        3.8880
   5        4.6991
   6        4.6991
   7        7.2510
   8        8.4066
   9        8.4066
  10        9.2215
  11        9.2215
  12       11.0480
  13       11.0480
  14       11.5412
  15       13.7599
  16       14.1770
 
  0.2222222E+00  0.0000000E+00  0.0000000E+00  0.1286008E-03
   1       -3.3752
   2        0.9539
   3        3.9735
   4        3.9735
   5        4.7880
   6        4.7880
   7        7.7476
   8        8.0818
   9        8.0818
  10        8.9247
  11        8.9247
  12       11.1283
  13       11.1283
  14       11.6313
  15       13.8442
  16       14.6700
 
  0.2500000E+00  0.0000000E+00  0.0000000E+00  0.1286008E-03
   1       -3.2716
   2        0.6281
   3        4.0705
   4        4.0705
   5        4.8884
   6        4.8884
   7        7.7682
   8        7.7682
   9        8.2545
  10        8.6317
  11        8.6317
  12       11.2194
  13       11.2194
  14       11.7332
  15       13.9396
  16       14.6797
 
  0.2777778E+00  0.0000000E+00  0.0000000E+00  0.1286008E-03
   1       -3.1559
   2        0.3131
   3        4.1788
   4        4.1788
   5        5.0004
   6        5.0004
   7        7.4659
   8        7.4659
   9        8.3446
  10        8.3446
  11        8.7712
  12       11.3212
  13       11.3212
  14       11.8471
  15       14.0460
  16       14.3981
 
  0.3055556E+00  0.0000000E+00  0.0000000E+00  0.1286008E-03
   1       -3.0281
   2        0.0092
   3        4.2986
   4        4.2986
   5        5.1236
   6        5.1236
   7        7.1749
   8        7.1749
   9        8.0649
  10        8.0649
  11        9.2972
  12       11.4336
  13       11.4336
  14       11.9728
  15       14.1268
  16       14.1312
 
  0.3333333E+00  0.0000000E+00  0.0000000E+00  0.1286008E-03
   1       -2.8883
   2       -0.2834
   3        4.4298
   4        4.4298
   5        5.2579
   6        5.2579
   7        6.8953
   8        6.8953
   9        7.7937
  10        7.7937
  11        9.8319
  12       11.5568
  13       11.5568
  14       12.1103
  15       13.8658
  16       13.8658
 
  0.3611111E+00  0.0000000E+00  0.0000000E+00  0.1286008E-03
   1       -2.7364
   2       -0.5647
   3        4.5724
   4        4.5724
   5        5.4028
   6        5.4028
   7        6.6270
   8        6.6270
   9        7.5320
  10        7.5320
  11       10.3748
  12       11.6907
  13       11.6907
  14       12.2596
  15       13.6153
  16       13.6153
 
  0.3888889E+00  0.0000000E+00  0.0000000E+00  0.1286008E-03
   1       -2.5725
   2       -0.8345
   3        4.7264
   4        4.7264
   5        5.5575
   6        5.5575
   7        6.3702
   8        6.3702
   9        7.2813
  10        7.2813
  11       10.9249
  12       11.8353
  13       11.8353
  14       12.4206
  15       13.3752
  16       13.3752
 
  0.4166667E+00  0.0000000E+00  0.0000000E+00  0.1286008E-03
   1       -2.3967
   2       -1.0928
   3        4.8919
   4        4.8919
   5        5.7205
   6        5.7205
   7        6.1247
   8        6.1247
   9        7.0433
  10        7.0433
  11       11.4811
  12       11.9905
  13       11.9905
  14       12.5932
  15       13.1456
  16       13.1456
 
  0.4444444E+00  0.0000000E+00  0.0000000E+00  0.1286008E-03
   1       -2.2089
   2       -1.3395
   3        5.0688
   4        5.0688
   5        5.8876
   6        5.8876
   7        5.8907
   8        5.8907
   9        6.8225
  10        6.8225
  11       12.0417
  12       12.1565
  13       12.1565
  14       12.7774
  15       12.9266
  16       12.9266
 
  0.4722222E+00  0.0000000E+00  0.0000000E+00  0.1286008E-03
   1       -2.0093
   2       -1.5745
   3        5.2571
   4        5.2571
   5        5.6681
   6        5.6681
   7        6.0443
   8        6.0443
   9        6.6335
  10        6.6335
  11       12.3330
  12       12.3330
  13       12.6043
  14       12.7181
  15       12.7181
  16       12.9730
 
  0.5000000E+00  0.0000000E+00  0.0000000E+00  0.6430041E-04
   1       -1.7978
   2       -1.7978
   3        5.4569
   4        5.4569
   5        5.4569
   6        5.4569
   7        6.1265
   8        6.1265
   9        6.5405
  10        6.5405
  11       12.5203
  12       12.5203
  13       12.5203
  14       12.5203
  15       13.1746
  16       13.1798
 
  0.2777778E-01  0.2777778E-01  0.0000000E+00  0.2572016E-03
   1       -3.7535
   2        3.4376
   3        3.4376
   4        3.6200
   5        4.4194
   6        4.6009
   7        4.6009
   8       10.3272
   9       10.5559
  10       10.5559
  11       10.7355
  12       10.7355
  13       10.7962
  14       11.4990
  15       11.4990
  16       11.6027
 
  0.5555556E-01  0.2777778E-01  0.0000000E+00  0.5144033E-03
   1       -3.7352
   2        3.1004
   3        3.4549
   4        3.6371
   5        4.4373
   6        4.6186
   7        4.9703
   8        9.9865
   9       10.1903
  10       10.5725
  11       10.5832
  12       10.7173
  13       10.7516
  14       11.5166
  15       11.8958
  16       11.8985
 
  0.8333333E-01  0.2777778E-01  0.0000000E+00  0.5144033E-03
   1       -3.7047
   2        2.7331
   3        3.4836
   4        3.6656
   5        4.4671
   6        4.6482
   7        5.3914
   8        9.6295
   9        9.8178
  10       10.3631
  11       10.5188
  12       10.6001
  13       10.7785
  14       11.5458
  15       12.2785
  16       12.3273
 
  0.1111111E+00  0.2777778E-01  0.0000000E+00  0.5144033E-03
   1       -3.6619
   2        2.3634
   3        3.5239
   4        3.7055
   5        4.5088
   6        4.6895
   7        5.8362
   8        9.2729
   9        9.4516
  10       10.1022
  11       10.2634
  12       10.6388
  13       10.8161
  14       11.5867
  15       12.7003
  16       12.7723
 
  0.1388889E+00  0.2777778E-01  0.0000000E+00  0.5144033E-03
   1       -3.6070
   2        1.9991
   3        3.5757
   4        3.7568
   5        4.5624
   6        4.7427
   7        6.2970
   8        8.9222
   9        9.0946
  10        9.8189
  11        9.9810
  12       10.6885
  13       10.8644
  14       11.6393
  15       13.1448
  16       13.2305
 
  0.1666667E+00  0.2777778E-01  0.0000000E+00  0.5144033E-03
   1       -3.5399
   2        1.6430
   3        3.6390
   4        3.8196
   5        4.6278
   6        4.8075
   7        6.7710
   8        8.5798
   9        8.7480
  10        9.5248
  11        9.6864
  12       10.7493
  13       10.9235
  14       11.7035
  15       13.6058
  16       13.7017
 
  0.1944444E+00  0.2777778E-01  0.0000000E+00  0.5144033E-03
   1       -3.4606
   2        1.2963
   3        3.7137
   4        3.8937
   5        4.7050
   6        4.8840
   7        7.2567
   8        8.2469
   9        8.4122
  10        9.2272
  11        9.3879
  12       10.8210
  13       10.9934
  14       11.7794
  15       13.8238
  16       14.0807
 
  0.2222222E+00  0.2777778E-01  0.0000000E+00  0.5144033E-03
   1       -3.3691
   2        0.9599
   3        3.7999
   4        3.9792
   5        4.7938
   6        4.9722
   7        7.7533
   8        7.9241
   9        8.0875
  10        8.9304
  11        9.0903
  12       10.9038
  13       11.0740
  14       11.8671
  15       13.9079
  16       14.5681
 
  0.2500000E+00  0.2777778E-01  0.0000000E+00  0.5144033E-03
   1       -3.2655
   2        0.6340
   3        3.8976
   4        4.0762
   5        4.8942
   6        5.0719
   7        7.6119
   8        7.7739
   9        8.2601
  10        8.6375
  11        8.7968
  12       10.9975
  13       11.1653
  14       11.9663
  15       14.0030
  16       14.5237
 
  0.2777778E+00  0.2777778E-01  0.0000000E+00  0.5144033E-03
   1       -3.1498
   2        0.3190
   3        4.0068
   4        4.1845
   5        5.0060
   6        5.1830
   7        7.3106
   8        7.4716
   9        8.3505
  10        8.5093
  11        8.7767
  12       11.1022
  13       11.2674
  14       12.0772
  15       14.1091
  16       14.2393
 
  0.3055556E+00  0.2777778E-01  0.0000000E+00  0.5144033E-03
   1       -3.0221
   2        0.0152
   3        4.1274
   4        4.3043
   5        5.1291
   6        5.3053
   7        7.0204
   8        7.1806
   9        8.0708
  10        8.2293
  11        9.3026
  12       11.2178
  13       11.3803
  14       12.1998
  15       13.9644
  16       14.0707
 
  0.3333333E+00  0.2777778E-01  0.0000000E+00  0.5144033E-03
   1       -2.8822
   2       -0.2774
   3        4.2595
   4        4.4355
   5        5.2630
   6        5.4386
   7        6.7416
   8        6.9010
   9        7.7997
  10        7.9579
  11        9.8371
  12       11.3443
  13       11.5040
  14       12.3340
  15       13.6998
  16       13.8103
 
  0.3611111E+00  0.2777778E-01  0.0000000E+00  0.5144033E-03
   1       -2.7303
   2       -0.5587
   3        4.4029
   4        4.5781
   5        5.4071
   6        5.5824
   7        6.4746
   8        6.6327
   9        7.5383
  10        7.6960
  11       10.3797
  12       11.4817
  13       11.6386
  14       12.4797
  15       13.4456
  16       13.5601
 
  0.3888889E+00  0.2777778E-01  0.0000000E+00  0.5144033E-03
   1       -2.5665
   2       -0.8285
   3        4.5578
   4        4.7322
   5        5.5596
   6        5.7359
   7        6.2208
   8        6.3759
   9        7.2880
  10        7.4446
  11       10.9290
  12       11.6299
  13       11.7843
  14       12.6370
  15       13.2016
  16       13.3202
 
  0.4166667E+00  0.2777778E-01  0.0000000E+00  0.5144033E-03
   1       -2.3906
   2       -1.0868
   3        4.7239
   4        4.8976
   5        5.7104
   6        5.8971
   7        5.9892
   8        6.1304
   9        7.0511
  10        7.2051
  11       11.4829
  12       11.7890
  13       11.9424
  14       12.8058
  15       12.9681
  16       13.0906
 
  0.4444444E+00  0.2777778E-01  0.0000000E+00  0.5144033E-03
   1       -2.2029
   2       -1.3335
   3        4.9013
   4        5.0745
   5        5.7011
   6        5.8964
   7        5.9358
   8        6.0603
   9        6.8337
  10        6.9800
  11       11.9588
  12       12.0187
  13       12.1339
  14       12.7450
  15       12.8713
  16       12.9861
 
  0.4722222E+00  0.2777778E-01  0.0000000E+00  0.5144033E-03
   1       -2.0032
   2       -1.5685
   3        5.0897
   4        5.2628
   5        5.4968
   6        5.6738
   7        6.0880
   8        6.2011
   9        6.6605
  10        6.7774
  11       12.1393
  12       12.2718
  13       12.5325
  14       12.6209
  15       12.6623
  16       13.1776
 
  0.5000000E+00  0.2777778E-01  0.0000000E+00  0.2572016E-03
   1       -1.7918
   2       -1.7918
   3        5.2887
   4        5.2887
   5        5.4626
   6        5.4626
   7        6.2189
   8        6.2189
   9        6.6326
  10        6.6326
  11       12.3306
  12       12.3306
  13       12.4631
  14       12.4631
  15       13.1786
  16       13.1786
 
  0.5555556E-01  0.5555556E-01  0.0000000E+00  0.2572016E-03
   1       -3.7169
   2        3.1179
   3        3.1179
   4        3.6542
   5        4.4552
   6        4.9879
   7        4.9879
   8        9.6547
   9       10.2071
  10       10.2071
  11       10.5994
  12       10.5994
  13       10.8283
  14       11.9157
  15       11.9157
  16       11.9722
 
  0.8333333E-01  0.5555556E-01  0.0000000E+00  0.5144033E-03
   1       -3.6863
   2        2.7506
   3        3.1469
   4        3.6827
   5        4.4850
   6        5.0172
   7        5.4088
   8        9.3034
   9        9.8347
  10       10.2351
  11       10.3795
  12       10.6265
  13       10.7574
  14       11.9446
  15       12.2034
  16       12.3445
 
  0.1111111E+00  0.5555556E-01  0.0000000E+00  0.5144033E-03
   1       -3.6436
   2        2.3810
   3        3.1875
   4        3.7226
   5        4.5267
   6        5.0582
   7        5.8535
   8        8.9511
   9        9.4685
  10       10.1187
  11       10.2743
  12       10.5574
  13       10.6644
  14       11.9849
  15       12.5504
  16       12.7895
 
  0.1388889E+00  0.5555556E-01  0.0000000E+00  0.5144033E-03
   1       -3.5887
   2        2.0168
   3        3.2397
   4        3.7739
   5        4.5802
   6        5.1108
   7        6.3143
   8        8.6035
   9        9.1116
  10        9.8356
  11       10.2984
  12       10.3248
  13       10.7131
  14       12.0368
  15       12.9563
  16       13.2476
 
  0.1666667E+00  0.5555556E-01  0.0000000E+00  0.5144033E-03
   1       -3.5216
   2        1.6607
   3        3.3035
   4        3.8367
   5        4.6455
   6        5.1751
   7        6.7882
   8        8.2634
   9        8.7651
  10        9.5417
  11       10.0146
  12       10.3864
  13       10.7726
  14       12.1001
  15       13.3948
  16       13.7178
 
  0.1944444E+00  0.5555556E-01  0.0000000E+00  0.5144033E-03
   1       -3.4423
   2        1.3141
   3        3.3789
   4        3.9108
   5        4.7225
   6        5.2509
   7        7.2738
   8        7.9321
   9        8.4293
  10        9.2442
  11        9.7217
  12       10.4591
  13       10.8430
  14       12.1750
  15       13.8549
  16       14.0023
 
  0.2222222E+00  0.5555556E-01  0.0000000E+00  0.5144033E-03
   1       -3.3508
   2        0.9776
   3        3.4658
   4        3.9963
   5        4.8112
   6        5.3383
   7        7.6105
   8        7.7702
   9        8.1045
  10        8.9475
  11        9.4273
  12       10.5431
  13       10.9242
  14       12.2614
  15       14.0857
  16       14.3317
 
  0.2500000E+00  0.5555556E-01  0.0000000E+00  0.5144033E-03
   1       -3.2473
   2        0.6518
   3        3.5643
   4        4.0933
   5        4.9114
   6        5.4371
   7        7.2992
   8        7.7910
   9        8.2769
  10        8.6548
  11        9.1357
  12       10.6381
  13       11.0163
  14       12.3593
  15       14.1800
  16       14.2145
 
  0.2777778E+00  0.5555556E-01  0.0000000E+00  0.5144033E-03
   1       -3.1316
   2        0.3369
   3        3.6743
   4        4.2016
   5        5.0229
   6        5.5471
   7        6.9985
   8        7.4887
   9        8.3680
  10        8.7932
  11        8.8496
  12       10.7443
  13       11.1192
  14       12.4686
  15       13.9265
  16       14.1873
 
  0.3055556E+00  0.5555556E-01  0.0000000E+00  0.5144033E-03
   1       -3.0038
   2        0.0331
   3        3.7959
   4        4.3214
   5        5.1453
   6        5.6683
   7        6.7091
   8        7.1977
   9        8.0886
  10        8.5707
  11        9.3187
  12       10.8616
  13       11.2332
  14       12.5894
  15       13.6483
  16       13.9186
 
  0.3333333E+00  0.5555556E-01  0.0000000E+00  0.5144033E-03
   1       -2.8640
   2       -0.2595
   3        3.9288
   4        4.4526
   5        5.2778
   6        5.8002
   7        6.4317
   8        6.9181
   9        7.8179
  10        8.3000
  11        9.8527
  12       10.9900
  13       11.3582
  14       12.7217
  15       13.3802
  16       13.6594
 
  0.3611111E+00  0.5555556E-01  0.0000000E+00  0.5144033E-03
   1       -2.7121
   2       -0.5408
   3        4.0732
   4        4.5952
   5        5.4184
   6        5.9423
   7        6.1684
   8        6.6498
   9        7.5573
  10        8.0385
  11       10.3941
  12       11.1294
  13       11.4949
  14       12.8653
  15       13.1224
  16       13.4099
 
  0.3888889E+00  0.5555556E-01  0.0000000E+00  0.5144033E-03
   1       -2.5483
   2       -0.8106
   3        4.2290
   4        4.7493
   5        5.5562
   6        5.9298
   7        6.0931
   8        6.3930
   9        7.3087
  10        7.7871
  11       10.9406
  12       11.2799
  13       11.6446
  14       12.8750
  15       13.0203
  16       13.1703
 
  0.4166667E+00  0.5555556E-01  0.0000000E+00  0.5144033E-03
   1       -2.3725
   2       -1.0688
   3        4.3961
   4        4.9147
   5        5.5791
   6        5.8275
   7        6.1475
   8        6.2488
   9        7.0764
  10        7.5465
  11       11.4413
  12       11.4827
  13       11.8157
  14       12.6381
  15       12.9406
  16       13.1866
 
  0.4444444E+00  0.5555556E-01  0.0000000E+00  0.5144033E-03
   1       -2.1847
   2       -1.3155
   3        4.5745
   4        5.0916
   5        5.3884
   6        5.9135
   7        5.9593
   8        6.3931
   9        6.8768
  10        7.3180
  11       11.6137
  12       11.9050
  13       12.1225
  14       12.4117
  15       12.7209
  16       13.3642
 
  0.4722222E+00  0.5555556E-01  0.0000000E+00  0.5144033E-03
   1       -1.9851
   2       -1.5504
   3        4.7638
   4        5.1732
   5        5.2799
   6        5.6909
   7        6.1335
   8        6.4400
   9        6.7966
  10        7.1044
  11       11.7970
  12       12.1159
  13       12.1960
  14       12.5110
  15       12.6540
  16       13.5529
 
  0.5000000E+00  0.5555556E-01  0.0000000E+00  0.2572016E-03
   1       -1.7737
   2       -1.7737
   3        4.9637
   4        4.9637
   5        5.4797
   6        5.4797
   7        6.3109
   8        6.3109
   9        6.9146
  10        6.9146
  11       11.9911
  12       11.9911
  13       12.3102
  14       12.3102
  15       13.2122
  16       13.2122
 
  0.8333333E-01  0.8333333E-01  0.0000000E+00  0.2572016E-03
   1       -3.6558
   2        2.7798
   3        2.7798
   4        3.7112
   5        4.5147
   6        5.4379
   7        5.4379
   8        8.9537
   9        9.8629
  10        9.8629
  11       10.4068
  12       10.4068
  13       10.8819
  14       12.2205
  15       12.3731
  16       12.3731
 
  0.1111111E+00  0.8333333E-01  0.0000000E+00  0.5144033E-03
   1       -3.6131
   2        2.4103
   3        2.8206
   4        3.7511
   5        4.5563
   6        5.4786
   7        5.8825
   8        8.6020
   9        9.4968
  10        9.9023
  11       10.1463
  12       10.4450
  13       10.8213
  14       12.4132
  15       12.4144
  16       12.8180
 
  0.1388889E+00  0.8333333E-01  0.0000000E+00  0.5144033E-03
   1       -3.5582
   2        2.0462
   3        2.8731
   4        3.8024
   5        4.6098
   6        5.5309
   7        6.3431
   8        8.2548
   9        9.1400
  10        9.8634
  11        9.9531
  12       10.4942
  13       10.6287
  14       12.4647
  15       12.7439
  16       13.2760
 
  0.1666667E+00  0.8333333E-01  0.0000000E+00  0.5144033E-03
   1       -3.4911
   2        1.6902
   3        2.9373
   4        3.8652
   5        4.6750
   6        5.5948
   7        6.8168
   8        7.9149
   9        8.7934
  10        9.5697
  11       10.0150
  12       10.3756
  13       10.5543
  14       12.5277
  15       13.1444
  16       13.7462
 
  0.1944444E+00  0.8333333E-01  0.0000000E+00  0.5144033E-03
   1       -3.4118
   2        1.3436
   3        3.0131
   4        3.9393
   5        4.7518
   6        5.6701
   7        7.3022
   8        7.5837
   9        8.4577
  10        9.2725
  11       10.0882
  12       10.0982
  13       10.6254
  14       12.6021
  15       13.5834
  16       14.2297
 
  0.2222222E+00  0.8333333E-01  0.0000000E+00  0.5144033E-03
   1       -3.3204
   2        1.0073
   3        3.1005
   4        4.0248
   5        4.8402
   6        5.7569
   7        7.2622
   8        7.7984
   9        8.1330
  10        8.9761
  11        9.8126
  12       10.1727
  13       10.7074
  14       12.6879
  15       14.0470
  16       14.1720
 
  0.2500000E+00  0.8333333E-01  0.0000000E+00  0.5144033E-03
   1       -3.2168
   2        0.6815
   3        3.1995
   4        4.1218
   5        4.9399
   6        5.8549
   7        6.9510
   8        7.8194
   9        8.3047
  10        8.6836
  11        9.5265
  12       10.2683
  13       10.8004
  14       12.7851
  15       13.8719
  16       14.2451
 
  0.2777778E+00  0.8333333E-01  0.0000000E+00  0.5144033E-03
   1       -3.1012
   2        0.3667
   3        3.3101
   4        4.2301
   5        5.0506
   6        5.9641
   7        6.6508
   8        7.5172
   9        8.3972
  10        8.8207
  11        9.2440
  12       10.3752
  13       10.9045
  14       12.8937
  15       13.5815
  16       13.9695
 
  0.3055556E+00  0.8333333E-01  0.0000000E+00  0.5144033E-03
   1       -2.9734
   2        0.0629
   3        3.4322
   4        4.3499
   5        5.1714
   6        6.0842
   7        6.3625
   8        7.2262
   9        8.1184
  10        8.9677
  11        9.3455
  12       10.4933
  13       11.0200
  14       13.0137
  15       13.3011
  16       13.7025
 
  0.3333333E+00  0.8333333E-01  0.0000000E+00  0.5144033E-03
   1       -2.8336
   2       -0.2296
   3        3.5658
   4        4.4811
   5        5.3000
   6        6.0887
   7        6.2145
   8        6.9466
   9        7.8486
  10        8.6989
  11        9.8782
  12       10.6225
  13       11.1472
  14       13.0308
  15       13.1449
  16       13.4444
 
  0.3611111E+00  0.8333333E-01  0.0000000E+00  0.5144033E-03
   1       -2.6818
   2       -0.5108
   3        3.7110
   4        4.6237
   5        5.4254
   6        5.8403
   7        6.3541
   8        6.6783
   9        7.5898
  10        8.4388
  11       10.4169
  12       10.7628
  13       11.2877
  14       12.7709
  15       13.1955
  16       13.2875
 
  0.3888889E+00  0.8333333E-01  0.0000000E+00  0.5144033E-03
   1       -2.5180
   2       -0.7806
   3        3.8675
   4        4.7778
   5        5.4500
   6        5.7147
   7        6.4215
   8        6.4996
   9        7.3458
  10        8.1882
  11       10.9143
  12       10.9546
  13       11.4473
  14       12.5214
  15       12.9562
  16       13.4413
 
  0.4166667E+00  0.8333333E-01  0.0000000E+00  0.5144033E-03
   1       -2.3422
   2       -1.0388
   3        4.0354
   4        4.9432
   5        5.2620
   6        5.8237
   7        6.1760
   8        6.6378
   9        7.1300
  10        7.9479
  11       11.0768
  12       11.4395
  13       11.6773
  14       12.2826
  15       12.7264
  16       13.6063
 
  0.4444444E+00  0.8333333E-01  0.0000000E+00  0.5144033E-03
   1       -2.1545
   2       -1.2854
   3        4.2146
   4        5.0379
   5        5.1201
   6        5.9420
   7        5.9901
   8        6.6904
   9        7.0212
  10        7.7186
  11       11.2504
  12       11.7063
  13       12.0545
  14       12.1415
  15       12.5064
  16       13.7824
 
  0.4722222E+00  0.8333333E-01  0.0000000E+00  0.5144033E-03
   1       -1.9549
   2       -1.5203
   3        4.4049
   4        4.8175
   5        5.3085
   6        5.7194
   7        6.1733
   8        6.5561
   9        7.1211
  10        7.5014
  11       11.4351
  12       11.8371
  13       11.9006
  14       12.2959
  15       12.6922
  16       13.8164
 
  0.5000000E+00  0.8333333E-01  0.0000000E+00  0.2572016E-03
   1       -1.7435
   2       -1.7435
   3        4.6060
   4        4.6060
   5        5.5082
   6        5.5082
   7        6.3655
   8        6.3655
   9        7.2991
  10        7.2991
  11       11.6306
  12       11.6306
  13       12.0946
  14       12.0946
  15       13.2546
  16       13.2546
 
  0.1111111E+00  0.1111111E+00  0.0000000E+00  0.2572016E-03
   1       -3.5704
   2        2.4513
   3        2.4513
   4        3.7910
   5        4.5979
   6        5.9230
   7        5.9230
   8        8.2502
   9        9.5364
  10        9.5364
  11       10.1849
  12       10.1849
  13       10.9568
  14       12.4029
  15       12.8579
  16       12.8579
 
  0.1388889E+00  0.1111111E+00  0.0000000E+00  0.5144033E-03
   1       -3.5155
   2        2.0873
   3        2.5041
   4        3.8424
   5        4.6511
   6        5.9749
   7        6.3833
   8        7.9026
   9        9.1796
  10        9.5873
  11        9.9023
  12       10.2345
  13       10.9072
  14       12.5833
  15       12.9092
  16       13.3158
 
  0.1666667E+00  0.1111111E+00  0.0000000E+00  0.5144033E-03
   1       -3.4484
   2        1.7314
   3        2.5685
   4        3.9051
   5        4.7161
   6        6.0384
   7        6.8568
   8        7.5623
   9        8.8331
  10        9.6090
  11        9.6494
  12       10.2952
  13       10.7247
  14       12.9090
  15       12.9719
  16       13.7858
 
  0.1944444E+00  0.1111111E+00  0.0000000E+00  0.5144033E-03
   1       -3.3691
   2        1.3850
   3        2.6446
   4        3.9792
   5        4.7927
   6        6.1133
   7        7.2308
   8        7.3419
   9        8.4974
  10        9.3121
  11        9.7229
  12       10.3669
  13       10.4808
  14       13.0460
  15       13.3116
  16       14.1381
 
  0.2222222E+00  0.1111111E+00  0.0000000E+00  0.5144033E-03
   1       -3.2777
   2        1.0487
   3        2.7323
   4        4.0647
   5        4.8805
   6        6.1994
   7        6.9092
   8        7.8377
   9        8.1728
  10        9.0161
  11        9.8076
  12       10.2126
  13       10.4498
  14       13.1314
  15       13.7557
  16       13.8268
 
  0.2500000E+00  0.1111111E+00  0.0000000E+00  0.5144033E-03
   1       -3.1742
   2        0.7231
   3        2.8317
   4        4.1617
   5        4.9794
   6        6.2967
   7        6.5982
   8        7.8593
   9        8.3436
  10        8.7242
  11        9.9036
  12        9.9366
  13       10.5439
  14       13.2282
  15       13.5249
  16       13.9894
 
  0.2777778E+00  0.1111111E+00  0.0000000E+00  0.5144033E-03
   1       -3.0586
   2        0.4083
   3        2.9427
   4        4.2700
   5        5.0884
   6        6.2990
   7        6.4050
   8        7.5570
   9        8.4384
  10        8.8588
  11        9.6604
  12       10.0109
  13       10.6495
  14       13.2327
  15       13.3363
  16       13.7154
 
  0.3055556E+00  0.1111111E+00  0.0000000E+00  0.5144033E-03
   1       -2.9309
   2        0.1046
   3        3.0653
   4        4.3898
   5        5.2050
   6        6.0144
   7        6.5236
   8        7.2660
   9        8.1605
  10        9.3824
  11        9.3883
  12       10.1294
  13       10.7669
  14       12.9506
  15       13.4495
  16       13.4556
 
  0.3333333E+00  0.1111111E+00  0.0000000E+00  0.5144033E-03
   1       -2.7911
   2       -0.1878
   3        3.1995
   4        4.5210
   5        5.3181
   6        5.7554
   7        6.6516
   8        6.9864
   9        7.8926
  10        9.1226
  11        9.9126
  12       10.2591
  13       10.8976
  14       12.6788
  15       13.1920
  16       13.5862
 
  0.3611111E+00  0.1111111E+00  0.0000000E+00  0.5144033E-03
   1       -2.6393
   2       -0.4690
   3        3.3452
   4        4.6636
   5        5.3371
   6        5.6129
   7        6.7182
   8        6.7862
   9        7.6383
  10        8.8647
  11       10.4000
  12       10.4440
  13       11.0462
  14       12.4174
  15       12.9435
  16       13.7281
 
  0.3888889E+00  0.1111111E+00  0.0000000E+00  0.5144033E-03
   1       -2.4756
   2       -0.7386
   3        3.5024
   4        4.8177
   5        5.1457
   6        5.7030
   7        6.4614
   8        6.9154
   9        7.4098
  10        8.6158
  11       10.5520
  12       10.9452
  13       11.2436
  14       12.1667
  15       12.7042
  16       13.8810
 
  0.4166667E+00  0.1111111E+00  0.0000000E+00  0.5144033E-03
   1       -2.2998