   4   4   0   0
  0.1391645E+02  0.3818237E-09  0.3818237E-09  0.3818237E-09  0.5000000E-15
  1.000000000000000E-004
  CAR 
 unknown system                          
     23.21313473     -7.04510935  301      2.48406401      1.00000000
     -7.045  0.0000E+00  0.0000E+00
     -6.944  0.0000E+00  0.0000E+00
     -6.843  0.0000E+00  0.0000E+00
     -6.743  0.0000E+00  0.0000E+00
     -6.642  0.0000E+00  0.0000E+00
     -6.541  0.0000E+00  0.0000E+00
     -6.440  0.0000E+00  0.0000E+00
     -6.339  0.0000E+00  0.0000E+00
     -6.238  0.0000E+00  0.0000E+00
     -6.137  0.0000E+00  0.0000E+00
     -6.037  0.0000E+00  0.0000E+00
     -5.936  0.0000E+00  0.0000E+00
     -5.835  0.0000E+00  0.0000E+00
     -5.734  0.0000E+00  0.0000E+00
     -5.633  0.9029E-02  0.9106E-03
     -5.532  0.1531E+00  0.1635E-01
     -5.431  0.7268E-01  0.2463E-01
     -5.330  0.2163E+00  0.5185E-01
     -5.230  0.2166E+00  0.7374E-01
     -5.129  0.1083E+00  0.8466E-01
     -5.028  0.4668E+00  0.1317E+00
     -4.927  0.2196E+00  0.1560E+00
     -4.826  0.2166E+00  0.1848E+00
     -4.725  0.4332E+00  0.2285E+00
     -4.624  0.5895E-01  0.2344E+00
     -4.524  0.3247E+00  0.3104E+00
     -4.423  0.3589E+00  0.3466E+00
     -4.322  0.4513E+00  0.3996E+00
     -4.221  0.4819E-05  0.4197E+00
     -4.120  0.4608E+00  0.4661E+00
     -4.019  0.7363E+00  0.5431E+00
     -3.918  0.2184E-01  0.5657E+00
     -3.818  0.6494E+00  0.6727E+00
     -3.717  0.1013E+00  0.6829E+00
     -3.616  0.7374E+00  0.7580E+00
     -3.515  0.6122E+00  0.8328E+00
     -3.414  0.3188E+00  0.8742E+00
     -3.313  0.2789E-04  0.9295E+00
     -3.212  0.1083E+01  0.1039E+01
     -3.112  0.6498E+00  0.1104E+01
     -3.011  0.8616E+00  0.1191E+01
     -2.910  0.5054E+00  0.1243E+01
     -2.809  0.9253E+00  0.1336E+01
     -2.708  0.5415E+00  0.1412E+01
     -2.607  0.1394E+01  0.1552E+01
     -2.506  0.6498E+00  0.1652E+01
     -2.406  0.6013E+00  0.1713E+01
     -2.305  0.8712E+00  0.1806E+01
     -2.204  0.1206E+01  0.1949E+01
     -2.103  0.7867E+00  0.2108E+01
     -2.002  0.1413E+01  0.2332E+01
     -1.901  0.8447E+00  0.2427E+01
     -1.800  0.2096E+01  0.2641E+01
     -1.699  0.3409E+01  0.3008E+01
     -1.599  0.2168E+01  0.3240E+01
     -1.498  0.3056E+01  0.3707E+01
     -1.397  0.4814E+01  0.4302E+01
     -1.296  0.4024E+01  0.4856E+01
     -1.195  0.4261E+01  0.5469E+01
     -1.094  0.7531E+01  0.6258E+01
     -0.993  0.7461E+01  0.7270E+01
     -0.893  0.9633E+01  0.8401E+01
     -0.792  0.7872E+01  0.9507E+01
     -0.691  0.9016E+01  0.1055E+02
     -0.590  0.8296E+01  0.1161E+02
     -0.489  0.9370E+01  0.1271E+02
     -0.388  0.1082E+02  0.1409E+02
     -0.287  0.1373E+02  0.1566E+02
     -0.187  0.1373E+02  0.1730E+02
     -0.086  0.1883E+02  0.1947E+02
      0.015  0.1563E+02  0.2143E+02
      0.116  0.1638E+02  0.2377E+02
      0.217  0.1087E+02  0.2530E+02
      0.318  0.9396E+01  0.2660E+02
      0.419  0.1268E+02  0.2823E+02
      0.519  0.1566E+02  0.3023E+02
      0.620  0.1403E+02  0.3210E+02
      0.721  0.1436E+02  0.3381E+02
      0.822  0.1268E+02  0.3557E+02
      0.923  0.1627E+02  0.3766E+02
      1.024  0.2410E+02  0.4081E+02
      1.125  0.6833E+01  0.4175E+02
      1.225  0.2057E+01  0.4213E+02
      1.326  0.7094E+00  0.4220E+02
      1.427  0.2165E+01  0.4248E+02
      1.528  0.1085E+01  0.4259E+02
      1.629  0.6559E+00  0.4270E+02
      1.730  0.2435E+01  0.4299E+02
      1.831  0.6075E+00  0.4309E+02
      1.932  0.8664E+00  0.4320E+02
      2.032  0.1018E+01  0.4330E+02
      2.133  0.2154E+01  0.4355E+02
      2.234  0.9912E+00  0.4369E+02
      2.335  0.6499E+00  0.4379E+02
      2.436  0.1092E+01  0.4390E+02
      2.537  0.1083E+01  0.4403E+02
      2.638  0.5145E+00  0.4408E+02
      2.738  0.1492E+01  0.4425E+02
      2.839  0.1772E+01  0.4449E+02
      2.940  0.7819E+00  0.4461E+02
      3.041  0.7361E+00  0.4469E+02
      3.142  0.6498E+00  0.4479E+02
      3.243  0.6096E+00  0.4485E+02
      3.344  0.6020E+00  0.4496E+02
      3.444  0.1947E+01  0.4523E+02
      3.545  0.6304E+00  0.4531E+02
      3.646  0.6543E+00  0.4538E+02
      3.747  0.6745E+00  0.4554E+02
      3.848  0.1083E+01  0.4565E+02
      3.949  0.5208E+00  0.4572E+02
      4.050  0.2004E+00  0.4576E+02
      4.150  0.8033E+00  0.4588E+02
      4.251  0.1076E+01  0.4601E+02
      4.352  0.1198E+01  0.4622E+02
      4.453  0.5670E+00  0.4632E+02
      4.554  0.2165E+00  0.4636E+02
      4.655  0.1061E+01  0.4647E+02
      4.756  0.1189E+01  0.4659E+02
      4.856  0.6410E+00  0.4666E+02
      4.957  0.4659E+00  0.4670E+02
      5.058  0.8771E+00  0.4681E+02
      5.159  0.8889E+00  0.4692E+02
      5.260  0.6700E+00  0.4700E+02
      5.361  0.1085E+01  0.4712E+02
      5.462  0.6645E+00  0.4720E+02
      5.562  0.1237E+00  0.4726E+02
      5.663  0.6075E+00  0.4735E+02
      5.764  0.1468E+01  0.4753E+02
      5.865  0.9221E+00  0.4762E+02
      5.966  0.1041E+00  0.4765E+02
      6.067  0.7776E+00  0.4780E+02
      6.168  0.2205E+01  0.4804E+02
      6.269  0.5412E+00  0.4818E+02
      6.369  0.3752E+00  0.4822E+02
      6.470  0.1320E+01  0.4838E+02
      6.571  0.1664E+01  0.4857E+02
      6.672  0.6498E+00  0.4864E+02
      6.773  0.4424E+00  0.4869E+02
      6.874  0.9745E+00  0.4879E+02
      6.975  0.1946E+01  0.4909E+02
      7.075  0.2796E+00  0.4914E+02
      7.176  0.4630E+00  0.4920E+02
      7.277  0.1081E+01  0.4935E+02
      7.378  0.1225E+01  0.4947E+02
      7.479  0.1540E+01  0.4964E+02
      7.580  0.5731E+00  0.4970E+02
      7.681  0.1032E+01  0.4982E+02
      7.781  0.8686E+00  0.4994E+02
      7.882  0.8680E+00  0.5005E+02
      7.983  0.1735E+00  0.5011E+02
      8.084  0.1217E+01  0.5024E+02
      8.185  0.4694E+00  0.5032E+02
      8.286  0.1126E+01  0.5043E+02
      8.387  0.4332E+00  0.5051E+02
      8.487  0.1457E+01  0.5065E+02
      8.588  0.7728E+00  0.5078E+02
      8.689  0.1291E+01  0.5092E+02
      8.790  0.7632E+00  0.5102E+02
      8.891  0.1131E+01  0.5115E+02
      8.992  0.1099E+01  0.5133E+02
      9.093  0.6726E+00  0.5144E+02
      9.193  0.7183E+00  0.5153E+02
      9.294  0.4316E+00  0.5159E+02
      9.395  0.2404E+01  0.5184E+02
      9.496  0.1417E+01  0.5199E+02
      9.597  0.4332E+00  0.5215E+02
      9.698  0.1308E+01  0.5228E+02
      9.799  0.2169E+01  0.5252E+02
      9.900  0.4329E+00  0.5264E+02
     10.000  0.1520E+01  0.5280E+02
     10.101  0.8528E+00  0.5290E+02
     10.202  0.1785E+01  0.5309E+02
     10.303  0.5507E+00  0.5316E+02
     10.404  0.1394E+01  0.5334E+02
     10.505  0.6739E+00  0.5343E+02
     10.606  0.1949E+01  0.5364E+02
     10.706  0.1298E+01  0.5378E+02
     10.807  0.1162E+01  0.5397E+02
     10.908  0.8521E+00  0.5414E+02
     11.009  0.1213E+01  0.5432E+02
     11.110  0.1560E+01  0.5449E+02
     11.211  0.5067E+00  0.5462E+02
     11.312  0.1506E+01  0.5480E+02
     11.412  0.1621E+01  0.5496E+02
     11.513  0.1648E+01  0.5518E+02
     11.614  0.6492E+00  0.5529E+02
     11.715  0.5605E+00  0.5535E+02
     11.816  0.7065E+00  0.5550E+02
     11.917  0.1843E+01  0.5570E+02
     12.018  0.1141E+01  0.5586E+02
     12.118  0.9956E+00  0.5600E+02
     12.219  0.2089E+01  0.5622E+02
     12.320  0.1802E+01  0.5640E+02
     12.421  0.9348E+00  0.5651E+02
     12.522  0.1390E+01  0.5669E+02
     12.623  0.2150E+01  0.5691E+02
     12.724  0.1277E+01  0.5706E+02
     12.824  0.8162E+00  0.5719E+02
     12.925  0.1319E+01  0.5735E+02
     13.026  0.1361E+01  0.5752E+02
     13.127  0.2730E+01  0.5781E+02
     13.228  0.1715E+01  0.5801E+02
     13.329  0.4879E+00  0.5809E+02
     13.430  0.8582E+00  0.5819E+02
     13.530  0.7826E+00  0.5837E+02
     13.631  0.8860E+00  0.5851E+02
     13.732  0.2922E+01  0.5884E+02
     13.833  0.7665E-02  0.5890E+02
     13.934  0.1886E+01  0.5913E+02
     14.035  0.1098E+01  0.5925E+02
     14.136  0.8578E+00  0.5942E+02
     14.237  0.1693E+01  0.5963E+02
     14.337  0.1579E+01  0.5982E+02
     14.438  0.2397E+01  0.6008E+02
     14.539  0.1584E+01  0.6024E+02
     14.640  0.7633E+00  0.6036E+02
     14.741  0.1663E+01  0.6062E+02
     14.842  0.8359E+00  0.6075E+02
     14.943  0.1126E+01  0.6093E+02
     15.043  0.1632E+01  0.6116E+02
     15.144  0.7194E+00  0.6129E+02
     15.245  0.1809E+01  0.6151E+02
     15.346  0.4659E+00  0.6157E+02
     15.447  0.1008E+01  0.6169E+02
     15.548  0.6494E+00  0.6185E+02
     15.649  0.1292E+01  0.6198E+02
     15.749  0.4327E+00  0.6206E+02
     15.850  0.4874E+00  0.6211E+02
     15.951  0.1120E+01  0.6223E+02
     16.052  0.6497E+00  0.6235E+02
     16.153  0.8845E+00  0.6244E+02
     16.254  0.1342E+01  0.6258E+02
     16.355  0.5488E-11  0.6264E+02
     16.455  0.4521E+00  0.6269E+02
     16.556  0.2207E+00  0.6275E+02
     16.657  0.2204E+00  0.6278E+02
     16.758  0.6439E-01  0.6284E+02
     16.859  0.1148E+01  0.6299E+02
     16.960  0.3139E+00  0.6304E+02
     17.061  0.1021E-05  0.6307E+02
     17.161  0.6498E+00  0.6314E+02
     17.262  0.0000E+00  0.6314E+02
     17.363  0.3732E+00  0.6317E+02
     17.464  0.5400E+00  0.6324E+02
     17.565  0.6568E+00  0.6330E+02
     17.666  0.4332E+00  0.6337E+02
     17.767  0.1608E-09  0.6337E+02
     17.868  0.2166E+00  0.6339E+02
     17.968  0.3972E+00  0.6343E+02
     18.069  0.4332E+00  0.6348E+02
     18.170  0.2138E+00  0.6350E+02
     18.271  0.2782E+00  0.6353E+02
     18.372  0.1684E-12  0.6355E+02
     18.473  0.4332E+00  0.6359E+02
     18.574  0.0000E+00  0.6359E+02
     18.674  0.4244E+00  0.6363E+02
     18.775  0.4332E+00  0.6368E+02
     18.876  0.4332E+00  0.6372E+02
     18.977  0.0000E+00  0.6372E+02
     19.078  0.0000E+00  0.6372E+02
     19.179  0.0000E+00  0.6372E+02
     19.280  0.6627E-02  0.6372E+02
     19.380  0.1596E+00  0.6378E+02
     19.481  0.0000E+00  0.6383E+02
     19.582  0.0000E+00  0.6383E+02
     19.683  0.0000E+00  0.6383E+02
     19.784  0.0000E+00  0.6383E+02
     19.885  0.2211E+00  0.6385E+02
     19.986  0.0000E+00  0.6390E+02
     20.086  0.7212E-01  0.6391E+02
     20.187  0.0000E+00  0.6391E+02
     20.288  0.0000E+00  0.6391E+02
     20.389  0.0000E+00  0.6391E+02
     20.490  0.3703E+00  0.6394E+02
     20.591  0.0000E+00  0.6395E+02
     20.692  0.0000E+00  0.6395E+02
     20.792  0.0000E+00  0.6395E+02
     20.893  0.0000E+00  0.6395E+02
     20.994  0.0000E+00  0.6395E+02
     21.095  0.2392E-11  0.6395E+02
     21.196  0.2166E+00  0.6397E+02
     21.297  0.0000E+00  0.6397E+02
     21.398  0.0000E+00  0.6397E+02
     21.499  0.0000E+00  0.6397E+02
     21.599  0.2131E-02  0.6397E+02
     21.700  0.0000E+00  0.6399E+02
     21.801  0.7721E-08  0.6399E+02
     21.902  0.7221E-01  0.6400E+02
     22.003  0.0000E+00  0.6400E+02
     22.104  0.0000E+00  0.6400E+02
     22.205  0.0000E+00  0.6400E+02
     22.305  0.0000E+00  0.6400E+02
     22.406  0.0000E+00  0.6400E+02
     22.507  0.0000E+00  0.6400E+02
     22.608  0.0000E+00  0.6400E+02
     22.709  0.0000E+00  0.6400E+02
     22.810  0.0000E+00  0.6400E+02
     22.911  0.0000E+00  0.6400E+02
     23.011  0.0000E+00  0.6400E+02
     23.112  0.0000E+00  0.6400E+02
     23.213  0.0000E+00  0.6400E+02
