    4    4    1    1
  0.1391645E+02  0.3818237E-09  0.3818237E-09  0.3818237E-09  0.5000000E-15
  1.000000000000000E-004
  CAR 
 unknown system                          
   44   84   32
 
  0.0000000E+00  0.0000000E+00  0.0000000E+00  0.4551661E-03
   1       -5.6697
   2       -1.5224
   3       -1.5224
   4       -1.5224
   5       -1.1665
   6       -1.1665
   7       -1.1665
   8       -0.0914
   9       -0.0914
  10       -0.0914
  11        0.5498
  12        0.5498
  13        0.9771
  14        0.9771
  15        0.9771
  16        1.0966
  17        1.0966
  18        1.0966
  19        1.0966
  20        1.0966
  21        1.0966
  22        4.1300
  23        4.1300
  24        4.1300
  25        8.5381
  26        8.5381
  27        8.5381
  28       14.4258
  29       14.4258
  30       14.4258
  31       14.4258
  32       14.4258
 
  0.7692308E-01  0.0000000E+00  0.0000000E+00  0.2730997E-02
   1       -5.6057
   2       -1.5249
   3       -1.4949
   4       -1.4949
   5       -1.1514
   6       -1.1505
   7       -1.1505
   8       -0.1076
   9       -0.0781
  10       -0.0781
  11        0.5351
  12        0.5559
  13        0.9581
  14        0.9581
  15        0.9708
  16        1.0068
  17        1.0068
  18        1.0740
  19        1.0740
  20        1.0966
  21        1.0966
  22        3.6702
  23        4.2789
  24        4.2789
  25        8.5660
  26        8.5660
  27        9.1315
  28       13.9712
  29       13.9712
  30       14.1068
  31       14.1068
  32       14.5165
 
  0.1538462E+00  0.0000000E+00  0.0000000E+00  0.2730997E-02
   1       -5.4145
   2       -1.5431
   3       -1.4156
   4       -1.4156
   5       -1.1071
   6       -1.1024
   7       -1.1024
   8       -0.1552
   9       -0.0381
  10       -0.0381
  11        0.4925
  12        0.5738
  13        0.7802
  14        0.7802
  15        0.9027
  16        0.9027
  17        0.9522
  18        1.0089
  19        1.0089
  20        1.0967
  21        1.0967
  22        2.7149
  23        4.6825
  24        4.6825
  25        8.6518
  26        8.6518
  27       10.4967
  28       12.9905
  29       12.9905
  30       13.3632
  31       13.3632
  32       14.7857
 
  0.2307692E+00  0.0000000E+00  0.0000000E+00  0.2730997E-02
   1       -5.0993
   2       -1.6154
   3       -1.2950
   4       -1.2950
   5       -1.0358
   6       -1.0214
   7       -1.0214
   8       -0.2311
   9        0.0274
  10        0.0274
  11        0.4265
  12        0.4912
  13        0.4912
  14        0.6027
  15        0.8159
  16        0.8159
  17        0.9083
  18        0.9083
  19        0.9225
  20        1.0968
  21        1.0968
  22        1.7233
  23        5.2656
  24        5.2656
  25        8.8013
  26        8.8013
  27       11.8720
  28       11.8720
  29       12.2084
  30       12.4937
  31       12.4937
  32       15.2253
 
  0.3076923E+00  0.0000000E+00  0.0000000E+00  0.2730997E-02
   1       -4.6664
   2       -1.8203
   3       -1.1520
   4       -1.1520
   5       -0.9412
   6       -0.9065
   7       -0.9065
   8       -0.3305
   9        0.1169
  10        0.1169
  11        0.1913
  12        0.1913
  13        0.3457
  14        0.6408
  15        0.7089
  16        0.7089
  17        0.7822
  18        0.7822
  19        0.8835
  20        0.9180
  21        1.0969
  22        1.0969
  23        5.9752
  24        5.9752
  25        9.0238
  26        9.0238
  27       10.7484
  28       10.7484
  29       11.6523
  30       11.6523
  31       14.1143
  32       15.8233
 
  0.3846154E+00  0.0000000E+00  0.0000000E+00  0.2730997E-02
   1       -4.1274
   2       -2.2415
   3       -1.0170
   4       -1.0170
   5       -0.8285
   6       -0.7564
   7       -0.7564
   8       -0.4473
   9       -0.0929
  10       -0.0929
  11        0.2277
  12        0.2277
  13        0.2650
  14        0.4279
  15        0.6037
  16        0.6037
  17        0.6413
  18        0.6413
  19        0.6860
  20        0.8375
  21        1.0970
  22        1.0970
  23        6.7825
  24        6.7825
  25        9.3307
  26        9.3307
  27        9.6636
  28        9.6636
  29       10.9034
  30       10.9034
  31       16.1561
  32       16.5664
 
  0.4615385E+00  0.0000000E+00  0.0000000E+00  0.2730997E-02
   1       -3.5048
   2       -2.8451
   3       -0.9312
   4       -0.9312
   5       -0.7038
   6       -0.5742
   7       -0.5705
   8       -0.5705
   9       -0.3486
  10       -0.3486
  11        0.2108
  12        0.2333
  13        0.3560
  14        0.3560
  15        0.4963
  16        0.4963
  17        0.5347
  18        0.5347
  19        0.7358
  20        0.7873
  21        1.0971
  22        1.0971
  23        7.6723
  24        7.6723
  25        8.6351
  26        8.6351
  27        9.7293
  28        9.7293
  29       10.2762
  30       10.2762
  31       17.4408
  32       17.4408
 
  0.7692308E-01  0.7692308E-01  0.0000000E+00  0.5461994E-02
   1       -5.5418
   2       -1.4967
   3       -1.4967
   4       -1.4680
   5       -1.1357
   6       -1.1357
   7       -1.1350
   8       -0.1165
   9       -0.0717
  10       -0.0658
  11        0.5311
  12        0.5524
  13        0.9372
  14        0.9372
  15        0.9389
  16        0.9399
  17        0.9951
  18        0.9951
  19        1.0740
  20        1.0740
  21        1.0820
  22        3.8146
  23        3.8146
  24        4.4206
  25        8.5945
  26        9.1675
  27        9.1675
  28       13.0139
  29       14.0570
  30       14.0570
  31       14.1932
  32       14.1932
 
  0.1538462E+00  0.7692308E-01  0.0000000E+00  0.1092399E-01
   1       -5.3513
   2       -1.5130
   3       -1.4156
   4       -1.3906
   5       -1.0921
   6       -1.0884
   7       -1.0881
   8       -0.1594
   9       -0.0357
  10       -0.0295
  11        0.4939
  12        0.5685
  13        0.7345
  14        0.7354
  15        0.8665
  16        0.8864
  17        0.9107
  18        0.9679
  19        1.0088
  20        1.0739
  21        1.0742
  22        2.8644
  23        4.1985
  24        4.8092
  25        8.6817
  26        9.2778
  27       10.5415
  28       11.8710
  29       13.0709
  30       13.4417
  31       14.3112
  32       14.3845
 
  0.2307692E+00  0.7692308E-01  0.0000000E+00  0.1092399E-01
   1       -5.0372
   2       -1.5816
   3       -1.2919
   4       -1.2727
   5       -1.0220
   6       -1.0096
   7       -1.0087
   8       -0.2328
   9        0.0287
  10        0.0290
  11        0.4323
  12        0.4464
  13        0.4631
  14        0.6001
  15        0.7370
  16        0.8024
  17        0.8222
  18        0.9080
  19        0.9290
  20        1.0723
  21        1.0738
  22        1.9054
  23        4.7398
  24        5.3779
  25        8.8338
  26        9.4689
  27       10.7410
  28       11.9500
  29       12.2573
  30       12.5653
  31       13.6694
  32       14.7245
 
  0.3076923E+00  0.7692308E-01  0.0000000E+00  0.1092399E-01
   1       -4.6059
   2       -1.7814
   3       -1.1447
   4       -1.1320
   5       -0.9291
   6       -0.8999
   7       -0.8957
   8       -0.3300
   9        0.1024
  10        0.1176
  11        0.1497
  12        0.1754
  13        0.3632
  14        0.5288
  15        0.6425
  16        0.6988
  17        0.7152
  18        0.7818
  19        0.8700
  20        1.0720
  21        1.0736
  22        1.1981
  23        5.3852
  24        6.0762
  25        9.0598
  26        9.6712
  27        9.7505
  28       10.8264
  29       11.7186
  30       12.8225
  31       14.1652
  32       15.2834
 
  0.3846154E+00  0.7692308E-01  0.0000000E+00  0.1092399E-01
   1       -4.0692
   2       -2.1967
   3       -1.0043
   4       -0.9964
   5       -0.8183
   6       -0.7602
   7       -0.7484
   8       -0.4443
   9       -0.1288
  10       -0.0998
  11        0.1565
  12        0.2280
  13        0.2821
  14        0.3339
  15        0.5975
  16        0.6090
  17        0.6409
  18        0.6934
  19        0.7348
  20        0.8999
  21        1.0722
  22        1.0733
  23        6.1082
  24        6.8752
  25        8.6747
  26        9.3718
  27        9.7430
  28       10.1298
  29       10.9698
  30       12.0028
  31       15.9718
  32       16.1287
 
  0.4615385E+00  0.7692308E-01  0.0000000E+00  0.1092399E-01
   1       -3.4499
   2       -2.7946
   3       -0.9127
   4       -0.9095
   5       -0.6959
   6       -0.5877
   7       -0.5688
   8       -0.5660
   9       -0.3768
  10       -0.3491
  11        0.1444
  12        0.1551
  13        0.3560
  14        0.4135
  15        0.4960
  16        0.5329
  17        0.5372
  18        0.5558
  19        0.7505
  20        0.8135
  21        1.0726
  22        1.0730
  23        6.8978
  24        7.7521
  25        7.7589
  26        8.7174
  27        9.7811
  28       10.2811
  29       10.6774
  30       11.2734
  31       16.7726
  32       16.9590
 
  0.1538462E+00  0.1538462E+00  0.0000000E+00  0.5461994E-02
   1       -5.1626
   2       -1.4258
   3       -1.4258
   4       -1.3189
   5       -1.0471
   6       -1.0471
   7       -1.0451
   8       -0.1854
   9       -0.0141
  10       -0.0040
  11        0.4804
  12        0.5719
  13        0.5933
  14        0.6210
  15        0.6210
  16        0.8383
  17        0.9097
  18        0.9097
  19        1.0083
  20        1.0083
  21        1.0386
  22        3.2376
  23        3.2376
  24        5.1648
  25        8.7735
  26       10.6167
  27       10.6773
  28       10.6773
  29       13.3087
  30       13.3087
  31       13.6748
  32       13.6748
 
  0.2307692E+00  0.1538462E+00  0.0000000E+00  0.1092399E-01
   1       -4.8518
   2       -1.4839
   3       -1.2924
   4       -1.2096
   5       -0.9807
   6       -0.9736
   7       -0.9713
   8       -0.2449
   9        0.0348
  10        0.0402
  11        0.3283
  12        0.3750
  13        0.4355
  14        0.4536
  15        0.6063
  16        0.7623
  17        0.8256
  18        0.8828
  19        0.9072
  20        1.0076
  21        1.0182
  22        2.2891
  23        3.7364
  24        5.6991
  25        8.9320
  26        9.4373
  27       10.9074
  28       12.1811
  29       12.4044
  30       12.7787
  31       13.6950
  32       14.0553
 
  0.3076923E+00  0.1538462E+00  0.0000000E+00  0.1092399E-01
   1       -4.4256
   2       -1.6686
   3       -1.1319
   4       -1.0767
   5       -0.8927
   6       -0.8779
   7       -0.8641
   8       -0.3318
   9        0.0401
  10        0.0746
  11        0.1238
  12        0.1259
  13        0.2490
  14        0.3870
  15        0.6622
  16        0.6682
  17        0.7213
  18        0.7807
  19        0.8239
  20        1.0067
  21        1.0092
  22        1.5670
  23        4.3164
  24        6.3689
  25        8.3491
  26        9.1716
  27       11.0570
  28       11.2285
  29       11.9248
  30       14.2173
  31       14.3152
  32       14.4032
 
  0.3846154E+00  0.1538462E+00  0.0000000E+00  0.1092399E-01
   1       -3.8963
   2       -2.0661
   3       -0.9743
   4       -0.9395
   5       -0.7882
   6       -0.7682
   7       -0.7248
   8       -0.4373
   9       -0.2237
  10       -0.1219
  11        0.0825
  12        0.0834
  13        0.2311
  14        0.3850
  15        0.5771
  16        0.6150
  17        0.6401
  18        0.7228
  19        0.7330
  20        1.0056
  21        1.0058
  22        1.1436
  23        4.9646
  24        7.1460
  25        7.3655
  26        9.4963
  27        9.9777
  28       11.1021
  29       11.7188
  30       13.6407
  31       14.8612
  32       15.2150
 
  0.4615385E+00  0.1538462E+00  0.0000000E+00  0.1092399E-01
   1       -3.2874
   2       -2.6465
   3       -0.8630
   4       -0.8467
   5       -0.6728
   6       -0.6370
   7       -0.5535
   8       -0.5534
   9       -0.4531
  10       -0.3511
  11        0.0265
  12        0.0481
  13        0.3571
  14        0.4602
  15        0.4958
  16        0.5235
  17        0.5379
  18        0.5863
  19        0.8194
  20        0.9362
  21        1.0047
  22        1.0049
  23        5.6828
  24        6.4795
  25        8.0133
  26        8.9600
  27        9.9223
  28       10.4594
  29       12.2535
  30       12.9050
  31       15.6131
  32       15.9733
 
  0.2307692E+00  0.2307692E+00  0.0000000E+00  0.5461994E-02
   1       -4.5469
   2       -1.3334
   3       -1.3334
   4       -1.1151
   5       -0.9129
   6       -0.9113
   7       -0.9113
   8       -0.2809
   9        0.0450
  10        0.0770
  11        0.1644
  12        0.1644
  13        0.2276
  14        0.4118
  15        0.6484
  16        0.6979
  17        0.8052
  18        0.8052
  19        0.9060
  20        0.9060
  21        0.9677
  22        2.7548
  23        2.7548
  24        6.1943
  25        8.2240
  26        9.1083
  27       12.5566
  28       12.5566
  29       12.6416
  30       12.6416
  31       13.1366
  32       13.1366
 
  0.3076923E+00  0.2307692E+00  0.0000000E+00  0.1092399E-01
   1       -4.1299
   2       -1.4941
   3       -1.1497
   4       -1.0006
   5       -0.8340
   6       -0.8322
   7       -0.8137
   8       -0.3452
   9       -0.1025
  10       -0.0009
  11        0.0399
  12        0.0501
  13        0.1459
  14        0.3775
  15        0.6170
  16        0.7062
  17        0.7258
  18        0.7503
  19        0.7795
  20        0.9047
  21        0.9348
  22        1.9730
  23        3.2802
  24        6.8288
  25        7.1286
  26        9.3618
  27       11.4317
  28       12.2067
  29       13.0299
  30       13.0649
  31       13.5925
  32       14.5799
 
  0.3846154E+00  0.2307692E+00  0.0000000E+00  0.1092399E-01
   1       -3.6142
   2       -1.8622
   3       -0.9631
   4       -0.8712
   5       -0.7616
   6       -0.7385
   7       -0.6878
   8       -0.4316
   9       -0.3392
  10       -0.1616
  11       -0.0938
  12        0.0261
  13        0.2435
  14        0.3780
  15        0.5391
  16        0.6025
  17        0.6399
  18        0.6583
  19        0.8287
  20        0.9039
  21        0.9168
  22        1.4521
  23        3.8686
  24        6.1509
  25        7.5771
  26        9.7085
  27       10.3583
  28       11.4107
  29       13.4851
  30       13.6934
  31       14.1937
  32       15.3857
 
  0.4615385E+00  0.2307692E+00  0.0000000E+00  0.1092399E-01
   1       -3.0249
   2       -2.4109
   3       -0.8147
   4       -0.7513
   5       -0.7129
   6       -0.6360
   7       -0.5439
   8       -0.5346
   9       -0.5312
  10       -0.3571
  11       -0.0900
  12       -0.0327
  13        0.3631
  14        0.4388
  15        0.4979
  16        0.4981
  17        0.5222
  18        0.5432
  19        0.9046
  20        0.9080
  21        0.9602
  22        1.1461
  23        4.5329
  24        5.2888
  25        8.4220
  26        9.3520
  27       10.1598
  28       10.7256
  29       14.0478
  30       14.4304
  31       14.6973
  32       14.9060
 
  0.3076923E+00  0.3076923E+00  0.0000000E+00  0.5461994E-02
   1       -3.7274
   2       -1.2802
   3       -1.2802
   4       -0.9237
   5       -0.7649
   6       -0.7477
   7       -0.7477
   8       -0.3789
   9       -0.2174
  10       -0.2174
  11       -0.0798
  12        0.0268
  13        0.1947
  14        0.3450
  15        0.5498
  16        0.6567
  17        0.6567
  18        0.7791
  19        0.7791
  20        0.8323
  21        0.8713
  22        2.4245
  23        2.4245
  24        6.0327
  25        7.4292
  26        9.6398
  27       11.9390
  28       11.9390
  29       12.6583
  30       12.6583
  31       14.9428
  32       14.9428
 
  0.3846154E+00  0.3076923E+00  0.0000000E+00  0.1092399E-01
   1       -3.2337
   2       -1.6086
   3       -1.0619
   4       -0.8565
   5       -0.6898
   6       -0.6707
   7       -0.6405
   8       -0.4347
   9       -0.3978
  10       -0.2399
  11       -0.2217
  12       -0.0164
  13        0.2740
  14        0.3346
  15        0.4833
  16        0.5575
  17        0.5714
  18        0.6422
  19        0.7808
  20        0.8274
  21        0.9718
  22        1.8064
  23        2.9381
  24        5.0699
  25        8.1476
  26       10.0154
  27       10.8726
  28       11.8204
  29       12.5666
  30       13.2193
  31       15.0748
  32       15.4095
 
  0.4615385E+00  0.3076923E+00  0.0000000E+00  0.1092399E-01
   1       -2.6769
   2       -2.1074
   3       -0.8896
   4       -0.8219
   5       -0.6278
   6       -0.5882
   7       -0.5377
   8       -0.5130
   9       -0.5070
  10       -0.3705
  11       -0.1816
  12       -0.0932
  13        0.3783
  14        0.3802
  15        0.4503
  16        0.4675
  17        0.4783
  18        0.5058
  19        0.7870
  20        0.8010
  21        1.1518
  22        1.4072
  23        3.5358
  24        4.2405
  25        8.9681
  26        9.8794
  27       10.4989
  28       11.0992
  29       13.3036
  30       13.8935
  31       14.1417
  32       14.6793
 
  0.3846154E+00  0.3846154E+00  0.0000000E+00  0.5461994E-02
   1       -2.7742
   2       -1.3432
   3       -1.3432
   4       -0.8889
   5       -0.5876
   6       -0.5874
   7       -0.5874
   8       -0.4527
   9       -0.3513
  10       -0.3513
  11       -0.3012
  12       -0.0643
  13        0.2998
  14        0.3306
  15        0.4217
  16        0.4790
  17        0.4790
  18        0.6502
  19        0.6502
  20        0.7533
  21        1.1540
  22        2.2231
  23        2.2231
  24        4.1380
  25        8.8387
  26       10.4249
  27       11.5077
  28       11.5077
  29       12.3433
  30       12.3433
  31       14.0416
  32       14.5983
 
  0.4615385E+00  0.3846154E+00  0.0000000E+00  0.1092399E-01
   1       -2.2685
   2       -1.7688
   3       -1.1157
   4       -0.9657
   5       -0.5341
   6       -0.5012
   7       -0.4930
   8       -0.4871
   9       -0.4317
  10       -0.3946
  11       -0.2496
  12       -0.1433
  13        0.3159
  14        0.3857
  15        0.3863
  16        0.4068
  17        0.4155
  18        0.5248
  19        0.6679
  20        0.7006
  21        1.3905
  22        1.7247
  23        2.7306
  24        3.3610
  25        9.6359
  26       10.5283
  27       10.9455
  28       11.5840
  29       12.2529
  30       12.9806
  31       13.0995
  32       13.7325
 
  0.4615385E+00  0.4615385E+00  0.0000000E+00  0.5461994E-02
   1       -1.8395
   2       -1.4406
   3       -1.4406
   4       -1.1673
   5       -0.4797
   6       -0.4797
   7       -0.4772
   8       -0.4315
   9       -0.3898
  10       -0.3097
  11       -0.3097
  12       -0.2089
  13        0.2926
  14        0.3311
  15        0.3311
  16        0.3329
  17        0.4751
  18        0.5607
  19        0.5607
  20        0.6188
  21        1.7001
  22        2.1284
  23        2.1284
  24        2.6614
  25       10.4121
  26       11.2869
  27       11.2869
  28       11.5054
  29       12.1462
  30       12.1832
  31       12.1832
  32       12.8993
 
  0.7692308E-01  0.7692308E-01  0.7692308E-01  0.3641329E-02
   1       -5.4782
   2       -1.4693
   3       -1.4693
   4       -1.4693
   5       -1.1204
   6       -1.1204
   7       -1.1204
   8       -0.1247
   9       -0.0602
  10       -0.0602
  11        0.5386
  12        0.5386
  13        0.9089
  14        0.9089
  15        0.9089
  16        0.9244
  17        0.9244
  18        0.9244
  19        1.0699
  20        1.0699
  21        1.0699
  22        3.9504
  23        3.9504
  24        3.9504
  25        9.2041
  26        9.2041
  27        9.2041
  28       13.0946
  29       13.0946
  30       13.0946
  31       14.6922
  32       14.6922
 
  0.1538462E+00  0.7692308E-01  0.7692308E-01  0.1092399E-01
   1       -5.2883
   2       -1.4838
   3       -1.3903
   4       -1.3903
   5       -1.0775
   6       -1.0743
   7       -1.0743
   8       -0.1638
   9       -0.0289
  10       -0.0257
  11        0.4991
  12        0.5606
  13        0.6955
  14        0.6955
  15        0.8176
  16        0.8766
  17        0.8766
  18        0.8767
  19        1.0376
  20        1.0631
  21        1.0631
  22        2.9990
  23        4.3170
  24        4.3170
  25        9.3160
  26        9.3160
  27       10.5866
  28       11.9482
  29       11.9482
  30       13.3334
  31       14.4680
  32       14.4680
 
  0.2307692E+00  0.7692308E-01  0.7692308E-01  0.1092399E-01
   1       -4.9753
   2       -1.5492
   3       -1.2698
   4       -1.2698
   5       -1.0083
   6       -0.9969
   7       -0.9969
   8       -0.2342
   9        0.0283
  10        0.0311
  11        0.4212
  12        0.4212
  13        0.4409
  14        0.5959
  15        0.6596
  16        0.7968
  17        0.7987
  18        0.7987
  19        0.9926
  20        1.0579
  21        1.0579
  22        2.0487
  23        4.8420
  24        4.8420
  25        9.5099
  26        9.5099
  27       10.8168
  28       10.8168
  29       12.3060
  30       13.7219
  31       13.7447
  32       13.7447
 
  0.3076923E+00  0.7692308E-01  0.7692308E-01  0.1092399E-01
   1       -4.5458
   2       -1.7443
   3       -1.1255
   4       -1.1255
   5       -0.9168
   6       -0.8892
   7       -0.8892
   8       -0.3288
   9        0.0963
  10        0.1090
  11        0.1367
  12        0.1367
  13        0.3835
  14        0.4313
  15        0.6423
  16        0.6907
  17        0.6988
  18        0.6988
  19        0.9399
  20        1.0548
  21        1.0548
  22        1.3311
  23        5.4745
  24        5.4745
  25        9.7326
  26        9.7326
  27        9.8103
  28        9.8103
  29       12.8918
  30       12.8918
  31       14.2043
  32       14.2582
 
  0.3846154E+00  0.7692308E-01  0.7692308E-01  0.1092399E-01
   1       -4.0116
   2       -2.1536
   3       -0.9847
   4       -0.9847
   5       -0.8077
   6       -0.7540
   7       -0.7540
   8       -0.4406
   9       -0.1312
  10       -0.1312
  11        0.1311
  12        0.2060
  13        0.2091
  14        0.3827
  15        0.5689
  16        0.5984
  17        0.5984
  18        0.6972
  19        0.8817
  20        0.9086
  21        1.0532
  22        1.0532
  23        6.1869
  24        6.1869
  25        8.7517
  26        8.7517
  27       10.1864
  28       10.1864
  29       12.0681
  30       12.0681
  31       14.8955
  32       16.2599
 
  0.4615385E+00  0.7692308E-01  0.7692308E-01  0.1092399E-01
   1       -3.3959
   2       -2.7456
   3       -0.8909
   4       -0.8909
   5       -0.6874
   6       -0.5956
   7       -0.5956
   8       -0.5625
   9       -0.3632
  10       -0.3632
  11        0.1083
  12        0.1090
  13        0.3187
  14        0.4419
  15        0.4851
  16        0.5316
  17        0.5316
  18        0.6577
  19        0.7575
  20        0.8200
  21        1.0525
  22        1.0525
  23        6.9606
  24        6.9606
  25        7.8410
  26        7.8410
  27       10.6796
  28       10.6796
  29       11.3431
  30       11.3431
  31       15.6551
  32       16.5137
 
  0.1538462E+00  0.1538462E+00  0.7692308E-01  0.1092399E-01
   1       -5.1003
   2       -1.3997
   3       -1.3997
   4       -1.3178
   5       -1.0332
   6       -1.0332
   7       -1.0316
   8       -0.1883
   9       -0.0090
  10       -0.0029
  11        0.4929
  12        0.5577
  13        0.5603
  14        0.5857
  15        0.5857
  16        0.8109
  17        0.8351
  18        0.8351
  19        1.0345
  20        1.0345
  21        1.0420
  22        3.3473
  23        3.3473
  24        4.6457
  25        9.4329
  26       10.6931
  27       10.7230
  28       10.7230
  29       12.1774
  30       12.1774
  31       14.7156
  32       14.7156
 
  0.2307692E+00  0.1538462E+00  0.7692308E-01  0.2184797E-01
   1       -4.7909
   2       -1.4560
   3       -1.2713
   4       -1.2076
   5       -0.9671
   6       -0.9608
   7       -0.9592
   8       -0.2448
   9        0.0338
  10        0.0387
  11        0.3081
  12        0.3397
  13        0.4166
  14        0.4519
  15        0.5981
  16        0.7383
  17        0.7550
  18        0.7738
  19        0.9934
  20        1.0200
  21        1.0220
  22        2.3894
  23        3.8264
  24        5.1318
  25        9.5103
  26        9.6383
  27       10.9244
  28       11.0721
  29       12.4280
  30       12.5745
  31       13.9685
  32       15.1126
 
  0.3076923E+00  0.1538462E+00  0.7692308E-01  0.2184797E-01
   1       -4.3668
   2       -1.6373
   3       -1.1164
   4       -1.0737
   5       -0.8795
   6       -0.8667
   7       -0.8567
   8       -0.3285
   9        0.0341
  10        0.0717
  11        0.0953
  12        0.1084
  13        0.2131
  14        0.4154
  15        0.6472
  16        0.6523
  17        0.6566
  18        0.6867
  19        0.9372
  20        1.0078
  21        1.0078
  22        1.6414
  23        4.3925
  24        5.7298
  25        8.4321
  26        9.9332
  27        9.9614
  28       11.2976
  29       13.0474
  30       13.0986
  31       14.3715
  32       14.4734
 
  0.3846154E+00  0.1538462E+00  0.7692308E-01  0.2184797E-01
   1       -3.8406
   2       -2.0287
   3       -0.9605
   4       -0.9329
   5       -0.7756
   6       -0.7650
   7       -0.7341
   8       -0.4310
   9       -0.2126
  10       -0.1404
  11        0.0567
  12        0.0743
  13        0.1939
  14        0.4397
  15        0.5269
  16        0.5659
  17        0.5917
  18        0.7279
  19        0.8543
  20        0.9997
  21        1.0003
  22        1.1656
  23        5.0301
  24        6.3989
  25        7.4706
  26        8.9704
  27       10.3363
  28       11.7254
  29       12.2732
  30       13.6726
  31       13.7053
  32       16.1748
 
  0.4615385E+00  0.1538462E+00  0.7692308E-01  0.2184797E-01
   1       -3.2363
   2       -2.6017
   3       -0.8430
   4       -0.8279
   5       -0.6673
   6       -0.6617
   7       -0.6246
   8       -0.5444
   9       -0.3918
  10       -0.3386
  11        0.0085
  12        0.0352
  13        0.2938
  14        0.4064
  15        0.5118
  16        0.5218
  17        0.5499
  18        0.7133
  19        0.8113
  20        0.9253
  21        0.9965
  22        0.9968
  23        5.7368
  24        6.4937
  25        7.2585
  26        8.0616
  27       10.8539
  28       11.4840
  29       12.3170
  30       12.9662
  31       14.4069
  32       15.2428
 
  0.2307692E+00  0.2307692E+00  0.7692308E-01  0.1092399E-01
   1       -4.4878
   2       -1.3137
   3       -1.3137
   4       -1.1156
   5       -0.8995
   6       -0.8978
   7       -0.8978
   8       -0.2776
   9        0.0434
  10        0.0675
  11        0.1491
  12        0.1491
  13        0.1994
  14        0.4368
  15        0.6387
  16        0.6634
  17        0.7102
  18        0.7102
  19        0.9680
  20        0.9680
  21        0.9832
  22        2.8309
  23        2.8309
  24        5.5708
  25        8.3105
  26        9.8512
  27       11.3935
  28       11.3935
  29       12.7115
  30       12.7115
  31       14.3348
  32       14.3348
 
  0.3076923E+00  0.2307692E+00  0.7692308E-01  0.2184797E-01
   1       -4.0736
   2       -1.4741
   3       -1.1423
   4       -1.0062
   5       -0.8200
   6       -0.8166
   7       -0.8019
   8       -0.3379
   9       -0.0993
  10       -0.0104
  11        0.0217
  12        0.0480
  13        0.1207
  14        0.4168
  15        0.5851
  16        0.6115
  17        0.6424
  18        0.7163
  19        0.9009
  20        0.9415
  21        0.9507
  22        2.0252
  23        3.3420
  24        6.1038
  25        7.2475
  26       10.1658
  27       10.3172
  28       11.8857
  29       13.0547
  30       13.4471
  31       14.6268
  32       14.8360
 
  0.3846154E+00  0.2307692E+00  0.7692308E-01  0.2184797E-01
   1       -3.5622
   2       -1.8358
   3       -0.9687
   4       -0.8856
   5       -0.7498
   6       -0.7214
   7       -0.6918
   8       -0.4202
   9       -0.3081
  10       -0.1612
  11       -0.0988
  12        0.0232
  13        0.1911
  14        0.4460
  15        0.4956
  16        0.5124
  17        0.5597
  18        0.8072
  19        0.8181
  20        0.9239
  21        0.9287
  22        1.4706
  23        3.9211
  24        6.1224
  25        6.9141
  26        9.3244
  27       10.5895
  28       12.4959
  29       12.5589
  30       13.5423
  31       14.9642
  32       15.4503
 
  0.4615385E+00  0.2307692E+00  0.7692308E-01  0.2184797E-01
   1       -2.9793
   2       -2.3742
   3       -0.8236
   4       -0.7648
   5       -0.7292
   6       -0.6447
   7       -0.6192
   8       -0.5165
   9       -0.4087
  10       -0.3196
  11       -0.0933
  12       -0.0359
  13        0.2771
  14        0.3802
  15        0.4721
  16        0.4911
  17        0.5443
  18        0.6803
  19        0.9163
  20        0.9177
  21        0.9482
  22        1.1399
  23        4.5774
  24        5.3209
  25        7.6012
  26        8.4185
  27       11.1300
  28       11.7894
  29       13.2161
  30       14.0402
  31       14.1048
  32       14.7571
 
  0.3076923E+00  0.3076923E+00  0.7692308E-01  0.1092399E-01
   1       -3.6751
   2       -1.2792
   3       -1.2792
   4       -0.9438
   5       -0.7463
   6       -0.7278
   7       -0.7278
   8       -0.3660
   9       -0.2071
  10       -0.2071
  11       -0.0810
  12        0.0258
  13        0.1492
  14        0.4030
  15        0.5109
  16        0.5604
  17        0.5604
  18        0.8213
  19        0.8605
  20        0.8605
  21        0.8970
  22        2.4658
  23        2.4658
  24        5.9874
  25        6.7996
  26       10.5028
  27       10.8003
  28       10.8003
  29       13.8956
  30       13.8956
  31       14.8675
  32       14.9956
 
  0.3846154E+00  0.3076923E+00  0.7692308E-01  0.2184797E-01
   1       -3.1877
   2       -1.6007
   3       -1.0884
   4       -0.8958
   5       -0.6684
   6       -0.6443
   7       -0.6213
   8       -0.4157
   9       -0.3604
  10       -0.2307
  11       -0.1979