<?xml version="1.0" encoding="ISO-8859-1"?>
<modeling>
 <generator>
  <i name="program" type="string">vasp</i>
  <i name="version" type="string">4.6.28 </i>
  <i name="subversion" type="string">25Jul05 complex  parallel</i>
  <i name="platform" type="string">LinuxIFC</i>
  <i name="date" type="string">2016 07 06</i>
  <i name="time" type="string">18:29:53</i>
 </generator>
 <incar>
  <i type="string" name="PREC">accurate</i>
  <i type="int" name="IALGO">    38</i>
  <i type="logical" name="ADDGRID"> T  </i>
  <i name="EDIFF">      0.00000001</i>
  <i type="int" name="IBRION">    -1</i>
  <i name="ENCUT">    500.00000000</i>
  <i type="logical" name="LREAL"> F  </i>
  <i type="int" name="ISMEAR">     0</i>
  <i name="SIGMA">      0.01000000</i>
  <i type="logical" name="LWAVE"> F  </i>
  <i type="logical" name="LCHARG"> F  </i>
 </incar>
 <kpoints>
  <generation param="Auto">
   <i name="subdivisionlength">     50.00000000</i>
   <v type="int" name="divisions">      13      13      13</v>
   <v name="usershift">      0.00000000      0.00000000      0.00000000</v>
   <v name="genvec1">      0.07692308      0.00000000      0.00000000</v>
   <v name="genvec2">      0.00000000      0.07692308      0.00000000</v>
   <v name="genvec3">      0.00000000      0.00000000      0.07692308</v>
   <v name="shift">      0.00000000      0.00000000      0.00000000</v>
  </generation>
  <varray name="kpointlist" >
   <v>       0.00000000      0.00000000      0.00000000</v>
   <v>       0.07692308      0.00000000      0.00000000</v>
   <v>       0.15384615      0.00000000      0.00000000</v>
   <v>       0.23076923      0.00000000      0.00000000</v>
   <v>       0.30769231      0.00000000      0.00000000</v>
   <v>       0.38461538      0.00000000      0.00000000</v>
   <v>       0.46153846      0.00000000      0.00000000</v>
   <v>       0.07692308      0.07692308      0.00000000</v>
   <v>       0.15384615      0.07692308      0.00000000</v>
   <v>       0.23076923      0.07692308      0.00000000</v>
   <v>       0.30769231      0.07692308      0.00000000</v>
   <v>       0.38461538      0.07692308      0.00000000</v>
   <v>       0.46153846      0.07692308      0.00000000</v>
   <v>       0.15384615      0.15384615      0.00000000</v>
   <v>       0.23076923      0.15384615      0.00000000</v>
   <v>       0.30769231      0.15384615      0.00000000</v>
   <v>       0.38461538      0.15384615      0.00000000</v>
   <v>       0.46153846      0.15384615      0.00000000</v>
   <v>       0.23076923      0.23076923      0.00000000</v>
   <v>       0.30769231      0.23076923      0.00000000</v>
   <v>       0.38461538      0.23076923      0.00000000</v>
   <v>       0.46153846      0.23076923      0.00000000</v>
   <v>       0.30769231      0.30769231      0.00000000</v>
   <v>       0.38461538      0.30769231      0.00000000</v>
   <v>       0.46153846      0.30769231      0.00000000</v>
   <v>       0.38461538      0.38461538      0.00000000</v>
   <v>       0.46153846      0.38461538      0.00000000</v>
   <v>       0.46153846      0.46153846      0.00000000</v>
   <v>       0.07692308      0.07692308      0.07692308</v>
   <v>       0.15384615      0.07692308      0.07692308</v>
   <v>       0.23076923      0.07692308      0.07692308</v>
   <v>       0.30769231      0.07692308      0.07692308</v>
   <v>       0.38461538      0.07692308      0.07692308</v>
   <v>       0.46153846      0.07692308      0.07692308</v>
   <v>       0.15384615      0.15384615      0.07692308</v>
   <v>       0.23076923      0.15384615      0.07692308</v>
   <v>       0.30769231      0.15384615      0.07692308</v>
   <v>       0.38461538      0.15384615      0.07692308</v>
   <v>       0.46153846      0.15384615      0.07692308</v>
   <v>       0.23076923      0.23076923      0.07692308</v>
   <v>       0.30769231      0.23076923      0.07692308</v>
   <v>       0.38461538      0.23076923      0.07692308</v>
   <v>       0.46153846      0.23076923      0.07692308</v>
   <v>       0.30769231      0.30769231      0.07692308</v>
   <v>       0.38461538      0.30769231      0.07692308</v>
   <v>       0.46153846      0.30769231      0.07692308</v>
   <v>       0.38461538      0.38461538      0.07692308</v>
   <v>       0.46153846      0.38461538      0.07692308</v>
   <v>       0.46153846      0.46153846      0.07692308</v>
   <v>       0.15384615      0.15384615      0.15384615</v>
   <v>       0.23076923      0.15384615      0.15384615</v>
   <v>       0.30769231      0.15384615      0.15384615</v>
   <v>       0.38461538      0.15384615      0.15384615</v>
   <v>       0.46153846      0.15384615      0.15384615</v>
   <v>       0.23076923      0.23076923      0.15384615</v>
   <v>       0.30769231      0.23076923      0.15384615</v>
   <v>       0.38461538      0.23076923      0.15384615</v>
   <v>       0.46153846      0.23076923      0.15384615</v>
   <v>       0.30769231      0.30769231      0.15384615</v>
   <v>       0.38461538      0.30769231      0.15384615</v>
   <v>       0.46153846      0.30769231      0.15384615</v>
   <v>       0.38461538      0.38461538      0.15384615</v>
   <v>       0.46153846      0.38461538      0.15384615</v>
   <v>       0.46153846      0.46153846      0.15384615</v>
   <v>       0.23076923      0.23076923      0.23076923</v>
   <v>       0.30769231      0.23076923      0.23076923</v>
   <v>       0.38461538      0.23076923      0.23076923</v>
   <v>       0.46153846      0.23076923      0.23076923</v>
   <v>       0.30769231      0.30769231      0.23076923</v>
   <v>       0.38461538      0.30769231      0.23076923</v>
   <v>       0.46153846      0.30769231      0.23076923</v>
   <v>       0.38461538      0.38461538      0.23076923</v>
   <v>       0.46153846      0.38461538      0.23076923</v>
   <v>       0.46153846      0.46153846      0.23076923</v>
   <v>       0.30769231      0.30769231      0.30769231</v>
   <v>       0.38461538      0.30769231      0.30769231</v>
   <v>       0.46153846      0.30769231      0.30769231</v>
   <v>       0.38461538      0.38461538      0.30769231</v>
   <v>       0.46153846      0.38461538      0.30769231</v>
   <v>       0.46153846      0.46153846      0.30769231</v>
   <v>       0.38461538      0.38461538      0.38461538</v>
   <v>       0.46153846      0.38461538      0.38461538</v>
   <v>       0.46153846      0.46153846      0.38461538</v>
   <v>       0.46153846      0.46153846      0.46153846</v>
  </varray>
  <varray name="weights" >
   <v>       0.00045517</v>
   <v>       0.00273100</v>
   <v>       0.00273100</v>
   <v>       0.00273100</v>
   <v>       0.00273100</v>
   <v>       0.00273100</v>
   <v>       0.00273100</v>
   <v>       0.00546199</v>
   <v>       0.01092399</v>
   <v>       0.01092399</v>
   <v>       0.01092399</v>
   <v>       0.01092399</v>
   <v>       0.01092399</v>
   <v>       0.00546199</v>
   <v>       0.01092399</v>
   <v>       0.01092399</v>
   <v>       0.01092399</v>
   <v>       0.01092399</v>
   <v>       0.00546199</v>
   <v>       0.01092399</v>
   <v>       0.01092399</v>
   <v>       0.01092399</v>
   <v>       0.00546199</v>
   <v>       0.01092399</v>
   <v>       0.01092399</v>
   <v>       0.00546199</v>
   <v>       0.01092399</v>
   <v>       0.00546199</v>
   <v>       0.00364133</v>
   <v>       0.01092399</v>
   <v>       0.01092399</v>
   <v>       0.01092399</v>
   <v>       0.01092399</v>
   <v>       0.01092399</v>
   <v>       0.01092399</v>
   <v>       0.02184797</v>
   <v>       0.02184797</v>
   <v>       0.02184797</v>
   <v>       0.02184797</v>
   <v>       0.01092399</v>
   <v>       0.02184797</v>
   <v>       0.02184797</v>
   <v>       0.02184797</v>
   <v>       0.01092399</v>
   <v>       0.02184797</v>
   <v>       0.02184797</v>
   <v>       0.01092399</v>
   <v>       0.02184797</v>
   <v>       0.01092399</v>
   <v>       0.00364133</v>
   <v>       0.01092399</v>
   <v>       0.01092399</v>
   <v>       0.01092399</v>
   <v>       0.01092399</v>
   <v>       0.01092399</v>
   <v>       0.02184797</v>
   <v>       0.02184797</v>
   <v>       0.02184797</v>
   <v>       0.01092399</v>
   <v>       0.02184797</v>
   <v>       0.02184797</v>
   <v>       0.01092399</v>
   <v>       0.02184797</v>
   <v>       0.01092399</v>
   <v>       0.00364133</v>
   <v>       0.01092399</v>
   <v>       0.01092399</v>
   <v>       0.01092399</v>
   <v>       0.01092399</v>
   <v>       0.02184797</v>
   <v>       0.02184797</v>
   <v>       0.01092399</v>
   <v>       0.02184797</v>
   <v>       0.01092399</v>
   <v>       0.00364133</v>
   <v>       0.01092399</v>
   <v>       0.01092399</v>
   <v>       0.01092399</v>
   <v>       0.02184797</v>
   <v>       0.01092399</v>
   <v>       0.00364133</v>
   <v>       0.01092399</v>
   <v>       0.01092399</v>
   <v>       0.00364133</v>
  </varray>
 </kpoints>
 <parameters>
  <separator name="general" >
   <i type="string" name="SYSTEM">unknown system</i>
   <i type="logical" name="LCOMPAT"> F  </i>
  </separator>
  <separator name="electronic" >
   <i type="string" name="PREC">accura</i>
   <i name="ENMAX">    500.00000000</i>
   <i name="ENAUG">    516.45600000</i>
   <i name="EDIFF">      0.00000001</i>
   <i type="int" name="IALGO">    38</i>
   <i type="int" name="IWAVPR">    10</i>
   <i type="int" name="NBANDS">    26</i>
   <i name="NELECT">     44.00000000</i>
   <separator name="electronic smearing" >
    <i type="int" name="ISMEAR">     0</i>
    <i name="SIGMA">      0.01000000</i>
   </separator>
   <separator name="electronic projectors" >
    <i type="logical" name="LREAL"> F  </i>
    <v name="ROPT">      0.00000000</v>
    <i type="int" name="LMAXPAW">  -100</i>
    <i type="int" name="LMAXMIX">     2</i>
   </separator>
   <separator name="electronic startup" >
    <i type="int" name="ISTART">     0</i>
    <i type="int" name="ICHARG">     2</i>
    <i type="int" name="INIWAV">     1</i>
   </separator>
   <separator name="electronic spin" >
    <i type="int" name="ISPIN">     1</i>
    <i type="logical" name="LNONCOLLINEAR"> F  </i>
    <v name="MAGMOM">      1.00000000      1.00000000      1.00000000      1.00000000</v>
    <i name="NUPDOWN">     -1.00000000</i>
    <i type="logical" name="LSORBIT"> F  </i>
    <v name="SAXIS">      0.00000000      0.00000000      1.00000000</v>
    <i type="logical" name="LSPIRAL"> F  </i>
    <v name="QSPIRAL">      0.00000000      0.00000000      0.00000000</v>
    <i type="logical" name="LZEROZ"> F  </i>
   </separator>
   <separator name="electronic exchange-correlation" >
    <i type="string" name="GGA">--</i>
    <i type="int" name="VOSKOWN">     0</i>
    <i type="logical" name="LASPH"> F  </i>
    <i type="logical" name="LMETAGGA"> F  </i>
    <i type="string" name="GGA2">--</i>
   </separator>
   <separator name="electronic convergence" >
    <i type="int" name="NELM">    60</i>
    <i type="int" name="NELMDL">    -5</i>
    <i type="int" name="NELMIN">     2</i>
    <i name="ENINI">    500.00000000</i>
    <separator name="electronic convergence detail" >
     <i type="logical" name="LDIAG"> T  </i>
     <i name="WEIMIN">      0.00000000</i>
     <i name="EBREAK">      0.00000000</i>
     <i name="DEPER">      0.30000000</i>
     <i type="int" name="NRMM">     4</i>
     <i name="TIME">      0.10000000</i>
    </separator>
   </separator>
   <separator name="electronic mixer" >
    <i name="AMIX">      0.40000000</i>
    <i name="BMIX">      1.00000000</i>
    <i name="AMIN">      0.10000000</i>
    <i name="AMIX_MAG">      1.60000000</i>
    <i name="BMIX_MAG">      1.00000000</i>
    <separator name="electronic mixer details" >
     <i type="int" name="IMIX">     4</i>
     <i type="int" name="MAXMIX">   -45</i>
     <i name="WC">    100.00000000</i>
     <i type="int" name="INIMIX">     1</i>
     <i type="int" name="MIXPRE">     1</i>
     <i type="int" name="MREMOVE">     5</i>
    </separator>
   </separator>
   <separator name="electronic dipolcorrection" >
    <i type="int" name="IDIPOL">     0</i>
    <i type="logical" name="LDIPOL"> F  </i>
    <v name="DIPOL">   -100.00000000</v>
    <i name="EFIELD">      0.00000000</i>
   </separator>
  </separator>
  <separator name="grids" >
   <i type="int" name="NGX">    28</i>
   <i type="int" name="NGY">    28</i>
   <i type="int" name="NGZ">    28</i>
   <i type="int" name="NGXF">    56</i>
   <i type="int" name="NGYF">    56</i>
   <i type="int" name="NGZF">    56</i>
   <i type="logical" name="ADDGRID"> T  </i>
  </separator>
  <separator name="ionic" >
   <i type="int" name="NSW">     0</i>
   <i type="int" name="IBRION">    -1</i>
   <i type="int" name="ISIF">     2</i>
   <i name="PSTRESS">      0.00000000</i>
   <i name="EDIFFG">      0.00000010</i>
   <i type="int" name="NFREE">     0</i>
   <i name="POTIM">      0.50000000</i>
   <i name="SMASS">     -3.00000000</i>
  </separator>
  <separator name="ionic md" >
   <i name="TEBEG">      0.00010000</i>
   <i name="TEEND">      0.00010000</i>
   <i type="int" name="NBLOCK">     1</i>
   <i type="int" name="KBLOCK">     1</i>
   <i type="int" name="NPACO">   256</i>
   <i name="APACO">     16.00000000</i>
  </separator>
  <separator name="symmetry" >
   <i type="int" name="ISYM">     2</i>
   <i name="SYMPREC">      0.00001000</i>
  </separator>
  <separator name="dos" >
   <i type="logical" name="LORBIT"> F  </i>
   <v name="RWIGS">     -1.00000000</v>
   <i type="int" name="NEDOS">   301</i>
   <i name="EMIN">     10.00000000</i>
   <i name="EMAX">    -10.00000000</i>
  </separator>
  <separator name="writing" >
   <i type="int" name="NWRITE">     2</i>
   <i type="logical" name="LWAVE"> F  </i>
   <i type="logical" name="LCHARG"> F  </i>
   <i type="logical" name="LPARD"> F  </i>
   <i type="logical" name="LVTOT"> F  </i>
   <i type="logical" name="LELF"> F  </i>
   <i type="logical" name="LOPTICS"> F  </i>
   <i name="STM">      0.00000000</i>
  </separator>
  <separator name="performance" >
   <i type="int" name="NPAR">     8</i>
   <i type="int" name="NSIM">     4</i>
   <i type="int" name="NBLK">   160</i>
   <i type="logical" name="LPLANE"> T  </i>
   <i type="logical" name="LCRITICAL_MEM"> F  </i>
   <i type="logical" name="LSCALAPACK"> F  </i>
   <i type="logical" name="LSCALU"> F  </i>
   <i type="logical" name="LASYNC"> F  </i>
  </separator>
  <separator name="miscellaneous" >
   <i type="int" name="IDIOT">     3</i>
   <i type="logical" name="LMUSIC"> F  </i>
   <v name="POMASS">     63.54600000</v>
   <i type="logical" name="LCORR"> T  </i>
  </separator>
  <i type="logical" name="LREAL_COMPAT"> F  </i>
  <i type="logical" name="GGA_COMPAT"> T  </i>
  <i type="logical" name="LBERRY"> F  </i>
  <i type="int" name="ICORELEVEL">     0</i>
  <i type="logical" name="LDAU"> F  </i>
  <i type="int" name="I_CONSTRAINED_M">     0</i>
 </parameters>
 <atominfo>
  <atoms>       4</atoms>
  <types>       1</types>
  <array name="atoms" >
   <dimension dim="1">ion</dimension>
   <field type="string">element</field>
   <field type="int">atomtype</field>
   <set>
    <rc><c>Cu</c><c>   1</c></rc>
    <rc><c>Cu</c><c>   1</c></rc>
    <rc><c>Cu</c><c>   1</c></rc>
    <rc><c>Cu</c><c>   1</c></rc>
   </set>
  </array>
  <array name="atomtypes" >
   <dimension dim="1">type</dimension>
   <field type="int">atomspertype</field>
   <field type="string">element</field>
   <field>mass</field>
   <field>valence</field>
   <field type="string">pseudopotential</field>
   <set>
    <rc><c>   4</c><c>Cu</c><c>     63.54600000</c><c>     11.00000000</c><c> PAW_PBE Cu 05Jan2001                   </c></rc>
   </set>
  </array>
 </atominfo>
 <structure name="initialpos" >
  <crystal>
   <varray name="basis" >
    <v>       3.81823660      0.00000000      0.00000000</v>
    <v>       0.00000000      3.81823660      0.00000000</v>
    <v>       0.00000000      0.00000000      3.81823660</v>
   </varray>
   <i name="volume">     55.66580702</i>
   <varray name="rec_basis" >
    <v>       0.26190100      0.00000000      0.00000000</v>
    <v>       0.00000000      0.26190100      0.00000000</v>
    <v>       0.00000000      0.00000000      0.26190100</v>
   </varray>
  </crystal>
  <varray name="positions" >
   <v>       0.00000000      0.00000000      0.00000000</v>
   <v>       0.50000000      0.50000000      0.00000000</v>
   <v>       0.50000000      0.00000000      0.50000000</v>
   <v>       0.00000000      0.50000000      0.50000000</v>
  </varray>
 </structure>
 <calculation>
  <scstep>
   <time name="dav">    1.36    1.39</time>
   <time name="total">    1.40    1.43</time>
   <energy>
    <i name="alphaZ">    367.22723653</i>
    <i name="ewald">  -4184.41627465</i>
    <i name="hartreedc">  -1432.28342022</i>
    <i name="XCdc">    173.91864682</i>
    <i name="pawpsdc">   4328.20916945</i>
    <i name="pawaedc">  -4904.30802700</i>
    <i name="eentropy">     -0.00028928</i>
    <i name="bandstr">    364.12679431</i>
    <i name="atom">   5563.90732063</i>
    <i name="e_fr_energy">    276.38115657</i>
    <i name="e_wo_entrp">    276.38144585</i>
    <i name="e_0_energy">    276.38130121</i>
   </energy>
  </scstep>
  <scstep>
   <time name="dav">    1.33    1.33</time>
   <time name="total">    1.33    1.33</time>
   <energy>
    <i name="e_fr_energy">     -0.13651190</i>
    <i name="e_wo_entrp">     -0.13633122</i>
    <i name="e_0_energy">     -0.13642156</i>
   </energy>
  </scstep>
  <scstep>
   <time name="dav">    1.47    1.47</time>
   <time name="total">    1.47    1.47</time>
   <energy>
    <i name="e_fr_energy">    -17.47550179</i>
    <i name="e_wo_entrp">    -17.47525403</i>
    <i name="e_0_energy">    -17.47537791</i>
   </energy>
  </scstep>
  <scstep>
   <time name="dav">    1.43    1.43</time>
   <time name="total">    1.43    1.43</time>
   <energy>
    <i name="e_fr_energy">    -17.66191290</i>
    <i name="e_wo_entrp">    -17.66166222</i>
    <i name="e_0_energy">    -17.66178756</i>
   </energy>
  </scstep>
  <scstep>
   <time name="dav">    1.47    1.47</time>
   <time name="total">    1.56    1.56</time>
   <energy>
    <i name="e_fr_energy">    -17.66226528</i>
    <i name="e_wo_entrp">    -17.66201462</i>
    <i name="e_0_energy">    -17.66213995</i>
   </energy>
  </scstep>
  <scstep>
   <time name="dav">    1.41    1.41</time>
   <time name="total">    1.52    1.52</time>
   <energy>
    <i name="e_fr_energy">    -16.19708475</i>
    <i name="e_wo_entrp">    -16.19696930</i>
    <i name="e_0_energy">    -16.19702702</i>
   </energy>
  </scstep>
  <scstep>
   <time name="dav">    1.44    1.45</time>
   <time name="total">    1.56    1.56</time>
   <energy>
    <i name="e_fr_energy">    -14.52902129</i>
    <i name="e_wo_entrp">    -14.52887490</i>
    <i name="e_0_energy">    -14.52894809</i>
   </energy>
  </scstep>
  <scstep>
   <time name="dav">    1.45    1.45</time>
   <time name="total">    1.56    1.57</time>
   <energy>
    <i name="e_fr_energy">    -14.51310938</i>
    <i name="e_wo_entrp">    -14.51290692</i>
    <i name="e_0_energy">    -14.51300815</i>
   </energy>
  </scstep>
  <scstep>
   <time name="dav">    1.46    1.46</time>
   <time name="total">    1.57    1.57</time>
   <energy>
    <i name="e_fr_energy">    -14.50046194</i>
    <i name="e_wo_entrp">    -14.50033914</i>
    <i name="e_0_energy">    -14.50040054</i>
   </energy>
  </scstep>
  <scstep>
   <time name="dav">    1.44    1.45</time>
   <time name="total">    1.56    1.56</time>
   <energy>
    <i name="e_fr_energy">    -14.50047773</i>
    <i name="e_wo_entrp">    -14.50036066</i>
    <i name="e_0_energy">    -14.50041920</i>
   </energy>
  </scstep>
  <scstep>
   <time name="dav">    1.44    1.44</time>
   <time name="total">    1.55    1.56</time>
   <energy>
    <i name="e_fr_energy">    -14.50047767</i>
    <i name="e_wo_entrp">    -14.50036076</i>
    <i name="e_0_energy">    -14.50041922</i>
   </energy>
  </scstep>
  <scstep>
   <time name="dav">    1.69    1.68</time>
   <time name="total">    1.80    1.80</time>
   <energy>
    <i name="e_fr_energy">    -14.50048128</i>
    <i name="e_wo_entrp">    -14.50036423</i>
    <i name="e_0_energy">    -14.50042276</i>
   </energy>
  </scstep>
  <scstep>
   <time name="dav">    1.13    1.13</time>
   <time name="total">    1.25    1.25</time>
   <energy>
    <i name="e_fr_energy">    -14.50048197</i>
    <i name="e_wo_entrp">    -14.50036490</i>
    <i name="e_0_energy">    -14.50042344</i>
   </energy>
  </scstep>
  <scstep>
   <time name="dav">    1.01    1.01</time>
   <time name="total">    1.12    1.12</time>
   <energy>
    <i name="e_fr_energy">    -14.50048199</i>
    <i name="e_wo_entrp">    -14.50036492</i>
    <i name="e_0_energy">    -14.50042346</i>
   </energy>
  </scstep>
  <scstep>
   <time name="dav">    0.98    0.98</time>
   <time name="total">    1.09    1.09</time>
   <energy>
    <i name="e_fr_energy">    -14.50048197</i>
    <i name="e_wo_entrp">    -14.50036490</i>
    <i name="e_0_energy">    -14.50042344</i>
   </energy>
  </scstep>
  <scstep>
   <time name="dav">    0.96    0.96</time>
   <time name="total">    0.99    0.99</time>
   <energy>
    <i name="alphaZ">    367.22723653</i>
    <i name="ewald">  -4184.41627465</i>
    <i name="hartreedc">  -1349.96697412</i>
    <i name="XCdc">    169.98920390</i>
    <i name="pawpsdc">   4313.53265803</i>
    <i name="pawaedc">  -4890.29155731</i>
    <i name="eentropy">     -0.00011707</i>
    <i name="bandstr">     -4.48197790</i>
    <i name="atom">   5563.90732063</i>
    <i name="e_fr_energy">    -14.50048197</i>
    <i name="e_wo_entrp">    -14.50036490</i>
    <i name="e_0_energy">    -14.50042343</i>
   </energy>
  </scstep>
  <structure>
   <crystal>
    <varray name="basis" >
     <v>       3.81823660      0.00000000      0.00000000</v>
     <v>       0.00000000      3.81823660      0.00000000</v>
     <v>       0.00000000      0.00000000      3.81823660</v>
    </varray>
    <i name="volume">     55.66580702</i>
    <varray name="rec_basis" >
     <v>       0.26190100      0.00000000      0.00000000</v>
     <v>       0.00000000      0.26190100      0.00000000</v>
     <v>       0.00000000      0.00000000      0.26190100</v>
    </varray>
   </crystal>
   <varray name="positions" >
    <v>       0.00000000      0.00000000      0.00000000</v>
    <v>       0.50000000      0.50000000      0.00000000</v>
    <v>       0.50000000      0.00000000      0.50000000</v>
    <v>       0.00000000      0.50000000      0.50000000</v>
   </varray>
  </structure>
  <varray name="forces" >
   <v>       0.00000000      0.00000000     -0.00000000</v>
   <v>       0.00000000      0.00000000      0.00000000</v>
   <v>       0.00000000     -0.00000000      0.00000000</v>
   <v>      -0.00000000     -0.00000000     -0.00000000</v>
  </varray>
  <varray name="stress" >
   <v>    -138.17680016     -0.00000000      0.00000000</v>
   <v>      -0.00000000   -138.17680016     -0.00000000</v>
   <v>       0.00000000     -0.00000000   -138.17680016</v>
  </varray>
  <energy>
   <i name="e_fr_energy">    -14.50048197</i>
   <i name="e_wo_entrp">    -14.50042343</i>
   <i name="e_0_energy">     -0.00011707</i>
  </energy>
  <eigenvalues>
   <array>
    <dimension dim="1">band</dimension>
    <dimension dim="2">kpoint</dimension>
    <dimension dim="3">spin</dimension>
    <field>eigene</field>
    <field>occ</field>
    <set>
     <set comment="spin 1">
      <set comment="kpoint 1">
       <r>  -5.6697  1.0000</r>
       <r>  -1.5224  1.0000</r>
       <r>  -1.5224  1.0000</r>
       <r>  -1.5224  1.0000</r>
       <r>  -1.1665  1.0000</r>
       <r>  -1.1665  1.0000</r>
       <r>  -1.1665  1.0000</r>
       <r>  -0.0914  1.0000</r>
       <r>  -0.0914  1.0000</r>
       <r>  -0.0914  1.0000</r>
       <r>   0.5498  1.0000</r>
       <r>   0.5498  1.0000</r>
       <r>   0.9771  1.0000</r>
       <r>   0.9771  1.0000</r>
       <r>   0.9771  1.0000</r>
       <r>   1.0966  1.0000</r>
       <r>   1.0966  1.0000</r>
       <r>   1.0966  1.0000</r>
       <r>   1.0966  1.0000</r>
       <r>   1.0966  1.0000</r>
       <r>   1.0966  1.0000</r>
       <r>   4.1300  0.0000</r>
       <r>   4.1300  0.0000</r>
       <r>   4.1300  0.0000</r>
       <r>   8.5381  0.0000</r>
       <r>   8.5381  0.0000</r>
       <r>   8.5381  0.0000</r>
       <r>  14.4258  0.0000</r>
       <r>  14.4258  0.0000</r>
       <r>  14.4258  0.0000</r>
       <r>  14.4258  0.0000</r>
       <r>  14.4258  0.0000</r>
      </set>
      <set comment="kpoint 2">
       <r>  -5.6057  1.0000</r>
       <r>  -1.5249  1.0000</r>
       <r>  -1.4949  1.0000</r>
       <r>  -1.4949  1.0000</r>
       <r>  -1.1514  1.0000</r>
       <r>  -1.1505  1.0000</r>
       <r>  -1.1505  1.0000</r>
       <r>  -0.1076  1.0000</r>
       <r>  -0.0781  1.0000</r>
       <r>  -0.0781  1.0000</r>
       <r>   0.5351  1.0000</r>
       <r>   0.5559  1.0000</r>
       <r>   0.9581  1.0000</r>
       <r>   0.9581  1.0000</r>
       <r>   0.9708  1.0000</r>
       <r>   1.0068  1.0000</r>
       <r>   1.0068  1.0000</r>
       <r>   1.0740  1.0000</r>
       <r>   1.0740  1.0000</r>
       <r>   1.0966  1.0000</r>
       <r>   1.0966  1.0000</r>
       <r>   3.6702  0.0000</r>
       <r>   4.2789  0.0000</r>
       <r>   4.2789  0.0000</r>
       <r>   8.5660  0.0000</r>
       <r>   8.5660  0.0000</r>
       <r>   9.1315  0.0000</r>
       <r>  13.9712  0.0000</r>
       <r>  13.9712  0.0000</r>
       <r>  14.1068  0.0000</r>
       <r>  14.1068  0.0000</r>
       <r>  14.5165  0.0000</r>
      </set>
      <set comment="kpoint 3">
       <r>  -5.4145  1.0000</r>
       <r>  -1.5431  1.0000</r>
       <r>  -1.4156  1.0000</r>
       <r>  -1.4156  1.0000</r>
       <r>  -1.1071  1.0000</r>
       <r>  -1.1024  1.0000</r>
       <r>  -1.1024  1.0000</r>
       <r>  -0.1552  1.0000</r>
       <r>  -0.0381  1.0000</r>
       <r>  -0.0381  1.0000</r>
       <r>   0.4925  1.0000</r>
       <r>   0.5738  1.0000</r>
       <r>   0.7802  1.0000</r>
       <r>   0.7802  1.0000</r>
       <r>   0.9027  1.0000</r>
       <r>   0.9027  1.0000</r>
       <r>   0.9522  1.0000</r>
       <r>   1.0089  1.0000</r>
       <r>   1.0089  1.0000</r>
       <r>   1.0967  1.0000</r>
       <r>   1.0967  1.0000</r>
       <r>   2.7149  0.0000</r>
       <r>   4.6825  0.0000</r>
       <r>   4.6825  0.0000</r>
       <r>   8.6518  0.0000</r>
       <r>   8.6518  0.0000</r>
       <r>  10.4967  0.0000</r>
       <r>  12.9905  0.0000</r>
       <r>  12.9905  0.0000</r>
       <r>  13.3632  0.0000</r>
       <r>  13.3632  0.0000</r>
       <r>  14.7857  0.0000</r>
      </set>
      <set comment="kpoint 4">
       <r>  -5.0993  1.0000</r>
       <r>  -1.6154  1.0000</r>
       <r>  -1.2950  1.0000</r>
       <r>  -1.2950  1.0000</r>
       <r>  -1.0358  1.0000</r>
       <r>  -1.0214  1.0000</r>
       <r>  -1.0214  1.0000</r>
       <r>  -0.2311  1.0000</r>
       <r>   0.0274  1.0000</r>
       <r>   0.0274  1.0000</r>
       <r>   0.4265  1.0000</r>
       <r>   0.4912  1.0000</r>
       <r>   0.4912  1.0000</r>
       <r>   0.6027  1.0000</r>
       <r>   0.8159  1.0000</r>
       <r>   0.8159  1.0000</r>
       <r>   0.9083  1.0000</r>
       <r>   0.9083  1.0000</r>
       <r>   0.9225  1.0000</r>
       <r>   1.0968  1.0000</r>
       <r>   1.0968  1.0000</r>
       <r>   1.7233  1.0000</r>
       <r>   5.2656  0.0000</r>
       <r>   5.2656  0.0000</r>
       <r>   8.8013  0.0000</r>
       <r>   8.8013  0.0000</r>
       <r>  11.8720  0.0000</r>
       <r>  11.8720  0.0000</r>
       <r>  12.2084  0.0000</r>
       <r>  12.4937  0.0000</r>
       <r>  12.4937  0.0000</r>
       <r>  15.2253  0.0000</r>
      </set>
      <set comment="kpoint 5">
       <r>  -4.6664  1.0000</r>
       <r>  -1.8203  1.0000</r>
       <r>  -1.1520  1.0000</r>
       <r>  -1.1520  1.0000</r>
       <r>  -0.9412  1.0000</r>
       <r>  -0.9065  1.0000</r>
       <r>  -0.9065  1.0000</r>
       <r>  -0.3305  1.0000</r>
       <r>   0.1169  1.0000</r>
       <r>   0.1169  1.0000</r>
       <r>   0.1913  1.0000</r>
       <r>   0.1913  1.0000</r>
       <r>   0.3457  1.0000</r>
       <r>   0.6408  1.0000</r>
       <r>   0.7089  1.0000</r>
       <r>   0.7089  1.0000</r>
       <r>   0.7822  1.0000</r>
       <r>   0.7822  1.0000</r>
       <r>   0.8835  1.0000</r>
       <r>   0.9180  1.0000</r>
       <r>   1.0969  1.0000</r>
       <r>   1.0969  1.0000</r>
       <r>   5.9752  0.0000</r>
       <r>   5.9752  0.0000</r>
       <r>   9.0238  0.0000</r>
       <r>   9.0238  0.0000</r>
       <r>  10.7484  0.0000</r>
       <r>  10.7484  0.0000</r>
       <r>  11.6523  0.0000</r>
       <r>  11.6523  0.0000</r>
       <r>  14.1143  0.0000</r>
       <r>  15.8233  0.0000</r>
      </set>
      <set comment="kpoint 6">
       <r>  -4.1274  1.0000</r>
       <r>  -2.2415  1.0000</r>
       <r>  -1.0170  1.0000</r>
       <r>  -1.0170  1.0000</r>
       <r>  -0.8285  1.0000</r>
       <r>  -0.7564  1.0000</r>
       <r>  -0.7564  1.0000</r>
       <r>  -0.4473  1.0000</r>
       <r>  -0.0929  1.0000</r>
       <r>  -0.0929  1.0000</r>
       <r>   0.2277  1.0000</r>
       <r>   0.2277  1.0000</r>
       <r>   0.2650  1.0000</r>
       <r>   0.4279  1.0000</r>
       <r>   0.6037  1.0000</r>
       <r>   0.6037  1.0000</r>
       <r>   0.6413  1.0000</r>
       <r>   0.6413  1.0000</r>
       <r>   0.6860  1.0000</r>
       <r>   0.8375  1.0000</r>
       <r>   1.0970  1.0000</r>
       <r>   1.0970  1.0000</r>
       <r>   6.7825  0.0000</r>
       <r>   6.7825  0.0000</r>
       <r>   9.3307  0.0000</r>
       <r>   9.3307  0.0000</r>
       <r>   9.6636  0.0000</r>
       <r>   9.6636  0.0000</r>
       <r>  10.9034  0.0000</r>
       <r>  10.9034  0.0000</r>
       <r>  16.1561  0.0000</r>
       <r>  16.5664  0.0000</r>
      </set>
      <set comment="kpoint 7">
       <r>  -3.5048  1.0000</r>
       <r>  -2.8451  1.0000</r>
       <r>  -0.9312  1.0000</r>
       <r>  -0.9312  1.0000</r>
       <r>  -0.7038  1.0000</r>
       <r>  -0.5742  1.0000</r>
       <r>  -0.5705  1.0000</r>
       <r>  -0.5705  1.0000</r>
       <r>  -0.3486  1.0000</r>
       <r>  -0.3486  1.0000</r>
       <r>   0.2108  1.0000</r>
       <r>   0.2333  1.0000</r>
       <r>   0.3560  1.0000</r>
       <r>   0.3560  1.0000</r>
       <r>   0.4963  1.0000</r>
       <r>   0.4963  1.0000</r>
       <r>   0.5347  1.0000</r>
       <r>   0.5347  1.0000</r>
       <r>   0.7358  1.0000</r>
       <r>   0.7873  1.0000</r>
       <r>   1.0971  1.0000</r>
       <r>   1.0971  1.0000</r>
       <r>   7.6723  0.0000</r>
       <r>   7.6723  0.0000</r>
       <r>   8.6351  0.0000</r>
       <r>   8.6351  0.0000</r>
       <r>   9.7293  0.0000</r>
       <r>   9.7293  0.0000</r>
       <r>  10.2762  0.0000</r>
       <r>  10.2762  0.0000</r>
       <r>  17.4408  0.0000</r>
       <r>  17.4408  0.0000</r>
      </set>
      <set comment="kpoint 8">
       <r>  -5.5418  1.0000</r>
       <r>  -1.4967  1.0000</r>
       <r>  -1.4967  1.0000</r>
       <r>  -1.4680  1.0000</r>
       <r>  -1.1357  1.0000</r>
       <r>  -1.1357  1.0000</r>
       <r>  -1.1350  1.0000</r>
       <r>  -0.1165  1.0000</r>
       <r>  -0.0717  1.0000</r>
       <r>  -0.0658  1.0000</r>
       <r>   0.5311  1.0000</r>
       <r>   0.5524  1.0000</r>
       <r>   0.9372  1.0000</r>
       <r>   0.9372  1.0000</r>
       <r>   0.9389  1.0000</r>
       <r>   0.9399  1.0000</r>
       <r>   0.9951  1.0000</r>
       <r>   0.9951  1.0000</r>
       <r>   1.0740  1.0000</r>
       <r>   1.0740  1.0000</r>
       <r>   1.0820  1.0000</r>
       <r>   3.8146  0.0000</r>
       <r>   3.8146  0.0000</r>
       <r>   4.4206  0.0000</r>
       <r>   8.5945  0.0000</r>
       <r>   9.1675  0.0000</r>
       <r>   9.1675  0.0000</r>
       <r>  13.0139  0.0000</r>
       <r>  14.0570  0.0000</r>
       <r>  14.0570  0.0000</r>
       <r>  14.1932  0.0000</r>
       <r>  14.1932  0.0000</r>
      </set>
      <set comment="kpoint 9">
       <r>  -5.3513  1.0000</r>
       <r>  -1.5130  1.0000</r>
       <r>  -1.4156  1.0000</r>
       <r>  -1.3906  1.0000</r>
       <r>  -1.0921  1.0000</r>
       <r>  -1.0884  1.0000</r>
       <r>  -1.0881  1.0000</r>
       <r>  -0.1594  1.0000</r>
       <r>  -0.0357  1.0000</r>
       <r>  -0.0295  1.0000</r>
       <r>   0.4939  1.0000</r>
       <r>   0.5685  1.0000</r>
       <r>   0.7345  1.0000</r>
       <r>   0.7354  1.0000</r>
       <r>   0.8665  1.0000</r>
       <r>   0.8864  1.0000</r>
       <r>   0.9107  1.0000</r>
       <r>   0.9679  1.0000</r>
       <r>   1.0088  1.0000</r>
       <r>   1.0739  1.0000</r>
       <r>   1.0742  1.0000</r>
       <r>   2.8644  0.0000</r>
       <r>   4.1985  0.0000</r>
       <r>   4.8092  0.0000</r>
       <r>   8.6817  0.0000</r>
       <r>   9.2778  0.0000</r>
       <r>  10.5415  0.0000</r>
       <r>  11.8710  0.0000</r>
       <r>  13.0709  0.0000</r>
       <r>  13.4417  0.0000</r>
       <r>  14.3112  0.0000</r>
       <r>  14.3845  0.0000</r>
      </set>
      <set comment="kpoint 10">
       <r>  -5.0372  1.0000</r>
       <r>  -1.5816  1.0000</r>
       <r>  -1.2919  1.0000</r>
       <r>  -1.2727  1.0000</r>
       <r>  -1.0220  1.0000</r>
       <r>  -1.0096  1.0000</r>
       <r>  -1.0087  1.0000</r>
       <r>  -0.2328  1.0000</r>
       <r>   0.0287  1.0000</r>
       <r>   0.0290  1.0000</r>
       <r>   0.4323  1.0000</r>
       <r>   0.4464  1.0000</r>
       <r>   0.4631  1.0000</r>
       <r>   0.6001  1.0000</r>
       <r>   0.7370  1.0000</r>
       <r>   0.8024  1.0000</r>
       <r>   0.8222  1.0000</r>
       <r>   0.9080  1.0000</r>
       <r>   0.9290  1.0000</r>
       <r>   1.0723  1.0000</r>
       <r>   1.0738  1.0000</r>
       <r>   1.9054  1.0000</r>
       <r>   4.7398  0.0000</r>
       <r>   5.3779  0.0000</r>
       <r>   8.8338  0.0000</r>
       <r>   9.4689  0.0000</r>
       <r>  10.7410  0.0000</r>
       <r>  11.9500  0.0000</r>
       <r>  12.2573  0.0000</r>
       <r>  12.5653  0.0000</r>
       <r>  13.6694  0.0000</r>
       <r>  14.7245  0.0000</r>
      </set>
      <set comment="kpoint 11">
       <r>  -4.6059  1.0000</r>
       <r>  -1.7814  1.0000</r>
       <r>  -1.1447  1.0000</r>
       <r>  -1.1320  1.0000</r>
       <r>  -0.9291  1.0000</r>
       <r>  -0.8999  1.0000</r>
       <r>  -0.8957  1.0000</r>
       <r>  -0.3300  1.0000</r>
       <r>   0.1024  1.0000</r>
       <r>   0.1176  1.0000</r>
       <r>   0.1497  1.0000</r>
       <r>   0.1754  1.0000</r>
       <r>   0.3632  1.0000</r>
       <r>   0.5288  1.0000</r>
       <r>   0.6425  1.0000</r>
       <r>   0.6988  1.0000</r>
       <r>   0.7152  1.0000</r>
       <r>   0.7818  1.0000</r>
       <r>   0.8700  1.0000</r>
       <r>   1.0720  1.0000</r>
       <r>   1.0736  1.0000</r>
       <r>   1.1981  1.0000</r>
       <r>   5.3852  0.0000</r>
       <r>   6.0762  0.0000</r>
       <r>   9.0598  0.0000</r>
       <r>   9.6712  0.0000</r>
       <r>   9.7505  0.0000</r>
       <r>  10.8264  0.0000</r>
       <r>  11.7186  0.0000</r>
       <r>  12.8225  0.0000</r>
       <r>  14.1652  0.0000</r>
       <r>  15.2834  0.0000</r>
      </set>
      <set comment="kpoint 12">
       <r>  -4.0692  1.0000</r>
       <r>  -2.1967  1.0000</r>
       <r>  -1.0043  1.0000</r>
       <r>  -0.9964  1.0000</r>
       <r>  -0.8183  1.0000</r>
       <r>  -0.7602  1.0000</r>
       <r>  -0.7484  1.0000</r>
       <r>  -0.4443  1.0000</r>
       <r>  -0.1288  1.0000</r>
       <r>  -0.0998  1.0000</r>
       <r>   0.1565  1.0000</r>
       <r>   0.2280  1.0000</r>
       <r>   0.2821  1.0000</r>
       <r>   0.3339  1.0000</r>
       <r>   0.5975  1.0000</r>
       <r>   0.6090  1.0000</r>
       <r>   0.6409  1.0000</r>
       <r>   0.6934  1.0000</r>
       <r>   0.7348  1.0000</r>
       <r>   0.8999  1.0000</r>
       <r>   1.0722  1.0000</r>
       <r>   1.0733  1.0000</r>
       <r>   6.1082  0.0000</r>
       <r>   6.8752  0.0000</r>
       <r>   8.6747  0.0000</r>
       <r>   9.3718  0.0000</r>
       <r>   9.7430  0.0000</r>
       <r>  10.1298  0.0000</r>
       <r>  10.9698  0.0000</r>
       <r>  12.0028  0.0000</r>
       <r>  15.9718  0.0000</r>
       <r>  16.1287  0.0000</r>
      </set>
      <set comment="kpoint 13">
       <r>  -3.4499  1.0000</r>
       <r>  -2.7946  1.0000</r>
       <r>  -0.9127  1.0000</r>
       <r>  -0.9095  1.0000</r>
       <r>  -0.6959  1.0000</r>
       <r>  -0.5877  1.0000</r>
       <r>  -0.5688  1.0000</r>
       <r>  -0.5660  1.0000</r>
       <r>  -0.3768  1.0000</r>
       <r>  -0.3491  1.0000</r>
       <r>   0.1444  1.0000</r>
       <r>   0.1551  1.0000</r>
       <r>   0.3560  1.0000</r>
       <r>   0.4135  1.0000</r>
       <r>   0.4960  1.0000</r>
       <r>   0.5329  1.0000</r>
       <r>   0.5372  1.0000</r>
       <r>   0.5558  1.0000</r>
       <r>   0.7505  1.0000</r>
       <r>   0.8135  1.0000</r>
       <r>   1.0726  1.0000</r>
       <r>   1.0730  1.0000</r>
       <r>   6.8978  0.0000</r>
       <r>   7.7521  0.0000</r>
       <r>   7.7589  0.0000</r>
       <r>   8.7174  0.0000</r>
       <r>   9.7811  0.0000</r>
       <r>  10.2811  0.0000</r>
       <r>  10.6774  0.0000</r>
       <r>  11.2734  0.0000</r>
       <r>  16.7726  0.0000</r>
       <r>  16.9590  0.0000</r>
      </set>
      <set comment="kpoint 14">
       <r>  -5.1626  1.0000</r>
       <r>  -1.4258  1.0000</r>
       <r>  -1.4258  1.0000</r>
       <r>  -1.3189  1.0000</r>
       <r>  -1.0471  1.0000</r>
       <r>  -1.0471  1.0000</r>
       <r>  -1.0451  1.0000</r>
       <r>  -0.1854  1.0000</r>
       <r>  -0.0141  1.0000</r>
       <r>  -0.0040  1.0000</r>
       <r>   0.4804  1.0000</r>
       <r>   0.5719  1.0000</r>
       <r>   0.5933  1.0000</r>
       <r>   0.6210  1.0000</r>
       <r>   0.6210  1.0000</r>
       <r>   0.8383  1.0000</r>
       <r>   0.9097  1.0000</r>
       <r>   0.9097  1.0000</r>
       <r>   1.0083  1.0000</r>
       <r>   1.0083  1.0000</r>
       <r>   1.0386  1.0000</r>
       <r>   3.2376  0.0000</r>
       <r>   3.2376  0.0000</r>
       <r>   5.1648  0.0000</r>
       <r>   8.7735  0.0000</r>
       <r>  10.6167  0.0000</r>
       <r>  10.6773  0.0000</r>
       <r>  10.6773  0.0000</r>
       <r>  13.3087  0.0000</r>
       <r>  13.3087  0.0000</r>
       <r>  13.6748  0.0000</r>
       <r>  13.6748  0.0000</r>
      </set>
      <set comment="kpoint 15">
       <r>  -4.8518  1.0000</r>
       <r>  -1.4839  1.0000</r>
       <r>  -1.2924  1.0000</r>
       <r>  -1.2096  1.0000</r>
       <r>  -0.9807  1.0000</r>
       <r>  -0.9736  1.0000</r>
       <r>  -0.9713  1.0000</r>
       <r>  -0.2449  1.0000</r>
       <r>   0.0348  1.0000</r>
       <r>   0.0402  1.0000</r>
       <r>   0.3283  1.0000</r>
       <r>   0.3750  1.0000</r>
       <r>   0.4355  1.0000</r>
       <r>   0.4536  1.0000</r>
       <r>   0.6063  1.0000</r>
       <r>   0.7623  1.0000</r>
       <r>   0.8256  1.0000</r>
       <r>   0.8828  1.0000</r>
       <r>   0.9072  1.0000</r>
       <r>   1.0076  1.0000</r>
       <r>   1.0182  1.0000</r>
       <r>   2.2891  1.0000</r>
       <r>   3.7364  0.0000</r>
       <r>   5.6991  0.0000</r>
       <r>   8.9320  0.0000</r>
       <r>   9.4373  0.0000</r>
       <r>  10.9074  0.0000</r>
       <r>  12.1811  0.0000</r>
       <r>  12.4044  0.0000</r>
       <r>  12.7787  0.0000</r>
       <r>  13.6950  0.0000</r>
       <r>  14.0553  0.0000</r>
      </set>
      <set comment="kpoint 16">
       <r>  -4.4256  1.0000</r>
       <r>  -1.6686  1.0000</r>
       <r>  -1.1319  1.0000</r>
       <r>  -1.0767  1.0000</r>
       <r>  -0.8927  1.0000</r>
       <r>  -0.8779  1.0000</r>
       <r>  -0.8641  1.0000</r>
       <r>  -0.3318  1.0000</r>
       <r>   0.0401  1.0000</r>
       <r>   0.0746  1.0000</r>
       <r>   0.1238  1.0000</r>
       <r>   0.1259  1.0000</r>
       <r>   0.2490  1.0000</r>
       <r>   0.3870  1.0000</r>
       <r>   0.6622  1.0000</r>
       <r>   0.6682  1.0000</r>
       <r>   0.7213  1.0000</r>
       <r>   0.7807  1.0000</r>
       <r>   0.8239  1.0000</r>
       <r>   1.0067  1.0000</r>
       <r>   1.0092  1.0000</r>
       <r>   1.5670  1.0000</r>
       <r>   4.3164  0.0000</r>
       <r>   6.3689  0.0000</r>
       <r>   8.3491  0.0000</r>
       <r>   9.1716  0.0000</r>
       <r>  11.0570  0.0000</r>
       <r>  11.2285  0.0000</r>
       <r>  11.9248  0.0000</r>
       <r>  14.2173  0.0000</r>
       <r>  14.3152  0.0000</r>
       <r>  14.4032  0.0000</r>
      </set>
      <set comment="kpoint 17">
       <r>  -3.8963  1.0000</r>
       <r>  -2.0661  1.0000</r>
       <r>  -0.9743  1.0000</r>
       <r>  -0.9395  1.0000</r>
       <r>  -0.7882  1.0000</r>
       <r>  -0.7682  1.0000</r>
       <r>  -0.7248  1.0000</r>
       <r>  -0.4373  1.0000</r>
       <r>  -0.2237  1.0000</r>
       <r>  -0.1219  1.0000</r>
       <r>   0.0825  1.0000</r>
       <r>   0.0834  1.0000</r>
       <r>   0.2311  1.0000</r>
       <r>   0.3850  1.0000</r>
       <r>   0.5771  1.0000</r>
       <r>   0.6150  1.0000</r>
       <r>   0.6401  1.0000</r>
       <r>   0.7228  1.0000</r>
       <r>   0.7330  1.0000</r>
       <r>   1.0056  1.0000</r>
       <r>   1.0058  1.0000</r>
       <r>   1.1436  1.0000</r>
       <r>   4.9646  0.0000</r>
       <r>   7.1460  0.0000</r>
       <r>   7.3655  0.0000</r>
       <r>   9.4963  0.0000</r>
       <r>   9.9777  0.0000</r>
       <r>  11.1021  0.0000</r>
       <r>  11.7188  0.0000</r>
       <r>  13.6407  0.0000</r>
       <r>  14.8612  0.0000</r>
       <r>  15.2150  0.0000</r>
      </set>
      <set comment="kpoint 18">
       <r>  -3.2874  1.0000</r>
       <r>  -2.6465  1.0000</r>
       <r>  -0.8630  1.0000</r>
       <r>  -0.8467  1.0000</r>
       <r>  -0.6728  1.0000</r>
       <r>  -0.6370  1.0000</r>
       <r>  -0.5535  1.0000</r>
       <r>  -0.5534  1.0000</r>
       <r>  -0.4531  1.0000</r>
       <r>  -0.3511  1.0000</r>
       <r>   0.0265  1.0000</r>
       <r>   0.0481  1.0000</r>
       <r>   0.3571  1.0000</r>
       <r>   0.4602  1.0000</r>
       <r>   0.4958  1.0000</r>
       <r>   0.5235  1.0000</r>
       <r>   0.5379  1.0000</r>
       <r>   0.5863  1.0000</r>
       <r>   0.8194  1.0000</r>
       <r>   0.9362  1.0000</r>
       <r>   1.0047  1.0000</r>
       <r>   1.0049  1.0000</r>
       <r>   5.6828  0.0000</r>
       <r>   6.4795  0.0000</r>
       <r>   8.0133  0.0000</r>
       <r>   8.9600  0.0000</r>
       <r>   9.9223  0.0000</r>
       <r>  10.4594  0.0000</r>
       <r>  12.2535  0.0000</r>
       <r>  12.9050  0.0000</r>
       <r>  15.6131  0.0000</r>
       <r>  15.9733  0.0000</r>
      </set>
      <set comment="kpoint 19">
       <r>  -4.5469  1.0000</r>
       <r>  -1.3334  1.0000</r>
       <r>  -1.3334  1.0000</r>
       <r>  -1.1151  1.0000</r>
       <r>  -0.9129  1.0000</r>
       <r>  -0.9113  1.0000</r>
       <r>  -0.9113  1.0000</r>
       <r>  -0.2809  1.0000</r>
       <r>   0.0450  1.0000</r>
       <r>   0.0770  1.0000</r>
       <r>   0.1644  1.0000</r>
       <r>   0.1644  1.0000</r>
       <r>   0.2276  1.0000</r>
       <r>   0.4118  1.0000</r>
       <r>   0.6484  1.0000</r>
       <r>   0.6979  1.0000</r>
       <r>   0.8052  1.0000</r>
       <r>   0.8052  1.0000</r>
       <r>   0.9060  1.0000</r>
       <r>   0.9060  1.0000</r>
       <r>   0.9677  1.0000</r>
       <r>   2.7548  0.0000</r>
       <r>   2.7548  0.0000</r>
       <r>   6.1943  0.0000</r>
       <r>   8.2240  0.0000</r>
       <r>   9.1083  0.0000</r>
       <r>  12.5566  0.0000</r>
       <r>  12.5566  0.0000</r>
       <r>  12.6416  0.0000</r>
       <r>  12.6416  0.0000</r>
       <r>  13.1366  0.0000</r>
       <r>  13.1366  0.0000</r>
      </set>
      <set comment="kpoint 20">
       <r>  -4.1299  1.0000</r>
       <r>  -1.4941  1.0000</r>
       <r>  -1.1497  1.0000</r>
       <r>  -1.0006  1.0000</r>
       <r>  -0.8340  1.0000</r>
       <r>  -0.8322  1.0000</r>
       <r>  -0.8137  1.0000</r>
       <r>  -0.3452  1.0000</r>
       <r>  -0.1025  1.0000</r>
       <r>  -0.0009  1.0000</r>
       <r>   0.0399  1.0000</r>
       <r>   0.0501  1.0000</r>
       <r>   0.1459  1.0000</r>
       <r>   0.3775  1.0000</r>
       <r>   0.6170  1.0000</r>
       <r>   0.7062  1.0000</r>
       <r>   0.7258  1.0000</r>
       <r>   0.7503  1.0000</r>
       <r>   0.7795  1.0000</r>
       <r>   0.9047  1.0000</r>
       <r>   0.9348  1.0000</r>
       <r>   1.9730  1.0000</r>
       <r>   3.2802  0.0000</r>
       <r>   6.8288  0.0000</r>
       <r>   7.1286  0.0000</r>
       <r>   9.3618  0.0000</r>
       <r>  11.4317  0.0000</r>
       <r>  12.2067  0.0000</r>
       <r>  13.0299  0.0000</r>
       <r>  13.0649  0.0000</r>
       <r>  13.5925  0.0000</r>
       <r>  14.5799  0.0000</r>
      </set>
      <set comment="kpoint 21">
       <r>  -3.6142  1.0000</r>
       <r>  -1.8622  1.0000</r>
       <r>  -0.9631  1.0000</r>
       <r>  -0.8712  1.0000</r>
       <r>  -0.7616  1.0000</r>
       <r>  -0.7385  1.0000</r>
       <r>  -0.6878  1.0000</r>
       <r>  -0.4316  1.0000</r>
       <r>  -0.3392  1.0000</r>
       <r>  -0.1616  1.0000</r>
       <r>  -0.0938  1.0000</r>
       <r>   0.0261  1.0000</r>
       <r>   0.2435  1.0000</r>
       <r>   0.3780  1.0000</r>
       <r>   0.5391  1.0000</r>
       <r>   0.6025  1.0000</r>
       <r>   0.6399  1.0000</r>
       <r>   0.6583  1.0000</r>
       <r>   0.8287  1.0000</r>
       <r>   0.9039  1.0000</r>
       <r>   0.9168  1.0000</r>
       <r>   1.4521  1.0000</r>
       <r>   3.8686  0.0000</r>
       <r>   6.1509  0.0000</r>
       <r>   7.5771  0.0000</r>
       <r>   9.7085  0.0000</r>
       <r>  10.3583  0.0000</r>
       <r>  11.4107  0.0000</r>
       <r>  13.4851  0.0000</r>
       <r>  13.6934  0.0000</r>
       <r>  14.1937  0.0000</r>
       <r>  15.3857  0.0000</r>
      </set>
      <set comment="kpoint 22">
       <r>  -3.0249  1.0000</r>
       <r>  -2.4109  1.0000</r>
       <r>  -0.8147  1.0000</r>
       <r>  -0.7513  1.0000</r>
       <r>  -0.7129  1.0000</r>
       <r>  -0.6360  1.0000</r>
       <r>  -0.5439  1.0000</r>
       <r>  -0.5346  1.0000</r>
       <r>  -0.5312  1.0000</r>
       <r>  -0.3571  1.0000</r>
       <r>  -0.0900  1.0000</r>
       <r>  -0.0327  1.0000</r>
       <r>   0.3631  1.0000</r>
       <r>   0.4388  1.0000</r>
       <r>   0.4979  1.0000</r>
       <r>   0.4981  1.0000</r>
       <r>   0.5222  1.0000</r>
       <r>   0.5432  1.0000</r>
       <r>   0.9046  1.0000</r>
       <r>   0.9080  1.0000</r>
       <r>   0.9602  1.0000</r>
       <r>   1.1461  1.0000</r>
       <r>   4.5329  0.0000</r>
       <r>   5.2888  0.0000</r>
       <r>   8.4220  0.0000</r>
       <r>   9.3520  0.0000</r>
       <r>  10.1598  0.0000</r>
       <r>  10.7256  0.0000</r>
       <r>  14.0478  0.0000</r>
       <r>  14.4304  0.0000</r>
       <r>  14.6973  0.0000</r>
       <r>  14.9060  0.0000</r>
      </set>
      <set comment="kpoint 23">
       <r>  -3.7274  1.0000</r>
       <r>  -1.2802  1.0000</r>
       <r>  -1.2802  1.0000</r>
       <r>  -0.9237  1.0000</r>
       <r>  -0.7649  1.0000</r>
       <r>  -0.7477  1.0000</r>
       <r>  -0.7477  1.0000</r>
       <r>  -0.3789  1.0000</r>
       <r>  -0.2174  1.0000</r>
       <r>  -0.2174  1.0000</r>
       <r>  -0.0798  1.0000</r>
       <r>   0.0268  1.0000</r>
       <r>   0.1947  1.0000</r>
       <r>   0.3450  1.0000</r>
       <r>   0.5498  1.0000</r>
       <r>   0.6567  1.0000</r>
       <r>   0.6567  1.0000</r>
       <r>   0.7791  1.0000</r>
       <r>   0.7791  1.0000</r>
       <r>   0.8323  1.0000</r>
       <r>   0.8713  1.0000</r>
       <r>   2.4245  1.0000</r>
       <r>   2.4245  1.0000</r>
       <r>   6.0327  0.0000</r>
       <r>   7.4292  0.0000</r>
       <r>   9.6398  0.0000</r>
       <r>  11.9390  0.0000</r>
       <r>  11.9390  0.0000</r>
       <r>  12.6583  0.0000</r>
       <r>  12.6583  0.0000</r>
       <r>  14.9428  0.0000</r>
       <r>  14.9428  0.0000</r>
      </set>
      <set comment="kpoint 24">
       <r>  -3.2337  1.0000</r>
       <r>  -1.6086  1.0000</r>
       <r>  -1.0619  1.0000</r>
       <r>  -0.8565  1.0000</r>
       <r>  -0.6898  1.0000</r>
       <r>  -0.6707  1.0000</r>
       <r>  -0.6405  1.0000</r>
       <r>  -0.4347  1.0000</r>
       <r>  -0.3978  1.0000</r>
       <r>  -0.2399  1.0000</r>
       <r>  -0.2217  1.0000</r>
       <r>  -0.0164  1.0000</r>
       <r>   0.2740  1.0000</r>
       <r>   0.3346  1.0000</r>
       <r>   0.4833  1.0000</r>
       <r>   0.5575  1.0000</r>
       <r>   0.5714  1.0000</r>
       <r>   0.6422  1.0000</r>
       <r>   0.7808  1.0000</r>
       <r>   0.8274  1.0000</r>
       <r>   0.9718  1.0000</r>
       <r>   1.8064  1.0000</r>
       <r>   2.9381  0.0000</r>
       <r>   5.0699  0.0000</r>
       <r>   8.1476  0.0000</r>
       <r>  10.0154  0.0000</r>
       <r>  10.8726  0.0000</r>
       <r>  11.8204  0.0000</r>
       <r>  12.5666  0.0000</r>
       <r>  13.2193  0.0000</r>
       <r>  15.0748  0.0000</r>
       <r>  15.4095  0.0000</r>
      </set>
      <set comment="kpoint 25">
       <r>  -2.6769  1.0000</r>
       <r>  -2.1074  1.0000</r>
       <r>  -0.8896  1.0000</r>
       <r>  -0.8219  1.0000</r>
       <r>  -0.6278  1.0000</r>
       <r>  -0.5882  1.0000</r>
       <r>  -0.5377  1.0000</r>
       <r>  -0.5130  1.0000</r>
       <r>  -0.5070  1.0000</r>
       <r>  -0.3705  1.0000</r>
       <r>  -0.1816  1.0000</r>
       <r>  -0.0932  1.0000</r>
       <r>   0.3783  1.0000</r>
       <r>   0.3802  1.0000</r>
       <r>   0.4503  1.0000</r>
       <r>   0.4675  1.0000</r>
       <r>   0.4783  1.0000</r>
       <r>   0.5058  1.0000</r>
       <r>   0.7870  1.0000</r>
       <r>   0.8010  1.0000</r>
       <r>   1.1518  1.0000</r>
       <r>   1.4072  1.0000</r>
       <r>   3.5358  0.0000</r>
       <r>   4.2405  0.0000</r>
       <r>   8.9681  0.0000</r>
       <r>   9.8794  0.0000</r>
       <r>  10.4989  0.0000</r>
       <r>  11.0992  0.0000</r>
       <r>  13.3036  0.0000</r>
       <r>  13.8935  0.0000</r>
       <r>  14.1417  0.0000</r>
       <r>  14.6793  0.0000</r>
      </set>
      <set comment="kpoint 26">
       <r>  -2.7742  1.0000</r>
       <r>  -1.3432  1.0000</r>
       <r>  -1.3432  1.0000</r>
       <r>  -0.8889  1.0000</r>
       <r>  -0.5876  1.0000</r>
       <r>  -0.5874  1.0000</r>
       <r>  -0.5874  1.0000</r>
       <r>  -0.4527  1.0000</r>
       <r>  -0.3513  1.0000</r>
       <r>  -0.3513  1.0000</r>
       <r>  -0.3012  1.0000</r>
       <r>  -0.0643  1.0000</r>
       <r>   0.2998  1.0000</r>
       <r>   0.3306  1.0000</r>
       <r>   0.4217  1.0000</r>
       <r>   0.4790  1.0000</r>
       <r>   0.4790  1.0000</r>
       <r>   0.6502  1.0000</r>
       <r>   0.6502  1.0000</r>
       <r>   0.7533  1.0000</r>
       <r>   1.1540  1.0000</r>
       <r>   2.2231  1.0000</r>
       <r>   2.2231  1.0000</r>
       <r>   4.1380  0.0000</r>
       <r>   8.8387  0.0000</r>
       <r>  10.4249  0.0000</r>
       <r>  11.5077  0.0000</r>
       <r>  11.5077  0.0000</r>
       <r>  12.3433  0.0000</r>
       <r>  12.3433  0.0000</r>
       <r>  14.0416  0.0000</r>
       <r>  14.5983  0.0000</r>
      </set>
      <set comment="kpoint 27">
       <r>  -2.2685  1.0000</r>
       <r>  -1.7688  1.0000</r>
       <r>  -1.1157  1.0000</r>
       <r>  -0.9657  1.0000</r>
       <r>  -0.5341  1.0000</r>
       <r>  -0.5012  1.0000</r>
       <r>  -0.4930  1.0000</r>
       <r>  -0.4871  1.0000</r>
       <r>  -0.4317  1.0000</r>
       <r>  -0.3946  1.0000</r>
       <r>  -0.2496  1.0000</r>
       <r>  -0.1433  1.0000</r>
       <r>   0.3159  1.0000</r>
       <r>   0.3857  1.0000</r>
       <r>   0.3863  1.0000</r>
       <r>   0.4068  1.0000</r>
       <r>   0.4155  1.0000</r>
       <r>   0.5248  1.0000</r>
       <r>   0.6679  1.0000</r>
       <r>   0.7006  1.0000</r>
       <r>   1.3905  1.0000</r>
       <r>   1.7247  1.0000</r>
       <r>   2.7306  0.0000</r>
       <r>   3.3610  0.0000</r>
       <r>   9.6359  0.0000</r>
       <r>  10.5283  0.0000</r>
       <r>  10.9455  0.0000</r>
       <r>  11.5840  0.0000</r>
       <r>  12.2529  0.0000</r>
       <r>  12.9806  0.0000</r>
       <r>  13.0995  0.0000</r>
       <r>  13.7325  0.0000</r>
      </set>
      <set comment="kpoint 28">
       <r>  -1.8395  1.0000</r>
       <r>  -1.4406  1.0000</r>
       <r>  -1.4406  1.0000</r>
       <r>  -1.1673  1.0000</r>
       <r>  -0.4797  1.0000</r>
       <r>  -0.4797  1.0000</r>
       <r>  -0.4772  1.0000</r>
       <r>  -0.4315  1.0000</r>
       <r>  -0.3898  1.0000</r>
       <r>  -0.3097  1.0000</r>
       <r>  -0.3097  1.0000</r>
       <r>  -0.2089  1.0000</r>
       <r>   0.2926  1.0000</r>
       <r>   0.3311  1.0000</r>
       <r>   0.3311  1.0000</r>
       <r>   0.3329  1.0000</r>
       <r>   0.4751  1.0000</r>
       <r>   0.5607  1.0000</r>
       <r>   0.5607  1.0000</r>
       <r>   0.6188  1.0000</r>
       <r>   1.7001  1.0000</r>
       <r>   2.1284  1.0000</r>
       <r>   2.1284  1.0000</r>
       <r>   2.6614  0.0000</r>
       <r>  10.4121  0.0000</r>
       <r>  11.2869  0.0000</r>
       <r>  11.2869  0.0000</r>
       <r>  11.5054  0.0000</r>
       <r>  12.1462  0.0000</r>
       <r>  12.1832  0.0000</r>
       <r>  12.1832  0.0000</r>
       <r>  12.8993  0.0000</r>
      </set>
      <set comment="kpoint 29">
       <r>  -5.4782  1.0000</r>
       <r>  -1.4693  1.0000</r>
       <r>  -1.4693  1.0000</r>
       <r>  -1.4693  1.0000</r>
       <r>  -1.1204  1.0000</r>
       <r>  -1.1204  1.0000</r>
       <r>  -1.1204  1.0000</r>
       <r>  -0.1247  1.0000</r>
       <r>  -0.0602  1.0000</r>
       <r>  -0.0602  1.0000</r>
       <r>   0.5386  1.0000</r>
       <r>   0.5386  1.0000</r>
       <r>   0.9089  1.0000</r>
       <r>   0.9089  1.0000</r>
       <r>   0.9089  1.0000</r>
       <r>   0.9244  1.0000</r>
       <r>   0.9244  1.0000</r>
       <r>   0.9244  1.0000</r>
       <r>   1.0699  1.0000</r>
       <r>   1.0699  1.0000</r>
       <r>   1.0699  1.0000</r>
       <r>   3.9504  0.0000</r>
       <r>   3.9504  0.0000</r>
       <r>   3.9504  0.0000</r>
       <r>   9.2041  0.0000</r>
       <r>   9.2041  0.0000</r>
       <r>   9.2041  0.0000</r>
       <r>  13.0946  0.0000</r>
       <r>  13.0946  0.0000</r>
       <r>  13.0946  0.0000</r>
       <r>  14.6922  0.0000</r>
       <r>  14.6922  0.0000</r>
      </set>
      <set comment="kpoint 30">
       <r>  -5.2883  1.0000</r>
       <r>  -1.4838  1.0000</r>
       <r>  -1.3903  1.0000</r>
       <r>  -1.3903  1.0000</r>
       <r>  -1.0775  1.0000</r>
       <r>  -1.0743  1.0000</r>
       <r>  -1.0743  1.0000</r>
       <r>  -0.1638  1.0000</r>
       <r>  -0.0289  1.0000</r>
       <r>  -0.0257  1.0000</r>
       <r>   0.4991  1.0000</r>
       <r>   0.5606  1.0000</r>
       <r>   0.6955  1.0000</r>
       <r>   0.6955  1.0000</r>
       <r>   0.8176  1.0000</r>
       <r>   0.8766  1.0000</r>
       <r>   0.8766  1.0000</r>
       <r>   0.8767  1.0000</r>
       <r>   1.0376  1.0000</r>
       <r>   1.0631  1.0000</r>
       <r>   1.0631  1.0000</r>
       <r>   2.9990  0.0000</r>
       <r>   4.3170  0.0000</r>
       <r>   4.3170  0.0000</r>
       <r>   9.3160  0.0000</r>
       <r>   9.3160  0.0000</r>
       <r>  10.5866  0.0000</r>
       <r>  11.9482  0.0000</r>
       <r>  11.9482  0.0000</r>
       <r>  13.3334  0.0000</r>
       <r>  14.4680  0.0000</r>
       <r>  14.4680  0.0000</r>
      </set>
      <set comment="kpoint 31">
       <r>  -4.9753  1.0000</r>
       <r>  -1.5492  1.0000</r>
       <r>  -1.2698  1.0000</r>
       <r>  -1.2698  1.0000</r>
       <r>  -1.0083  1.0000</r>
       <r>  -0.9969  1.0000</r>
       <r>  -0.9969  1.0000</r>
       <r>  -0.2342  1.0000</r>
       <r>   0.0283  1.0000</r>
       <r>   0.0311  1.0000</r>
       <r>   0.4212  1.0000</r>
       <r>   0.4212  1.0000</r>
       <r>   0.4409  1.0000</r>
       <r>   0.5959  1.0000</r>
       <r>   0.6596  1.0000</r>
       <r>   0.7968  1.0000</r>
       <r>   0.7987  1.0000</r>
       <r>   0.7987  1.0000</r>
       <r>   0.9926  1.0000</r>
       <r>   1.0579  1.0000</r>
       <r>   1.0579  1.0000</r>
       <r>   2.0487  1.0000</r>
       <r>   4.8420  0.0000</r>
       <r>   4.8420  0.0000</r>
       <r>   9.5099  0.0000</r>
       <r>   9.5099  0.0000</r>
       <r>  10.8168  0.0000</r>
       <r>  10.8168  0.0000</r>
       <r>  12.3060  0.0000</r>
       <r>  13.7219  0.0000</r>
       <r>  13.7447  0.0000</r>
       <r>  13.7447  0.0000</r>
      </set>
      <set comment="kpoint 32">
       <r>  -4.5458  1.0000</r>
       <r>  -1.7443  1.0000</r>
       <r>  -1.1255  1.0000</r>
       <r>  -1.1255  1.0000</r>
       <r>  -0.9168  1.0000</r>
       <r>  -0.8892  1.0000</r>
       <r>  -0.8892  1.0000</r>
       <r>  -0.3288  1.0000</r>
       <r>   0.0963  1.0000</r>
       <r>   0.1090  1.0000</r>
       <r>   0.1367  1.0000</r>
       <r>   0.1367  1.0000</r>
       <r>   0.3835  1.0000</r>
       <r>   0.4313  1.0000</r>
       <r>   0.6423  1.0000</r>
       <r>   0.6907  1.0000</r>
       <r>   0.6988  1.0000</r>
       <r>   0.6988  1.0000</r>
       <r>   0.9399  1.0000</r>
       <r>   1.0548  1.0000</r>
       <r>   1.0548  1.0000</r>
       <r>   1.3311  1.0000</r>
       <r>   5.4745  0.0000</r>
       <r>   5.4745  0.0000</r>
       <r>   9.7326  0.0000</r>
       <r>   9.7326  0.0000</r>
       <r>   9.8103  0.0000</r>
       <r>   9.8103  0.0000</r>
       <r>  12.8918  0.0000</r>
       <r>  12.8918  0.0000</r>
       <r>  14.2043  0.0000</r>
       <r>  14.2582  0.0000</r>
      </set>
      <set comment="kpoint 33">
       <r>  -4.0116  1.0000</r>
       <r>  -2.1536  1.0000</r>
       <r>  -0.9847  1.0000</r>
       <r>  -0.9847  1.0000</r>
       <r>  -0.8077  1.0000</r>
       <r>  -0.7540  1.0000</r>
       <r>  -0.7540  1.0000</r>
       <r>  -0.4406  1.0000</r>
       <r>  -0.1312  1.0000</r>
       <r>  -0.1312  1.0000</r>
       <r>   0.1311  1.0000</r>
       <r>   0.2060  1.0000</r>
       <r>   0.2091  1.0000</r>
       <r>   0.3827  1.0000</r>
       <r>   0.5689  1.0000</r>
       <r>   0.5984  1.0000</r>
       <r>   0.5984  1.0000</r>
       <r>   0.6972  1.0000</r>
       <r>   0.8817  1.0000</r>
       <r>   0.9086  1.0000</r>
       <r>   1.0532  1.0000</r>
       <r>   1.0532  1.0000</r>
       <r>   6.1869  0.0000</r>
       <r>   6.1869  0.0000</r>
       <r>   8.7517  0.0000</r>
       <r>   8.7517  0.0000</r>
       <r>  10.1864  0.0000</r>
       <r>  10.1864  0.0000</r>
       <r>  12.0681  0.0000</r>
       <r>  12.0681  0.0000</r>
       <r>  14.8955  0.0000</r>
       <r>  16.2599  0.0000</r>
      </set>
      <set comment="kpoint 34">
       <r>  -3.3959  1.0000</r>
       <r>  -2.7456  1.0000</r>
       <r>  -0.8909  1.0000</r>
       <r>  -0.8909  1.0000</r>
       <r>  -0.6874  1.0000</r>
       <r>  -0.5956  1.0000</r>
       <r>  -0.5956  1.0000</r>
       <r>  -0.5625  1.0000</r>
       <r>  -0.3632  1.0000</r>
       <r>  -0.3632  1.0000</r>
       <r>   0.1083  1.0000</r>
       <r>   0.1090  1.0000</r>
       <r>   0.3187  1.0000</r>
       <r>   0.4419  1.0000</r>
       <r>   0.4851  1.0000</r>
       <r>   0.5316  1.0000</r>
       <r>   0.5316  1.0000</r>
       <r>   0.6577  1.0000</r>
       <r>   0.7575  1.0000</r>
       <r>   0.8200  1.0000</r>
       <r>   1.0525  1.0000</r>
       <r>   1.0525  1.0000</r>
       <r>   6.9606  0.0000</r>
       <r>   6.9606  0.0000</r>
       <r>   7.8410  0.0000</r>
       <r>   7.8410  0.0000</r>
       <r>  10.6796  0.0000</r>
       <r>  10.6796  0.0000</r>
       <r>  11.3431  0.0000</r>
       <r>  11.3431  0.0000</r>
       <r>  15.6551  0.0000</r>
       <r>  16.5137  0.0000</r>
      </set>
      <set comment="kpoint 35">
       <r>  -5.1003  1.0000</r>
       <r>  -1.3997  1.0000</r>
       <r>  -1.3997  1.0000</r>
       <r>  -1.3178  1.0000</r>
       <r>  -1.0332  1.0000</r>
       <r>  -1.0332  1.0000</r>
       <r>  -1.0316  1.0000</r>
       <r>  -0.1883  1.0000</r>
       <r>  -0.0090  1.0000</r>
       <r>  -0.0029  1.0000</r>
       <r>   0.4929  1.0000</r>
       <r>   0.5577  1.0000</r>
       <r>   0.5603  1.0000</r>
       <r>   0.5857  1.0000</r>
       <r>   0.5857  1.0000</r>
       <r>   0.8109  1.0000</r>
       <r>   0.8351  1.0000</r>
       <r>   0.8351  1.0000</r>
       <r>   1.0345  1.0000</r>
       <r>   1.0345  1.0000</r>
       <r>   1.0420  1.0000</r>
       <r>   3.3473  0.0000</r>
       <r>   3.3473  0.0000</r>
       <r>   4.6457  0.0000</r>
       <r>   9.4329  0.0000</r>
       <r>  10.6931  0.0000</r>
       <r>  10.7230  0.0000</r>
       <r>  10.7230  0.0000</r>
       <r>  12.1774  0.0000</r>
       <r>  12.1774  0.0000</r>
       <r>  14.7156  0.0000</r>
       <r>  14.7156  0.0000</r>
      </set>
      <set comment="kpoint 36">
       <r>  -4.7909  1.0000</r>
       <r>  -1.4560  1.0000</r>
       <r>  -1.2713  1.0000</r>
       <r>  -1.2076  1.0000</r>
       <r>  -0.9671  1.0000</r>
       <r>  -0.9608  1.0000</r>
       <r>  -0.9592  1.0000</r>
       <r>  -0.2448  1.0000</r>
       <r>   0.0338  1.0000</r>
       <r>   0.0387  1.0000</r>
       <r>   0.3081  1.0000</r>
       <r>   0.3397  1.0000</r>
       <r>   0.4166  1.0000</r>
       <r>   0.4519  1.0000</r>
       <r>   0.5981  1.0000</r>
       <r>   0.7383  1.0000</r>
       <r>   0.7550  1.0000</r>
       <r>   0.7738  1.0000</r>
       <r>   0.9934  1.0000</r>
       <r>   1.0200  1.0000</r>
       <r>   1.0220  1.0000</r>
       <r>   2.3894  1.0000</r>
       <r>   3.8264  0.0000</r>
       <r>   5.1318  0.0000</r>
       <r>   9.5103  0.0000</r>
       <r>   9.6383  0.0000</r>
       <r>  10.9244  0.0000</r>
       <r>  11.0721  0.0000</r>
       <r>  12.4280  0.0000</r>
       <r>  12.5745  0.0000</r>
       <r>  13.9685  0.0000</r>
       <r>  15.1126  0.0000</r>
      </set>
      <set comment="kpoint 37">
       <r>  -4.3668  1.0000</r>
       <r>  -1.6373  1.0000</r>
       <r>  -1.1164  1.0000</r>
       <r>  -1.0737  1.0000</r>
       <r>  -0.8795  1.0000</r>
       <r>  -0.8667  1.0000</r>
       <r>  -0.8567  1.0000</r>
       <r>  -0.3285  1.0000</r>
       <r>   0.0341  1.0000</r>
       <r>   0.0717  1.0000</r>
       <r>   0.0953  1.0000</r>
       <r>   0.1084  1.0000</r>
       <r>   0.2131  1.0000</r>
       <r>   0.4154  1.0000</r>
       <r>   0.6472  1.0000</r>
       <r>   0.6523  1.0000</r>
       <r>   0.6566  1.0000</r>
       <r>   0.6867  1.0000</r>
       <r>   0.9372  1.0000</r>
       <r>   1.0078  1.0000</r>
       <r>   1.0078  1.0000</r>
       <r>   1.6414  1.0000</r>
       <r>   4.3925  0.0000</r>
       <r>   5.7298  0.0000</r>
       <r>   8.4321  0.0000</r>
       <r>   9.9332  0.0000</r>
       <r>   9.9614  0.0000</r>
       <r>  11.2976  0.0000</r>
       <r>  13.0474  0.0000</r>
       <r>  13.0986  0.0000</r>
       <r>  14.3715  0.0000</r>
       <r>  14.4734  0.0000</r>
      </set>
      <set comment="kpoint 38">
       <r>  -3.8406  1.0000</r>
       <r>  -2.0287  1.0000</r>
       <r>  -0.9605  1.0000</r>
       <r>  -0.9329  1.0000</r>
       <r>  -0.7756  1.0000</r>
       <r>  -0.7650  1.0000</r>
       <r>  -0.7341  1.0000</r>
       <r>  -0.4310  1.0000</r>
       <r>  -0.2126  1.0000</r>
       <r>  -0.1404  1.0000</r>
       <r>   0.0567  1.0000</r>
       <r>   0.0743  1.0000</r>
       <r>   0.1939  1.0000</r>
       <r>   0.4397  1.0000</r>
       <r>   0.5269  1.0000</r>
       <r>   0.5659  1.0000</r>
       <r>   0.5917  1.0000</r>
       <r>   0.7279  1.0000</r>
       <r>   0.8543  1.0000</r>
       <r>   0.9997  1.0000</r>
       <r>   1.0003  1.0000</r>
       <r>   1.1656  1.0000</r>
       <r>   5.0301  0.0000</r>
       <r>   6.3989  0.0000</r>
       <r>   7.4706  0.0000</r>
       <r>   8.9704  0.0000</r>
       <r>  10.3363  0.0000</r>
       <r>  11.7254  0.0000</r>
       <r>  12.2732  0.0000</r>
       <r>  13.6726  0.0000</r>
       <r>  13.7053  0.0000</r>
       <r>  16.1748  0.0000</r>
      </set>
      <set comment="kpoint 39">
       <r>  -3.2363  1.0000</r>
       <r>  -2.6017  1.0000</r>
       <r>  -0.8430  1.0000</r>
       <r>  -0.8279  1.0000</r>
       <r>  -0.6673  1.0000</r>
       <r>  -0.6617  1.0000</r>
       <r>  -0.6246  1.0000</r>
       <r>  -0.5444  1.0000</r>
       <r>  -0.3918  1.0000</r>
       <r>  -0.3386  1.0000</r>
       <r>   0.0085  1.0000</r>
       <r>   0.0352  1.0000</r>
       <r>   0.2938  1.0000</r>
       <r>   0.4064  1.0000</r>
       <r>   0.5118  1.0000</r>
       <r>   0.5218  1.0000</r>
       <r>   0.5499  1.0000</r>
       <r>   0.7133  1.0000</r>
       <r>   0.8113  1.0000</r>
       <r>   0.9253  1.0000</r>
       <r>   0.9965  1.0000</r>
       <r>   0.9968  1.0000</r>
       <r>   5.7368  0.0000</r>
       <r>   6.4937  0.0000</r>
       <r>   7.2585  0.0000</r>
       <r>   8.0616  0.0000</r>
       <r>  10.8539  0.0000</r>
       <r>  11.4840  0.0000</r>
       <r>  12.3170  0.0000</r>
       <r>  12.9662  0.0000</r>
       <r>  14.4069  0.0000</r>
       <r>  15.2428  0.0000</r>
      </set>
      <set comment="kpoint 40">
       <r>  -4.4878  1.0000</r>
       <r>  -1.3137  1.0000</r>
       <r>  -1.3137  1.0000</r>
       <r>  -1.1156  1.0000</r>
       <r>  -0.8995  1.0000</r>
       <r>  -0.8978  1.0000</r>
       <r>  -0.8978  1.0000</r>
       <r>  -0.2776  1.0000</r>
       <r>   0.0434  1.0000</r>
       <r>   0.0675  1.0000</r>
       <r>   0.1491  1.0000</r>
       <r>   0.1491  1.0000</r>
       <r>   0.1994  1.0000</r>
       <r>   0.4368  1.0000</r>
       <r>   0.6387  1.0000</r>
       <r>   0.6634  1.0000</r>
       <r>   0.7102  1.0000</r>
       <r>   0.7102  1.0000</r>
       <r>   0.9680  1.0000</r>
       <r>   0.9680  1.0000</r>
       <r>   0.9832  1.0000</r>
       <r>   2.8309  0.0000</r>
       <r>   2.8309  0.0000</r>
       <r>   5.5708  0.0000</r>
       <r>   8.3105  0.0000</r>
       <r>   9.8512  0.0000</r>
       <r>  11.3935  0.0000</r>
       <r>  11.3935  0.0000</r>
       <r>  12.7115  0.0000</r>
       <r>  12.7115  0.0000</r>
       <r>  14.3348  0.0000</r>
       <r>  14.3348  0.0000</r>
      </set>
      <set comment="kpoint 41">
       <r>  -4.0736  1.0000</r>
       <r>  -1.4741  1.0000</r>
       <r>  -1.1423  1.0000</r>
       <r>  -1.0062  1.0000</r>
       <r>  -0.8200  1.0000</r>
       <r>  -0.8166  1.0000</r>
       <r>  -0.8019  1.0000</r>
       <r>  -0.3379  1.0000</r>
       <r>  -0.0993  1.0000</r>
       <r>  -0.0104  1.0000</r>
       <r>   0.0217  1.0000</r>
       <r>   0.0480  1.0000</r>
       <r>   0.1207  1.0000</r>
       <r>   0.4168  1.0000</r>
       <r>   0.5851  1.0000</r>
       <r>   0.6115  1.0000</r>
       <r>   0.6424  1.0000</r>
       <r>   0.7163  1.0000</r>
       <r>   0.9009  1.0000</r>
       <r>   0.9415  1.0000</r>
       <r>   0.9507  1.0000</r>
       <r>   2.0252  1.0000</r>
       <r>   3.3420  0.0000</r>
       <r>   6.1038  0.0000</r>
       <r>   7.2475  0.0000</r>
       <r>  10.1658  0.0000</r>
       <r>  10.3172  0.0000</r>
       <r>  11.8857  0.0000</r>
       <r>  13.0547  0.0000</r>
       <r>  13.4471  0.0000</r>
       <r>  14.6268  0.0000</r>
       <r>  14.8360  0.0000</r>
      </set>
      <set comment="kpoint 42">
       <r>  -3.5622  1.0000</r>
       <r>  -1.8358  1.0000</r>
       <r>  -0.9687  1.0000</r>
       <r>  -0.8856  1.0000</r>
       <r>  -0.7498  1.0000</r>
       <r>  -0.7214  1.0000</r>
       <r>  -0.6918  1.0000</r>
       <r>  -0.4202  1.0000</r>
       <r>  -0.3081  1.0000</r>
       <r>  -0.1612  1.0000</r>
       <r>  -0.0988  1.0000</r>
       <r>   0.0232  1.0000</r>
       <r>   0.1911  1.0000</r>
       <r>   0.4460  1.0000</r>
       <r>   0.4956  1.0000</r>
       <r>   0.5124  1.0000</r>
       <r>   0.5597  1.0000</r>
       <r>   0.8072  1.0000</r>
       <r>   0.8181  1.0000</r>
       <r>   0.9239  1.0000</r>
       <r>   0.9287  1.0000</r>
       <r>   1.4706  1.0000</r>
       <r>   3.9211  0.0000</r>
       <r>   6.1224  0.0000</r>
       <r>   6.9141  0.0000</r>
       <r>   9.3244  0.0000</r>
       <r>  10.5895  0.0000</r>
       <r>  12.4959  0.0000</r>
       <r>  12.5589  0.0000</r>
       <r>  13.5423  0.0000</r>
       <r>  14.9642  0.0000</r>
       <r>  15.4503  0.0000</r>
      </set>
      <set comment="kpoint 43">
       <r>  -2.9793  1.0000</r>
       <r>  -2.3742  1.0000</r>
       <r>  -0.8236  1.0000</r>
       <r>  -0.7648  1.0000</r>
       <r>  -0.7292  1.0000</r>
       <r>  -0.6447  1.0000</r>
       <r>  -0.6192  1.0000</r>
       <r>  -0.5165  1.0000</r>
       <r>  -0.4087  1.0000</r>
       <r>  -0.3196  1.0000</r>
       <r>  -0.0933  1.0000</r>
       <r>  -0.0359  1.0000</r>
       <r>   0.2771  1.0000</r>
       <r>   0.3802  1.0000</r>
       <r>   0.4721  1.0000</r>
       <r>   0.4911  1.0000</r>
       <r>   0.5443  1.0000</r>
       <r>   0.6803  1.0000</r>
       <r>   0.9163  1.0000</r>
       <r>   0.9177  1.0000</r>
       <r>   0.9482  1.0000</r>
       <r>   1.1399  1.0000</r>
       <r>   4.5774  0.0000</r>
       <r>   5.3209  0.0000</r>
       <r>   7.6012  0.0000</r>
       <r>   8.4185  0.0000</r>
       <r>  11.1300  0.0000</r>
       <r>  11.7894  0.0000</r>
       <r>  13.2161  0.0000</r>
       <r>  14.0402  0.0000</r>
       <r>  14.1048  0.0000</r>
       <r>  14.7571  0.0000</r>
      </set>
      <set comment="kpoint 44">
       <r>  -3.6751  1.0000</r>
       <r>  -1.2792  1.0000</r>
       <r>  -1.2792  1.0000</r>
       <r>  -0.9438  1.0000</r>
       <r>  -0.7463  1.0000</r>
       <r>  -0.7278  1.0000</r>
       <r>  -0.7278  1.0000</r>
       <r>  -0.3660  1.0000</r>
       <r>  -0.2071  1.0000</r>
       <r>  -0.2071  1.0000</r>
       <r>  -0.0810  1.0000</r>
       <r>   0.0258  1.0000</r>
       <r>   0.1492  1.0000</r>
       <r>   0.4030  1.0000</r>
       <r>   0.5109  1.0000</r>
       <r>   0.5604  1.0000</r>
       <r>   0.5604  1.0000</r>
       <r>   0.8213  1.0000</r>
       <r>   0.8605  1.0000</r>
       <r>   0.8605  1.0000</r>
       <r>   0.8970  1.0000</r>
       <r>   2.4658  0.9951</r>
       <r>   2.4658  0.9951</r>
       <r>   5.9874  0.0000</r>
       <r>   6.7996  0.0000</r>
       <r>  10.5028  0.0000</r>
       <r>  10.8003  0.0000</r>
       <r>  10.8003  0.0000</r>
       <r>  13.8956  0.0000</r>
       <r>  13.8956  0.0000</r>
       <r>  14.8675  0.0000</r>
       <r>  14.9956  0.0000</r>
      </set>
      <set comment="kpoint 45">
       <r>  -3.1877  1.0000</r>
       <r>  -1.6007  1.0000</r>
       <r>  -1.0884  1.0000</r>
       <r>  -0.8958  1.0000</r>
       <r>  -0.6684  1.0000</r>
       <r>  -0.6443  1.0000</r>
       <r>  -0.6213  1.0000</r>
       <r>  -0.4157  1.0000</r>
       <r>  -0.3604  1.0000</r>
       <r>  -0.2307  1.0000</r>
       <r>  -0.1979  1.0000</r>
       <r>  -0.0162  1.0000</r>
       <r>   0.1928  1.0000</r>
       <r>   0.4276  1.0000</r>
       <r>   0.4450  1.0000</r>
       <r>   0.4551  1.0000</r>
       <r>   0.4934  1.0000</r>
       <r>   0.7588  1.0000</r>
       <r>   0.8321  1.0000</r>
       <r>   0.8548  1.0000</r>
       <r>   0.9593  1.0000</r>
       <r>   1.8218  1.0000</r>
       <r>   2.9734  0.0000</r>
       <r>   5.0879  0.0000</r>
       <r>   7.3707  0.0000</r>
       <r>   9.8042  0.0000</r>
       <r>  10.9521  0.0000</r>
       <r>  11.4012  0.0000</r>
       <r>  13.0043  0.0000</r>
       <r>  13.8480  0.0000</r>
       <r>  14.4839  0.0000</r>
       <r>  15.4631  0.0000</r>
      </set>
      <set comment="kpoint 46">
       <r>  -2.6404  1.0000</r>
       <r>  -2.0845  1.0000</r>
       <r>  -0.9437  1.0000</r>
       <r>  -0.8813  1.0000</r>
       <r>  -0.6097  1.0000</r>
       <r>  -0.5645  1.0000</r>
       <r>  -0.5607  1.0000</r>
       <r>  -0.4827  1.0000</r>
       <r>  -0.4074  1.0000</r>
       <r>  -0.3132  1.0000</r>
       <r>  -0.1768  1.0000</r>
       <r>  -0.0914  1.0000</r>
       <r>   0.2577  1.0000</r>
       <r>   0.3482  1.0000</r>
       <r>   0.4114  1.0000</r>
       <r>   0.4321  1.0000</r>
       <r>   0.5135  1.0000</r>
       <r>   0.6359  1.0000</r>
       <r>   0.8216  1.0000</r>
       <r>   0.8292  1.0000</r>
       <r>   1.1395  1.0000</r>
       <r>   1.4024  1.0000</r>
       <r>   3.5675  0.0000</r>
       <r>   4.2684  0.0000</r>
       <r>   8.0875  0.0000</r>
       <r>   8.9000  0.0000</r>
       <r>  11.5193  0.0000</r>
       <r>  12.1125  0.0000</r>
       <r>  12.2056  0.0000</r>
       <r>  12.9291  0.0000</r>
       <r>  15.1839  0.0000</r>
       <r>  15.9911  0.0000</r>
      </set>
      <set comment="kpoint 47">
       <r>  -2.7377  1.0000</r>
       <r>  -1.3623  1.0000</r>
       <r>  -1.3623  1.0000</r>
       <r>  -0.9436  1.0000</r>
       <r>  -0.5669  1.0000</r>
       <r>  -0.5464  1.0000</r>
       <r>  -0.5464  1.0000</r>
       <r>  -0.4242  1.0000</r>
       <r>  -0.3308  1.0000</r>
       <r>  -0.3308  1.0000</r>
       <r>  -0.2516  1.0000</r>
       <r>  -0.0614  1.0000</r>
       <r>   0.1999  1.0000</r>
       <r>   0.3788  1.0000</r>
       <r>   0.4015  1.0000</r>
       <r>   0.4015  1.0000</r>
       <r>   0.4390  1.0000</r>
       <r>   0.7260  1.0000</r>
       <r>   0.7260  1.0000</r>
       <r>   0.7890  1.0000</r>
       <r>   1.1405  1.0000</r>
       <r>   2.2374  1.0000</r>
       <r>   2.2374  1.0000</r>
       <r>   4.1594  0.0000</r>
       <r>   7.9772  0.0000</r>
       <r>  10.4004  0.0000</r>
       <r>  10.4004  0.0000</r>
       <r>  11.4294  0.0000</r>
       <r>  12.8316  0.0000</r>
       <r>  13.5639  0.0000</r>
       <r>  13.5639  0.0000</r>
       <r>  15.9123  0.0000</r>
      </set>
      <set comment="kpoint 48">
       <r>  -2.2466  1.0000</r>
       <r>  -1.7668  1.0000</r>
       <r>  -1.1632  1.0000</r>
       <r>  -1.0265  1.0000</r>
       <r>  -0.4896  1.0000</r>
       <r>  -0.4841  1.0000</r>
       <r>  -0.4519  1.0000</r>
       <r>  -0.4492  1.0000</r>
       <r>  -0.3886  1.0000</r>
       <r>  -0.3238  1.0000</r>
       <r>  -0.2403  1.0000</r>
       <r>  -0.1380  1.0000</r>
       <r>   0.2337  1.0000</r>
       <r>   0.3064  1.0000</r>
       <r>   0.3399  1.0000</r>
       <r>   0.3518  1.0000</r>
       <r>   0.5051  1.0000</r>
       <r>   0.6101  1.0000</r>
       <r>   0.7195  1.0000</r>
       <r>   0.7414  1.0000</r>
       <r>   1.3785  1.0000</r>
       <r>   1.7212  1.0000</r>
       <r>   2.7463  0.0000</r>
       <r>   3.3798  0.0000</r>
       <r>   8.6880  0.0000</r>
       <r>   9.4961  0.0000</r>
       <r>  11.1062  0.0000</r>
       <r>  11.9173  0.0000</r>
       <r>  12.0251  0.0000</r>
       <r>  12.7388  0.0000</r>
       <r>  14.2378  0.0000</r>
       <r>  15.0222  0.0000</r>
      </set>
      <set comment="kpoint 49">
       <r>  -1.8385  1.0000</r>
       <r>  -1.4652  1.0000</r>
       <r>  -1.4652  1.0000</r>
       <r>  -1.2160  1.0000</r>
       <r>  -0.4244  1.0000</r>
       <r>  -0.4160  1.0000</r>
       <r>  -0.4160  1.0000</r>
       <r>  -0.3761  1.0000</r>
       <r>  -0.3560  1.0000</r>
       <r>  -0.2976  1.0000</r>
       <r>  -0.2976  1.0000</r>
       <r>  -0.2005  1.0000</r>
       <r>   0.2295  1.0000</r>
       <r>   0.2734  1.0000</r>
       <r>   0.2734  1.0000</r>
       <r>   0.2836  1.0000</r>
       <r>   0.5421  1.0000</r>
       <r>   0.6199  1.0000</r>
       <r>   0.6199  1.0000</r>
       <r>   0.6668  1.0000</r>
       <r>   1.6913  1.0000</r>
       <r>   2.1289  1.0000</r>
       <r>   2.1289  1.0000</r>
       <r>   2.6698  0.0000</r>
       <r>   9.3934  0.0000</r>
       <r>  10.1997  0.0000</r>
       <r>  10.1997  0.0000</r>
       <r>  11.0072  0.0000</r>
       <r>  12.6486  0.0000</r>
       <r>  13.3882  0.0000</r>
       <r>  13.3882  0.0000</r>
       <r>  14.1510  0.0000</r>
      </set>
      <set comment="kpoint 50">
       <r>  -4.9148  1.0000</r>
       <r>  -1.3250  1.0000</r>
       <r>  -1.3250  1.0000</r>
       <r>  -1.3250  1.0000</r>
       <r>  -0.9913  1.0000</r>
       <r>  -0.9913  1.0000</r>
       <r>  -0.9913  1.0000</r>
       <r>  -0.2054  1.0000</r>
       <r>   0.0076  1.0000</r>
       <r>   0.0076  1.0000</r>
       <r>   0.4528  1.0000</r>
       <r>   0.4528  1.0000</r>
       <r>   0.4528  1.0000</r>
       <r>   0.5288  1.0000</r>
       <r>   0.5288  1.0000</r>
       <r>   0.7409  1.0000</r>
       <r>   0.7409  1.0000</r>
       <r>   0.7409  1.0000</r>
       <r>   1.0420  1.0000</r>
       <r>   1.0420  1.0000</r>
       <r>   1.0420  1.0000</r>
       <r>   3.6462  0.0000</r>
       <r>   3.6462  0.0000</r>
       <r>   3.6462  0.0000</r>
       <r>  10.8241  0.0000</r>
       <r>  10.8241  0.0000</r>
       <r>  10.8241  0.0000</r>
       <r>  10.9579  0.0000</r>
       <r>  10.9579  0.0000</r>
       <r>  10.9579  0.0000</r>
       <r>  15.4645  0.0000</r>
       <r>  15.4645  0.0000</r>
      </set>
      <set comment="kpoint 51">
       <r>  -4.6096  1.0000</r>
       <r>  -1.3771  1.0000</r>
       <r>  -1.2126  1.0000</r>
       <r>  -1.2126  1.0000</r>
       <r>  -0.9257  1.0000</r>
       <r>  -0.9214  1.0000</r>
       <r>  -0.9214  1.0000</r>
       <r>  -0.2496  1.0000</r>
       <r>   0.0349  1.0000</r>
       <r>   0.0378  1.0000</r>
       <r>   0.2406  1.0000</r>
       <r>   0.2406  1.0000</r>
       <r>   0.2892  1.0000</r>
       <r>   0.4893  1.0000</r>
       <r>   0.5838  1.0000</r>
       <r>   0.6460  1.0000</r>
       <r>   0.6734  1.0000</r>
       <r>   0.6734  1.0000</r>
       <r>   1.0255  1.0000</r>
       <r>   1.0255  1.0000</r>
       <r>   1.0270  1.0000</r>
       <r>   2.6595  0.0000</r>
       <r>   4.0800  0.0000</r>
       <r>   4.0800  0.0000</r>
       <r>   9.7307  0.0000</r>
       <r>   9.7307  0.0000</r>
       <r>  11.1098  0.0000</r>
       <r>  11.1098  0.0000</r>
       <r>  11.2735  0.0000</r>
       <r>  12.6127  0.0000</r>
       <r>  15.3446  0.0000</r>
       <r>  15.3446  0.0000</r>
      </set>
      <set comment="kpoint 52">
       <r>  -4.1921  1.0000</r>
       <r>  -1.5492  1.0000</r>
       <r>  -1.0782  1.0000</r>
       <r>  -1.0782  1.0000</r>
       <r>  -0.8385  1.0000</r>
       <r>  -0.8294  1.0000</r>
       <r>  -0.8294  1.0000</r>
       <r>  -0.3211  1.0000</r>
       <r>   0.0135  1.0000</r>
       <r>   0.0135  1.0000</r>
       <r>   0.0609  1.0000</r>
       <r>   0.0841  1.0000</r>
       <r>   0.1060  1.0000</r>
       <r>   0.4722  1.0000</r>
       <r>   0.5389  1.0000</r>
       <r>   0.6035  1.0000</r>
       <r>   0.6035  1.0000</r>
       <r>   0.6522  1.0000</r>
       <r>   0.9936  1.0000</r>
       <r>   1.0021  1.0000</r>
       <r>   1.0021  1.0000</r>
       <r>   1.8584  1.0000</r>
       <r>   4.6090  0.0000</r>
       <r>   4.6090  0.0000</r>
       <r>   8.6521  0.0000</r>
       <r>   8.6521  0.0000</r>
       <r>  11.4521  0.0000</r>
       <r>  11.4521  0.0000</r>
       <r>  11.7682  0.0000</r>
       <r>  14.5266  0.0000</r>
       <r>  14.6827  0.0000</r>
       <r>  14.6827  0.0000</r>
      </set>
      <set comment="kpoint 53">
       <r>  -3.6759  1.0000</r>
       <r>  -1.9221  1.0000</r>
       <r>  -0.9362  1.0000</r>
       <r>  -0.9362  1.0000</r>
       <r>  -0.7413  1.0000</r>
       <r>  -0.7413  1.0000</r>
       <r>  -0.7365  1.0000</r>
       <r>  -0.4127  1.0000</r>
       <r>  -0.1862  1.0000</r>
       <r>  -0.1862  1.0000</r>
       <r>  -0.0173  1.0000</r>
       <r>   0.0485  1.0000</r>
       <r>   0.1477  1.0000</r>
       <r>   0.4288  1.0000</r>
       <r>   0.5268  1.0000</r>
       <r>   0.5289  1.0000</r>
       <r>   0.5289  1.0000</r>
       <r>   0.7281  1.0000</r>
       <r>   0.9431  1.0000</r>
       <r>   0.9833  1.0000</r>
       <r>   0.9833  1.0000</r>
       <r>   1.2927  1.0000</r>
       <r>   5.2097  0.0000</r>
       <r>   5.2097  0.0000</r>
       <r>   7.6875  0.0000</r>
       <r>   7.6875  0.0000</r>
       <r>  11.9032  0.0000</r>
       <r>  11.9032  0.0000</r>
       <r>  12.3810  0.0000</r>
       <r>  13.8987  0.0000</r>
[...]
       <r>  -0.6029  1.0000</r>
       <r>  -0.5707  1.0000</r>
       <r>  -0.3260  1.0000</r>
       <r>  -0.1499  1.0000</r>
       <r>  -0.1499  1.0000</r>
       <r>  -0.1371  1.0000</r>
       <r>  -0.0027  1.0000</r>
       <r>   0.0696  1.0000</r>
       <r>   0.2744  1.0000</r>
       <r>   0.3554  1.0000</r>
       <r>   0.3554  1.0000</r>
       <r>   0.6677  1.0000</r>
       <r>   0.7731  1.0000</r>
       <r>   0.9698  1.0000</r>
       <r>   0.9698  1.0000</r>
       <r>   0.9841  1.0000</r>
       <r>   1.7178  1.0000</r>
       <r>   4.2681  0.0000</r>
       <r>   4.2681  0.0000</r>
       <r>   6.8994  0.0000</r>
       <r>   6.8994  0.0000</r>
       <r>   9.9624  0.0000</r>
       <r>  12.3999  0.0000</r>
       <r>  13.9714  0.0000</r>
       <r>  13.9714  0.0000</r>
       <r>  15.9609  0.0000</r>
       <r>  15.9609  0.0000</r>
      </set>
      <set comment="kpoint 68">
       <r>  -2.6393  1.0000</r>
       <r>  -2.1152  1.0000</r>
       <r>  -1.0323  1.0000</r>
       <r>  -1.0323  1.0000</r>
       <r>  -0.5690  1.0000</r>
       <r>  -0.5690  1.0000</r>
       <r>  -0.4688  1.0000</r>
       <r>  -0.3866  1.0000</r>
       <r>  -0.1617  1.0000</r>
       <r>  -0.1617  1.0000</r>
       <r>  -0.1212  1.0000</r>
       <r>  -0.0634  1.0000</r>
       <r>   0.1180  1.0000</r>
       <r>   0.1873  1.0000</r>
       <r>   0.3181  1.0000</r>
       <r>   0.3181  1.0000</r>
       <r>   0.8587  1.0000</r>
       <r>   0.8627  1.0000</r>
       <r>   0.9306  1.0000</r>
       <r>   0.9474  1.0000</r>
       <r>   0.9474  1.0000</r>
       <r>   1.2006  1.0000</r>
       <r>   4.6997  0.0000</r>
       <r>   4.6997  0.0000</r>
       <r>   6.2458  0.0000</r>
       <r>   6.2458  0.0000</r>
       <r>  10.6689  0.0000</r>
       <r>  11.4820  0.0000</r>
       <r>  14.5519  0.0000</r>
       <r>  14.5519  0.0000</r>
       <r>  15.2351  0.0000</r>
       <r>  15.2351  0.0000</r>
      </set>
      <set comment="kpoint 69">
       <r>  -3.2742  1.0000</r>
       <r>  -1.2903  1.0000</r>
       <r>  -1.2903  1.0000</r>
       <r>  -1.1302  1.0000</r>
       <r>  -0.5902  1.0000</r>
       <r>  -0.5699  1.0000</r>
       <r>  -0.5699  1.0000</r>
       <r>  -0.2581  1.0000</r>
       <r>  -0.1333  1.0000</r>
       <r>  -0.1333  1.0000</r>
       <r>  -0.0797  1.0000</r>
       <r>   0.0138  1.0000</r>
       <r>   0.0282  1.0000</r>
       <r>   0.3078  1.0000</r>
       <r>   0.3078  1.0000</r>
       <r>   0.3197  1.0000</r>
       <r>   0.6195  1.0000</r>
       <r>   0.7509  1.0000</r>
       <r>   0.9879  1.0000</r>
       <r>   1.0004  1.0000</r>
       <r>   1.0004  1.0000</r>
       <r>   2.7977  0.0000</r>
       <r>   2.7977  0.0000</r>
       <r>   4.1196  0.0000</r>
       <r>   6.8016  0.0000</r>
       <r>   8.2833  0.0000</r>
       <r>   8.2833  0.0000</r>
       <r>  12.2961  0.0000</r>
       <r>  13.8718  0.0000</r>
       <r>  15.4181  0.0000</r>
       <r>  15.4181  0.0000</r>
       <r>  17.0919  0.0000</r>
      </set>
      <set comment="kpoint 70">
       <r>  -2.8437  1.0000</r>
       <r>  -1.5613  1.0000</r>
       <r>  -1.2390  1.0000</r>
       <r>  -1.1467  1.0000</r>
       <r>  -0.5092  1.0000</r>
       <r>  -0.4798  1.0000</r>
       <r>  -0.4427  1.0000</r>
       <r>  -0.2451  1.0000</r>
       <r>  -0.1537  1.0000</r>
       <r>  -0.1358  1.0000</r>
       <r>  -0.0667  1.0000</r>
       <r>  -0.0221  1.0000</r>
       <r>   0.0366  1.0000</r>
       <r>   0.2126  1.0000</r>
       <r>   0.2580  1.0000</r>
       <r>   0.2610  1.0000</r>
       <r>   0.6764  1.0000</r>
       <r>   0.8694  1.0000</r>
       <r>   0.9584  1.0000</r>
       <r>   0.9655  1.0000</r>
       <r>   0.9714  1.0000</r>
       <r>   1.9918  1.0000</r>
       <r>   3.2328  0.0000</r>
       <r>   4.3676  0.0000</r>
       <r>   6.1017  0.0000</r>
       <r>   7.3388  0.0000</r>
       <r>   8.8677  0.0000</r>
       <r>  11.2775  0.0000</r>
       <r>  14.3593  0.0000</r>
       <r>  15.8933  0.0000</r>
       <r>  16.4018  0.0000</r>
       <r>  17.4450  0.0000</r>
      </set>
      <set comment="kpoint 71">
       <r>  -2.3806  1.0000</r>
       <r>  -1.9356  1.0000</r>
       <r>  -1.1997  1.0000</r>
       <r>  -1.1697  1.0000</r>
       <r>  -0.4639  1.0000</r>
       <r>  -0.4508  1.0000</r>
       <r>  -0.3289  1.0000</r>
       <r>  -0.2625  1.0000</r>
       <r>  -0.1389  1.0000</r>
       <r>  -0.0871  1.0000</r>
       <r>  -0.0847  1.0000</r>
       <r>  -0.0560  1.0000</r>
       <r>   0.0721  1.0000</r>
       <r>   0.1321  1.0000</r>
       <r>   0.2234  1.0000</r>
       <r>   0.2276  1.0000</r>
       <r>   0.7995  1.0000</r>
       <r>   0.9084  1.0000</r>
       <r>   0.9348  1.0000</r>
       <r>   0.9369  1.0000</r>
       <r>   1.0488  1.0000</r>
       <r>   1.4054  1.0000</r>
       <r>   3.7341  0.0000</r>
       <r>   4.2148  0.0000</r>
       <r>   6.0443  0.0000</r>
       <r>   6.5602  0.0000</r>
       <r>   9.5630  0.0000</r>
       <r>  10.3665  0.0000</r>
       <r>  14.9547  0.0000</r>
       <r>  15.6470  0.0000</r>
       <r>  16.4676  0.0000</r>
       <r>  17.1109  0.0000</r>
      </set>
      <set comment="kpoint 72">
       <r>  -2.4769  1.0000</r>
       <r>  -1.4679  1.0000</r>
       <r>  -1.4679  1.0000</r>
       <r>  -1.2284  1.0000</r>
       <r>  -0.4211  1.0000</r>
       <r>  -0.3435  1.0000</r>
       <r>  -0.3435  1.0000</r>
       <r>  -0.1624  1.0000</r>
       <r>  -0.1192  1.0000</r>
       <r>  -0.1192  1.0000</r>
       <r>  -0.0473  1.0000</r>
       <r>   0.0015  1.0000</r>
       <r>   0.0208  1.0000</r>
       <r>   0.1726  1.0000</r>
       <r>   0.1726  1.0000</r>
       <r>   0.1849  1.0000</r>
       <r>   0.6830  1.0000</r>
       <r>   0.9275  1.0000</r>
       <r>   0.9301  1.0000</r>
       <r>   0.9301  1.0000</r>
       <r>   1.0340  1.0000</r>
       <r>   2.3647  1.0000</r>
       <r>   2.3647  1.0000</r>
       <r>   4.0398  0.0000</r>
       <r>   5.9806  0.0000</r>
       <r>   7.9014  0.0000</r>
       <r>   7.9014  0.0000</r>
       <r>  10.2663  0.0000</r>
       <r>  14.8590  0.0000</r>
       <r>  16.9606  0.0000</r>
       <r>  16.9606  0.0000</r>
       <r>  17.9136  0.0000</r>
      </set>
      <set comment="kpoint 73">
       <r>  -2.1017  1.0000</r>
       <r>  -1.7571  1.0000</r>
       <r>  -1.3852  1.0000</r>
       <r>  -1.3073  1.0000</r>
       <r>  -0.3594  1.0000</r>
       <r>  -0.3291  1.0000</r>
       <r>  -0.2125  1.0000</r>
       <r>  -0.1142  1.0000</r>
       <r>  -0.1083  1.0000</r>
       <r>  -0.1073  1.0000</r>
       <r>  -0.0245  1.0000</r>
       <r>   0.0290  1.0000</r>
       <r>   0.0430  1.0000</r>
       <r>   0.0979  1.0000</r>
       <r>   0.1442  1.0000</r>
       <r>   0.1469  1.0000</r>
       <r>   0.7555  1.0000</r>
       <r>   0.8569  1.0000</r>
       <r>   0.8967  1.0000</r>
       <r>   0.8975  1.0000</r>
       <r>   1.2820  1.0000</r>
       <r>   1.7077  1.0000</r>
       <r>   2.8450  0.0000</r>
       <r>   3.4299  0.0000</r>
       <r>   6.4040  0.0000</r>
       <r>   7.0728  0.0000</r>
       <r>   8.5782  0.0000</r>
       <r>   9.3666  0.0000</r>
       <r>  15.4685  0.0000</r>
       <r>  16.1787  0.0000</r>
       <r>  17.6321  0.0000</r>
       <r>  18.4225  0.0000</r>
      </set>
      <set comment="kpoint 74">
       <r>  -1.8335  1.0000</r>
       <r>  -1.5943  1.0000</r>
       <r>  -1.5943  1.0000</r>
       <r>  -1.4467  1.0000</r>
       <r>  -0.2758  1.0000</r>
       <r>  -0.2237  1.0000</r>
       <r>  -0.2237  1.0000</r>
       <r>  -0.1502  1.0000</r>
       <r>   0.0045  1.0000</r>
       <r>   0.0145  1.0000</r>
       <r>   0.0145  1.0000</r>
       <r>   0.0360  1.0000</r>
       <r>   0.0727  1.0000</r>
       <r>   0.0837  1.0000</r>
       <r>   0.0837  1.0000</r>
       <r>   0.0888  1.0000</r>
       <r>   0.7645  1.0000</r>
       <r>   0.8288  1.0000</r>
       <r>   0.8288  1.0000</r>
       <r>   0.8499  1.0000</r>
       <r>   1.6173  1.0000</r>
       <r>   2.1287  1.0000</r>
       <r>   2.1287  1.0000</r>
       <r>   2.7040  0.0000</r>
       <r>   6.9877  0.0000</r>
       <r>   7.7181  0.0000</r>
       <r>   7.7181  0.0000</r>
       <r>   8.4836  0.0000</r>
       <r>  16.0934  0.0000</r>
       <r>  16.8220  0.0000</r>
       <r>  16.8220  0.0000</r>
       <r>  17.5710  0.0000</r>
      </set>
      <set comment="kpoint 75">
       <r>  -2.9512  1.0000</r>
       <r>  -1.3062  1.0000</r>
       <r>  -1.3062  1.0000</r>
       <r>  -1.3062  1.0000</r>
       <r>  -0.4659  1.0000</r>
       <r>  -0.4659  1.0000</r>
       <r>  -0.4659  1.0000</r>
       <r>  -0.1665  1.0000</r>
       <r>  -0.0703  1.0000</r>
       <r>  -0.0703  1.0000</r>
       <r>  -0.0703  1.0000</r>
       <r>  -0.0026  1.0000</r>
       <r>  -0.0026  1.0000</r>
       <r>   0.2188  1.0000</r>
       <r>   0.2189  1.0000</r>
       <r>   0.2189  1.0000</r>
       <r>   0.7282  1.0000</r>
       <r>   0.7282  1.0000</r>
       <r>   1.0077  1.0000</r>
       <r>   1.0077  1.0000</r>
       <r>   1.0077  1.0000</r>
       <r>   3.0779  0.0000</r>
       <r>   3.0779  0.0000</r>
       <r>   3.0779  0.0000</r>
       <r>   7.2375  0.0000</r>
       <r>   7.2375  0.0000</r>
       <r>   7.2375  0.0000</r>
       <r>  11.1722  0.0000</r>
       <r>  15.7919  0.0000</r>
       <r>  15.7919  0.0000</r>
       <r>  15.7919  0.0000</r>
       <r>  18.2431  0.0000</r>
      </set>
      <set comment="kpoint 76">
       <r>  -2.5794  1.0000</r>
       <r>  -1.5425  1.0000</r>
       <r>  -1.3219  1.0000</r>
       <r>  -1.3219  1.0000</r>
       <r>  -0.3926  1.0000</r>
       <r>  -0.3926  1.0000</r>
       <r>  -0.3290  1.0000</r>
       <r>  -0.0792  1.0000</r>
       <r>  -0.0555  1.0000</r>
       <r>  -0.0342  1.0000</r>
       <r>  -0.0078  1.0000</r>
       <r>   0.0105  1.0000</r>
       <r>   0.0105  1.0000</r>
       <r>   0.1302  1.0000</r>
       <r>   0.1627  1.0000</r>
       <r>   0.1627  1.0000</r>
       <r>   0.7875  1.0000</r>
       <r>   0.8263  1.0000</r>
       <r>   0.9860  1.0000</r>
       <r>   0.9860  1.0000</r>
       <r>   1.0011  1.0000</r>
       <r>   2.1921  1.0000</r>
       <r>   3.3998  0.0000</r>
       <r>   3.3998  0.0000</r>
       <r>   6.3919  0.0000</r>
       <r>   6.3919  0.0000</r>
       <r>   7.7977  0.0000</r>
       <r>  10.1604  0.0000</r>
       <r>  16.2733  0.0000</r>
       <r>  16.2733  0.0000</r>
       <r>  17.8094  0.0000</r>
       <r>  18.1544  0.0000</r>
      </set>
      <set comment="kpoint 77">
       <r>  -2.1964  1.0000</r>
       <r>  -1.8418  1.0000</r>
       <r>  -1.3313  1.0000</r>
       <r>  -1.3313  1.0000</r>
       <r>  -0.3614  1.0000</r>
       <r>  -0.3614  1.0000</r>
       <r>  -0.1982  1.0000</r>
       <r>  -0.0958  1.0000</r>
       <r>  -0.0403  1.0000</r>
       <r>  -0.0387  1.0000</r>
       <r>   0.0134  1.0000</r>
       <r>   0.0602  1.0000</r>
       <r>   0.0804  1.0000</r>
       <r>   0.0804  1.0000</r>
       <r>   0.1316  1.0000</r>
       <r>   0.1316  1.0000</r>
       <r>   0.9075  1.0000</r>
       <r>   0.9613  1.0000</r>
       <r>   0.9613  1.0000</r>
       <r>   0.9670  1.0000</r>
       <r>   1.0278  1.0000</r>
       <r>   1.4995  1.0000</r>
       <r>   3.6621  0.0000</r>
       <r>   3.6621  0.0000</r>
       <r>   5.8628  0.0000</r>
       <r>   5.8628  0.0000</r>
       <r>   8.4731  0.0000</r>
       <r>   9.2608  0.0000</r>
       <r>  16.8562  0.0000</r>
       <r>  16.8562  0.0000</r>
       <r>  17.5172  0.0000</r>
       <r>  17.5172  0.0000</r>
      </set>
      <set comment="kpoint 78">
       <r>  -2.2905  1.0000</r>
       <r>  -1.5220  1.0000</r>
       <r>  -1.5220  1.0000</r>
       <r>  -1.3943  1.0000</r>
       <r>  -0.3221  1.0000</r>
       <r>  -0.2740  1.0000</r>
       <r>  -0.2740  1.0000</r>
       <r>  -0.0517  1.0000</r>
       <r>  -0.0352  1.0000</r>
       <r>   0.0624  1.0000</r>
       <r>   0.0624  1.0000</r>
       <r>   0.0911  1.0000</r>
       <r>   0.1099  1.0000</r>
       <r>   0.1099  1.0000</r>
       <r>   0.1134  1.0000</r>
       <r>   0.1505  1.0000</r>
       <r>   0.7911  1.0000</r>
       <r>   0.9475  1.0000</r>
       <r>   0.9751  1.0000</r>
       <r>   0.9846  1.0000</r>
       <r>   0.9846  1.0000</r>
       <r>   2.4881  0.2860</r>
       <r>   2.4881  0.2860</r>
       <r>   3.4574  0.0000</r>
       <r>   5.8050  0.0000</r>
       <r>   6.8881  0.0000</r>
       <r>   6.8881  0.0000</r>
       <r>   9.1613  0.0000</r>
       <r>  16.7622  0.0000</r>
       <r>  18.2714  0.0000</r>
       <r>  18.2714  0.0000</r>
       <r>  18.7208  0.0000</r>
      </set>
      <set comment="kpoint 79">
       <r>  -2.0072  1.0000</r>
       <r>  -1.7494  1.0000</r>
       <r>  -1.4934  1.0000</r>
       <r>  -1.4517  1.0000</r>
       <r>  -0.2782  1.0000</r>
       <r>  -0.2620  1.0000</r>
       <r>  -0.1723  1.0000</r>
       <r>  -0.0980  1.0000</r>
       <r>  -0.0259  1.0000</r>
       <r>   0.0111  1.0000</r>
       <r>   0.0468  1.0000</r>
       <r>   0.0528  1.0000</r>
       <r>   0.1763  1.0000</r>
       <r>   0.2097  1.0000</r>
       <r>   0.2224  1.0000</r>
       <r>   0.2385  1.0000</r>
       <r>   0.8700  1.0000</r>
       <r>   0.9483  1.0000</r>
       <r>   0.9534  1.0000</r>
       <r>   0.9557  1.0000</r>
       <r>   1.2047  1.0000</r>
       <r>   1.7322  1.0000</r>
       <r>   2.8668  0.0000</r>
       <r>   3.2515  0.0000</r>
       <r>   5.7556  0.0000</r>
       <r>   6.1771  0.0000</r>
       <r>   7.5229  0.0000</r>
       <r>   8.2818  0.0000</r>
       <r>  17.3555  0.0000</r>
       <r>  18.0336  0.0000</r>
       <r>  18.8304  0.0000</r>
       <r>  19.3869  0.0000</r>
      </set>
      <set comment="kpoint 80">
       <r>  -1.8268  1.0000</r>
       <r>  -1.6570  1.0000</r>
       <r>  -1.6570  1.0000</r>
       <r>  -1.5595  1.0000</r>
       <r>  -0.2147  1.0000</r>
       <r>  -0.1796  1.0000</r>
       <r>  -0.1796  1.0000</r>
       <r>  -0.1227  1.0000</r>
       <r>  -0.0368  1.0000</r>
       <r>  -0.0095  1.0000</r>
       <r>  -0.0095  1.0000</r>
       <r>   0.0042  1.0000</r>
       <r>   0.3374  1.0000</r>
       <r>   0.3374  1.0000</r>
       <r>   0.3471  1.0000</r>
       <r>   0.3668  1.0000</r>
       <r>   0.8593  1.0000</r>
       <r>   0.9139  1.0000</r>
       <r>   0.9139  1.0000</r>
       <r>   0.9233  1.0000</r>
       <r>   1.5529  1.0000</r>
       <r>   2.1223  1.0000</r>
       <r>   2.1223  1.0000</r>
       <r>   2.6602  0.0000</r>
       <r>   6.1108  0.0000</r>
       <r>   6.7262  0.0000</r>
       <r>   6.7262  0.0000</r>
       <r>   7.4344  0.0000</r>
       <r>  17.9615  0.0000</r>
       <r>  18.6599  0.0000</r>
       <r>  18.6599  0.0000</r>
       <r>  19.3827  0.0000</r>
      </set>
      <set comment="kpoint 81">
       <r>  -2.0969  1.0000</r>
       <r>  -1.5626  1.0000</r>
       <r>  -1.5626  1.0000</r>
       <r>  -1.5626  1.0000</r>
       <r>  -0.2279  1.0000</r>
       <r>  -0.2279  1.0000</r>
       <r>  -0.2279  1.0000</r>
       <r>  -0.0646  1.0000</r>
       <r>  -0.0646  1.0000</r>
       <r>   0.0147  1.0000</r>
       <r>   0.0147  1.0000</r>
       <r>   0.0147  1.0000</r>
       <r>   0.3055  1.0000</r>
       <r>   0.3055  1.0000</r>
       <r>   0.3055  1.0000</r>
       <r>   0.4709  1.0000</r>
       <r>   0.8811  1.0000</r>
       <r>   0.8811  1.0000</r>
       <r>   0.9958  1.0000</r>
       <r>   0.9958  1.0000</r>
       <r>   0.9958  1.0000</r>
       <r>   2.6398  0.0000</r>
       <r>   2.6398  0.0000</r>
       <r>   2.6398  0.0000</r>
       <r>   6.1052  0.0000</r>
       <r>   6.1052  0.0000</r>
       <r>   6.1052  0.0000</r>
       <r>   8.1849  0.0000</r>
       <r>  18.7385  0.0000</r>
       <r>  18.7385  0.0000</r>
       <r>  18.7385  0.0000</r>
       <r>  20.0649  0.0000</r>
      </set>
      <set comment="kpoint 82">
       <r>  -1.9103  1.0000</r>
       <r>  -1.7334  1.0000</r>
       <r>  -1.5842  1.0000</r>
       <r>  -1.5842  1.0000</r>
       <r>  -0.2034  1.0000</r>
       <r>  -0.2034  1.0000</r>
       <r>  -0.1510  1.0000</r>
       <r>  -0.0967  1.0000</r>
       <r>  -0.0658  1.0000</r>
       <r>  -0.0388  1.0000</r>
       <r>  -0.0185  1.0000</r>
       <r>  -0.0185  1.0000</r>
       <r>   0.4481  1.0000</r>
       <r>   0.4481  1.0000</r>
       <r>   0.4592  1.0000</r>
       <r>   0.5846  1.0000</r>
       <r>   0.9476  1.0000</r>
       <r>   0.9800  1.0000</r>
       <r>   0.9800  1.0000</r>
       <r>   0.9866  1.0000</r>
       <r>   1.1819  1.0000</r>
       <r>   1.8455  1.0000</r>
       <r>   2.7614  0.0000</r>
       <r>   2.7614  0.0000</r>
       <r>   5.6543  0.0000</r>
       <r>   5.6543  0.0000</r>
       <r>   6.6423  0.0000</r>
       <r>   7.3425  0.0000</r>
       <r>  19.2949  0.0000</r>
       <r>  19.2949  0.0000</r>
       <r>  19.9010  0.0000</r>
       <r>  19.9010  0.0000</r>
      </set>
      <set comment="kpoint 83">
       <r>  -1.8105  1.0000</r>
       <r>  -1.7032  1.0000</r>
       <r>  -1.7032  1.0000</r>
       <r>  -1.6543  1.0000</r>
       <r>  -0.1615  1.0000</r>
       <r>  -0.1442  1.0000</r>
       <r>  -0.1442  1.0000</r>
       <r>  -0.1057  1.0000</r>
       <r>  -0.0848  1.0000</r>
       <r>  -0.0657  1.0000</r>
       <r>  -0.0657  1.0000</r>
       <r>  -0.0590  1.0000</r>
       <r>   0.6210  1.0000</r>
       <r>   0.6423  1.0000</r>
       <r>   0.6423  1.0000</r>
       <r>   0.7694  1.0000</r>
       <r>   0.9313  1.0000</r>
       <r>   0.9710  1.0000</r>
       <r>   0.9710  1.0000</r>
       <r>   0.9712  1.0000</r>
       <r>   1.5034  1.0000</r>
       <r>   2.1077  1.0000</r>
       <r>   2.1077  1.0000</r>
       <r>   2.4696  0.9795</r>
       <r>   5.6083  0.0000</r>
       <r>   5.9784  0.0000</r>
       <r>   5.9784  0.0000</r>
       <r>   6.5649  0.0000</r>
       <r>  19.8611  0.0000</r>
       <r>  20.4824  0.0000</r>
       <r>  20.4824  0.0000</r>
       <r>  21.1424  0.0000</r>
      </set>
      <set comment="kpoint 84">
       <r>  -1.7789  1.0000</r>
       <r>  -1.7275  1.0000</r>
       <r>  -1.7275  1.0000</r>
       <r>  -1.7275  1.0000</r>
       <r>  -0.1236  1.0000</r>
       <r>  -0.1236  1.0000</r>
       <r>  -0.1236  1.0000</r>
       <r>  -0.1050  1.0000</r>
       <r>  -0.1050  1.0000</r>
       <r>  -0.0962  1.0000</r>
       <r>  -0.0962  1.0000</r>
       <r>  -0.0962  1.0000</r>
       <r>   0.8567  1.0000</r>
       <r>   0.8567  1.0000</r>
       <r>   0.8567  1.0000</r>
       <r>   0.9757  1.0000</r>
       <r>   0.9757  1.0000</r>
       <r>   0.9892  1.0000</r>
       <r>   0.9892  1.0000</r>
       <r>   0.9892  1.0000</r>
       <r>   1.6638  1.0000</r>
       <r>   2.0910  1.0000</r>
       <r>   2.0910  1.0000</r>
       <r>   2.0910  1.0000</r>
       <r>   5.5634  0.0000</r>
       <r>   5.5634  0.0000</r>
       <r>   5.5634  0.0000</r>
       <r>   5.9175  0.0000</r>
       <r>  21.6155  0.0000</r>
       <r>  21.6156  0.0000</r>
       <r>  21.6166  0.0000</r>
       <r>  21.8378  0.0000</r>
      </set>
     </set>
    </set>
   </array>
  </eigenvalues>
 </calculation>
 <structure name="finalpos" >
  <crystal>
   <varray name="basis" >
    <v>       3.81823660      0.00000000      0.00000000</v>
    <v>       0.00000000      3.81823660      0.00000000</v>
    <v>       0.00000000      0.00000000      3.81823660</v>
   </varray>
   <i name="volume">     55.66580702</i>
   <varray name="rec_basis" >
    <v>       0.26190100      0.00000000      0.00000000</v>
    <v>       0.00000000      0.26190100      0.00000000</v>
    <v>       0.00000000      0.00000000      0.26190100</v>
   </varray>
  </crystal>
  <varray name="positions" >
   <v>       0.00000000      0.00000000      0.00000000</v>
   <v>       0.50000000      0.50000000      0.00000000</v>
   <v>       0.50000000      0.00000000      0.50000000</v>
   <v>       0.00000000      0.50000000      0.50000000</v>
  </varray>
 </structure>
</modeling>
