  32  32   0   0
  0.1352261E+02  0.7563745E-09  0.7563745E-09  0.7563745E-09  0.5000000E-15
  1.000000000000000E-004
  CAR 
 unknown system                          
     12.85270045     -6.53760699  301      2.75264786      1.00000000
     -6.538  0.0000E+00  0.0000E+00
     -6.473  0.0000E+00  0.0000E+00
     -6.408  0.0000E+00  0.0000E+00
     -6.344  0.0000E+00  0.0000E+00
     -6.279  0.0000E+00  0.0000E+00
     -6.214  0.0000E+00  0.0000E+00
     -6.150  0.0000E+00  0.0000E+00
     -6.085  0.0000E+00  0.0000E+00
     -6.021  0.0000E+00  0.0000E+00
     -5.956  0.0000E+00  0.0000E+00
     -5.891  0.0000E+00  0.0000E+00
     -5.827  0.0000E+00  0.0000E+00
     -5.762  0.0000E+00  0.0000E+00
     -5.697  0.2706E-09  0.1749E-10
     -5.633  0.9017E-01  0.5828E-02
     -5.568  0.5416E+00  0.4084E-01
     -5.503  0.1091E+01  0.1114E+00
     -5.439  0.7942E+00  0.1627E+00
     -5.374  0.1732E+01  0.2747E+00
     -5.310  0.2914E+01  0.4630E+00
     -5.245  0.1435E+00  0.4723E+00
     -5.180  0.1083E+01  0.5423E+00
     -5.116  0.2724E+01  0.7183E+00
     -5.051  0.2491E+01  0.8793E+00
     -4.986  0.2332E+01  0.1030E+01
     -4.922  0.2305E+01  0.1179E+01
     -4.857  0.4401E+01  0.1463E+01
     -4.792  0.5647E-03  0.1464E+01
     -4.728  0.9494E+00  0.1525E+01
     -4.663  0.5679E+01  0.1892E+01
     -4.599  0.3590E+01  0.2124E+01
     -4.534  0.2229E+01  0.2268E+01
     -4.469  0.4375E+01  0.2551E+01
     -4.405  0.2121E+01  0.2688E+01
     -4.340  0.1902E+01  0.2811E+01
     -4.275  0.2952E+01  0.3002E+01
     -4.211  0.6516E+01  0.3424E+01
     -4.146  0.2866E+01  0.3609E+01
     -4.082  0.5485E+01  0.3964E+01
     -4.017  0.5312E+01  0.4307E+01
     -3.952  0.3560E-02  0.4309E+01
     -3.888  0.2640E+01  0.4480E+01
     -3.823  0.6825E+01  0.4921E+01
     -3.758  0.4630E+01  0.5220E+01
     -3.694  0.2751E+01  0.5398E+01
     -3.629  0.7661E+01  0.5893E+01
     -3.564  0.9265E+00  0.5953E+01
     -3.500  0.4406E+01  0.6238E+01
     -3.435  0.1001E+02  0.6885E+01
     -3.371  0.2903E+01  0.7073E+01
     -3.306  0.5789E+01  0.7447E+01
     -3.241  0.6733E+01  0.7882E+01
     -3.177  0.1190E+01  0.7959E+01
     -3.112  0.4981E+01  0.8281E+01
     -3.047  0.7447E+01  0.8762E+01
     -2.983  0.4441E+01  0.9050E+01
     -2.918  0.9753E+01  0.9680E+01
     -2.853  0.7481E+01  0.1016E+02
     -2.789  0.6492E+01  0.1058E+02
     -2.724  0.4369E+01  0.1087E+02
     -2.660  0.6606E+01  0.1129E+02
     -2.595  0.4219E+01  0.1157E+02
     -2.530  0.1087E+02  0.1227E+02
     -2.466  0.5978E+01  0.1265E+02
     -2.401  0.1011E+02  0.1331E+02
     -2.336  0.1060E+02  0.1399E+02
     -2.272  0.1101E+02  0.1471E+02
     -2.207  0.3586E+00  0.1473E+02
     -2.142  0.1278E+02  0.1555E+02
     -2.078  0.1045E+02  0.1623E+02
     -2.013  0.1822E+02  0.1741E+02
     -1.949  0.8188E+01  0.1794E+02
     -1.884  0.9964E+01  0.1858E+02
     -1.819  0.1639E+02  0.1964E+02
     -1.755  0.8969E+01  0.2022E+02
     -1.690  0.3194E+02  0.2229E+02
     -1.625  0.1585E+02  0.2331E+02
     -1.561  0.3874E+02  0.2581E+02
     -1.496  0.2035E+02  0.2713E+02
     -1.431  0.3156E+02  0.2917E+02
     -1.367  0.4679E+02  0.3220E+02
     -1.302  0.5015E+02  0.3544E+02
     -1.238  0.3281E+02  0.3757E+02
     -1.173  0.4727E+02  0.4063E+02
     -1.108  0.4591E+02  0.4360E+02
     -1.044  0.5878E+02  0.4739E+02
     -0.979  0.6511E+02  0.5160E+02
     -0.914  0.8191E+02  0.5690E+02
     -0.850  0.8298E+02  0.6227E+02
     -0.785  0.9413E+02  0.6836E+02
     -0.721  0.8416E+02  0.7381E+02
     -0.656  0.8108E+02  0.7905E+02
     -0.591  0.7889E+02  0.8415E+02
     -0.527  0.8939E+02  0.8993E+02
     -0.462  0.8203E+02  0.9524E+02
     -0.397  0.7555E+02  0.1001E+03
     -0.333  0.9904E+02  0.1065E+03
     -0.268  0.1146E+03  0.1139E+03
     -0.203  0.9130E+02  0.1198E+03
     -0.139  0.1414E+03  0.1290E+03
     -0.074  0.1245E+03  0.1370E+03
     -0.010  0.1308E+03  0.1455E+03
      0.055  0.1600E+03  0.1558E+03
      0.120  0.1694E+03  0.1668E+03
      0.184  0.1968E+03  0.1795E+03
      0.249  0.1491E+03  0.1892E+03
      0.314  0.1216E+03  0.1970E+03
      0.378  0.1126E+03  0.2043E+03
      0.443  0.1012E+03  0.2108E+03
      0.508  0.1010E+03  0.2174E+03
      0.572  0.1312E+03  0.2258E+03
      0.637  0.1356E+03  0.2346E+03
      0.701  0.1570E+03  0.2448E+03
      0.766  0.1505E+03  0.2545E+03
      0.831  0.1319E+03  0.2630E+03
      0.895  0.1199E+03  0.2708E+03
      0.960  0.1390E+03  0.2798E+03
      1.025  0.1350E+03  0.2885E+03
      1.089  0.1488E+03  0.2981E+03
      1.154  0.2466E+03  0.3141E+03
      1.219  0.2285E+03  0.3289E+03
      1.283  0.7666E+02  0.3338E+03
      1.348  0.1874E+02  0.3350E+03
      1.412  0.3016E+02  0.3370E+03
      1.477  0.7841E+01  0.3375E+03
      1.542  0.1072E+02  0.3382E+03
      1.606  0.1482E+02  0.3391E+03
      1.671  0.1894E+02  0.3404E+03
      1.736  0.1018E+02  0.3410E+03
      1.800  0.8899E+01  0.3416E+03
      1.865  0.1320E+02  0.3425E+03
      1.929  0.1295E+02  0.3433E+03
      1.994  0.1678E+02  0.3444E+03
      2.059  0.9262E+01  0.3450E+03
      2.123  0.1165E+02  0.3457E+03
      2.188  0.7181E+01  0.3462E+03
      2.253  0.6153E+01  0.3466E+03
      2.317  0.9705E+01  0.3472E+03
      2.382  0.1957E+02  0.3485E+03
      2.447  0.1530E+02  0.3495E+03
      2.511  0.1476E+02  0.3504E+03
      2.576  0.8454E+01  0.3510E+03
      2.640  0.4538E+01  0.3513E+03
      2.705  0.4814E+01  0.3516E+03
      2.770  0.1404E+02  0.3525E+03
      2.834  0.5742E+01  0.3529E+03
      2.899  0.2163E+02  0.3543E+03
      2.964  0.3781E+01  0.3545E+03
      3.028  0.1046E+02  0.3552E+03
      3.093  0.9327E+01  0.3558E+03
      3.158  0.1297E+02  0.3566E+03
      3.222  0.1283E+02  0.3575E+03
      3.287  0.6485E+01  0.3579E+03
      3.351  0.6961E+01  0.3583E+03
      3.416  0.8313E+01  0.3589E+03
      3.481  0.1838E+01  0.3590E+03
      3.545  0.1335E+02  0.3598E+03
      3.610  0.1497E+02  0.3608E+03
      3.675  0.1634E+02  0.3619E+03
      3.739  0.4164E+01  0.3621E+03
      3.804  0.9935E+01  0.3628E+03
      3.869  0.4656E+01  0.3631E+03
      3.933  0.1000E+02  0.3637E+03
      3.998  0.3130E+01  0.3639E+03
      4.062  0.1180E+02  0.3647E+03
      4.127  0.8869E+01  0.3653E+03
      4.192  0.6500E+01  0.3657E+03
      4.256  0.1271E+02  0.3665E+03
      4.321  0.1198E+02  0.3673E+03
      4.386  0.1806E+01  0.3674E+03
      4.450  0.1091E+02  0.3681E+03
      4.515  0.1314E+02  0.3690E+03
      4.580  0.7454E+01  0.3694E+03
      4.644  0.5016E+01  0.3698E+03
      4.709  0.4414E+01  0.3700E+03
      4.773  0.1003E+02  0.3707E+03
      4.838  0.1177E+02  0.3715E+03
      4.903  0.6131E+01  0.3719E+03
      4.967  0.3359E+01  0.3721E+03
      5.032  0.1058E+02  0.3728E+03
      5.097  0.3489E+01  0.3730E+03
      5.161  0.1664E+02  0.3741E+03
      5.226  0.4994E+01  0.3744E+03
      5.290  0.7573E+01  0.3749E+03
      5.355  0.5935E+00  0.3749E+03
      5.420  0.6937E+01  0.3754E+03
      5.484  0.7089E+01  0.3758E+03
      5.549  0.8114E+01  0.3763E+03
      5.614  0.5069E+01  0.3767E+03
      5.678  0.8834E+01  0.3772E+03
      5.743  0.1519E+01  0.3773E+03
      5.808  0.3184E+01  0.3775E+03
      5.872  0.1168E+02  0.3783E+03
      5.937  0.5472E+01  0.3786E+03
      6.001  0.1474E+02  0.3796E+03
      6.066  0.4996E+01  0.3799E+03
      6.131  0.1089E+02  0.3806E+03
      6.195  0.1532E+02  0.3816E+03
      6.260  0.1090E+02  0.3823E+03
      6.325  0.5273E+01  0.3827E+03
      6.389  0.5831E+01  0.3830E+03
      6.454  0.8064E+01  0.3836E+03
      6.519  0.1089E+02  0.3843E+03
      6.583  0.1889E+02  0.3855E+03
      6.648  0.2331E+01  0.3856E+03
      6.712  0.1384E+02  0.3865E+03
      6.777  0.8410E+01  0.3871E+03
      6.842  0.9283E+01  0.3877E+03
      6.906  0.7788E+01  0.3882E+03
      6.971  0.9022E+01  0.3888E+03
      7.036  0.1092E+02  0.3895E+03
      7.100  0.1219E+02  0.3903E+03
      7.165  0.1288E+02  0.3911E+03
      7.230  0.3841E+01  0.3913E+03
      7.294  0.1233E+02  0.3921E+03
      7.359  0.7026E+01  0.3926E+03
      7.423  0.1279E+02  0.3934E+03
      7.488  0.6242E+01  0.3938E+03
      7.553  0.4398E+01  0.3941E+03
      7.617  0.1984E+02  0.3954E+03
      7.682  0.1212E+02  0.3962E+03
      7.747  0.3726E+01  0.3964E+03
      7.811  0.4297E+01  0.3967E+03
      7.876  0.3564E+01  0.3969E+03
      7.940  0.7692E+01  0.3974E+03
      8.005  0.1426E+02  0.3983E+03
      8.070  0.1149E+02  0.3991E+03
      8.134  0.1279E+02  0.3999E+03
      8.199  0.5073E+01  0.4002E+03
      8.264  0.3822E+01  0.4005E+03
      8.328  0.1464E+02  0.4014E+03
      8.393  0.8932E+01  0.4020E+03
      8.458  0.1026E+01  0.4021E+03
      8.522  0.7825E+01  0.4026E+03
      8.587  0.7834E+01  0.4031E+03
      8.651  0.1362E+02  0.4040E+03
      8.716  0.6328E+01  0.4044E+03
      8.781  0.1032E+02  0.4051E+03
      8.845  0.9408E+01  0.4057E+03
      8.910  0.8586E+01  0.4062E+03
      8.975  0.1886E+01  0.4063E+03
      9.039  0.8542E+01  0.4069E+03
      9.104  0.7107E+01  0.4074E+03
      9.169  0.1315E+02  0.4082E+03
      9.233  0.1419E+02  0.4091E+03
      9.298  0.9124E+01  0.4097E+03
      9.362  0.5932E+01  0.4101E+03
      9.427  0.6536E+01  0.4105E+03
      9.492  0.1678E+02  0.4116E+03
      9.556  0.1215E+02  0.4124E+03
      9.621  0.1460E+02  0.4133E+03
      9.686  0.1273E+02  0.4142E+03
      9.750  0.1730E+02  0.4153E+03
      9.815  0.7228E+01  0.4157E+03
      9.880  0.8866E+01  0.4163E+03
      9.944  0.1156E+02  0.4171E+03
     10.009  0.9028E+01  0.4176E+03
     10.073  0.1099E+02  0.4184E+03
     10.138  0.1179E+02  0.4191E+03
     10.203  0.1710E+02  0.4202E+03
     10.267  0.2546E+01  0.4204E+03
     10.332  0.1627E+02  0.4214E+03
     10.397  0.6840E+01  0.4219E+03
     10.461  0.1398E+02  0.4228E+03
     10.526  0.1412E+02  0.4237E+03
     10.590  0.6346E+01  0.4241E+03
     10.655  0.8779E+01  0.4247E+03
     10.720  0.2162E+02  0.4261E+03
     10.784  0.1104E+02  0.4268E+03
     10.849  0.6350E+01  0.4272E+03
     10.914  0.1325E+02  0.4281E+03
     10.978  0.9119E+01  0.4286E+03
     11.043  0.1468E+02  0.4296E+03
     11.108  0.8738E+01  0.4302E+03
     11.172  0.3205E+01  0.4304E+03
     11.237  0.9338E+01  0.4310E+03
     11.301  0.2292E+01  0.4311E+03
     11.366  0.3472E+01  0.4313E+03
     11.431  0.1702E+01  0.4315E+03
     11.495  0.4766E+01  0.4318E+03
     11.560  0.3399E-08  0.4318E+03
     11.625  0.1443E+01  0.4319E+03
     11.689  0.0000E+00  0.4319E+03
     11.754  0.0000E+00  0.4319E+03
     11.819  0.0000E+00  0.4319E+03
     11.883  0.0000E+00  0.4319E+03
     11.948  0.8151E-02  0.4319E+03
     12.012  0.2157E+01  0.4320E+03
     12.077  0.0000E+00  0.4320E+03
     12.142  0.0000E+00  0.4320E+03
     12.206  0.0000E+00  0.4320E+03
     12.271  0.0000E+00  0.4320E+03
     12.336  0.0000E+00  0.4320E+03
     12.400  0.0000E+00  0.4320E+03
     12.465  0.0000E+00  0.4320E+03
     12.530  0.0000E+00  0.4320E+03
     12.594  0.0000E+00  0.4320E+03
     12.659  0.0000E+00  0.4320E+03
     12.723  0.0000E+00  0.4320E+03
     12.788  0.0000E+00  0.4320E+03
     12.853  0.0000E+00  0.4320E+03
