   32   32    1    1
  0.1352261E+02  0.7563745E-09  0.7563745E-09  0.7563745E-09  0.5000000E-15
  1.000000000000000E-004
  CAR 
 unknown system                          
  352   20  216
 
  0.0000000E+00  0.0000000E+00  0.0000000E+00  0.2915452E-02
   1       -5.6562
   2       -3.1165
   3       -3.1165
   4       -3.1165
   5       -3.1165
   6       -3.1165
   7       -3.1165
   8       -1.6771
   9       -1.6771
  10       -1.6771
  11       -1.6771
  12       -1.4537
  13       -1.4537
  14       -1.4537
  15       -1.3696
  16       -1.3696
  17       -1.3696
  18       -1.3696
  19       -1.3696
  20       -1.3696
  21       -1.3696
  22       -1.3696
  23       -1.3696
  24       -1.3696
  25       -1.3696
  26       -1.3696
  27       -1.0825
  28       -1.0825
  29       -1.0825
  30       -0.8288
  31       -0.8288
  32       -0.8288
  33       -0.8288
  34       -0.8288
  35       -0.8288
  36       -0.5315
  37       -0.5315
  38       -0.5315
  39       -0.5315
  40       -0.5315
  41       -0.5315
  42       -0.3507
  43       -0.3507
  44       -0.3507
  45       -0.3507
  46       -0.3507
  47       -0.3507
  48       -0.3507
  49       -0.3507
  50       -0.3507
  51       -0.3507
  52       -0.3507
  53       -0.3507
  54       -0.3503
  55       -0.3503
  56       -0.3503
  57       -0.3503
  58       -0.3503
  59       -0.3503
  60       -0.3503
  61       -0.3503
  62       -0.3503
  63       -0.3503
  64       -0.3503
  65       -0.3503
  66       -0.1754
  67       -0.1754
  68       -0.1754
  69       -0.1754
  70       -0.1754
  71       -0.1754
  72       -0.1754
  73       -0.1754
  74       -0.1754
  75       -0.1754
  76       -0.1754
  77       -0.1754
  78        0.0217
  79        0.0217
  80        0.0217
  81        0.0217
  82        0.0217
  83        0.0217
  84        0.0217
  85        0.0217
  86        0.0422
  87        0.0422
  88        0.0422
  89        0.3536
  90        0.3536
  91        0.3536
  92        0.3536
  93        0.3536
  94        0.3536
  95        0.4570
  96        0.4570
  97        0.4570
  98        0.4570
  99        0.4570
 100        0.4570
 101        0.4570
 102        0.4570
 103        0.4570
 104        0.4570
 105        0.4570
 106        0.4570
 107        0.5815
 108        0.5815
 109        0.5815
 110        0.5815
 111        0.5815
 112        0.5815
 113        0.5815
 114        0.5815
 115        0.5815
 116        0.5815
 117        0.5815
 118        0.5815
 119        0.6859
 120        0.6859
 121        0.6859
 122        0.6859
 123        0.6859
 124        0.6859
 125        0.7100
 126        0.7100
 127        0.7100
 128        0.7100
 129        0.7100
 130        0.7100
 131        0.7100
 132        0.7100
 133        0.7100
 134        0.7100
 135        0.7100
 136        0.7100
 137        0.7127
 138        0.7127
 139        0.9340
 140        0.9340
 141        0.9340
 142        0.9340
 143        0.9340
 144        0.9340
 145        1.1592
 146        1.1592
 147        1.1592
 148        1.1710
 149        1.1710
 150        1.1710
 151        1.1710
 152        1.1710
 153        1.1710
 154        1.1710
 155        1.1710
 156        1.2841
 157        1.2841
 158        1.2841
 159        1.2841
 160        1.2841
 161        1.2841
 162        1.2847
 163        1.2847
 164        1.2847
 165        1.2847
 166        1.2847
 167        1.2847
 168        2.0917
 169        2.0917
 170        2.0917
 171        2.0917
 172        2.3328
 173        2.3328
 174        2.3328
 175        2.3328
 176        2.3328
 177        2.3328
 178        2.3328
 179        2.3328
 180        2.3328
 181        2.3328
 182        2.3328
 183        2.3328
 184        4.3189
 185        4.3189
 186        4.3189
 187        5.8289
 188        5.8289
 189        5.8289
 190        5.8289
 191        8.4461
 192        8.4461
 193        8.4461
 194        8.4461
 195        8.4461
 196        8.4461
 197        8.4461
 198        8.4461
 199        8.4461
 200        8.4461
 201        8.4461
 202        8.4461
 203        8.9263
 204        8.9263
 205        8.9263
 206       10.3494
 207       10.3494
 208       10.3494
 209       10.3494
 210       10.3494
 211       10.3495
 212       10.4062
 213       10.4062
 214       10.4062
 215       10.4062
 216       10.4062
 
  0.1428571E+00  0.0000000E+00  0.0000000E+00  0.1749271E-01
   1       -5.5999
   2       -3.7303
   3       -3.0702
   4       -3.0702
   5       -3.0702
   6       -3.0702
   7       -2.5064
   8       -1.7126
   9       -1.7126
  10       -1.7126
  11       -1.7126
  12       -1.6659
  13       -1.6659
  14       -1.6659
  15       -1.6659
  16       -1.4555
  17       -1.4290
  18       -1.4290
  19       -1.3923
  20       -1.3923
  21       -1.3923
  22       -1.3923
  23       -1.0803
  24       -1.0803
  25       -1.0803
  26       -1.0803
  27       -1.0690
  28       -1.0682
  29       -1.0682
  30       -0.8700
  31       -0.8700
  32       -0.8102
  33       -0.8102
  34       -0.8102
  35       -0.8102
  36       -0.6561
  37       -0.5492
  38       -0.5492
  39       -0.5256
  40       -0.5256
  41       -0.5256
  42       -0.5256
  43       -0.4058
  44       -0.3768
  45       -0.3768
  46       -0.3768
  47       -0.3768
  48       -0.3714
  49       -0.3714
  50       -0.3714
  51       -0.3714
  52       -0.3487
  53       -0.3487
  54       -0.3487
  55       -0.3487
  56       -0.3341
  57       -0.3341
  58       -0.3341
  59       -0.3341
  60       -0.2914
  61       -0.2914
  62       -0.2914
  63       -0.2914
  64       -0.2793
  65       -0.2793
  66       -0.2793
  67       -0.2793
  68       -0.1646
  69       -0.1646
  70       -0.1646
  71       -0.1646
  72       -0.1205
  73       -0.1205
  74       -0.1022
  75       -0.1022
  76       -0.1022
  77       -0.1022
  78        0.0128
  79        0.0128
  80        0.0128
  81        0.0128
  82        0.0275
  83        0.0348
  84        0.0348
  85        0.0348
  86        0.0348
  87        0.0543
  88        0.0543
  89        0.2910
  90        0.2910
  91        0.2910
  92        0.2910
  93        0.3755
  94        0.4065
  95        0.4065
  96        0.4065
  97        0.4065
  98        0.4362
  99        0.4500
 100        0.4500
 101        0.4667
 102        0.4667
 103        0.4667
 104        0.4667
 105        0.5008
 106        0.5008
 107        0.5008
 108        0.5008
 109        0.5813
 110        0.5813
 111        0.5813
 112        0.5813
 113        0.6327
 114        0.6327
 115        0.6327
 116        0.6327
 117        0.6514
 118        0.6514
 119        0.6514
 120        0.6514
 121        0.6862
 122        0.6862
 123        0.6862
 124        0.6862
 125        0.6994
 126        0.7182
 127        0.7196
 128        0.7196
 129        0.7208
 130        0.7208
 131        0.7617
 132        0.7617
 133        0.7617
 134        0.7617
 135        0.7909
 136        0.7909
 137        0.7909
 138        0.7909
 139        0.8844
 140        0.9510
 141        0.9510
 142        0.9510
 143        0.9510
 144        0.9837
 145        1.0441
 146        1.0441
 147        1.0441
 148        1.0441
 149        1.1421
 150        1.1421
 151        1.1535
 152        1.1566
 153        1.1566
 154        1.1566
 155        1.1566
 156        1.2014
 157        1.2014
 158        1.2627
 159        1.2627
 160        1.2627
 161        1.2627
 162        1.2637
 163        1.2637
 164        1.2842
 165        1.2842
 166        1.2847
 167        1.2847
 168        1.9381
 169        1.9381
 170        1.9381
 171        1.9381
 172        2.1382
 173        2.1382
 174        2.1382
 175        2.1382
 176        2.3307
 177        2.3307
 178        2.3307
 179        2.3307
 180        2.8586
 181        2.8586
 182        2.8586
 183        2.8586
 184        3.9181
 185        4.4534
 186        4.4534
 187        6.0103
 188        6.0103
 189        6.0103
 190        6.0103
 191        7.5635
 192        7.5635
 193        7.7026
 194        7.7026
 195        7.7026
 196        7.7026
 197        8.5206
 198        8.5206
 199        8.5206
 200        8.5206
 201        8.9503
 202        8.9503
 203        9.3885
 204        9.3885
 205        9.4439
 206        9.9423
 207        9.9423
 208       10.4174
 209       10.4174
 210       10.4174
 211       10.4174
 212       10.6381
 213       10.6381
 214       10.6381
 215       10.6382
 216       10.8513
 
  0.2857143E+00  0.0000000E+00  0.0000000E+00  0.1749271E-01
   1       -5.4315
   2       -4.2913
   3       -2.9331
   4       -2.9331
   5       -2.9331
   6       -2.9331
   7       -2.0755
   8       -2.0755
   9       -2.0755
  10       -2.0755
  11       -1.9957
  12       -1.6331
  13       -1.6331
  14       -1.6331
  15       -1.6331
  16       -1.4690
  17       -1.4485
  18       -1.4485
  19       -1.4485
  20       -1.4485
  21       -1.3577
  22       -1.3577
  23       -1.0289
  24       -1.0250
  25       -1.0250
  26       -0.9766
  27       -0.9766
  28       -0.8575
  29       -0.8575
  30       -0.8575
  31       -0.8575
  32       -0.7734
  33       -0.7573
  34       -0.7573
  35       -0.7573
  36       -0.7573
  37       -0.7154
  38       -0.7154
  39       -0.5082
  40       -0.5082
  41       -0.5082
  42       -0.5082
  43       -0.4296
  44       -0.4296
  45       -0.4296
  46       -0.4296
  47       -0.4107
  48       -0.4107
  49       -0.4107
  50       -0.4107
  51       -0.4011
  52       -0.4011
  53       -0.4011
  54       -0.4011
  55       -0.3434
  56       -0.3434
  57       -0.3434
  58       -0.3434
  59       -0.3282
  60       -0.3282
  61       -0.3282
  62       -0.3282
  63       -0.2854
  64       -0.1354
  65       -0.1354
  66       -0.1354
  67       -0.1354
  68       -0.1262
  69       -0.1262
  70       -0.1262
  71       -0.1262
  72       -0.0479
  73       -0.0479
  74       -0.0479
  75       -0.0479
  76       -0.0156
  77       -0.0126
  78       -0.0126
  79       -0.0126
  80       -0.0126
  81        0.0733
  82        0.0733
  83        0.0733
  84        0.0733
  85        0.0902
  86        0.0902
  87        0.1389
  88        0.1389
  89        0.1854
  90        0.1854
  91        0.1854
  92        0.1854
  93        0.3119
  94        0.3119
  95        0.3119
  96        0.3119
  97        0.3317
  98        0.3317
  99        0.4428
 100        0.5236
 101        0.5236
 102        0.5236
 103        0.5236
 104        0.5693
 105        0.5693
 106        0.5693
 107        0.5693
 108        0.5816
 109        0.5816
 110        0.5816
 111        0.5816
 112        0.6141
 113        0.6141
 114        0.6141
 115        0.6141
 116        0.6606
 117        0.6784
 118        0.6784
 119        0.6784
 120        0.6784
 121        0.6832
 122        0.6832
 123        0.6832
 124        0.6832
 125        0.7193
 126        0.7345
 127        0.7561
 128        0.7561
 129        0.7561
 130        0.7561
 131        0.8051
 132        0.8051
 133        0.8375
 134        0.8599
 135        0.8599
 136        0.8599
 137        0.8599
 138        0.8612
 139        0.8612
 140        0.8906
 141        0.8906
 142        0.8906
 143        0.8906
 144        0.9892
 145        0.9892
 146        1.0294
 147        1.0294
 148        1.0294
 149        1.0294
 150        1.0312
 151        1.0917
 152        1.0917
 153        1.1145
 154        1.1145
 155        1.1145
 156        1.1145
 157        1.1368
 158        1.2005
 159        1.2005
 160        1.2005
 161        1.2005
 162        1.2045
 163        1.2045
 164        1.2842
 165        1.2842
 166        1.2846
 167        1.2846
 168        1.6339
 169        1.6339
 170        1.6339
 171        1.6339
 172        2.2165
 173        2.2165
 174        2.2165
 175        2.2165
 176        2.3232
 177        2.3232
 178        2.3232
 179        2.3232
 180        3.0482
 181        3.5460
 182        3.5460
 183        3.5460
 184        3.5460
 185        4.8206
 186        4.8206
 187        6.5225
 188        6.5225
 189        6.5225
 190        6.5225
 191        6.5318
 192        6.5318
 193        6.5318
 194        6.5318
 195        6.7471
 196        6.7471
 197        8.7403
 198        8.7403
 199        8.7403
 200        8.7403
 201        9.0239
 202        9.0239
 203        9.4008
 204        9.4008
 205        9.4008
 206        9.4008
 207        9.6007
 208        9.6007
 209       10.1623
 210       10.1623
 211       10.1623
 212       10.1623
 213       10.3846
 214       10.3846
 215       10.5478
 216       10.5478
 
  0.4285714E+00  0.0000000E+00  0.0000000E+00  0.1749271E-01
   1       -5.1536
   2       -4.7707
   3       -2.7119
   4       -2.7119
   5       -2.7119
   6       -2.7119
   7       -2.4190
   8       -2.4190
   9       -2.4190
  10       -2.4190
  11       -1.6722
  12       -1.5816
  13       -1.5816
  14       -1.5816
  15       -1.5816
  16       -1.5220
  17       -1.5170
  18       -1.5170
  19       -1.5170
  20       -1.5170
  21       -1.2476
  22       -1.2476
  23       -1.1131
  24       -1.1131
  25       -0.9642
  26       -0.9524
  27       -0.9524
  28       -0.8777
  29       -0.8495
  30       -0.8495
  31       -0.7018
  32       -0.7018
  33       -0.7018
  34       -0.7018
  35       -0.6848
  36       -0.6848
  37       -0.6848
  38       -0.6848
  39       -0.5116
  40       -0.5116
  41       -0.5116
  42       -0.5116
  43       -0.5106
  44       -0.5106
  45       -0.5106
  46       -0.5106
  47       -0.4811
  48       -0.4811
  49       -0.4811
  50       -0.4811
  51       -0.4472
  52       -0.4472
  53       -0.4472
  54       -0.4472
  55       -0.3363
  56       -0.3363
  57       -0.3363
  58       -0.3363
  59       -0.3301
  60       -0.3301
  61       -0.3301
  62       -0.3301
  63       -0.1765
  64       -0.0941
  65       -0.0941
  66       -0.0941
  67       -0.0941
  68       -0.0849
  69       -0.0504
  70       -0.0504
  71       -0.0504
  72       -0.0504
  73        0.0112
  74        0.0112
  75        0.0112
  76        0.0112
  77        0.0886
  78        0.0886
  79        0.0886
  80        0.0886
  81        0.1213
  82        0.1213
  83        0.1213
  84        0.1213
  85        0.1353
  86        0.1353
  87        0.1353
  88        0.1353
  89        0.1494
  90        0.1494
  91        0.2169
  92        0.2169
  93        0.2169
  94        0.2169
  95        0.2305
  96        0.2305
  97        0.4211
  98        0.4211
  99        0.4270
 100        0.4270
 101        0.4270
 102        0.4270
 103        0.5237
 104        0.5844
 105        0.5844
 106        0.5844
 107        0.5844
 108        0.5936
 109        0.5936
 110        0.5936
 111        0.5936
 112        0.5967
 113        0.5967
 114        0.5967
 115        0.5967
 116        0.5999
 117        0.6298
 118        0.6298
 119        0.6298
 120        0.6298
 121        0.6576
 122        0.6576
 123        0.6576
 124        0.6576
 125        0.6673
 126        0.6673
 127        0.6673
 128        0.6673
 129        0.7132
 130        0.7132
 131        0.7607
 132        0.7956
 133        0.9112
 134        0.9112
 135        0.9600
 136        0.9600
 137        0.9600
 138        0.9600
 139        0.9947
 140        0.9947
 141        1.0005
 142        1.0005
 143        1.0005
 144        1.0005
 145        1.0120
 146        1.0120
 147        1.0474
 148        1.0474
 149        1.0474
 150        1.0474
 151        1.0739
 152        1.1085
 153        1.1085
 154        1.1085
 155        1.1085
 156        1.1097
 157        1.1121
 158        1.1122
 159        1.1836
 160        1.1836
 161        1.1836
 162        1.1836
 163        1.2843
 164        1.2843
 165        1.2845
 166        1.2845
 167        1.2856
 168        1.3875
 169        1.3875
 170        1.3875
 171        1.3875
 172        2.1038
 173        2.2737
 174        2.2737
 175        2.2737
 176        2.2737
 177        2.3065
 178        2.3065
 179        2.3065
 180        2.3065
 181        4.4004
 182        4.4004
 183        4.4004
 184        4.4004
 185        5.3543
 186        5.3543
 187        5.4060
 188        5.4060
 189        5.4060
 190        5.4060
 191        6.0056
 192        6.0056
 193        7.2975
 194        7.2975
 195        7.2975
 196        7.2975
 197        8.2722
 198        8.2722
 199        8.2722
 200        8.2722
 201        9.0957
 202        9.0957
 203        9.0957
 204        9.0957
 205        9.1516
 206        9.1516
 207        9.3407
 208        9.3407
 209        9.5739
 210        9.5739
 211        9.5739
 212        9.5739
 213       10.7662
 214       10.7662
 215       10.7662
 216       10.7663
 
  0.1428571E+00  0.1428571E+00  0.0000000E+00  0.3498542E-01
   1       -5.5436
   2       -3.6808
   3       -3.6808
   4       -3.0246
   5       -3.0246
   6       -2.4641
   7       -2.4641
   8       -2.1482
   9       -1.7137
  10       -1.7137
  11       -1.7137
  12       -1.7137
  13       -1.7008
  14       -1.7008
  15       -1.6114
  16       -1.6114
  17       -1.4304
  18       -1.4304
  19       -1.4049
  20       -1.3186
  21       -1.3186
  22       -1.1229
  23       -1.1229
  24       -1.1229
  25       -1.1229
  26       -1.0548
  27       -1.0548
  28       -1.0542
  29       -0.9061
  30       -0.8555
  31       -0.8555
  32       -0.8506
  33       -0.8506
  34       -0.7914
  35       -0.7914
  36       -0.6481
  37       -0.6481
  38       -0.5595
  39       -0.5595
  40       -0.5437
  41       -0.5437
  42       -0.5190
  43       -0.5190
  44       -0.4183
  45       -0.4183
  46       -0.4037
  47       -0.4037
  48       -0.4019
  49       -0.4019
  50       -0.3632
  51       -0.3603
  52       -0.3306
  53       -0.3306
  54       -0.3306
  55       -0.3306
  56       -0.3194
  57       -0.3194
  58       -0.2801
  59       -0.2801
  60       -0.2801
  61       -0.2801
  62       -0.2699
  63       -0.2546
  64       -0.2546
  65       -0.2546
  66       -0.2546
  67       -0.2145
  68       -0.2145
  69       -0.1489
  70       -0.1489
  71       -0.1231
  72       -0.1231
  73       -0.0943
  74       -0.0943
  75       -0.0943
  76       -0.0943
  77       -0.0148
  78       -0.0148
  79       -0.0128
  80        0.0168
  81        0.0168
  82        0.0195
  83        0.0440
  84        0.0440
  85        0.0571
  86        0.0571
  87        0.0600
  88        0.0654
  89        0.2524
  90        0.2524
  91        0.3047
  92        0.3047
  93        0.3465
  94        0.3465
  95        0.4054
  96        0.4054
  97        0.4054
  98        0.4054
  99        0.4401
 100        0.4501
 101        0.4501
 102        0.4539
 103        0.4539
 104        0.4539
 105        0.4539
 106        0.5157
 107        0.5157
 108        0.5184
 109        0.5376
 110        0.5376
 111        0.5398
 112        0.5398
 113        0.5689
 114        0.6837
 115        0.6837
 116        0.6958
 117        0.7106
 118        0.7106
 119        0.7150
 120        0.7162
 121        0.7162
 122        0.7168
 123        0.7168
 124        0.7168
 125        0.7168
 126        0.7205
 127        0.7205
 128        0.7232
 129        0.7232
 130        0.7549
 131        0.7549
 132        0.7874
 133        0.7874
 134        0.8366
 135        0.8366
 136        0.8366
 137        0.8366
 138        0.8463
 139        0.8796
 140        0.8796
 141        0.8942
 142        0.8942
 143        0.9588
 144        0.9588
 145        0.9815
 146        0.9815
 147        1.0140
 148        1.0140
 149        1.1255
 150        1.1263
 151        1.1263
 152        1.1379
 153        1.1639
 154        1.1639
 155        1.1658
 156        1.1658
 157        1.1880
 158        1.1880
 159        1.2437
 160        1.2437
 161        1.2623
 162        1.2623
 163        1.2630
 164        1.2630
 165        1.2637
 166        1.2637
 167        1.2710
 168        1.6256
 169        1.8560
 170        1.8560
 171        1.9310
 172        1.9310
 173        1.9310
 174        1.9310
 175        2.3732
 176        2.3732
 177        2.5011
 178        2.5011
 179        2.8655
 180        2.8655
 181        2.8655
 182        2.8655
 183        3.4708
 184        4.0493
 185        4.0493
 186        4.5819
 187        5.8638
 188        5.8638
 189        6.4632
 190        6.4632
 191        6.9135
 192        6.9135
 193        7.6423
 194        7.6423
 195        7.6532
 196        7.6532
 197        7.8889
 198        7.8889
 199        8.5468
 200        8.5468
 201        8.9747
 202        9.4600
 203        9.4600
 204        9.4742
 205        9.4742
 206        9.9176
 207        9.9176
 208        9.9176
 209        9.9176
 210        9.9810
 211        9.9810
 212       10.0558
 213       10.6954
 214       10.6954
 215       10.9723
 216       10.9723
 
  0.2857143E+00  0.1428571E+00  0.0000000E+00  0.6997085E-01
   1       -5.3758
   2       -4.2394
   3       -3.5336
   4       -2.8903
   5       -2.8903
   6       -2.5801
   7       -2.3398
   8       -2.0586
   9       -2.0586
  10       -1.9580
  11       -1.7187
  12       -1.7187
  13       -1.7170
  14       -1.7170
  15       -1.6003
  16       -1.5367
  17       -1.5367
  18       -1.4424
  19       -1.3576
  20       -1.3350
  21       -1.2212
  22       -1.2212
  23       -1.0154
  24       -1.0122
  25       -1.0120
  26       -1.0072
  27       -0.9668
  28       -0.9584
  29       -0.9119
  30       -0.9119
  31       -0.8171
  32       -0.7943
  33       -0.7877
  34       -0.7636
  35       -0.7376
  36       -0.7376
  37       -0.7150
  38       -0.7072
  39       -0.6246
  40       -0.5889
  41       -0.5277
  42       -0.4996
  43       -0.4996
  44       -0.4950
  45       -0.4950
  46       -0.4723
  47       -0.4714
  48       -0.4367
  49       -0.3933
  50       -0.3933
  51       -0.3912
  52       -0.3789
  53       -0.3789
  54       -0.3562
  55       -0.3218
  56       -0.2928
  57       -0.2928
  58       -0.2835
  59       -0.2565
  60       -0.2565
  61       -0.2307
  62       -0.2307
  63       -0.2260
  64       -0.2163
  65       -0.1920
  66       -0.1920
  67       -0.1461
  68       -0.1319
  69       -0.1007
  70       -0.1007
  71       -0.0727
  72       -0.0727
  73       -0.0587
  74       -0.0587
  75       -0.0427
  76       -0.0427
  77       -0.0197
  78        0.0067
  79        0.0067
  80        0.0453
  81        0.0764
  82        0.0764
  83        0.0925
  84        0.0986
  85        0.1041
  86        0.1041
  87        0.1046
  88        0.1300
  89        0.1695
  90        0.1695
  91        0.1983
  92        0.2173
  93        0.2926
  94        0.3054
  95        0.3054
  96        0.3321
  97        0.3604
  98        0.3604
  99        0.4363
 100        0.4363
 101        0.4515
 102        0.4678
 103        0.4818
 104        0.5108
 105        0.5116
 106        0.5116
 107        0.5261
 108        0.5261
 109        0.5314
 110        0.5720
 111        0.5731
 112        0.6124
 113        0.6195
 114        0.6403
 115        0.6403
 116        0.6617
 117        0.6725
 118        0.6725
 119        0.6980
 120        0.6980
 121        0.7037
 122        0.7092
 123        0.7092
 124        0.7199
 125        0.7273
 126        0.7292
 127        0.7342
 128        0.7788
 129        0.7788
 130        0.7982
 131        0.8104
 132        0.8156
 133        0.8285
 134        0.8285
 135        0.8420
 136        0.8608
 137        0.8723
 138        0.9222
 139        0.9262
 140        0.9262
 141        0.9280
 142        0.9280
 143        0.9408
 144        0.9460
 145        0.9474
 146        0.9683
 147        1.0207
 148        1.0207
 149        1.0692
 150        1.0766
 151        1.0998
 152        1.1215
 153        1.1222
 154        1.1222
 155        1.1440
 156        1.1440
 157        1.1576
 158        1.1578
 159        1.1908
 160        1.1908
 161        1.2004
 162        1.2011
 163        1.2044
 164        1.2620
 165        1.2633
 166        1.2637
 167        1.2639
 168        1.3888
 169        1.6250
 170        1.6250
 171        1.7898
 172        1.7898
 173        1.9094
 174        1.9094
 175        1.9845
 176        2.7636
 177        2.7636
 178        2.8826
 179        2.8826
 180        2.9766
 181        3.1827
 182        3.5637
 183        3.5637
 184        4.2280
 185        4.4018
 186        4.9362
 187        5.8060
 188        6.0991
 189        6.0991
 190        6.1793
 191        6.5674
 192        6.5674
 193        6.8316
 194        7.1486
 195        7.1486
 196        7.3278
 197        7.8737
 198        7.9988
 199        7.9988
 200        8.7036
 201        8.7036
 202        9.0494
 203        9.2871
 204        9.2871
 205        9.3504
 206        9.4432
 207        9.5669
 208        9.6427
 209        9.6713
 210       10.0970
 211       10.1925
 212       10.1925
 213       10.2853
 214       10.4541
 215       10.7088
 216       10.9463
 
  0.4285714E+00  0.1428571E+00  0.0000000E+00  0.6997085E-01
   1       -5.0986
   2       -4.7170
   3       -3.2937
   4       -2.9705
   5       -2.6741
   6       -2.6741
   7       -2.3895
   8       -2.3895
   9       -2.1421
  10       -1.8869
  11       -1.7239
  12       -1.7239
  13       -1.7215
  14       -1.7215
  15       -1.6391
  16       -1.4927
  17       -1.4431
  18       -1.4431
  19       -1.3349
  20       -1.3349
  21       -1.2452
  22       -1.2270
  23       -1.1074
  24       -1.0945
  25       -0.9516
  26       -0.9413
  27       -0.9406
  28       -0.8664
  29       -0.8420
  30       -0.8392
  31       -0.8173
  32       -0.7791
  33       -0.7510
  34       -0.7510
  35       -0.7101
  36       -0.7065
  37       -0.6725
  38       -0.6725
  39       -0.6315
  40       -0.5875
  41       -0.5862
  42       -0.5756
  43       -0.5756
  44       -0.5345
  45       -0.5151
  46       -0.5151
  47       -0.5026
  48       -0.4712
  49       -0.4683
  50       -0.4683
  51       -0.4270
  52       -0.4270
  53       -0.3767
  54       -0.3760
  55       -0.3631
  56       -0.3249
  57       -0.2736
  58       -0.2736
  59       -0.2610
  60       -0.2610
  61       -0.1766
  62       -0.1760
  63       -0.1751
  64       -0.1751
  65       -0.1486
  66       -0.1145
  67       -0.1145
  68       -0.0869
  69       -0.0564
  70       -0.0442
  71       -0.0442
  72       -0.0150
  73       -0.0150
  74        0.0128
  75        0.0128
  76        0.0363
  77        0.0363
  78        0.0594
  79        0.0840
  80        0.0840
  81        0.0908
  82        0.1201
  83        0.1201
  84        0.1303
  85        0.1303
  86        0.1453
  87        0.1507
  88        0.1525
  89        0.1724
  90        0.1724
  91        0.2135
  92        0.2135
  93        0.2230
  94        0.2313
  95        0.2641
  96        0.2641
  97        0.3506
  98        0.3506
  99        0.3792
 100        0.3792
 101        0.3827
 102        0.4040
 103        0.4581
 104        0.4686
 105        0.4686
 106        0.4757
 107        0.4918
 108        0.4918
 109        0.5231
 110        0.5353
 111        0.5690
 112        0.5951
 113        0.5951
 114        0.6042
 115        0.6324
 116        0.6450
 117        0.6450
 118        0.6725
 119        0.6771
 120        0.6835
 121        0.6849
 122        0.6975
 123        0.7182
 124        0.7204
 125        0.7241
 126        0.7347
 127        0.7347
 128        0.7574
 129        0.7710
 130        0.7710
 131        0.7717
 132        0.7803
 133        0.7957
 134        0.9011
 135        0.9169
 136        0.9406
 137        0.9406
 138        0.9587
 139        0.9937
 140        0.9943
 141        0.9992
 142        1.0144
 143        1.0168
 144        1.0168
 145        1.0178
 146        1.0232
 147        1.0232
 148        1.0412
 149        1.0412
 150        1.0457
 151        1.0698
 152        1.0922
 153        1.0922
 154        1.1075
 155        1.1119
 156        1.1122
 157        1.1137
 158        1.1137
 159        1.1202
 160        1.1733
 161        1.1733
 162        1.1985
 163        1.2619
 164        1.2622
 165        1.2635
 166        1.2636
 167        1.3781
 168        1.3781
 169        1.3876
 170        1.5162
 171        1.6626
 172        1.8259
 173        1.8259
 174        1.8731
 175        1.8731
 176        2.2622
 177        2.8774
 178        2.8774
 179        2.8972
 180        2.8972
 181        3.7657
 182        4.4278
 183        4.4278
 184        4.7230
 185        4.9036
 186        5.1321
 187        5.4401
 188        5.4401
 189        5.4570
 190        5.5050
 191        6.0980
 192        6.1722
 193        6.7112
 194        6.7112
 195        7.6096
 196        7.6096
 197        8.0181
 198        8.0181
 199        8.2458
 200        8.3175
 201        8.3175
 202        8.7429
 203        8.7511
 204        8.7511
 205        9.0404
 206        9.0404
 207        9.1788
 208        9.3697
 209        9.7273
 210        9.9636
 211       10.0144
 212       10.2933
 213       10.4187
 214       10.4784
 215       10.5746
 216       11.3425
 
  0.2857143E+00  0.2857143E+00  0.0000000E+00  0.3498542E-01
   1       -5.2093
   2       -4.0846
   3       -4.0846
   4       -3.0618
   5       -2.7644
   6       -2.7644
   7       -2.0123
   8       -2.0123
   9       -2.0123
  10       -2.0123
  11       -1.8480
  12       -1.8480
  13       -1.7976
  14       -1.7976
  15       -1.4269
  16       -1.4269
  17       -1.3652
  18       -1.3652
  19       -1.2694
  20       -1.2213
  21       -1.2213
  22       -1.0322
  23       -1.0322
  24       -1.0322
  25       -1.0322
  26       -0.9745
  27       -0.9745
  28       -0.9728
  29       -0.9439
  30       -0.9439