       N       E                     dE             d eps       ncg     rms          rms(c)
DAV:   1     0.312812426674E+04    0.31281E+04   -0.14677E+05  8640   0.236E+03
DAV:   2     0.272854171121E+03   -0.28553E+04   -0.27458E+04  8640   0.522E+02
DAV:   3    -0.122782898728E+03   -0.39564E+03   -0.35485E+03  8640   0.202E+02
DAV:   4    -0.142735742629E+03   -0.19953E+02   -0.19542E+02  9264   0.547E+01
DAV:   5    -0.142887637720E+03   -0.15190E+00   -0.15160E+00  9272   0.477E+00    0.382E+01
DAV:   6    -0.129688668322E+03    0.13199E+02   -0.28613E+02  9296   0.938E+01    0.209E+01
DAV:   7    -0.117233887004E+03    0.12455E+02   -0.54819E+01  9600   0.414E+01    0.225E+00
DAV:   8    -0.117122374101E+03    0.11151E+00   -0.10018E+00  9288   0.379E+00    0.243E+00
DAV:   9    -0.117012101377E+03    0.11027E+00   -0.43102E-01  9136   0.358E+00    0.272E-01
DAV:  10    -0.117011615445E+03    0.48593E-03   -0.12460E-02  9112   0.543E-01    0.310E-02
DAV:  11    -0.117011604339E+03    0.11106E-04   -0.15314E-04  9056   0.459E-02    0.361E-03
DAV:  12    -0.117011623656E+03   -0.19317E-04   -0.33594E-06  9512   0.951E-03    0.257E-03
DAV:  13    -0.117011633658E+03   -0.10002E-04   -0.54829E-07  9104   0.385E-03    0.637E-04
DAV:  14    -0.117011633410E+03    0.24829E-06   -0.20144E-08  6064   0.846E-04    0.786E-05
DAV:  15    -0.117011633215E+03    0.19454E-06   -0.16467E-09  4816   0.219E-04    0.517E-05
DAV:  16    -0.117011633120E+03    0.94929E-07   -0.26818E-10  4800   0.687E-05    0.247E-05
DAV:  17    -0.117011633117E+03    0.33106E-08   -0.37547E-11  4800   0.246E-05
   1 F= -.11701163E+03 E0= -.11701142E+03  d E =-.434094E-03
