   4   4   0   0
  0.1031045E+02  0.3454983E-09  0.3454983E-09  0.3454983E-09  0.5000000E-15
  1.000000000000000E-004
  CAR 
 unknown system                          
     29.38573970     -7.04135153  301      5.10599845      1.00000000
     -7.041  0.0000E+00  0.0000E+00
     -6.920  0.0000E+00  0.0000E+00
     -6.799  0.0000E+00  0.0000E+00
     -6.677  0.0000E+00  0.0000E+00
     -6.556  0.0000E+00  0.0000E+00
     -6.434  0.0000E+00  0.0000E+00
     -6.313  0.0000E+00  0.0000E+00
     -6.191  0.0000E+00  0.0000E+00
     -6.070  0.0000E+00  0.0000E+00
     -5.949  0.0000E+00  0.0000E+00
     -5.827  0.0000E+00  0.0000E+00
     -5.706  0.0000E+00  0.0000E+00
     -5.584  0.0000E+00  0.0000E+00
     -5.463  0.0000E+00  0.0000E+00
     -5.341  0.1350E-01  0.1639E-02
     -5.220  0.6436E-01  0.1172E-01
     -5.099  0.1020E+00  0.2584E-01
     -4.977  0.6891E-01  0.4468E-01
     -4.856  0.1144E+00  0.6669E-01
     -4.734  0.1612E+00  0.8974E-01
     -4.613  0.8288E-01  0.1170E+00
     -4.491  0.1502E+00  0.1477E+00
     -4.370  0.1830E+00  0.1803E+00
     -4.249  0.1460E+00  0.2141E+00
     -4.127  0.2135E+00  0.2538E+00
     -4.006  0.1928E+00  0.2895E+00
     -3.884  0.2523E+00  0.3349E+00
     -3.763  0.2226E+00  0.3703E+00
     -3.641  0.2547E+00  0.4257E+00
     -3.520  0.3137E+00  0.4676E+00
     -3.399  0.3141E+00  0.5310E+00
     -3.277  0.2175E+00  0.5679E+00
     -3.156  0.3404E+00  0.6332E+00
     -3.034  0.3523E+00  0.6876E+00
     -2.913  0.2568E+00  0.7466E+00
     -2.792  0.3793E+00  0.8066E+00
     -2.670  0.3608E+00  0.8747E+00
     -2.549  0.4485E+00  0.9530E+00
     -2.427  0.4329E+00  0.1024E+01
     -2.306  0.4623E+00  0.1092E+01
     -2.184  0.5358E+00  0.1184E+01
     -2.063  0.5491E+00  0.1266E+01
     -1.942  0.5023E+00  0.1345E+01
     -1.820  0.4818E+00  0.1444E+01
     -1.699  0.5526E+00  0.1550E+01
     -1.577  0.6615E+00  0.1655E+01
     -1.456  0.6347E+00  0.1774E+01
     -1.334  0.8785E+00  0.1916E+01
     -1.213  0.8041E+00  0.2059E+01
     -1.092  0.9947E+00  0.2217E+01
     -0.970  0.1201E+01  0.2427E+01
     -0.849  0.1603E+01  0.2686E+01
     -0.727  0.1709E+01  0.3033E+01
     -0.606  0.2937E+01  0.3524E+01
     -0.484  0.2914E+01  0.4054E+01
     -0.363  0.3007E+01  0.4553E+01
     -0.242  0.2850E+01  0.5106E+01
     -0.120  0.3457E+01  0.5697E+01
      0.001  0.4341E+01  0.6491E+01
      0.123  0.4935E+01  0.7393E+01
      0.244  0.5772E+01  0.8402E+01
      0.365  0.5416E+01  0.9347E+01
      0.487  0.4993E+01  0.1019E+02
      0.608  0.4693E+01  0.1106E+02
      0.730  0.4570E+01  0.1191E+02
      0.851  0.4325E+01  0.1266E+02
      0.973  0.5296E+01  0.1364E+02
      1.094  0.6201E+01  0.1476E+02
      1.215  0.6721E+01  0.1596E+02
      1.337  0.6810E+01  0.1720E+02
      1.458  0.8090E+01  0.1859E+02
      1.580  0.8348E+01  0.2015E+02
      1.701  0.8922E+01  0.2176E+02
      1.823  0.9477E+01  0.2357E+02
      1.944  0.6507E+01  0.2485E+02
      2.065  0.5436E+01  0.2590E+02
      2.187  0.5331E+01  0.2690E+02
      2.308  0.6759E+01  0.2807E+02
      2.430  0.7643E+01  0.2946E+02
      2.551  0.8120E+01  0.3097E+02
      2.673  0.7141E+01  0.3234E+02
      2.794  0.6633E+01  0.3358E+02
      2.915  0.6657E+01  0.3479E+02
      3.037  0.7619E+01  0.3617E+02
      3.158  0.9111E+01  0.3779E+02
      3.280  0.1385E+02  0.4033E+02
      3.401  0.7034E+01  0.4168E+02
      3.523  0.5246E+00  0.4198E+02
      3.644  0.1160E+01  0.4221E+02
      3.765  0.9399E+00  0.4237E+02
      3.887  0.7362E+00  0.4254E+02
      4.008  0.8700E+00  0.4271E+02
      4.130  0.8495E+00  0.4286E+02
      4.251  0.1012E+01  0.4302E+02
      4.372  0.6020E+00  0.4317E+02
      4.494  0.7323E+00  0.4330E+02
      4.615  0.8230E+00  0.4346E+02
      4.737  0.6440E+00  0.4360E+02
      4.858  0.8902E+00  0.4375E+02
      4.980  0.6303E+00  0.4387E+02
      5.101  0.6778E+00  0.4400E+02
      5.222  0.8535E+00  0.4415E+02
      5.344  0.7247E+00  0.4428E+02
      5.465  0.5679E+00  0.4438E+02
      5.587  0.1059E+01  0.4455E+02
      5.708  0.6223E+00  0.4465E+02
      5.830  0.7142E+00  0.4478E+02
      5.951  0.7026E+00  0.4490E+02
      6.072  0.6582E+00  0.4502E+02
      6.194  0.9091E+00  0.4516E+02
      6.315  0.6062E+00  0.4525E+02
      6.437  0.5799E+00  0.4537E+02
      6.558  0.6617E+00  0.4551E+02
      6.680  0.4123E+00  0.4560E+02
      6.801  0.7548E+00  0.4573E+02
      6.922  0.5640E+00  0.4583E+02
      7.044  0.6149E+00  0.4597E+02
      7.165  0.5361E+00  0.4608E+02
      7.287  0.2593E+00  0.4614E+02
      7.408  0.7980E+00  0.4628E+02
      7.529  0.7818E+00  0.4639E+02
      7.651  0.5977E+00  0.4648E+02
      7.772  0.5879E+00  0.4658E+02
      7.894  0.4658E+00  0.4666E+02
      8.015  0.3439E+00  0.4672E+02
      8.137  0.8272E+00  0.4686E+02
      8.258  0.4301E+00  0.4694E+02
      8.379  0.4061E+00  0.4701E+02
      8.501  0.2454E+00  0.4707E+02
      8.622  0.3142E+00  0.4716E+02
      8.744  0.5024E+00  0.4724E+02
      8.865  0.5356E+00  0.4734E+02
      8.987  0.1886E+00  0.4737E+02
      9.108  0.2179E+00  0.4743E+02
      9.229  0.3945E+00  0.4749E+02
      9.351  0.2831E+00  0.4756E+02
      9.472  0.2434E+00  0.4762E+02
      9.594  0.6356E+00  0.4770E+02
      9.715  0.4160E+00  0.4777E+02
      9.837  0.8092E+00  0.4791E+02
      9.958  0.6305E+00  0.4803E+02
     10.079  0.1039E+01  0.4818E+02
     10.201  0.7025E+00  0.4829E+02
     10.322  0.8210E+00  0.4843E+02
     10.444  0.8990E+00  0.4858E+02
     10.565  0.9303E+00  0.4872E+02
     10.686  0.7117E+00  0.4884E+02
     10.808  0.7100E+00  0.4898E+02
     10.929  0.7909E+00  0.4913E+02
     11.051  0.7253E+00  0.4926E+02
     11.172  0.5514E+00  0.4937E+02
     11.294  0.8054E+00  0.4950E+02
     11.415  0.6839E+00  0.4963E+02
     11.536  0.5841E+00  0.4975E+02
     11.658  0.5768E+00  0.4985E+02
     11.779  0.8029E+00  0.4999E+02
     11.901  0.5377E+00  0.5009E+02
     12.022  0.7208E+00  0.5019E+02
     12.144  0.4386E+00  0.5030E+02
     12.265  0.4637E+00  0.5039E+02
     12.386  0.4008E+00  0.5052E+02
     12.508  0.3080E+00  0.5061E+02
     12.629  0.6367E+00  0.5074E+02
     12.751  0.6328E+00  0.5083E+02
     12.872  0.3937E+00  0.5092E+02
     12.994  0.6566E+00  0.5104E+02
     13.115  0.2761E+00  0.5112E+02
     13.236  0.1003E+01  0.5126E+02
     13.358  0.6600E+00  0.5137E+02
     13.479  0.7978E+00  0.5153E+02
     13.601  0.1018E+01  0.5170E+02
     13.722  0.6913E+00  0.5180E+02
     13.844  0.4588E+00  0.5190E+02
     13.965  0.9671E+00  0.5203E+02
     14.086  0.8825E+00  0.5220E+02
     14.208  0.1105E+01  0.5239E+02
     14.329  0.7961E+00  0.5255E+02
     14.451  0.6304E+00  0.5268E+02
     14.572  0.7385E+00  0.5280E+02
     14.693  0.8350E+00  0.5297E+02
     14.815  0.1137E+01  0.5318E+02
     14.936  0.9490E+00  0.5336E+02
     15.058  0.8145E+00  0.5351E+02
     15.179  0.5496E+00  0.5362E+02
     15.301  0.8982E+00  0.5377E+02
     15.422  0.9420E+00  0.5393E+02
     15.543  0.9333E+00  0.5410E+02
     15.665  0.9154E+00  0.5430E+02
     15.786  0.8675E+00  0.5446E+02
     15.908  0.8276E+00  0.5461E+02
     16.029  0.7317E+00  0.5475E+02
     16.151  0.8850E+00  0.5493E+02
     16.272  0.9155E+00  0.5509E+02
     16.393  0.9063E+00  0.5528E+02
     16.515  0.1000E+01  0.5544E+02
     16.636  0.8916E+00  0.5558E+02
     16.758  0.1169E+01  0.5580E+02
     16.879  0.7063E+00  0.5593E+02
     17.001  0.9038E+00  0.5611E+02
     17.122  0.8794E+00  0.5628E+02
     17.243  0.1045E+01  0.5647E+02
     17.365  0.8646E+00  0.5663E+02
     17.486  0.6654E+00  0.5679E+02
     17.608  0.8622E+00  0.5694E+02
     17.729  0.1422E+01  0.5717E+02
     17.850  0.8108E+00  0.5734E+02
     17.972  0.1056E+01  0.5750E+02
     18.093  0.9493E+00  0.5764E+02
     18.215  0.1316E+01  0.5787E+02
     18.336  0.9753E+00  0.5806E+02
     18.458  0.7235E+00  0.5822E+02
     18.579  0.6975E+00  0.5835E+02
     18.700  0.1337E+01  0.5856E+02
     18.822  0.1270E+01  0.5876E+02
     18.943  0.9683E+00  0.5896E+02
     19.065  0.9228E+00  0.5911E+02
     19.186  0.1032E+01  0.5931E+02
     19.308  0.9653E+00  0.5955E+02
     19.429  0.8691E+00  0.5972E+02
     19.550  0.1095E+01  0.5992E+02
     19.672  0.9970E+00  0.6009E+02
     19.793  0.1125E+01  0.6029E+02
     19.915  0.8846E+00  0.6047E+02
     20.036  0.8892E+00  0.6065E+02
     20.158  0.9438E+00  0.6081E+02
     20.279  0.1003E+01  0.6098E+02
     20.400  0.1013E+01  0.6118E+02
     20.522  0.7727E+00  0.6132E+02
     20.643  0.9478E+00  0.6148E+02
     20.765  0.7730E+00  0.6161E+02
     20.886  0.6649E+00  0.6176E+02
     21.008  0.5658E+00  0.6189E+02
     21.129  0.4767E+00  0.6201E+02
     21.250  0.6006E+00  0.6211E+02
     21.372  0.6974E+00  0.6221E+02
     21.493  0.5590E+00  0.6234E+02
     21.615  0.2436E+00  0.6240E+02
     21.736  0.4757E+00  0.6249E+02
     21.857  0.5589E+00  0.6258E+02
     21.979  0.2317E+00  0.6266E+02
     22.100  0.3713E+00  0.6274E+02
     22.222  0.1146E+00  0.6278E+02
     22.343  0.7664E+00  0.6288E+02
     22.465  0.3651E+00  0.6295E+02
     22.586  0.2319E+00  0.6299E+02
     22.707  0.3431E+00  0.6304E+02
     22.829  0.4287E+00  0.6309E+02
     22.950  0.3748E+00  0.6317E+02
     23.072  0.2576E+00  0.6321E+02
     23.193  0.6553E-01  0.6323E+02
     23.315  0.2123E+00  0.6329E+02
     23.436  0.2792E+00  0.6334E+02
     23.557  0.5719E-01  0.6338E+02
     23.679  0.2574E+00  0.6341E+02
     23.800  0.2304E+00  0.6344E+02
     23.922  0.2103E+00  0.6348E+02
     24.043  0.1978E+00  0.6352E+02
     24.165  0.2573E+00  0.6356E+02
     24.286  0.6343E-11  0.6356E+02
     24.407  0.3165E+00  0.6360E+02
     24.529  0.5891E-01  0.6363E+02
     24.650  0.3872E-01  0.6365E+02
     24.772  0.1229E+00  0.6368E+02
     24.893  0.5720E-01  0.6369E+02
     25.014  0.2047E+00  0.6372E+02
     25.136  0.6635E-01  0.6374E+02
     25.257  0.1563E+00  0.6376E+02
     25.379  0.1142E+00  0.6378E+02
     25.500  0.6876E-01  0.6380E+02
     25.622  0.1717E+00  0.6383E+02
     25.743  0.5719E-01  0.6384E+02
     25.864  0.8043E-01  0.6385E+02
     25.986  0.2476E-01  0.6385E+02
     26.107  0.1171E+00  0.6387E+02
     26.229  0.1323E+00  0.6390E+02
     26.350  0.2110E-01  0.6390E+02
     26.472  0.5998E-03  0.6391E+02
     26.593  0.1020E-10  0.6392E+02
     26.714  0.5719E-01  0.6392E+02
     26.836  0.8594E-01  0.6394E+02
     26.957  0.5443E-01  0.6396E+02
     27.079  0.2860E-01  0.6396E+02
     27.200  0.1568E-02  0.6397E+02
     27.322  0.2710E-01  0.6397E+02
     27.443  0.2860E-01  0.6398E+02
     27.564  0.2259E-01  0.6399E+02
     27.686  0.7126E-01  0.6400E+02
     27.807  0.9532E-02  0.6400E+02
     27.929  0.0000E+00  0.6400E+02
     28.050  0.0000E+00  0.6400E+02
     28.172  0.0000E+00  0.6400E+02
     28.293  0.0000E+00  0.6400E+02
     28.414  0.0000E+00  0.6400E+02
     28.536  0.0000E+00  0.6400E+02
     28.657  0.0000E+00  0.6400E+02
     28.779  0.0000E+00  0.6400E+02
     28.900  0.0000E+00  0.6400E+02
     29.021  0.0000E+00  0.6400E+02
     29.143  0.0000E+00  0.6400E+02
     29.264  0.0000E+00  0.6400E+02
     29.386  0.0000E+00  0.6400E+02
