    4    4    1    1
  0.1031045E+02  0.3454983E-09  0.3454983E-09  0.3454983E-09  0.5000000E-15
  1.000000000000000E-004
  CAR 
 unknown system                          
   44  455   32
 
  0.0000000E+00  0.0000000E+00  0.0000000E+00  0.7233796E-04
   1       -5.3856
   2       -0.7234
   3       -0.7234
   4       -0.7234
   5       -0.1761
   6       -0.1761
   7       -0.1761
   8        1.5415
   9        1.5415
  10        1.5415
  11        2.5636
  12        2.5636
  13        3.2408
  14        3.2408
  15        3.2408
  16        3.4314
  17        3.4314
  18        3.4314
  19        3.4314
  20        3.4314
  21        3.4314
  22        6.4677
  23        6.4677
  24        6.4677
  25       13.1755
  26       13.1755
  27       13.1755
  28       19.3615
  29       19.3615
  30       19.3615
  31       19.3615
  32       19.3615
 
  0.4166667E-01  0.0000000E+00  0.0000000E+00  0.4340278E-03
   1       -5.3622
   2       -0.7223
   3       -0.7117
   4       -0.7117
   5       -0.1692
   6       -0.1688
   7       -0.1688
   8        1.5336
   9        1.5476
  10        1.5476
  11        2.5565
  12        2.5665
  13        3.2315
  14        3.2315
  15        3.2378
  16        3.3792
  17        3.3792
  18        3.4205
  19        3.4205
  20        3.4314
  21        3.4314
  22        6.3273
  23        6.5399
  24        6.5399
  25       13.1822
  26       13.1822
  27       13.3591
  28       19.1924
  29       19.1924
  30       19.2669
  31       19.2669
  32       19.3968
 
  0.8333333E-01  0.0000000E+00  0.0000000E+00  0.4340278E-03
   1       -5.2923
   2       -0.7200
   3       -0.6769
   4       -0.6769
   5       -0.1487
   6       -0.1468
   7       -0.1468
   8        1.5102
   9        1.5660
  10        1.5660
  11        2.5352
  12        2.5749
  13        3.2039
  14        3.2039
  15        3.2290
  16        3.2358
  17        3.2358
  18        3.3882
  19        3.3882
  20        3.4315
  21        3.4315
  22        5.9481
  23        6.7435
  24        6.7435
  25       13.2026
  26       13.2026
  27       13.8687
  28       18.7488
  29       18.7488
  30       19.0031
  31       19.0031
  32       19.5021
 
  0.1250000E+00  0.0000000E+00  0.0000000E+00  0.4340278E-03
   1       -5.1763
   2       -0.7196
   3       -0.6202
   4       -0.6202
   5       -0.1148
   6       -0.1102
   7       -0.1102
   8        1.4717
   9        1.5965
  10        1.5965
  11        2.5003
  12        2.5888
  13        3.0300
  14        3.0300
  15        3.1587
  16        3.1587
  17        3.2144
  18        3.3357
  19        3.3357
  20        3.4316
  21        3.4316
  22        5.4178
  23        7.0495
  24        7.0495
  25       13.2371
  26       13.2371
  27       14.6188
  28       18.1446
  29       18.1446
  30       18.6167
  31       18.6167
  32       19.6762
 
  0.1666667E+00  0.0000000E+00  0.0000000E+00  0.4340278E-03
   1       -5.0149
   2       -0.7269
   3       -0.5436
   4       -0.5436
   5       -0.0681
   6       -0.0588
   7       -0.0588
   8        1.4189
   9        1.6390
  10        1.6390
  11        2.4531
  12        2.6080
  13        2.7889
  14        2.7889
  15        3.0970
  16        3.0970
  17        3.1944
  18        3.2647
  19        3.2647
  20        3.4317
  21        3.4317
  22        4.8168
  23        7.4306
  24        7.4306
  25       13.2865
  26       13.2865
  27       15.5330
  28       17.4610
  29       17.4610
  30       18.1582
  31       18.1582
  32       19.9169
 
  0.2083333E+00  0.0000000E+00  0.0000000E+00  0.4340278E-03
   1       -4.8093
   2       -0.7509
   3       -0.4504
   4       -0.4504
   5       -0.0091
   6        0.0077
   7        0.0077
   8        1.3529
   9        1.6932
  10        1.6932
  11        2.3949
  12        2.5319
  13        2.5319
  14        2.6321
  15        3.0208
  16        3.0208
  17        3.1692
  18        3.1777
  19        3.1777
  20        3.4318
  21        3.4318
  22        4.2037
  23        7.8672
  24        7.8672
  25       13.3516
  26       13.3516
  27       16.5595
  28       16.7426
  29       16.7426
  30       17.6688
  31       17.6688
  32       20.2216
 
  0.2500000E+00  0.0000000E+00  0.0000000E+00  0.4340278E-03
   1       -4.5610
   2       -0.8046
   3       -0.3445
   4       -0.3445
   5        0.0612
   6        0.0893
   7        0.0893
   8        1.2749
   9        1.7587
  10        1.7587
  11        2.2714
  12        2.2714
  13        2.3280
  14        2.6607
  15        2.9331
  16        2.9331
  17        3.0773
  18        3.0773
  19        3.1395
  20        3.4319
  21        3.4319
  22        3.6208
  23        8.3468
  24        8.3468
  25       13.4336
  26       13.4336
  27       16.0128
  28       16.0128
  29       17.1783
  30       17.1783
  31       17.6653
  32       20.5871
 
  0.2916667E+00  0.0000000E+00  0.0000000E+00  0.4340278E-03
   1       -4.2725
   2       -0.9046
   3       -0.2314
   4       -0.2314
   5        0.1420
   6        0.1863
   7        0.1863
   8        1.1867
   9        1.8351
  10        1.8351
  11        2.0148
  12        2.0148
  13        2.2554
  14        2.6935
  15        2.8380
  16        2.8380
  17        2.9664
  18        2.9664
  19        3.1023
  20        3.1056
  21        3.4321
  22        3.4321
  23        8.8613
  24        8.8613
  25       13.5330
  26       13.5330
  27       15.2839
  28       15.2839
  29       16.7076
  30       16.7076
  31       18.8283
  32       21.0100
 
  0.3333333E+00  0.0000000E+00  0.0000000E+00  0.4340278E-03
   1       -3.9466
   2       -1.0686
   3       -0.1183
   4       -0.1183
   5        0.2318
   6        0.2990
   7        0.2990
   8        1.0897
   9        1.7671
  10        1.7671
  11        1.9217
  12        1.9217
  13        2.1807
  14        2.6757
  15        2.7298
  16        2.7413
  17        2.7413
  18        2.8481
  19        2.8481
  20        3.0683
  21        3.4322
  22        3.4322
  23        9.4058
  24        9.4058
  25       13.6495
  26       13.6495
  27       14.5632
  28       14.5632
  29       16.2717
  30       16.2717
  31       20.0316
  32       21.4866
 
  0.3750000E+00  0.0000000E+00  0.0000000E+00  0.4340278E-03
   1       -3.5877
   2       -1.3077
   3       -0.0136
   4       -0.0136
   5        0.3295
   6        0.4274
   7        0.4274
   8        0.9860
   9        1.5311
  10        1.5311
  11        2.0178
  12        2.0178
  13        2.1093
  14        2.3584
  15        2.6508
  16        2.6508
  17        2.7249
  18        2.7249
  19        2.7690
  20        3.0281
  21        3.4323
  22        3.4323
  23        9.9768
  24        9.9768
  25       13.7801
  26       13.7801
  27       13.8549
  28       13.8549
  29       15.8839
  30       15.8839
  31       21.2601
  32       22.0136
 
  0.4166667E+00  0.0000000E+00  0.0000000E+00  0.4340278E-03
   1       -3.2018
   2       -1.6194
   3        0.0724
   4        0.0724
   5        0.4334
   6        0.5718
   7        0.5718
   8        0.8774
   9        1.3086
  10        1.3086
  11        2.0480
  12        2.1224
  13        2.1224
  14        2.1509
  15        2.5754
  16        2.5754
  17        2.5997
  18        2.5997
  19        2.8106
  20        2.9859
  21        3.4324
  22        3.4324
  23       10.5718
  24       10.5718
  25       13.1616
  26       13.1616
  27       13.9151
  28       13.9151
  29       15.5608
  30       15.5608
  31       22.4970
  32       22.5872
 
  0.4583333E+00  0.0000000E+00  0.0000000E+00  0.4340278E-03
   1       -2.7974
   2       -1.9868
   3        0.1295
   4        0.1295
   5        0.5420
   6        0.7322
   7        0.7322
   8        0.7659
   9        1.1009
  10        1.1009
  11        2.0063
  12        2.0380
  13        2.2344
  14        2.2344
  15        2.4748
  16        2.4748
  17        2.5249
  18        2.5249
  19        2.8538
  20        2.9422
  21        3.4324
  22        3.4324
  23       11.1891
  24       11.1891
  25       12.4853
  26       12.4853
  27       14.0303
  28       14.0303
  29       15.3311
  30       15.3311
  31       23.2043
  32       23.2043
 
  0.5000000E+00  0.0000000E+00  0.0000000E+00  0.2170139E-03
   1       -2.3868
   2       -2.3868
   3        0.1496
   4        0.1496
   5        0.6535
   6        0.6535
   7        0.9086
   8        0.9086
   9        0.9086
  10        0.9086
  11        1.9971
  12        1.9971
  13        2.3524
  14        2.3524
  15        2.3524
  16        2.3524
  17        2.5071
  18        2.5071
  19        2.8980
  20        2.8980
  21        3.4324
  22        3.4324
  23       11.8274
  24       11.8274
  25       11.8274
  26       11.8274
  27       14.0791
  28       14.0791
  29       15.2437
  30       15.2437
  31       23.8615
  32       23.8615
 
  0.4166667E-01  0.4166667E-01  0.0000000E+00  0.8680556E-03
   1       -5.3389
   2       -0.7105
   3       -0.7105
   4       -0.7000
   5       -0.1619
   6       -0.1619
   7       -0.1615
   8        1.5290
   9        1.5506
  10        1.5536
  11        2.5543
  12        2.5644
  13        3.2224
  14        3.2275
  15        3.2275
  16        3.3361
  17        3.3686
  18        3.3686
  19        3.4205
  20        3.4205
  21        3.4246
  22        6.3995
  23        6.3995
  24        6.6101
  25       13.1889
  26       13.3667
  27       13.3667
  28       18.8074
  29       19.2268
  30       19.2268
  31       19.3018
  32       19.3018
 
  0.8333333E-01  0.4166667E-01  0.0000000E+00  0.1736111E-02
   1       -5.2691
   2       -0.7080
   3       -0.6755
   4       -0.6654
   5       -0.1415
   6       -0.1401
   7       -0.1398
   8        1.5074
   9        1.5673
  10        1.5715
  11        2.5352
  12        2.5712
  13        3.1855
  14        3.1951
  15        3.2018
  16        3.2147
  17        3.2380
  18        3.3377
  19        3.3882
  20        3.4206
  21        3.4208
  22        6.0209
  23        6.6021
  24        6.8084
  25       13.2090
  26       13.3897
  27       13.8782
  28       18.2411
  29       18.7816
  30       19.0368
  31       19.3297
  32       19.3747
 
  0.1250000E+00  0.4166667E-01  0.0000000E+00  0.1736111E-02
   1       -5.1532
   2       -0.7073
   3       -0.6185
   4       -0.6090
   5       -0.1078
   6       -0.1036
   7       -0.1035
   8        1.4695
   9        1.5974
  10        1.6013
  11        2.5010
  12        2.5852
  13        3.0031
  14        3.0071
  15        3.1503
  16        3.1639
  17        3.1901
  18        3.2901
  19        3.3356
  20        3.4198
  21        3.4206
  22        5.4937
  23        6.9050
  24        7.1083
  25       13.2430
  26       13.4287
  27       14.6303
  28       17.5937
  29       18.1759
  30       18.6489
  31       19.1044
  32       19.4996
 
  0.1666667E+00  0.4166667E-01  0.0000000E+00  0.1736111E-02
   1       -4.9920
   2       -0.7142
   3       -0.5416
   4       -0.5329
   5       -0.0613
   6       -0.0525
   7       -0.0524
   8        1.4172
   9        1.6397
  10        1.6425
  11        2.4544
  12        2.6049
  13        2.7675
  14        2.7681
  15        3.0893
  16        3.1001
  17        3.1436
  18        3.2365
  19        3.2646
  20        3.4195
  21        3.4207
  22        4.9003
  23        7.2803
  24        7.4838
  25       13.2912
  26       13.4845
  27       15.5459
  28       16.9093
  29       17.4913
  30       18.1888
  31       18.6944
  32       19.7341
 
  0.2083333E+00  0.4166667E-01  0.0000000E+00  0.1736111E-02
   1       -4.7866
   2       -0.7376
   3       -0.4477
   4       -0.4401
   5       -0.0026
   6        0.0133
   7        0.0137
   8        1.3517
   9        1.6937
  10        1.6950
  11        2.3972
  12        2.5111
  13        2.5161
  14        2.6298
  15        3.0139
  16        3.0235
  17        3.0605
  18        3.1775
  19        3.1904
  20        3.4195
  21        3.4207
  22        4.3032
  23        7.7082
  24        7.9156
  25       13.3539
  26       13.5582
  27       16.2141
  28       16.5731
  29       16.7723
  30       17.6980
  31       18.2116
  32       20.0305
 
  0.2500000E+00  0.4166667E-01  0.0000000E+00  0.1736111E-02
   1       -4.5387
   2       -0.7906
   3       -0.3411
   4       -0.3346
   5        0.0674
   6        0.0939
   7        0.0949
   8        1.2743
   9        1.7579
  10        1.7591
  11        2.2515
  12        2.2596
  13        2.3320
  14        2.6594
  15        2.9270
  16        2.9357
  17        2.9370
  18        3.0771
  19        3.1485
  20        3.4196
  21        3.4208
  22        3.7549
  23        8.1759
  24        8.3913
  25       13.4299
  26       13.6509
  27       15.5242
  28       16.0422
  29       17.2065
  30       17.6785
  31       17.7027
  32       20.3849
 
  0.2916667E+00  0.4166667E-01  0.0000000E+00  0.1736111E-02
   1       -4.2506
   2       -0.8899
   3       -0.2273
   4       -0.2219
   5        0.1477
   6        0.1896
   7        0.1915
   8        1.1865
   9        1.8299
  10        1.8354
  11        1.9961
  12        2.0064
  13        2.2626
  14        2.6932
  15        2.7595
  16        2.8328
  17        2.8406
  18        2.9663
  19        3.0976
  20        3.3197
  21        3.4198
  22        3.4208
  23        8.6755
  24        8.9027
  25       13.5126
  26       13.7633
  27       14.8548
  28       15.3133
  29       16.7353
  30       17.1985
  31       18.8390
  32       20.7937
 
  0.3333333E+00  0.4166667E-01  0.0000000E+00  0.1736111E-02
   1       -3.9252
   2       -1.0531
   3       -0.1131
   4       -0.1088
   5        0.2371
   6        0.3004
   7        0.3035
   8        1.0902
   9        1.7498
  10        1.7613
  11        1.9073
  12        1.9219
  13        2.1960
  14        2.5162
  15        2.7308
  16        2.7371
  17        2.7439
  18        2.8479
  19        2.9691
  20        3.1090
  21        3.4199
  22        3.4208
  23        9.2016
  24        9.4445
  25       13.5591
  26       13.8946
  27       14.2530
  28       14.5928
  29       16.3003
  30       16.7195
  31       20.0340
  32       21.2522
 
  0.3750000E+00  0.4166667E-01  0.0000000E+00  0.1736111E-02
   1       -3.5669
   2       -1.2914
   3       -0.0074
   4       -0.0040
   5        0.3342
   6        0.4264
   7        0.4313
   8        0.9871
   9        1.5153
  10        1.5274
  11        1.9755
  12        2.0179
  13        2.1511
  14        2.2721
  15        2.6475
  16        2.6530
  17        2.7247
  18        2.7714
  19        2.7937
  20        3.0477
  21        3.4201
  22        3.4208
  23        9.7504
  24       10.0134
  25       13.3044
  26       13.8849
  27       13.9844
  28       14.0401
  29       15.9170
  30       16.2811
  31       21.2281
  32       21.7559
 
  0.4166667E+00  0.4166667E-01  0.0000000E+00  0.1736111E-02
   1       -3.1816
   2       -1.6023
   3        0.0798
   4        0.0823
   5        0.4376
   6        0.5679
   7        0.5749
   8        0.8791
   9        1.2947
  10        1.3068
  11        1.9901
  12        2.0948
  13        2.1225
  14        2.1783
  15        2.5732
  16        2.5771
  17        2.5996
  18        2.6443
  19        2.8146
  20        2.9994
  21        3.4203
  22        3.4208
  23       10.3192
  24       10.6067
  25       12.7341
  26       13.1922
  27       14.0592
  28       14.1850
  29       15.6076
  30       15.8981
  31       22.2506
  32       22.2996
 
  0.4583333E+00  0.4166667E-01  0.0000000E+00  0.1736111E-02
   1       -2.7779
   2       -1.9689
   3        0.1380
   4        0.1394
   5        0.5456
   6        0.7254
   7        0.7343
   8        0.7683
   9        1.0890
  10        1.1006
  11        1.9671
  12        1.9957
  13        2.2344
  14        2.2699
  15        2.4747
  16        2.5091
  17        2.5238
  18        2.5259
  19        2.8595
  20        2.9523
  21        3.4205
  22        3.4207
  23       10.9054
  24       11.2226
  25       12.1192
  26       12.5166
  27       14.1909
  28       14.2893
  29       15.4174
  30       15.5932
  31       22.8776
  32       22.9572
 
  0.5000000E+00  0.4166667E-01  0.0000000E+00  0.8680556E-03
   1       -2.3681
   2       -2.3681
   3        0.1590
   4        0.1590
   5        0.6564
   6        0.6564
   7        0.8991
   8        0.8991
   9        0.9096
  10        0.9096
  11        1.9601
  12        1.9601
  13        2.3524
  14        2.3524
  15        2.3838
  16        2.3838
  17        2.5071
  18        2.5071
  19        2.9056
  20        2.9056
  21        3.4206
  22        3.4206
  23       11.5066
  24       11.5066
  25       11.8597
  26       11.8597
  27       14.2911
  28       14.2911
  29       15.4117
  30       15.4117
  31       23.4841
  32       23.5123
 
  0.8333333E-01  0.8333333E-01  0.0000000E+00  0.8680556E-03
   1       -5.1995
   2       -0.6724
   3       -0.6724
   4       -0.6313
   5       -0.1200
   6       -0.1200
   7       -0.1186
   8        1.4924
   9        1.5777
  10        1.5881
  11        2.5273
  12        2.5681
  13        3.0934
  14        3.1398
  15        3.1398
  16        3.1687
  17        3.2347
  18        3.2347
  19        3.3882
  20        3.3882
  21        3.4040
  22        6.2230
  23        6.2230
  24        6.9938
  25       13.2283
  26       13.9071
  27       13.9071
  28       17.5573
  29       18.8795
  30       18.8795
  31       19.1374
  32       19.1374
 
  0.1250000E+00  0.8333333E-01  0.0000000E+00  0.1736111E-02
   1       -5.0840
   2       -0.6708
   3       -0.6145
   4       -0.5759
   5       -0.0868
   6       -0.0841
   7       -0.0833
   8        1.4594
   9        1.6036
  10        1.6153
  11        2.4994
  12        2.5783
  13        2.9196
  14        2.9475
  15        3.0706
  16        3.1254
  17        3.1703
  18        3.2220
  19        3.3355
  20        3.3881
  21        3.3940
  22        5.6997
  23        6.5204
  24        7.2781
  25       13.2603
  26       13.9559
  27       14.6650
  28       16.8417
  29       18.2694
  30       18.7451
  31       19.0410
  32       19.3039
 
  0.1666667E+00  0.8333333E-01  0.0000000E+00  0.1736111E-02
   1       -4.9234
   2       -0.6763
   3       -0.5363
   4       -0.5010
   5       -0.0410
   6       -0.0337
   7       -0.0336
   8        1.4101
   9        1.6437
  10        1.6530
  11        2.4562
  12        2.5983
  13        2.7044
  14        2.7073
  15        2.9764
  16        3.0662
  17        3.1055
  18        3.2003
  19        3.2644
  20        3.3880
  21        3.3890
  22        5.1177
  23        6.8836
  24        7.6386
  25       13.3039
  26       14.0255
  27       15.5847
  28       16.1243
  29       17.5817
  30       18.2806
  31       19.2636
  32       19.4176
 
  0.2083333E+00  0.8333333E-01  0.0000000E+00  0.1736111E-02
   1       -4.7189
   2       -0.6981
   3       -0.4408
   4       -0.4096
   5        0.0168
   6        0.0300
   7        0.0316
   8        1.3468
   9        1.6966
  10        1.7004
  11        2.4023
  12        2.4518
  13        2.4680
  14        2.6250
  15        2.8539
  16        2.9930
  17        3.0288
  18        3.1698
  19        3.1772
  20        3.3866
  21        3.3879
  22        4.5413
  23        7.2927
  24        8.0575
  25       13.3556
  26       14.1168
  27       15.4251
  28       16.6136
  29       16.8609
  30       17.7859
  31       19.0395
  32       19.5440
 
  0.2500000E+00  0.8333333E-01  0.0000000E+00  0.1736111E-02
   1       -4.4720
   2       -0.7491
   3       -0.3321
   4       -0.3055
   5        0.0857
   6        0.1079
   7        0.1117
   8        1.2714
   9        1.7559
  10        1.7612
  11        2.1943
  12        2.2239
  13        2.3418
  14        2.6573
  15        2.6983
  16        2.9087
  17        2.9413
  18        3.0767
  19        3.1293
  20        3.3855
  21        3.3878
  22        4.0216
  23        7.7355
  24        8.5223
  25       13.4011
  26       14.2305
  27       14.7681
  28       16.1299
  29       17.2916
  30       17.7171
  31       18.5799
  32       19.8785
 
  0.2916667E+00  0.8333333E-01  0.0000000E+00  0.1736111E-02
   1       -4.1851
   2       -0.8461
   3       -0.2157
   4       -0.1937
   5        0.1648
   6        0.1995
   7        0.2068
   8        1.1856
   9        1.8162
  10        1.8370
  11        1.9422
  12        1.9806
  13        2.2807
  14        2.5079
  15        2.6946
  16        2.8172
  17        2.8465
  18        2.9658
  19        3.0744
  20        3.3850
  21        3.3876
  22        3.6020
  23        8.2046
  24        9.0248
  25       13.3738
  26       14.2258
  27       14.3661
  28       15.4009
  29       16.8202
  30       18.0885
  31       18.8677
  32       20.2626
 
  0.3333333E+00  0.8333333E-01  0.0000000E+00  0.1736111E-02
   1       -3.8612
   2       -1.0070
   3       -0.0987
   4       -0.0809
   5        0.2528
   6        0.3047
   7        0.3171
   8        1.0912
   9        1.6998
  10        1.7436
  11        1.8735
  12        1.9230
  13        2.2302
  14        2.2987
  15        2.7243
  16        2.7361
  17        2.7497
  18        2.8474
  19        2.9911
  20        3.3113
  21        3.3849
  22        3.3873
  23        8.6952
  24        9.5593
  25       13.0752
  26       13.9999
  27       14.5191
  28       14.6810
  29       16.3911
  30       17.5970
  31       20.0263
  32       20.6917
 
  0.3750000E+00  0.8333333E-01  0.0000000E+00  0.1736111E-02
   1       -3.5046
   2       -1.2429
   3        0.0104
   4        0.0245
   5        0.3484
   6        0.4234
   7        0.4428
   8        0.9901
   9        1.4699
  10        1.5164
  11        1.9099
  12        2.0187
  13        2.1094
  14        2.2127
  15        2.6375
  16        2.6583
  17        2.7243
  18        2.7812
  19        2.8626
  20        3.1481
  21        3.3851
  22        3.3870
  23        9.2041
  24       10.1221
  25       12.5468
  26       13.9742
  27       14.0504
  28       14.6735
  29       16.0309
  30       17.1256
  31       21.0715
  32       21.1609
 
  0.4166667E+00  0.8333333E-01  0.0000000E+00  0.1736111E-02
   1       -3.1212
   2       -1.5514
   3        0.1012
   4        0.1116
   5        0.4501
   6        0.5565
   7        0.5840
   8        0.8841
   9        1.2544
  10        1.3013
  11        1.9092
  12        1.9737
  13        2.1229
  14        2.2501
  15        2.5662
  16        2.5811
  17        2.5992
  18        2.7133
  19        2.8296
  20        3.0579
  21        3.3853
  22        3.3867
  23        9.7293
  24       10.7103
  25       11.9694
  26       13.2832
  27       14.1953
  28       14.7786
  29       15.7969
  30       16.6890
  31       21.6650
  32       21.8307
 
  0.4583333E+00  0.8333333E-01  0.0000000E+00  0.1736111E-02
   1       -2.7198
   2       -1.9156
   3        0.1630
   4        0.1687
   5        0.5563
   6        0.7054
   7        0.7406
   8        0.7752
   9        1.0545
  10        1.0997
  11        1.8886
  12        1.9001
  13        2.2346
  14        2.3332
  15        2.4745
  16        2.5199
  17        2.5278
  18        2.5711
  19        2.8806
  20        2.9922
  21        3.3857
  22        3.3864
  23       10.2695
  24       11.3220
  25       11.3915
  26       12.6098
  27       14.3809
  28       14.7443
  29       15.7835
  30       16.3010
  31       22.1987
  32       22.4665
 
  0.5000000E+00  0.8333333E-01  0.0000000E+00  0.8680556E-03
   1       -2.3123
   2       -2.3123
   3        0.1868
   4        0.1868
   5        0.6653
   6        0.6653
   7        0.8713
   8        0.8713
   9        0.9126
  10        0.9126
  11        1.8779
  12        1.8779
  13        2.3523
  14        2.3523
  15        2.4433
  16        2.4433
  17        2.5063
  18        2.5063
  19        2.9345
  20        2.9345
  21        3.3860
  22        3.3860
  23       10.8239
  24       10.8239
  25       11.9557
  26       11.9557
  27       14.5805
  28       14.5805
  29       15.9825
  30       15.9825
  31       22.7569
  32       22.7569
 
  0.1250000E+00  0.1250000E+00  0.0000000E+00  0.8680556E-03
   1       -4.9693
   2       -0.6113
   3       -0.6113
   4       -0.5219
   5       -0.0517
   6       -0.0517
   7       -0.0496
   8        1.4346
   9        1.6223
  10        1.6385
  11        2.4847
  12        2.5795
  13        2.7800
  14        2.8603
  15        2.8603
  16        3.0843
  17        3.1685
  18        3.1685
  19        3.3353
  20        3.3353
  21        3.3698
  22        5.9947
  23        5.9947
  24        7.5425
  25       13.2871
  26       14.7232
  27       14.7232
  28       16.0837
  29       18.4234
  30       18.4234
  31       18.9046
  32       18.9046
 
  0.1666667E+00  0.1250000E+00  0.0000000E+00  0.1736111E-02
   1       -4.8097
   2       -0.6147
   3       -0.5309
   4       -0.4491
   5       -0.0071
   6       -0.0024
   7       -0.0024
   8        1.3925
   9        1.6566
  10        1.6703
  11        2.4510
  12        2.5959
  13        2.5967
  14        2.6156
  15        2.7477
  16        3.0282
  17        3.1059
  18        3.1553
  19        3.2640
  20        3.3350
  21        3.3533
  22        5.4153
  23        6.3469
  24        7.8830
  25       13.3177
  26       14.8056
  27       15.3497
  28       15.6493
  29       17.7307
  30       18.4333
  31       18.6356
  32       19.1266
 
  0.2083333E+00  0.1250000E+00  0.0000000E+00  0.1736111E-02
   1       -4.6066
   2       -0.6336
   3       -0.4325
   4       -0.3600
   5        0.0492
   6        0.0580
   7        0.0612
   8        1.3347
   9        1.7056
  10        1.7094
  11        2.3603
  12        2.3866
  13        2.4039
  14        2.6093
  15        2.6240
  16        2.9587
  17        3.0307
  18        3.1299
  19        3.1767
  20        3.3346
  21        3.3432
  22        4.8446
  23        6.7372
  24        8.2838
  25       13.3310
  26       14.6724
  27       14.9122
  28       16.6800
  29       17.0068
  30       17.9331
  31       18.9028
  32       19.4109
 
  0.2500000E+00  0.1250000E+00  0.0000000E+00  0.1736111E-02
   1       -4.3614
   2       -0.6812
   3       -0.3204
   4       -0.2583
   5        0.1163
   6        0.1313
   7        0.1393
   8        1.2639
   9        1.7537
  10        1.7677
  11        2.1060
  12        2.1635
  13        2.3506
  14        2.4460
  15        2.6604
  16        2.8783
  17        2.9445
  18        3.0761
  19        3.0910
  20        3.3342
  21        3.3372
  22        4.3277
  23        7.1551
  24        8.7331
  25       13.2399
  26       14.1462
  27       15.0418
  28       16.2745
  29       17.4366
  30       17.7772
  31       19.2211
  32       19.5009
 
  0.2916667E+00  0.1250000E+00  0.0000000E+00  0.1736111E-02
   1       -4.0766
   2       -0.7745
   3       -0.1998
   4       -0.1483
   5        0.1933
   6        0.2165
   7        0.2320
   8        1.1822
   9        1.7984
  10        1.8417
  11        1.8589
  12        1.9370
  13        2.2651
  14        2.2995
  15        2.7034
  16        2.7910
  17        2.8507
  18        2.9651
  19        3.0363
  20        3.3337
  21        3.3337
  22        3.8964
  23        7.5946
  24        9.2224
  25       12.8704
  26       13.9497
  27       15.1887
  28       15.5454
  29       16.9708
  30       18.8985
  31       19.0651
  32       19.5865
 
  0.3333333E+00  0.1250000E+00  0.0000000E+00  0.1736111E-02
   1       -3.7551
   2       -0.9314
   3       -0.0778
   4       -0.0359
   5        0.2789
   6        0.3126
   7        0.3394
   8        1.0916
   9        1.6227
  10        1.7136
  11        1.8340
  12        1.9264
  13        2.0859
  14        2.2638
  15        2.7025
  16        2.7520
  17        2.7544
  18        2.8467
  19        2.9606
  20        3.3317
  21        3.3331
  22        3.5670
  23        8.0523
  24        9.7458
  25       12.3174
  26       13.9911
  27       14.8263
  28       15.3321
  29       16.5707
  30       18.5956
  31       19.9374
  32       19.9945
 
  0.3750000E+00  0.1250000E+00  0.0000000E+00  0.1736111E-02
   1       -3.4014
   2       -1.1635
   3        0.0370
   4        0.0706
   5        0.3719
   6        0.4193
   7        0.4617
   8        0.9941
   9        1.3999
  10        1.4976
  11        1.8469
  12        1.9361
  13        2.0211
  14        2.2614
  15        2.6203
  16        2.6627
  17        2.7237
  18        2.8056
  19        2.8590
  20        3.3307
  21        3.3325
  22        3.3370
  23        8.5266
  24       10.2993
  25       11.7309
  26       14.1213
  27       14.1219
  28       15.4008
  29       16.3173
  30       18.1243
  31       20.4409
  32       20.7033
 
  0.4166667E+00  0.1250000E+00  0.0000000E+00  0.1736111E-02
   1       -3.0214
   2       -1.4680
   3        0.1342
   4        0.1595
   5        0.4708
   6        0.5381
   7        0.5989
   8        0.8917
   9        1.1920
  10        1.2917
  11        1.8324
  12        1.8359
  13        2.1245
  14        2.3029
  15        2.5535
  16        2.5841
  17        2.5988
  18        2.7357
  19        2.8639
  20        3.1851
  21        3.3304
  22        3.3319
  23        9.0169
  24       10.8798
  25       11.1520
  26       13.4329
  27       14.3014
  28       15.2819
  29       16.3288
  30       17.6710
  31       20.9212
  32       21.3013
 
  0.4583333E+00  0.1250000E+00  0.0000000E+00  0.1736111E-02
   1       -2.6237
   2       -1.8279
   3        0.2024
   4        0.2167
   5        0.5740
   6        0.6731
   7        0.7508
   8        0.7862
   9        1.0006
  10        1.0979
  11        1.7885