       N       E                     dE             d eps       ncg     rms          rms(c)
DAV:   1     0.335935610956E+03    0.33594E+03   -0.27330E+04 30800   0.298E+03
DAV:   2     0.834415741121E+01   -0.32759E+03   -0.30867E+03 29192   0.442E+02
DAV:   3    -0.175312797099E+02   -0.25875E+02   -0.25309E+02 31512   0.147E+02
DAV:   4    -0.178834189487E+02   -0.35214E+00   -0.35183E+00 32784   0.187E+01
DAV:   5    -0.178840937210E+02   -0.67477E-03   -0.67476E-03 32304   0.795E-01    0.141E+01
DAV:   6    -0.151983006136E+02    0.26858E+01   -0.19479E+01 32192   0.748E+01    0.458E+00
DAV:   7    -0.143718672901E+02    0.82643E+00   -0.30700E+00 33144   0.288E+01    0.148E+00
DAV:   8    -0.143083597412E+02    0.63508E-01   -0.22477E-02 36904   0.130E+00    0.517E-01
DAV:   9    -0.143024361370E+02    0.59236E-02   -0.46026E-03 38480   0.108E+00    0.319E-02
DAV:  10    -0.143025184146E+02   -0.82278E-04   -0.62476E-04 31200   0.182E-01    0.775E-03
DAV:  11    -0.143025175374E+02    0.87715E-06   -0.24496E-05 32800   0.530E-02    0.392E-03
DAV:  12    -0.143025217768E+02   -0.42393E-05   -0.34068E-07 36728   0.973E-03    0.928E-04
DAV:  13    -0.143025220133E+02   -0.23657E-06   -0.32030E-08 28560   0.236E-03    0.112E-04
DAV:  14    -0.143025220002E+02    0.13130E-07   -0.23198E-09 18624   0.367E-04    0.208E-05
DAV:  15    -0.143025219937E+02    0.65547E-08   -0.19680E-10 17624   0.127E-04
   1 F= -.14302522E+02 E0= -.14302488E+02  d E =-.686145E-04
