    4    4    1    1
  0.1557351E+02  0.3964138E-09  0.3964138E-09  0.3964138E-09  0.5000000E-15
  1.000000000000000E-004
  CAR 
 unknown system                          
   44 1330   32
 
  0.0000000E+00  0.0000000E+00  0.0000000E+00  0.2143347E-04
   1       -5.7023
   2       -1.7865
   3       -1.7865
   4       -1.7865
   5       -1.4865
   6       -1.4865
   7       -1.4865
   8       -0.5881
   9       -0.5881
  10       -0.5881
  11       -0.0507
  12       -0.0507
  13        0.3085
  14        0.3085
  15        0.3085
  16        0.4087
  17        0.4087
  18        0.4087
  19        0.4087
  20        0.4087
  21        0.4087
  22        3.4478
  23        3.4478
  24        3.4478
  25        7.1103
  26        7.1103
  27        7.1103
  28       12.8871
  29       12.8871
  30       12.8871
  31       12.8871
  32       12.8871
 
  0.2777778E-01  0.0000000E+00  0.0000000E+00  0.1286008E-03
   1       -5.6946
   2       -1.7868
   3       -1.7833
   4       -1.7833
   5       -1.4848
   6       -1.4847
   7       -1.4847
   8       -0.5899
   9       -0.5867
  10       -0.5867
  11       -0.0523
  12       -0.0500
  13        0.3065
  14        0.3065
  15        0.3078
  16        0.3992
  17        0.3992
  18        0.4063
  19        0.4063
  20        0.4087
  21        0.4087
  22        3.3776
  23        3.4646
  24        3.4646
  25        7.1138
  26        7.1138
  27        7.1968
  28       12.8258
  29       12.8258
  30       12.8425
  31       12.8425
  32       12.8978
 
  0.5555556E-01  0.0000000E+00  0.0000000E+00  0.1286008E-03
   1       -5.6714
   2       -1.7879
   3       -1.7739
   4       -1.7739
   5       -1.4799
   6       -1.4794
   7       -1.4794
   8       -0.5952
   9       -0.5822
  10       -0.5822
  11       -0.0571
  12       -0.0480
  13        0.3003
  14        0.3003
  15        0.3057
  16        0.3712
  17        0.3712
  18        0.3989
  19        0.3989
  20        0.4087
  21        0.4087
  22        3.1845
  23        3.5144
  24        3.5144
  25        7.1246
  26        7.1246
  27        7.4388
  28       12.6541
  29       12.6541
  30       12.7149
  31       12.7149
  32       12.9298
 
  0.8333333E-01  0.0000000E+00  0.0000000E+00  0.1286008E-03
   1       -5.6329
   2       -1.7902
   3       -1.7584
   4       -1.7584
   5       -1.4716
   6       -1.4706
   7       -1.4705
   8       -0.6039
   9       -0.5749
  10       -0.5749
  11       -0.0649
  12       -0.0447
  13        0.2902
  14        0.2902
  15        0.3023
  16        0.3265
  17        0.3265
  18        0.3868
  19        0.3868
  20        0.4088
  21        0.4088
  22        2.9066
  23        3.5952
  24        3.5952
  25        7.1425
  26        7.1425
  27        7.7988
  28       12.3990
  29       12.3990
  30       12.5200
  31       12.5200
  32       12.9830
 
  0.1111111E+00  0.0000000E+00  0.0000000E+00  0.1286008E-03
   1       -5.5790
   2       -1.7946
   3       -1.7370
   4       -1.7370
   5       -1.4602
   6       -1.4581
   7       -1.4581
   8       -0.6160
   9       -0.5646
  10       -0.5646
  11       -0.0758
  12       -0.0400
  13        0.2677
  14        0.2677
  15        0.2761
  16        0.2761
  17        0.2975
  18        0.3701
  19        0.3701
  20        0.4088
  21        0.4088
  22        2.5795
  23        3.7046
  24        3.7046
  25        7.1679
  26        7.1679
  27        8.2418
  28       12.0885
  29       12.0885
  30       12.2762
  31       12.2762
  32       13.0573
 
  0.1388889E+00  0.0000000E+00  0.0000000E+00  0.1286008E-03
   1       -5.5099
   2       -1.8024
   3       -1.7102
   4       -1.7102
   5       -1.4456
   6       -1.4421
   7       -1.4421
   8       -0.6314
   9       -0.5514
  10       -0.5514
  11       -0.0896
  12       -0.0341
  13        0.1977
  14        0.1977
  15        0.2582
  16        0.2582
  17        0.2914
  18        0.3490
  19        0.3490
  20        0.4088
  21        0.4088
  22        2.2291
  23        3.8398
  24        3.8398
  25        7.2009
  26        7.2009
  27        8.7431
  28       11.7436
  29       11.7436
  30       12.0006
  31       12.0006
  32       13.1522
 
  0.1666667E+00  0.0000000E+00  0.0000000E+00  0.1286008E-03
   1       -5.4257
   2       -1.8152
   3       -1.6782
   4       -1.6782
   5       -1.4279
   6       -1.4224
   7       -1.4224
   8       -0.6499
   9       -0.5353
  10       -0.5353
  11       -0.1060
  12       -0.0270
  13        0.1191
  14        0.1191
  15        0.2367
  16        0.2367
  17        0.2841
  18        0.3238
  19        0.3238
  20        0.4088
  21        0.4088
  22        1.8724
  23        3.9978
  24        3.9978
  25        7.2416
  26        7.2416
  27        9.2872
  28       11.3788
  29       11.3788
  30       11.7064
  31       11.7064
  32       13.2675
 
  0.1944444E+00  0.0000000E+00  0.0000000E+00  0.1286008E-03
   1       -5.3266
   2       -1.8357
   3       -1.6419
   4       -1.6419
   5       -1.4074
   6       -1.3990
   7       -1.3990
   8       -0.6715
   9       -0.5165
  10       -0.5165
  11       -0.1249
  12       -0.0186
  13        0.0346
  14        0.0346
  15        0.2119
  16        0.2119
  17        0.2756
  18        0.2949
  19        0.2949
  20        0.4089
  21        0.4089
  22        1.5215
  23        4.1760
  24        4.1760
  25        7.2905
  26        7.2905
  27        9.8644
  28       11.0032
  29       11.0032
  30       11.4038
  31       11.4038
  32       13.4029
 
  0.2222222E+00  0.0000000E+00  0.0000000E+00  0.1286008E-03
   1       -5.2128
   2       -1.8670
   3       -1.6018
   4       -1.6018
   5       -1.3841
   6       -1.3720
   7       -1.3720
   8       -0.6958
   9       -0.4949
  10       -0.4949
  11       -0.1459
  12       -0.0537
  13       -0.0537
  14       -0.0092
  15        0.1841
  16        0.1841
  17        0.2627
  18        0.2627
  19        0.2659
  20        0.4089
  21        0.4089
  22        1.1854
  23        4.3723
  24        4.3723
  25        7.3478
  26        7.3478
  27       10.4685
  28       10.6231
  29       10.6231
  30       11.1000
  31       11.1000
  32       13.5577
 
  0.2500000E+00  0.0000000E+00  0.0000000E+00  0.1286008E-03
   1       -5.0845
   2       -1.9133
   3       -1.5588
   4       -1.5588
   5       -1.3582
   6       -1.3411
   7       -1.3411
   8       -0.7229
   9       -0.4706
  10       -0.4706
  11       -0.1687
  12       -0.1440
  13       -0.1440
  14        0.0013
  15        0.1539
  16        0.1539
  17        0.2275
  18        0.2275
  19        0.2552
  20        0.4089
  21        0.4089
  22        0.8720
  23        4.5849
  24        4.5849
  25        7.4138
  26        7.4138
  27       10.2423
  28       10.2423
  29       10.8001
  30       10.8001
  31       11.0956
  32       13.7316
 
  0.2777778E+00  0.0000000E+00  0.0000000E+00  0.1286008E-03
   1       -4.9421
   2       -1.9793
   3       -1.5139
   4       -1.5139
   5       -1.3298
   6       -1.3065
   7       -1.3065
   8       -0.7523
   9       -0.4438
  10       -0.4438
  11       -0.2349
  12       -0.2349
  13       -0.1928
  14        0.0127
  15        0.1217
  16        0.1217
  17        0.1898
  18        0.1898
  19        0.2436
  20        0.4090
  21        0.4090
  22        0.5886
  23        4.8121
  24        4.8121
  25        7.4888
  26        7.4888
  27        9.8635
  28        9.8635
  29       10.5080
  30       10.5080
  31       11.7429
  32       13.9240
 
  0.3055556E+00  0.0000000E+00  0.0000000E+00  0.1286008E-03
   1       -4.7859
   2       -2.0702
   3       -1.4683
   4       -1.4683
   5       -1.2993
   6       -1.2680
   7       -1.2680
   8       -0.7839
   9       -0.4145
  10       -0.4145
  11       -0.3252
  12       -0.3252
  13       -0.2176
  14        0.0250
  15        0.0886
  16        0.0886
  17        0.1500
  18        0.1500
  19        0.2310
  20        0.3418
  21        0.4090
  22        0.4090
  23        5.0528
  24        5.0528
  25        7.5732
  26        7.5732
  27        9.4886
  28        9.4886
  29       10.2266
  30       10.2266
  31       12.4084
  32       14.1344
 
  0.3333333E+00  0.0000000E+00  0.0000000E+00  0.1286008E-03
   1       -4.6166
   2       -2.1898
   3       -1.4234
   4       -1.4234
   5       -1.2667
   6       -1.2256
   7       -1.2256
   8       -0.8175
   9       -0.4141
  10       -0.4141
  11       -0.3828
  12       -0.3828
  13       -0.2426
  14        0.0381
  15        0.0553
  16        0.0553
  17        0.1086
  18        0.1086
  19        0.1365
  20        0.2177
  21        0.4091
  22        0.4091
  23        5.3060
  24        5.3060
  25        7.6669
  26        7.6669
  27        9.1190
  28        9.1190
  29        9.9580
  30        9.9580
  31       13.0907
  32       14.3622
 
  0.3611111E+00  0.0000000E+00  0.0000000E+00  0.1286008E-03
   1       -4.4348
   2       -2.3390
   3       -1.3807
   4       -1.3807
   5       -1.2324
   6       -1.1792
   7       -1.1792
   8       -0.8527
   9       -0.5008
  10       -0.5008
  11       -0.3489
  12       -0.3489
  13       -0.2669
  14       -0.0256
  15        0.0232
  16        0.0232
  17        0.0519
  18        0.0658
  19        0.0658
  20        0.2037
  21        0.4091
  22        0.4091
  23        5.5709
  24        5.5709
  25        7.7698
  26        7.7698
  27        8.7555
  28        8.7555
  29        9.7045
  30        9.7045
  31       13.7887
  32       14.6070
 
  0.3888889E+00  0.0000000E+00  0.0000000E+00  0.1286008E-03
   1       -4.2412
   2       -2.5157
   3       -1.3420
   4       -1.3420
   5       -1.1966
   6       -1.1289
   7       -1.1289
   8       -0.8893
   9       -0.5848
  10       -0.5848
  11       -0.3129
  12       -0.3129
  13       -0.2894
  14       -0.1464
  15       -0.0063
  16       -0.0063
  17        0.0223
  18        0.0223
  19        0.0663
  20        0.1892
  21        0.4091
  22        0.4091
  23        5.8468
  24        5.8468
  25        7.8811
  26        7.8811
  27        8.3988
  28        8.3988
  29        9.4682
  30        9.4682
  31       14.5014
  32       14.8680
 
  0.4166667E+00  0.0000000E+00  0.0000000E+00  0.1286008E-03
   1       -4.0371
   2       -2.7146
   3       -1.3091
   4       -1.3091
   5       -1.1596
   6       -1.0745
   7       -1.0745
   8       -0.9270
   9       -0.6658
  10       -0.6658
  11       -0.3089
  12       -0.2751
  13       -0.2751
  14       -0.2308
  15       -0.0317
  16       -0.0317
  17       -0.0216
  18       -0.0216
  19        0.0812
  20        0.1741
  21        0.4091
  22        0.4091
  23        6.1332
  24        6.1332
  25        7.9983
  26        7.9983
  27        8.0497
  28        8.0497
  29        9.2527
  30        9.2527
  31       15.1449
  32       15.1468
 
  0.4444444E+00  0.0000000E+00  0.0000000E+00  0.1286008E-03
   1       -3.8239
   2       -2.9288
   3       -1.2840
   4       -1.2840
   5       -1.1215
   6       -1.0162
   7       -1.0162
   8       -0.9655
   9       -0.7434
  10       -0.7434
  11       -0.3239
  12       -0.2855
  13       -0.2356
  14       -0.2356
  15       -0.0657
  16       -0.0657
  17       -0.0514
  18       -0.0514
  19        0.0964
  20        0.1588
  21        0.4092
  22        0.4092
  23        6.4296
  24        6.4296
  25        7.7084
  26        7.7084
  27        8.1154
  28        8.1154
  29        9.0649
  30        9.0649
  31       15.4371
  32       15.4371
 
  0.4722222E+00  0.0000000E+00  0.0000000E+00  0.1286008E-03
   1       -3.6035
   2       -3.1520
   3       -1.2681
   4       -1.2681
   5       -1.0828
   6       -1.0045
   7       -0.9538
   8       -0.9538
   9       -0.8173
  10       -0.8173
  11       -0.3322
  12       -0.3170
  13       -0.1946
  14       -0.1946
  15       -0.1094
  16       -0.1094
  17       -0.0639
  18       -0.0639
  19        0.1119
  20        0.1432
  21        0.4092
  22        0.4092
  23        6.7357
  24        6.7357
  25        7.3755
  26        7.3755
  27        8.2152
  28        8.2152
  29        8.9224
  30        8.9224
  31       15.7440
  32       15.7440
 
  0.5000000E+00  0.0000000E+00  0.0000000E+00  0.6430041E-04
   1       -3.3783
   2       -3.3783
   3       -1.2627
   4       -1.2627
   5       -1.0437
   6       -1.0437
   7       -0.8875
   8       -0.8875
   9       -0.8875
  10       -0.8875
  11       -0.3310
  12       -0.3310
  13       -0.1525
  14       -0.1525
  15       -0.1525
  16       -0.1525
  17       -0.0681
  18       -0.0681
  19        0.1276
  20        0.1276
  21        0.4092
  22        0.4092
  23        7.0511
  24        7.0511
  25        7.0511
  26        7.0511
  27        8.2589
  28        8.2589
  29        8.8644
  30        8.8644
  31       16.0651
  32       16.0651
 
  0.2777778E-01  0.2777778E-01  0.0000000E+00  0.2572016E-03
   1       -5.6868
   2       -1.7836
   3       -1.7836
   4       -1.7802
   5       -1.4831
   6       -1.4831
   7       -1.4830
   8       -0.5909
   9       -0.5860
  10       -0.5852
  11       -0.0527
  12       -0.0505
  13        0.3044
  14        0.3057
  15        0.3057
  16        0.3913
  17        0.3967
  18        0.3967
  19        0.4063
  20        0.4063
  21        0.4071
  22        3.3942
  23        3.3942
  24        3.4813
  25        7.1174
  26        7.2005
  27        7.2005
  28       12.6639
  29       12.8364
  30       12.8364
  31       12.8531
  32       12.8531
 
  0.5555556E-01  0.2777778E-01  0.0000000E+00  0.5144033E-03
   1       -5.6637
   2       -1.7847
   3       -1.7742
   4       -1.7708
   5       -1.4781
   6       -1.4778
   7       -1.4777
   8       -0.5957
   9       -0.5819
  10       -0.5808
  11       -0.0570
  12       -0.0489
  13        0.2983
  14        0.2992
  15        0.3033
  16        0.3645
  17        0.3690
  18        0.3895
  19        0.3989
  20        0.4063
  21        0.4063
  22        3.2009
  23        3.4435
  24        3.5308
  25        7.1282
  26        7.2118
  27        7.4430
  28       12.4180
  29       12.6644
  30       12.7253
  31       12.8682
  32       12.8774
 
  0.8333333E-01  0.2777778E-01  0.0000000E+00  0.5144033E-03
   1       -5.6252
   2       -1.7870
   3       -1.7586
   4       -1.7553
   5       -1.4699
   6       -1.4689
   7       -1.4688
   8       -0.6043
   9       -0.5747
  10       -0.5735
  11       -0.0648
  12       -0.0455
  13        0.2876
  14        0.2882
  15        0.2994
  16        0.3205
  17        0.3256
  18        0.3776
  19        0.3868
  20        0.4060
  21        0.4063
  22        2.9227
  23        3.5236
  24        3.6112
  25        7.1462
  26        7.2308
  27        7.8035
  28       12.1188
  29       12.4091
  30       12.5301
  31       12.7503
  32       12.9215
 
  0.1111111E+00  0.2777778E-01  0.0000000E+00  0.5144033E-03
   1       -5.5713
   2       -1.7913
   3       -1.7372
   4       -1.7340
   5       -1.4585
   6       -1.4565
   7       -1.4564
   8       -0.6163
   9       -0.5644
  10       -0.5633
  11       -0.0756
  12       -0.0409
  13        0.2579
  14        0.2623
  15        0.2742
  16        0.2822
  17        0.2937
  18        0.3614
  19        0.3701
  20        0.4060
  21        0.4063
  22        2.5957
  23        3.6318
  24        3.7201
  25        7.1716
  26        7.2576
  27        8.2469
  28       11.7853
  29       12.0983
  30       12.2860
  31       12.5495
  32       12.9998
 
  0.1388889E+00  0.2777778E-01  0.0000000E+00  0.5144033E-03
   1       -5.5023
   2       -1.7990
   3       -1.7102
   4       -1.7073
   5       -1.4439
   6       -1.4405
   7       -1.4404
   8       -0.6317
   9       -0.5512
  10       -0.5503
  11       -0.0893
  12       -0.0349
  13        0.1917
  14        0.1929
  15        0.2564
  16        0.2602
  17        0.2859
  18        0.3413
  19        0.3490
  20        0.4060
  21        0.4063
  22        2.2455
  23        3.7652
  24        3.8547
  25        7.2046
  26        7.2923
  27        8.7485
  28       11.4314
  29       11.7533
  30       12.0101
  31       12.2972
  32       13.0890
 
  0.1666667E+00  0.2777778E-01  0.0000000E+00  0.5144033E-03
   1       -5.4181
   2       -1.8117
   3       -1.6782
   4       -1.6755
   5       -1.4263
   6       -1.4209
   7       -1.4208
   8       -0.6501
   9       -0.5352
  10       -0.5344
  11       -0.1056
  12       -0.0276
  13        0.1136
  14        0.1149
  15        0.2350
  16        0.2381
  17        0.2751
  18        0.3186
  19        0.3238
  20        0.4060
  21        0.4063
  22        1.8896
  23        3.9210
  24        4.0121
  25        7.2455
  26        7.3353
  27        9.2928
  28       11.0665
  29       11.3883
  30       11.7157
  31       12.0129
  32       13.2036
 
  0.1944444E+00  0.2777778E-01  0.0000000E+00  0.5144033E-03
   1       -5.3190
   2       -1.8320
   3       -1.6417
   4       -1.6392
   5       -1.4058
   6       -1.3976
   7       -1.3975
   8       -0.6716
   9       -0.5164
  10       -0.5158
  11       -0.1244
  12       -0.0192
  13        0.0293
  14        0.0310
  15        0.2103
  16        0.2130
  17        0.2588
  18        0.2949
  19        0.2961
  20        0.4060
  21        0.4064
  22        1.5398
  23        4.0966
  24        4.1898
  25        7.2944
  26        7.3869
  27        9.8701
  28       10.6969
  29       11.0126
  30       11.4129
  31       11.7109
  32       13.3371
 
  0.2222222E+00  0.2777778E-01  0.0000000E+00  0.5144033E-03
   1       -5.2052
   2       -1.8631
   3       -1.6015
   4       -1.5993
   5       -1.3825
   6       -1.3706
   7       -1.3706
   8       -0.6960
   9       -0.4948
  10       -0.4946
  11       -0.1452
  12       -0.0589
  13       -0.0568
  14       -0.0096
  15        0.1826
  16        0.1851
  17        0.2333
  18        0.2627
  19        0.2774
  20        0.4061
  21        0.4064
  22        1.2057
  23        4.2896
  24        4.3856
  25        7.3518
  26        7.4474
  27       10.3267
  28       10.4743
  29       10.6324
  30       11.1089
  31       11.4014
  32       13.4912
 
  0.2500000E+00  0.2777778E-01  0.0000000E+00  0.5144033E-03
   1       -5.0770
   2       -1.9092
   3       -1.5583
   4       -1.5564
   5       -1.3567
   6       -1.3399
   7       -1.3398
   8       -0.7229
   9       -0.4707
  10       -0.4705
  11       -0.1677
  12       -0.1491
  13       -0.1466
  14        0.0010
  15        0.1525
  16        0.1548
  17        0.1989
  18        0.2275
  19        0.2622
  20        0.4061
  21        0.4064
  22        0.8959
  23        4.4981
  24        4.5976
  25        7.4178
  26        7.5171
  27        9.9587
  28       10.2516
  29       10.8089
  30       11.0918
  31       11.1014
  32       13.6630
 
  0.2777778E+00  0.2777778E-01  0.0000000E+00  0.5144033E-03
   1       -4.9346
   2       -1.9750
   3       -1.5132
   4       -1.5116
   5       -1.3284
   6       -1.3054
   7       -1.3052
   8       -0.7523
   9       -0.4445
  10       -0.4437
  11       -0.2399
  12       -0.2370
  13       -0.1914
  14        0.0126
  15        0.1205
  16        0.1227
  17        0.1569
  18        0.1898
  19        0.2480
  20        0.4062
  21        0.4064
  22        0.6191
  23        4.7207
  24        4.8244
  25        7.4929
  26        7.5964
  27        9.5947
  28        9.8728
  29       10.5167
  30       10.7870
  31       11.7486
  32       13.8537
 
  0.3055556E+00  0.2777778E-01  0.0000000E+00  0.5144033E-03
   1       -4.7786
   2       -2.0656
   3       -1.4674
   4       -1.4661
   5       -1.2979
   6       -1.2672
   7       -1.2668
   8       -0.7838
   9       -0.4161
  10       -0.4144
  11       -0.3300
  12       -0.3269
  13       -0.2155
  14        0.0251
  15        0.0875
  16        0.0895
  17        0.1045
  18        0.1500
  19        0.2330
  20        0.3872
  21        0.4062
  22        0.4065
  23        4.9561
  24        5.0647
  25        7.5770
  26        7.6856
  27        9.2361
  28        9.4979
  29       10.2354
  30       10.4911
  31       12.4140
  32       14.0609
 
  0.3333333E+00  0.2777778E-01  0.0000000E+00  0.5144033E-03
   1       -4.6093
   2       -2.1849
   3       -1.4223
   4       -1.4212
   5       -1.2655
   6       -1.2251
   7       -1.2245
   8       -0.8173
   9       -0.4187
  10       -0.4154
  11       -0.3861
  12       -0.3828
  13       -0.2390
  14        0.0304
  15        0.0384
  16        0.0544
  17        0.0562
  18        0.1085
  19        0.1992
  20        0.2347
  21        0.4063
  22        0.4065
  23        5.2031
  24        5.3175
  25        7.6702
  26        7.7847
  27        8.8839
  28        9.1283
  29        9.9671
  30       10.2068
  31       13.0961
  32       14.2864
 
  0.3611111E+00  0.2777778E-01  0.0000000E+00  0.5144033E-03
   1       -4.4276
   2       -2.3338
   3       -1.3794
   4       -1.3785
   5       -1.2312
   6       -1.1791
   7       -1.1782
   8       -0.8524
   9       -0.5052
  10       -0.5018
  11       -0.3558
  12       -0.3489
  13       -0.2598
  14       -0.0722
  15        0.0225
  16        0.0241
  17        0.0524
  18        0.0658
  19        0.1086
  20        0.2090
  21        0.4063
  22        0.4065
  23        5.4611
  24        5.5821
  25        7.7709
  26        7.8934
  27        8.5400
  28        8.7649
  29        9.7143
  30        9.9367
  31       13.7936
  32       14.5282
 
  0.3888889E+00  0.2777778E-01  0.0000000E+00  0.5144033E-03
   1       -4.2342
   2       -2.5102
   3       -1.3405
   4       -1.3397
   5       -1.1955
   6       -1.1293
   7       -1.1280
   8       -0.8889
   9       -0.5890
  10       -0.5855
  11       -0.3313
  12       -0.3129
  13       -0.2711
  14       -0.1720
  15       -0.0069
  16       -0.0056
  17        0.0223
  18        0.0454
  19        0.0670
  20        0.1930
  21        0.4064
  22        0.4065
  23        5.7291
  24        5.8577
  25        7.8706
  26        8.0105
  27        8.2130
  28        8.4083
  29        9.4795
  30        9.6831
  31       14.5046
  32       14.7856
 
  0.4166667E+00  0.2777778E-01  0.0000000E+00  0.5144033E-03
   1       -4.0302
   2       -2.7088
   3       -1.3074
   4       -1.3068
   5       -1.1585
   6       -1.0756
   7       -1.0738
   8       -0.9265
   9       -0.6697
  10       -0.6662
  11       -0.3271
  12       -0.2751
  13       -0.2572
  14       -0.2479
  15       -0.0322
  16       -0.0311
  17       -0.0217
  18       -0.0065
  19        0.0821
  20        0.1772
  21        0.4064
  22        0.4065
  23        6.0067
  24        6.1438
  25        7.8162
  26        8.0549
  27        8.0593
  28        8.1327
  29        9.2674
  30        9.4489
  31       15.0574
  32       15.0756
 
  0.4444444E+00  0.2777778E-01  0.0000000E+00  0.5144033E-03
   1       -3.8171
   2       -2.9228
   3       -1.2820
   4       -1.2816
   5       -1.1206
   6       -1.0178
   7       -1.0156
   8       -0.9649
   9       -0.7469
  10       -0.7436
  11       -0.3356
  12       -0.2984
  13       -0.2356
  14       -0.2244
  15       -0.0657
  16       -0.0543
  17       -0.0516
  18       -0.0509
  19        0.0976
  20        0.1613
  21        0.4064
  22        0.4065
  23        6.2932
  24        6.4400
  25        7.5154
  26        7.7181
  27        8.1540
  28        8.2505
  29        9.0881
  30        9.2392
  31       15.3449
  32       15.3687
 
  0.4722222E+00  0.2777778E-01  0.0000000E+00  0.5144033E-03
   1       -3.5968
   2       -3.1457
   3       -1.2659
   4       -1.2657
   5       -1.0820
   6       -1.0038
   7       -0.9560
   8       -0.9534
   9       -0.8205
  10       -0.8173
  11       -0.3421
  12       -0.3277
  13       -0.1947
  14       -0.1855
  15       -0.1094
  16       -0.0999
  17       -0.0639
  18       -0.0635
  19        0.1134
  20        0.1454
  21        0.4065
  22        0.4065
  23        6.5882
  24        6.7459
  25        7.2009
  26        7.3853
  27        8.2668
  28        8.3377
  29        8.9689
  30        9.0657
  31       15.6465
  32       15.6730
 
  0.5000000E+00  0.2777778E-01  0.0000000E+00  0.2572016E-03
   1       -3.3719
   2       -3.3719
   3       -1.2604
   4       -1.2604
   5       -1.0430
   6       -1.0430
   7       -0.8902
   8       -0.8902
   9       -0.8873
  10       -0.8873
  11       -0.3408
  12       -0.3408
  13       -0.1525
  14       -0.1525
  15       -0.1437
  16       -0.1437
  17       -0.0680
  18       -0.0680
  19        0.1294
  20        0.1294
  21        0.4065
  22        0.4065
  23        6.8911
  24        6.8911
  25        7.0611
  26        7.0611
  27        8.3450
  28        8.3450
  29        8.9593
  30        8.9593
  31       15.9618
  32       15.9790
 
  0.5555556E-01  0.5555556E-01  0.0000000E+00  0.2572016E-03
   1       -5.6406
   2       -1.7751
   3       -1.7751
   4       -1.7615
   5       -1.4728
   6       -1.4728
   7       -1.4724
   8       -0.5990
   9       -0.5795
  10       -0.5766
  11       -0.0588
  12       -0.0496
  13        0.2923
  14        0.2957
  15        0.2957
  16        0.3415
  17        0.3624
  18        0.3624
  19        0.3989
  20        0.3989
  21        0.4024
  22        3.2492
  23        3.2492
  24        3.5794
  25        7.1390
  26        7.4557
  27        7.4557
  28       12.1033
  29       12.6955
  30       12.6955
  31       12.7565
  32       12.7565
 
  0.8333333E-01  0.5555556E-01  0.0000000E+00  0.5144033E-03
   1       -5.6021
   2       -1.7773
   3       -1.7594
   4       -1.7462
   5       -1.4647
   6       -1.4641
   7       -1.4637
   8       -0.6065
   9       -0.5732
  10       -0.5695
  11       -0.0652
  12       -0.0474
  13        0.2797
  14        0.2823
  15        0.2894
  16        0.3008
  17        0.3227
  18        0.3520
  19        0.3868
  20        0.3989
  21        0.4001
  22        2.9703
  23        3.3275
  24        3.6586
  25        7.1571
  26        7.4769
  27        7.8177
  28       11.7556
  29       12.4394
  30       12.5604
  31       12.7471
  32       12.8083
 
  0.1111111E+00  0.5555556E-01  0.0000000E+00  0.5144033E-03
   1       -5.5483
   2       -1.7814
   3       -1.7378
   4       -1.7252
   5       -1.4533
   6       -1.4517
   7       -1.4514
   8       -0.6179
   9       -0.5634
  10       -0.5597
  11       -0.0755
  12       -0.0430
  13        0.2409
  14        0.2452
  15        0.2685
  16        0.2798
  17        0.2878
  18        0.3385
  19        0.3700
  20        0.3989
  21        0.3989
  22        2.6431
  23        3.4331
  24        3.7661
  25        7.1827
  26        7.5068
  27        8.2622
  28       11.3890
  29       12.1278
  30       12.3154
  31       12.8190
  32       12.8504
 
  0.1388889E+00  0.5555556E-01  0.0000000E+00  0.5144033E-03
   1       -5.4793
   2       -1.7888
   3       -1.7106
   4       -1.6987
   5       -1.4388
   6       -1.4358
   7       -1.4355
   8       -0.6329
   9       -0.5505
  10       -0.5471
  11       -0.0888
  12       -0.0369
  13        0.1756
  14        0.1779
  15        0.2509
  16        0.2644
  17        0.2654
  18        0.3233
  19        0.3489
  20        0.3984
  21        0.3989
  22        2.2937
  23        3.5629
  24        3.8990
  25        7.2159
  26        7.5457
  27        8.7647
  28       11.0130
  29       11.7822
  30       12.0386
  31       12.6645
  32       12.9110
 
  0.1666667E+00  0.5555556E-01  0.0000000E+00  0.5144033E-03
   1       -5.3953
   2       -1.8012
   3       -1.6782
   4       -1.6672
   5       -1.4214
   6       -1.4163
   7       -1.4161
   8       -0.6511
   9       -0.5347
  10       -0.5318
  11       -0.1048
  12       -0.0294
  13        0.0981
  14        0.1020
  15        0.2298
  16        0.2413
  17        0.2448
  18        0.3078
  19        0.3237
  20        0.3981
  21        0.3989
  22        1.9394
  23        3.7138
  24        4.0548
  25        7.2570
  26        7.5937
  27        9.3096
  28       10.6339
  29       11.4167
  30       11.7434
  31       12.4252
  32       13.0226
 
  0.1944444E+00  0.5555556E-01  0.0000000E+00  0.5144033E-03
   1       -5.2963
   2       -1.8210
   3       -1.6414
   4       -1.6314
   5       -1.4010
   6       -1.3931
   7       -1.3930
   8       -0.6723
   9       -0.5159
  10       -0.5140
  11       -0.1231
  12       -0.0207
  13        0.0139
  14        0.0199
  15        0.2054
  16        0.2158
  17        0.2171
  18        0.2930
  19        0.2948
  20        0.3980
  21        0.3989
  22        1.5926
  23        3.8833
  24        4.2308
  25        7.3061
  26        7.6513
  27        9.8873
  28       10.2560
  29       11.0407
  30       11.4399
  31       12.1522
  32       13.1534
 
  0.2222222E+00  0.5555556E-01  0.0000000E+00  0.5144033E-03
   1       -5.1827
   2       -1.8516
   3       -1.6007
   4       -1.5918
   5       -1.3779
   6       -1.3663
   7       -1.3663
   8       -0.6964
   9       -0.4944
  10       -0.4937
  11       -0.1434
  12       -0.0742
  13       -0.0662
  14       -0.0107
  15        0.1781
  16        0.1820
  17        0.1878
  18        0.2626
  19        0.2786
  20        0.3979
  21        0.3989
  22        1.2632
  23        4.0689
  24        4.4251
  25        7.3637
  26        7.7186
  27        9.8821
  28       10.4916
  29       10.6603
  30       11.1354
  31       11.8603
  32       13.3030
 
  0.2500000E+00  0.5555556E-01  0.0000000E+00  0.5144033E-03
   1       -5.0546
   2       -1.8970
   3       -1.5570
   4       -1.5493
   5       -1.3522
   6       -1.3360
   7       -1.3357
   8       -0.7231
   9       -0.4711
  10       -0.4703
  11       -0.1651