 vasp.4.6.28 25Jul05 complex 
 executed on             LinuxIFC date 2017.01.25  10:30:53
 running on    4 nodes
 distr:  one band on    1 nodes,    4 groups


--------------------------------------------------------------------------------------------------------


 INCAR:
 POTCAR:   PAW_PBE Au 06Sep2000                   
 POTCAR:   PAW_PBE Au 06Sep2000                   
   VRHFIN =Au: s1d10                                                            
   LEXCH  = PE                                                                  
   EATOM  =   926.0567 eV,   68.0632 Ry                                         
                                                                                
   TITEL  = PAW_PBE Au 06Sep2000                                                
   LULTRA =        F    use ultrasoft PP ?                                      
   IUNSCR =        1    unscreen: 0-lin 1-nonlin 2-no                           
   RPACOR =    2.330    partial core radius                                     
   POMASS =  196.966; ZVAL   =   11.000    mass and valenz                      
   RCORE  =    2.500    outmost cutoff radius                                   
   RWIGS  =    2.840; RWIGS  =    1.503    wigner-seitz radius (au A)           
   ENMAX  =  229.948; ENMIN  =  172.461 eV                                      
   RCLOC  =    1.964    cutoff for local pot                                    
   LCOR   =        T    correct aug charges                                     
   LPAW   =        T    paw PP                                                  
   EAUG   =  356.670                                                            
   DEXC   =    -.025                                                            
   RMAX   =    3.041    core radius for proj-oper                               
   RAUG   =    1.300    factor for augmentation sphere                          
   RDEP   =    2.598    radius for radial grids                                 
   QCUT   =   -4.111; QGAM   =    8.222    optimization parameters              
                                                                                
   Description                                                                  
     l     E      TYP  RCUT    TYP  RCUT                                        
     2   .000     23  2.500                                                     
     2   .000     23  2.500                                                     
     0   .000     23  2.500                                                     
     0   .000     23  2.500                                                     
     1  -.200     23  2.500                                                     
     1   .000     23  2.500                                                     
     3   .000      7   .000                                                     
  local pseudopotential read in
  partial core-charges read in
  atomic valenz-charges read in
  non local Contribution for L=           2  read in
    real space projection operators read in
  non local Contribution for L=           2  read in
    real space projection operators read in
  non local Contribution for L=           0  read in
    real space projection operators read in
  non local Contribution for L=           0  read in
    real space projection operators read in
  non local Contribution for L=           1  read in
    real space projection operators read in
  non local Contribution for L=           1  read in
    real space projection operators read in
    PAW grid and wavefunctions read in
 
   number of l-projection  operators is LMAX  =           6
   number of lm-projection operators is LMMAX =          18
 

 ----------------------------------------------------------------------------- 
|                                                                             |
|  ADVICE TO THIS USER RUNNING 'VASP/VAMP'   (HEAR YOUR MASTER'S VOICE ...):  |
|                                                                             |
|      You have a (more or less) 'large supercell' and for larger cells       |
|      it might be more efficient to use real space projection operators      |
|      So try LREAL= Auto  in the INCAR   file.                               |
|      Mind: If you want to do an extremely accurate calculations keep the    |
|      reciprocal projection scheme          (i.e. LREAL=.FALSE.)             |
|                                                                             |
 ----------------------------------------------------------------------------- 

 PAW_PBE Au 06Sep2000                   :
 energy of atom  1       EATOM= -926.0567
 kinetic energy error for atom=    0.0013 (will be added to EATOM!!)
 
 EXHCAR: internal setup
 exchange correlation table for  LEXCH =        8
   RHO(1)=    0.500       N(1)  =     2000
   RHO(2)=  100.500       N(2)  =     4000
 
 POSCAR: No title                                
  positions in direct lattice
  No initial velocities read in
 


--------------------------------------------------------------------------------------------------------


 ion  position               nearest neighbor table
   1  0.750  0.750  0.500-   3 3.09   5 3.09  14 3.09  19 3.09  20 3.09  26 3.09  11 3.09   6 3.09
                            18 3.09  29 3.09  10 3.09   8 3.09
   2  0.750  0.750  0.000-  12 3.08  10 3.09  11 3.09   8 3.09  18 3.09  22 3.09  27 3.09  26 3.09
                             5 3.09  32 3.09   3 3.09  20 3.09
   3  0.750  0.000  0.250-  12 3.08   5 3.09   9 3.09   1 3.09  19 3.09  28 3.09  18 3.09   6 3.09
                            27 3.09  13 3.09   4 3.09   2 3.09
   4  0.750  0.250  0.500-   6 3.09   8 3.09  10 3.09  13 3.09  29 3.09  31 3.09  21 3.09  28 3.09
                            14 3.09  19 3.09   3 3.09  20 3.09
   5  0.000  0.750  0.250-   1 3.09   3 3.09  14 3.09  15 3.09  25 3.09   2 3.09   7 3.09  16 3.09
                            10 3.09  22 3.09   6 3.09  12 3.09
   6  0.000  0.000  0.500-   4 3.09   7 3.09   8 3.09  11 3.09  13 3.09  16 3.09   1 3.09   3 3.09
                            17 3.09  23 3.09  21 3.09   5 3.09
   7  0.250  0.750  0.500-   6 3.09  11 3.09  16 3.09  18 3.09  29 3.09  30 3.09  19 3.09  26 3.09
                             5 3.09  14 3.09  25 3.09  23 3.09
   8  0.750  0.000  0.750-  12 3.08   4 3.09   6 3.09  11 3.09   2 3.09  27 3.09  31 3.09  26 3.09
                            19 3.09  21 3.09   9 3.09   1 3.09
   9  0.750  0.250  0.000-  12 3.08   3 3.09  20 3.09  21 3.09  28 3.09  32 3.09  27 3.09  13 3.09
                            31 3.09  22 3.09  10 3.09   8 3.09
  10  0.750  0.500  0.250-   2 3.09   4 3.09  13 3.09  18 3.09  22 3.09  29 3.09  14 3.09  28 3.09
                             5 3.09  32 3.09   9 3.09   1 3.09
  11  0.000  0.750  0.750-   2 3.09   6 3.09   7 3.09   8 3.09  22 3.09  30 3.09  20 3.09   1 3.09
                            23 3.09  15 3.09  14 3.09  12 3.09
  12  0.998  0.000  0.000-   9 3.08   3 3.08   2 3.08   8 3.08   5 3.09  21 3.09  11 3.09  13 3.09
                            15 3.11  23 3.11  24 3.11  16 3.11
  13  0.000  0.250  0.250-   4 3.09   6 3.09  10 3.09  16 3.09  22 3.09  24 3.09  17 3.09   3 3.09
                             9 3.09  25 3.09  14 3.09  12 3.09
  14  0.000  0.500  0.500-   1 3.09   5 3.09  17 3.09  20 3.09  21 3.09  25 3.09   7 3.09  10 3.09
                             4 3.09  30 3.09  13 3.09  11 3.09
  15  0.250  0.750  0.000-   5 3.09  23 3.09  25 3.09  26 3.09  32 3.09  18 3.09  22 3.09  27 3.09
                            11 3.09  30 3.09  16 3.09  12 3.11
  16  0.250  0.000  0.250-   6 3.09   7 3.09  13 3.09  18 3.09  24 3.09  27 3.09   5 3.09  19 3.09
                            28 3.09  17 3.09  15 3.09  12 3.11
  17  0.250  0.250  0.500-  14 3.09  19 3.09  21 3.09  23 3.09  25 3.09  28 3.09   6 3.09  13 3.09
                            29 3.09  31 3.09  30 3.09  16 3.09
  18  0.500  0.750  0.250-   2 3.09   7 3.09  10 3.09  16 3.09  27 3.09  29 3.09   1 3.09  25 3.09
                             3 3.09  15 3.09  19 3.09  32 3.09
  19  0.500  0.000  0.500-   1 3.09   3 3.09  17 3.09  23 3.09  26 3.09  28 3.09   4 3.09   7 3.09
                             8 3.09  16 3.09  18 3.09  31 3.09
  20  0.750  0.500  0.750-   1 3.09   9 3.09  14 3.09  21 3.09  26 3.09  32 3.09  11 3.09  29 3.09
                            31 3.09  22 3.09   4 3.09   2 3.09
  21  0.000  0.250  0.750-   9 3.09  14 3.09  17 3.09  20 3.09  23 3.09   8 3.09   4 3.09  24 3.09
                            30 3.09  22 3.09   6 3.09  12 3.09
  22  0.000  0.500  0.000-   2 3.09  10 3.09  11 3.09  13 3.09  24 3.09  30 3.09  20 3.09   9 3.09
                            25 3.09  15 3.09  21 3.09   5 3.09
  23  0.250  0.000  0.750-  15 3.09  17 3.09  19 3.09  21 3.09  26 3.09  11 3.09   6 3.09  27 3.09
                            31 3.09  24 3.09   7 3.09  12 3.11
  24  0.250  0.250  0.000-  13 3.09  16 3.09  22 3.09  27 3.09  30 3.09  31 3.09  21 3.09  28 3.09
                            32 3.09  25 3.09  23 3.09  12 3.11
  25  0.250  0.500  0.250-   5 3.09  14 3.09  15 3.09  17 3.09  28 3.09  32 3.09  22 3.09  13 3.09
                            29 3.09  18 3.09  24 3.09   7 3.09
  26  0.500  0.750  0.750-   1 3.09  15 3.09  19 3.09  20 3.09  23 3.09  32 3.09   8 3.09   2 3.09
                            30 3.09   7 3.09  27 3.09  29 3.09
  27  0.500  0.000  0.000-   2 3.09   8 3.09  16 3.09  18 3.09  24 3.09  31 3.09   9 3.09  23 3.09
                            15 3.09   3 3.09  28 3.09  26 3.09
  28  0.500  0.250  0.250-   3 3.09   9 3.09  17 3.09  19 3.09  25 3.09  32 3.09  10 3.09  24 3.09
                            16 3.09   4 3.09  29 3.09  27 3.09
  29  0.500  0.500  0.500-   4 3.09   7 3.09  10 3.09  18 3.09  30 3.09  31 3.09  20 3.09  25 3.09
                            17 3.09   1 3.09  26 3.09  28 3.09
  30  0.250  0.500  0.750-   7 3.09  11 3.09  22 3.09  24 3.09  29 3.09  31 3.09  26 3.09  14 3.09
                            21 3.09  32 3.09  17 3.09  15 3.09
  31  0.500  0.250  0.750-   4 3.09   8 3.09  24 3.09  27 3.09  29 3.09  30 3.09   9 3.09  17 3.09
                            20 3.09  23 3.09  19 3.09  32 3.09
  32  0.500  0.500  0.000-   9 3.09  15 3.09  20 3.09  25 3.09  26 3.09  28 3.09   2 3.09  10 3.09
                            24 3.09  30 3.09  18 3.09  31 3.09
 
  LATTYP: Found a simple cubic cell.
 ALAT       =     8.7505128200
  
  Lattice vectors:
  
 A1 = (   8.7505128200,   0.0000000000,   0.0000000000)
 A2 = (   0.0000001600,   8.7505128200,   0.0000000000)
 A3 = (   0.0000001600,   0.0000001600,   8.7505128200)
 Subroutine PRICEL returns:
 Original cell was already a primitive cell.
 

Analysis of symmetry for initial positions (statically):

 Routine SETGRP: Setting up the symmetry group for a 
 simple cubic supercell.


 Subroutine GETGRP returns: Found  8 space group operations
 (whereof  8 operations were pure point group operations)
 out of a pool of 48 trial point group operations.


The static configuration has the point symmetry C_4v.

Analysis of symmetry for dynamics (positions and initial velocities):

 Subroutine DYNSYM returns: Found  8 space group operations
 (whereof  8 operations were pure point group operations)
 out of a pool of  8 trial space group operations
 (whereof  8 operations were pure point group operations)
 and found also     1 'primitive' translations


The dynamic configuration has the point symmetry C_4v.
 
 
 KPOINTS: Automatic mesh                          

Automatic generation of k-mesh.
 
 Subroutine IBZKPT returns following result:
 ===========================================
 
 Found     40 irreducible k-points:
 
 Following reciprocal coordinates:
            Coordinates               Weight
  0.062500  0.062500  0.062500      8.000000
  0.187500  0.062500  0.062500      8.000000
  0.312500  0.062500  0.062500      8.000000
  0.437500  0.062500  0.062500      8.000000
  0.062500  0.187500  0.062500     16.000000
  0.187500  0.187500  0.062500     16.000000
  0.312500  0.187500  0.062500     16.000000
  0.437500  0.187500  0.062500     16.000000
  0.062500  0.312500  0.062500     16.000000
  0.187500  0.312500  0.062500     16.000000
  0.312500  0.312500  0.062500     16.000000
  0.437500  0.312500  0.062500     16.000000
  0.062500  0.437500  0.062500     16.000000
  0.187500  0.437500  0.062500     16.000000
  0.312500  0.437500  0.062500     16.000000
  0.437500  0.437500  0.062500     16.000000
  0.062500  0.187500  0.187500      8.000000
  0.187500  0.187500  0.187500      8.000000
  0.312500  0.187500  0.187500      8.000000
  0.437500  0.187500  0.187500      8.000000
  0.062500  0.312500  0.187500     16.000000
  0.187500  0.312500  0.187500     16.000000
  0.312500  0.312500  0.187500     16.000000
  0.437500  0.312500  0.187500     16.000000
  0.062500  0.437500  0.187500     16.000000
  0.187500  0.437500  0.187500     16.000000
  0.312500  0.437500  0.187500     16.000000
  0.437500  0.437500  0.187500     16.000000
  0.062500  0.312500  0.312500      8.000000
  0.187500  0.312500  0.312500      8.000000
  0.312500  0.312500  0.312500      8.000000
  0.437500  0.312500  0.312500      8.000000
  0.062500  0.437500  0.312500     16.000000
  0.187500  0.437500  0.312500     16.000000
  0.312500  0.437500  0.312500     16.000000
  0.437500  0.437500  0.312500     16.000000
  0.062500  0.437500  0.437500      8.000000
  0.187500  0.437500  0.437500      8.000000
  0.312500  0.437500  0.437500      8.000000
  0.437500  0.437500  0.437500      8.000000
 
 Following cartesian coordinates:
            Coordinates               Weight
  0.007142  0.007142  0.007142      8.000000
  0.021427  0.007142  0.007142      8.000000
  0.035712  0.007142  0.007142      8.000000
  0.049997  0.007142  0.007142      8.000000
  0.007142  0.021427  0.007142     16.000000
  0.021427  0.021427  0.007142     16.000000
  0.035712  0.021427  0.007142     16.000000
  0.049997  0.021427  0.007142     16.000000
  0.007142  0.035712  0.007142     16.000000
  0.021427  0.035712  0.007142     16.000000
  0.035712  0.035712  0.007142     16.000000
  0.049997  0.035712  0.007142     16.000000
  0.007142  0.049997  0.007142     16.000000
  0.021427  0.049997  0.007142     16.000000
  0.035712  0.049997  0.007142     16.000000
  0.049997  0.049997  0.007142     16.000000
  0.007142  0.021427  0.021427      8.000000
  0.021427  0.021427  0.021427      8.000000
  0.035712  0.021427  0.021427      8.000000
  0.049997  0.021427  0.021427      8.000000
  0.007142  0.035712  0.021427     16.000000
  0.021427  0.035712  0.021427     16.000000
  0.035712  0.035712  0.021427     16.000000
  0.049997  0.035712  0.021427     16.000000
  0.007142  0.049997  0.021427     16.000000
  0.021427  0.049997  0.021427     16.000000
  0.035712  0.049997  0.021427     16.000000
  0.049997  0.049997  0.021427     16.000000
  0.007142  0.035712  0.035712      8.000000
  0.021427  0.035712  0.035712      8.000000
  0.035712  0.035712  0.035712      8.000000
  0.049997  0.035712  0.035712      8.000000
  0.007142  0.049997  0.035712     16.000000
  0.021427  0.049997  0.035712     16.000000
  0.035712  0.049997  0.035712     16.000000
  0.049997  0.049997  0.035712     16.000000
  0.007142  0.049997  0.049997      8.000000
  0.021427  0.049997  0.049997      8.000000
  0.035712  0.049997  0.049997      8.000000
  0.049997  0.049997  0.049997      8.000000
 


--------------------------------------------------------------------------------------------------------




 Dimension of arrays:
   k-Points           NKPTS =     40   number of bands    NBANDS=    212
   number of dos      NEDOS =    301   number of ions     NIONS =     32
   non local maximal  LDIM  =      6   non local SUM 2l+1 LMDIM =     18
   total plane-waves  NPLWV = 343000
   max r-space proj   IRMAX =      1   max aug-charges    IRDMAX= 250610
   dimension x,y,z NGX =    70 NGY =   70 NGZ =   70
   dimension x,y,z NGXF=   140 NGYF=  140 NGZF=  140
   support grid    NGXF=   280 NGYF=  280 NGZF=  280
   ions per type =              32
 NGX,Y,Z   is equivalent  to a cutoff of  13.30, 13.30, 13.30 a.u.
 NGXF,Y,Z  is equivalent  to a cutoff of  26.60, 26.60, 26.60 a.u.


 I would recommend the setting:
   dimension x,y,z NGX =    70 NGY =   70 NGZ =   70
 SYSTEM =  No title                                
 POSCAR =  No title                                

 Startparameter for this run:
   NWRITE =      2    write-flag & timer
   PREC   = accura    medium, high low
   ISTART =      1    job   : 0-new  1-cont  2-samecut
   ICHARG =      0    charge: 1-file 2-atom 10-const
   ISPIN  =      1    spin polarized calculation?
   LNONCOLLINEAR =      F non collinear calculations
   LSORBIT =      F    spin-orbit coupling
   INIWAV =      1    electr: 0-lowe 1-rand  2-diag
   LASPH  =      F    aspherical Exc in radial PAW
   METAGGA=      F    non-selfconsistent MetaGGA calc.

 Electronic Relaxation 1
   ENCUT  =  600.0 eV  44.10 Ry    6.64 a.u.  17.48 17.48 17.48*2*pi/ulx,y,z
   ENINI  =  600.0     initial cutoff
   ENAUG  =  356.7 eV  augmentation charge cutoff
   NELM   =     60;   NELMIN=  2; NELMDL=  0     # of ELM steps 
   EDIFF  = 0.1E-04   stopping-criterion for ELM
   LREAL  =      F    real-space projection
   LCOMPAT=      F    compatible to vasp.4.4
   LREAL_COMPAT= F    compatible to vasp.4.5.1-3
   GGA_COMPAT  = T    GGA compatible to vasp.4.4-vasp.4.6
   LMAXPAW     = -100 max onsite density
   LMAXMIX     =    2 max onsite mixed and CHGCAR
   VOSKOWN=      1    Vosko Wilk Nusair interpolation
   ROPT   =    0.00000
 Ionic relaxation
   EDIFFG = -.2E-01   stopping-criterion for IOM
   NSW    =      0    number of steps for IOM
   NBLOCK =      1;   KBLOCK =      1    inner block; outer block 
   IBRION =     -1    ionic relax: 0-MD 1-quasi-New 2-CG
   NFREE  =      0    steps in history (QN), initial steepest desc. (CG)
   ISIF   =      2    stress and relaxation
   IWAVPR =     10    prediction:  0-non 1-charg 2-wave 3-comb
   ISYM   =      2    0-nonsym 1-usesym 2-fastsym
   LCORR  =      T    Harris-Foulkes like correction to forces

   POTIM  =   0.50    time-step for ionic-motion
   TEIN   =    0.0    initial temperature
   TEBEG  =    0.0;   TEEND  =   0.0 temperature during run
   SMASS  =  -3.00    Nose mass-parameter (am)
   estimated Nose-frequenzy (Omega)   =  0.10E-29 period in steps =****** mass=  -0.175E-26a.u.
   NPACO  =    256;   APACO  = 16.0  distance and # of slots for P.C.
   PSTRESS=    0.0 pullay stress

  Mass of Ions in am
   POMASS = 196.97
  Ionic Valenz
   ZVAL   =  11.00
  Atomic Wigner-Seitz radii
   RWIGS  =   1.34
   NELECT =     352.0000    total number of electrons
   NUPDOWN=      -1.0000    fix difference up-down

 DOS related values:
   EMIN   =  10.00;   EMAX   =-10.00  energy-range for DOS
   ISMEAR =     1;   SIGMA  =   0.20  broadening in eV -4-tet -1-fermi 0-gaus

 Electronic relaxation 2 (details)
   IALGO  =     48    algorithm
   LDIAG  =      T    sub-space diagonalisation
   IMIX   =      4    mixing-type and parameters
     AMIX     =   0.40;   BMIX     =  1.00
     AMIX_MAG =   1.60;   BMIX_MAG =  1.00
     AMIN     =   0.10
     WC   =   100.;   INIMIX=   1;  MIXPRE=   1

 Intra band minimization:
   WEIMIN = 0.0000     energy-eigenvalue tresh-hold
   EBREAK =  0.12E-07  absolut break condition
   DEPER  =   0.30     relativ break condition  

   TIME   =   0.10     timestep for ELM

  volume/ion in A,a.u.               =      20.94       141.30
  Fermi-wavevector in a.u.,eV,Ry     =   1.320958 23.741200  1.744929

 Second variation
   LSECVAR=     F    do a second variation
 
 Write flags
   LWAVE  =      F    write WAVECAR
   LCHARG =      F    write CHGCAR
   LVTOT  =      F    write LOCPOT, local potential
   LELF   =      F    write electronic localiz. function (ELF)
   LORBIT =      0    0 simple, 1 ext, 2 COOP (PROOUT)


 Dipole corrections
   IDIPOL =      0    1-x, 2-y, 3-z
   LDIPOL =      F    correct potential



--------------------------------------------------------------------------------------------------------


 Static calculation
 charge density will be updated during run
 non-spin polarized calculation
 RMM-DIIS sequential band-by-band
 performe sub-space diagonalisation
    before iterative eigenvector-optimisation
 modified Broyden-mixing scheme, WC =      100.0
 initial mixing is a Kerker type mixing with AMIX =  0.4000 and BMIX =      1.0000
 Hartree-type preconditioning will be used
 using additional bands           36
 reciprocal scheme for non local part
 use partial core corrections
 calculate Harris-corrections to forces 
   (improved forces if not selfconsistent)
 use gradient corrections 
 use of overlap-Matrix (Vanderbilt PP)
 Methfessel and Paxton  Order N= 1 SIGMA  =   0.20


--------------------------------------------------------------------------------------------------------


  energy-cutoff  :      600.00
  volume of cell :      670.04
      direct lattice vectors                 reciprocal lattice vectors
     8.750512820  0.000000000  0.000000000     0.114279017 -0.000000002 -0.000000002
     0.000000160  8.750512820  0.000000000     0.000000000  0.114279017 -0.000000002
     0.000000160  0.000000160  8.750512820     0.000000000  0.000000000  0.114279017

  length of vectors
     8.750512820  8.750512820  8.750512820     0.114279017  0.114279017  0.114279017


 
 old parameters found on file WAVECAR:
  energy-cutoff  :      600.00
  volume of cell :      670.04
      direct lattice vectors                 reciprocal lattice vectors
     8.750512820  0.000000000  0.000000000     0.114279017 -0.000000002 -0.000000002
     0.000000160  8.750512820  0.000000000     0.000000000  0.114279017 -0.000000002
     0.000000160  0.000000160  8.750512820     0.000000000  0.000000000  0.114279017

  length of vectors

 
 k-points in units of 2pi/SCALE and weight: Automatic mesh                          
   0.00714244  0.00714244  0.00714244       0.016
   0.02142732  0.00714244  0.00714244       0.016
   0.03571219  0.00714244  0.00714244       0.016
   0.04999707  0.00714244  0.00714244       0.016
   0.00714244  0.02142732  0.00714244       0.031
   0.02142732  0.02142732  0.00714244       0.031
   0.03571219  0.02142731  0.00714244       0.031
   0.04999707  0.02142731  0.00714244       0.031
   0.00714244  0.03571219  0.00714244       0.031
   0.02142732  0.03571219  0.00714244       0.031
   0.03571219  0.03571219  0.00714244       0.031
   0.04999707  0.03571219  0.00714244       0.031
   0.00714244  0.04999707  0.00714244       0.031
   0.02142732  0.04999707  0.00714244       0.031
   0.03571219  0.04999707  0.00714244       0.031
   0.04999707  0.04999707  0.00714244       0.031
   0.00714244  0.02142732  0.02142732       0.016
   0.02142732  0.02142732  0.02142731       0.016
   0.03571219  0.02142731  0.02142731       0.016
   0.04999707  0.02142731  0.02142731       0.016
   0.00714244  0.03571219  0.02142731       0.031
   0.02142732  0.03571219  0.02142731       0.031
   0.03571219  0.03571219  0.02142731       0.031
   0.04999707  0.03571219  0.02142731       0.031
   0.00714244  0.04999707  0.02142731       0.031
   0.02142732  0.04999707  0.02142731       0.031
   0.03571219  0.04999707  0.02142731       0.031
   0.04999707  0.04999707  0.02142731       0.031
   0.00714244  0.03571219  0.03571219       0.016
   0.02142732  0.03571219  0.03571219       0.016
   0.03571219  0.03571219  0.03571219       0.016
   0.04999707  0.03571219  0.03571219       0.016
   0.00714244  0.04999707  0.03571219       0.031
   0.02142732  0.04999707  0.03571219       0.031
   0.03571219  0.04999707  0.03571219       0.031
   0.04999707  0.04999707  0.03571219       0.031
   0.00714244  0.04999707  0.04999707       0.016
   0.02142732  0.04999707  0.04999707       0.016
   0.03571219  0.04999707  0.04999707       0.016
   0.04999707  0.04999707  0.04999707       0.016
 
 k-points in reciprocal lattice and weights: Automatic mesh                          
   0.06250000  0.06250000  0.06250000       0.016
   0.18750000  0.06250000  0.06250000       0.016
   0.31250000  0.06250000  0.06250000       0.016
   0.43750000  0.06250000  0.06250000       0.016
   0.06250000  0.18750000  0.06250000       0.031
   0.18750000  0.18750000  0.06250000       0.031
   0.31250000  0.18750000  0.06250000       0.031
   0.43750000  0.18750000  0.06250000       0.031
   0.06250000  0.31250000  0.06250000       0.031
   0.18750000  0.31250000  0.06250000       0.031
   0.31250000  0.31250000  0.06250000       0.031
   0.43750000  0.31250000  0.06250000       0.031
   0.06250000  0.43750000  0.06250000       0.031
   0.18750000  0.43750000  0.06250000       0.031
   0.31250000  0.43750000  0.06250000       0.031
   0.43750000  0.43750000  0.06250000       0.031
   0.06250000  0.18750000  0.18750000       0.016
   0.18750000  0.18750000  0.18750000       0.016
   0.31250000  0.18750000  0.18750000       0.016
   0.43750000  0.18750000  0.18750000       0.016
   0.06250000  0.31250000  0.18750000       0.031
   0.18750000  0.31250000  0.18750000       0.031
   0.31250000  0.31250000  0.18750000       0.031
   0.43750000  0.31250000  0.18750000       0.031
   0.06250000  0.43750000  0.18750000       0.031
   0.18750000  0.43750000  0.18750000       0.031
   0.31250000  0.43750000  0.18750000       0.031
   0.43750000  0.43750000  0.18750000       0.031
   0.06250000  0.31250000  0.31250000       0.016
   0.18750000  0.31250000  0.31250000       0.016
   0.31250000  0.31250000  0.31250000       0.016
   0.43750000  0.31250000  0.31250000       0.016
   0.06250000  0.43750000  0.31250000       0.031
   0.18750000  0.43750000  0.31250000       0.031
   0.31250000  0.43750000  0.31250000       0.031
   0.43750000  0.43750000  0.31250000       0.031
   0.06250000  0.43750000  0.43750000       0.016
   0.18750000  0.43750000  0.43750000       0.016
   0.31250000  0.43750000  0.43750000       0.016
   0.43750000  0.43750000  0.43750000       0.016
 
 position of ions in fractional coordinates (direct lattice) 
   0.75000000  0.75000000  0.50000000
   0.75000000  0.75000000  0.00000000
   0.75000000  0.00000000  0.25000000
   0.75000000  0.25000000  0.50000000
   0.00000000  0.75000000  0.25000000
   0.00000000  0.00000000  0.50000000
   0.25000000  0.75000000  0.50000000
   0.75000000  0.00000000  0.75000000
   0.75000000  0.25000000  0.00000000
   0.75000000  0.50000000  0.25000000
   0.00000000  0.75000000  0.75000000
   0.99771400  0.00000000  0.00000000
   0.00000000  0.25000000  0.25000000
   0.00000000  0.50000000  0.50000000
   0.25000000  0.75000000  0.00000000
   0.25000000  0.00000000  0.25000000
   0.25000000  0.25000000  0.50000000
   0.50000000  0.75000000  0.25000000
   0.50000000  0.00000000  0.50000000
   0.75000000  0.50000000  0.75000000
   0.00000000  0.25000000  0.75000000
   0.00000000  0.50000000  0.00000000
   0.25000000  0.00000000  0.75000000
   0.25000000  0.25000000  0.00000000
   0.25000000  0.50000000  0.25000000
   0.50000000  0.75000000  0.75000000
   0.50000000  0.00000000  0.00000000
   0.50000000  0.25000000  0.25000000
   0.50000000  0.50000000  0.50000000
   0.25000000  0.50000000  0.75000000
   0.50000000  0.25000000  0.75000000
   0.50000000  0.50000000  0.00000000
 
 position of ions in cartesian coordinates  (Angst):
   6.56288482  6.56288470  4.37525641
   6.56288474  6.56288462  0.00000000
   6.56288466  0.00000004  2.18762821
   6.56288474  2.18762829  4.37525641
   0.00000016  6.56288466  2.18762821
   0.00000008  0.00000008  4.37525641
   2.18762841  6.56288470  4.37525641
   6.56288474  0.00000012  6.56288462
   6.56288466  2.18762821  0.00000000
   6.56288474  4.37525645  2.18762821
   0.00000024  6.56288474  6.56288462
   8.73050915  0.00000000  0.00000000
   0.00000008  2.18762825  2.18762821
   0.00000016  4.37525649  4.37525641
   2.18762833  6.56288462  0.00000000
   2.18762825  0.00000004  2.18762821
   2.18762833  2.18762829  4.37525641
   4.37525657  6.56288466  2.18762821
   4.37525649  0.00000008  4.37525641
   6.56288482  4.37525653  6.56288462
   0.00000016  2.18762833  6.56288462
   0.00000008  4.37525641  0.00000000
   2.18762833  0.00000012  6.56288462
   2.18762825  2.18762821  0.00000000
   2.18762833  4.37525645  2.18762821
   4.37525665  6.56288474  6.56288462
   4.37525641  0.00000000  0.00000000
   4.37525649  2.18762825  2.18762821
   4.37525657  4.37525649  4.37525641
   2.18762841  4.37525653  6.56288462
   4.37525657  2.18762833  6.56288462
   4.37525649  4.37525641  0.00000000
 


--------------------------------------------------------------------------------------------------------


 k-point  1 :  0.06250.06250.0625  plane waves:  22392
 k-point  2 :  0.18750.06250.0625  plane waves:  22381
 k-point  3 :  0.31250.06250.0625  plane waves:  22371
 k-point  4 :  0.43750.06250.0625  plane waves:  22366
 k-point  5 :  0.06250.18750.0625  plane waves:  22381
 k-point  6 :  0.18750.18750.0625  plane waves:  22372
 k-point  7 :  0.31250.18750.0625  plane waves:  22395
 k-point  8 :  0.43750.18750.0625  plane waves:  22355
 k-point  9 :  0.06250.31250.0625  plane waves:  22371
 k-point 10 :  0.18750.31250.0625  plane waves:  22395
 k-point 11 :  0.31250.31250.0625  plane waves:  22372
 k-point 12 :  0.43750.31250.0625  plane waves:  22344
 k-point 13 :  0.06250.43750.0625  plane waves:  22366
 k-point 14 :  0.18750.43750.0625  plane waves:  22355
 k-point 15 :  0.31250.43750.0625  plane waves:  22344
 k-point 16 :  0.43750.43750.0625  plane waves:  22363
 k-point 17 :  0.06250.18750.1875  plane waves:  22372
 k-point 18 :  0.18750.18750.1875  plane waves:  22394
 k-point 19 :  0.31250.18750.1875  plane waves:  22367
 k-point 20 :  0.43750.18750.1875  plane waves:  22349
 k-point 21 :  0.06250.31250.1875  plane waves:  22395
 k-point 22 :  0.18750.31250.1875  plane waves:  22367
 k-point 23 :  0.31250.31250.1875  plane waves:  22358
 k-point 24 :  0.43750.31250.1875  plane waves:  22344
 k-point 25 :  0.06250.43750.1875  plane waves:  22355
 k-point 26 :  0.18750.43750.1875  plane waves:  22349
 k-point 27 :  0.31250.43750.1875  plane waves:  22344
 k-point 28 :  0.43750.43750.1875  plane waves:  22346
 k-point 29 :  0.06250.31250.3125  plane waves:  22372
 k-point 30 :  0.18750.31250.3125  plane waves:  22358
 k-point 31 :  0.31250.31250.3125  plane waves:  22349
 k-point 32 :  0.43750.31250.3125  plane waves:  22347
 k-point 33 :  0.06250.43750.3125  plane waves:  22344
 k-point 34 :  0.18750.43750.3125  plane waves:  22344
 k-point 35 :  0.31250.43750.3125  plane waves:  22347
 k-point 36 :  0.43750.43750.3125  plane waves:  22334
 k-point 37 :  0.06250.43750.4375  plane waves:  22363
 k-point 38 :  0.18750.43750.4375  plane waves:  22346
 k-point 39 :  0.31250.43750.4375  plane waves:  22334
 k-point 40 :  0.43750.43750.4375  plane waves:  22328

 maximum and minimum number of plane-waves per node :  22395 22328

 maximum number of plane-waves:  22395
 maximal index in each direction: 
   IXMAX= 17   IYMAX= 17   IZMAX= 17
   IXMIN=-17   IYMIN=-17   IZMIN=-17

 NGX is ok and might be reduce to  70
 NGY is ok and might be reduce to  70
 NGZ is ok and might be reduce to  70

 parallel 3dFFT wavefunction:
    minimum data exchange during FFTs selected (reduces bandwidth)
 parallel 3dFFT charge:
    minimum data exchange during FFTs selected (reduces bandwidth)

 For storing wavefunctions 3033.90 MBYTES are necessary
 For predicting wavefunctions  162.88 MBYTES are necessary
Broyden mixing: mesh for mixing (old mesh)
   NGX = 35   NGY = 35   NGZ = 35
  (NGX  =140   NGY  =140   NGZ  =140)
 gives a total of  42875 points
 charge density for first step will be calculated from the start-wavefunctions


--------------------------------------------------------------------------------------------------------


 Maximum index for augmentation-charges        60844 (set IRDMAX)


--------------------------------------------------------------------------------------------------------


 initial charge from wavefunction
 First call to EWALD:  gamma=   0.203
 Maximum number of real-space cells 3x 3x 3
 Maximum number of reciprocal cells 3x 3x 3

    FEWALD:  VPU time    0.01: CPU time    0.01


----------------------------------------- Iteration    1(   1)  ---------------------------------------


    POTLOK:  VPU time    1.48: CPU time    1.49
    SETDIJ:  VPU time    2.94: CPU time    2.95
    EDDIAG:  VPU time  126.39: CPU time  126.71
  RMM-DIIS:  VPU time  772.37: CPU time  774.25
    ORTHCH:  VPU time   17.19: CPU time   17.22
    DOS   :  VPU time    0.00: CPU time   -0.00
    CHARGE:  VPU time   58.60: CPU time   58.76
    MIXING:  VPU time    0.04: CPU time    0.04
    ------------------------------------------
      LOOP:  VPU time  979.15: CPU time  981.56

 eigenvalue-minimisations  : 17662
 total energy-change (2. order) :-0.1032754E+03  (-0.6319787E+02)
 number of electron  352.0000002 magnetization 
 augmentation part   133.2664475 magnetization 

 Broyden mixing:
  rms(total) = 0.83800E+00    rms(broyden)= 0.78669E+00
  rms(prec ) = 0.11835E+01
  weight for this iteration     100.00

 Free energy of the ion-electron system (eV)
  ---------------------------------------------------
  alpha Z        PSCENC =      2862.17096503
  Ewald energy   TEWEN  =    -29213.47624162
  -1/2 Hartree   DENC   =     -4374.95796051
  -V(xc)+E(xc)   XCENC  =       423.96142219
  PAW double counting   =     22524.60883551   -21836.19161627
  entropy T*S    EENTRO =        -0.00903283
  eigenvalues    EBANDS =      -123.15576392
  atomic energy  EATOM  =     29633.77399530
  ---------------------------------------------------
  free energy    TOTEN  =      -103.27539712 eV

  energy without entropy =     -103.26636430  energy(sigma->0) =     -103.27238618


--------------------------------------------------------------------------------------------------------




----------------------------------------- Iteration    1(   2)  ---------------------------------------


    POTLOK:  VPU time    1.48: CPU time    1.49
    SETDIJ:  VPU time    2.95: CPU time    2.96
    EDDIAG:  VPU time  124.93: CPU time  125.24
  RMM-DIIS:  VPU time 1898.15: CPU time 1906.95
    ORTHCH:  VPU time   48.47: CPU time   48.81
    DOS   :  VPU time    0.00: CPU time   -0.00
    CHARGE:  VPU time  144.90: CPU time  145.93
    MIXING:  VPU time    0.10: CPU time    0.10
    ------------------------------------------
      LOOP:  VPU time 2221.14: CPU time 2231.67

 eigenvalue-minimisations  : 18024
 total energy-change (2. order) : 0.2724584E+01  (-0.1325460E+01)
 number of electron  352.0000002 magnetization 
 augmentation part   130.7517884 magnetization 

 Broyden mixing:
  rms(total) = 0.13091E+00    rms(broyden)= 0.13090E+00
  rms(prec ) = 0.18642E+00
  weight for this iteration     100.00

 eigenvalues of (default mixing * dielectric matrix)
  average eigenvalue GAMMA=   1.0846
  1.0846

 Free energy of the ion-electron system (eV)
  ---------------------------------------------------
  alpha Z        PSCENC =      2862.17096503
  Ewald energy   TEWEN  =    -29213.47624162
  -1/2 Hartree   DENC   =     -4496.44522046
  -V(xc)+E(xc)   XCENC  =       454.97520326
  PAW double counting   =     23067.25783740   -22375.77532944
  entropy T*S    EENTRO =        -0.00385858
  eigenvalues    EBANDS =       -33.02816404
  atomic energy  EATOM  =     29633.77399530
  ---------------------------------------------------
  free energy    TOTEN  =      -100.55081315 eV

  energy without entropy =     -100.54695457  energy(sigma->0) =     -100.54952696


--------------------------------------------------------------------------------------------------------




----------------------------------------- Iteration    1(   3)  ---------------------------------------


    POTLOK:  VPU time    3.09: CPU time    3.11
    SETDIJ:  VPU time    8.01: CPU time    8.09
    EDDIAG:  VPU time  325.64: CPU time  328.82
  RMM-DIIS:  VPU time 3293.72: CPU time 3303.62
    ORTHCH:  VPU time   45.67: CPU time   45.84
    DOS   :  VPU time    0.00: CPU time   -0.00
    CHARGE:  VPU time  146.52: CPU time  146.95
    MIXING:  VPU time    0.11: CPU time    0.11
    ------------------------------------------
      LOOP:  VPU time 3822.95: CPU time 3836.74

 eigenvalue-minimisations  : 18822
 total energy-change (2. order) :-0.3568869E-01  (-0.9236946E-01)
 number of electron  352.0000002 magnetization 
 augmentation part   130.2911427 magnetization 

 Broyden mixing:
  rms(total) = 0.79329E-01    rms(broyden)= 0.79328E-01
  rms(prec ) = 0.86192E-01
  weight for this iteration     100.00

 eigenvalues of (default mixing * dielectric matrix)
  average eigenvalue GAMMA=   1.5794
  1.2448  1.9139

 Free energy of the ion-electron system (eV)
  ---------------------------------------------------
  alpha Z        PSCENC =      2862.17096503
  Ewald energy   TEWEN  =    -29213.47624162
  -1/2 Hartree   DENC   =     -4515.20883759
  -V(xc)+E(xc)   XCENC  =       455.81921791
  PAW double counting   =     23297.69338491   -22605.59663900
  entropy T*S    EENTRO =        -0.00196074
  eigenvalues    EBANDS =       -15.76038603
  atomic energy  EATOM  =     29633.77399530
  ---------------------------------------------------
  free energy    TOTEN  =      -100.58650184 eV

  energy without entropy =     -100.58454110  energy(sigma->0) =     -100.58584826


--------------------------------------------------------------------------------------------------------




----------------------------------------- Iteration    1(   4)  ---------------------------------------


    POTLOK:  VPU time    3.11: CPU time    3.12
    SETDIJ:  VPU time    7.98: CPU time    8.00
    EDDIAG:  VPU time  294.65: CPU time  295.85
  RMM-DIIS:  VPU time 2619.81: CPU time 2625.92
    ORTHCH:  VPU time   45.74: CPU time   45.90
    DOS   :  VPU time   -0.00: CPU time   -0.00
    CHARGE:  VPU time  146.92: CPU time  147.37
    MIXING:  VPU time    0.11: CPU time    0.11
    ------------------------------------------
      LOOP:  VPU time 3118.50: CPU time 3126.45

 eigenvalue-minimisations  : 18637
 total energy-change (2. order) :-0.2562359E-02  (-0.3487719E-02)
 number of electron  352.0000002 magnetization 
 augmentation part   130.3553513 magnetization 

 Broyden mixing:
  rms(total) = 0.24601E-01    rms(broyden)= 0.24601E-01
  rms(prec ) = 0.28881E-01
  weight for this iteration     100.00

 eigenvalues of (default mixing * dielectric matrix)
  average eigenvalue GAMMA=   1.5614
  1.0534  1.0534  2.5775

 Free energy of the ion-electron system (eV)
  ---------------------------------------------------
  alpha Z        PSCENC =      2862.17096503
  Ewald energy   TEWEN  =    -29213.47624162
  -1/2 Hartree   DENC   =     -4511.13551135
  -V(xc)+E(xc)   XCENC  =       455.68609430
  PAW double counting   =     23440.03908391   -22747.96665698
  entropy T*S    EENTRO =        -0.00266802
  eigenvalues    EBANDS =       -19.67812479
  atomic energy  EATOM  =     29633.77399530
  ---------------------------------------------------
  free energy    TOTEN  =      -100.58906420 eV

  energy without entropy =     -100.58639619  energy(sigma->0) =     -100.58817486


--------------------------------------------------------------------------------------------------------




----------------------------------------- Iteration    1(   5)  ---------------------------------------


    POTLOK:  VPU time    3.12: CPU time    3.13
    SETDIJ:  VPU time    8.06: CPU time    8.08
    EDDIAG:  VPU time  293.81: CPU time  295.33
  RMM-DIIS:  VPU time 2530.53: CPU time 2537.78
    ORTHCH:  VPU time   45.55: CPU time   45.84
    DOS   :  VPU time    0.00: CPU time   -0.00
    CHARGE:  VPU time  146.56: CPU time  147.45
    MIXING:  VPU time    0.12: CPU time    0.12
    ------------------------------------------
      LOOP:  VPU time 3027.92: CPU time 3037.91

 eigenvalue-minimisations  : 18729
 total energy-change (2. order) :-0.4336572E-03  (-0.2146416E-03)
 number of electron  352.0000002 magnetization 
 augmentation part   130.3540553 magnetization 

 Broyden mixing:
  rms(total) = 0.67164E-02    rms(broyden)= 0.67164E-02
  rms(prec ) = 0.10225E-01
  weight for this iteration     100.00

 eigenvalues of (default mixing * dielectric matrix)
  average eigenvalue GAMMA=   1.4709
  2.5636  1.2367  1.2367  0.8465

 Free energy of the ion-electron system (eV)
  ---------------------------------------------------
  alpha Z        PSCENC =      2862.17096503
  Ewald energy   TEWEN  =    -29213.47624162
  -1/2 Hartree   DENC   =     -4512.09360652
  -V(xc)+E(xc)   XCENC  =       455.75028188
  PAW double counting   =     23520.91657474   -22828.72704309
  entropy T*S    EENTRO =        -0.00268196
  eigenvalues    EBANDS =       -18.90174163
  atomic energy  EATOM  =     29633.77399530
  ---------------------------------------------------
  free energy    TOTEN  =      -100.58949786 eV

  energy without entropy =     -100.58681590  energy(sigma->0) =     -100.58860387


--------------------------------------------------------------------------------------------------------




----------------------------------------- Iteration    1(   6)  ---------------------------------------


    POTLOK:  VPU time    3.10: CPU time    3.11
    SETDIJ:  VPU time    8.02: CPU time    8.04
    EDDIAG:  VPU time  294.55: CPU time  295.51
  RMM-DIIS:  VPU time 2629.78: CPU time 2635.44
    ORTHCH:  VPU time   45.55: CPU time   45.71
    DOS   :  VPU time    0.00: CPU time   -0.00
    CHARGE:  VPU time  146.06: CPU time  146.48
    MIXING:  VPU time    0.11: CPU time    0.11
    ------------------------------------------
      LOOP:  VPU time 3127.33: CPU time 3134.57

 eigenvalue-minimisations  : 18238
 total energy-change (2. order) : 0.9496284E-04  (-0.1138145E-03)
 number of electron  352.0000002 magnetization 
 augmentation part   130.3253793 magnetization 

 Broyden mixing:
  rms(total) = 0.20231E-02    rms(broyden)= 0.20231E-02
  rms(prec ) = 0.28018E-02
  weight for this iteration     100.00

 eigenvalues of (default mixing * dielectric matrix)
  average eigenvalue GAMMA=   1.5596
  2.5306  2.1967  1.1184  1.1184  0.8341

 Free energy of the ion-electron system (eV)
  ---------------------------------------------------
  alpha Z        PSCENC =      2862.17096503
  Ewald energy   TEWEN  =    -29213.47624162
  -1/2 Hartree   DENC   =     -4513.60108811
  -V(xc)+E(xc)   XCENC  =       455.81793564
  PAW double counting   =     23529.06423312   -22836.81873562
  entropy T*S    EENTRO =        -0.00252075
  eigenvalues    EBANDS =       -17.51794589
  atomic energy  EATOM  =     29633.77399530
  ---------------------------------------------------
  free energy    TOTEN  =      -100.58940290 eV

  energy without entropy =     -100.58688214  energy(sigma->0) =     -100.58856265


--------------------------------------------------------------------------------------------------------




----------------------------------------- Iteration    1(   7)  ---------------------------------------


    POTLOK:  VPU time    3.15: CPU time    3.16
    SETDIJ:  VPU time    8.07: CPU time    8.09
    EDDIAG:  VPU time  293.99: CPU time  294.94
  RMM-DIIS:  VPU time 2471.21: CPU time 2477.32
    ORTHCH:  VPU time   34.00: CPU time   34.18
    DOS   :  VPU time    0.00: CPU time   -0.00
    CHARGE:  VPU time  129.71: CPU time  130.45
    MIXING:  VPU time    0.14: CPU time    0.14
    ------------------------------------------
      LOOP:  VPU time 2940.44: CPU time 2948.46

 eigenvalue-minimisations  : 15844
 total energy-change (2. order) : 0.1132025E-04  (-0.7191191E-05)
 number of electron  352.0000002 magnetization 
 augmentation part   130.3290673 magnetization 

 Broyden mixing:
  rms(total) = 0.47065E-03    rms(broyden)= 0.47064E-03
  rms(prec ) = 0.65593E-03
  weight for this iteration     100.00

 eigenvalues of (default mixing * dielectric matrix)
  average eigenvalue GAMMA=   1.5251
  2.5595  1.8370  1.7023  1.1086  1.1086  0.8348

 Free energy of the ion-electron system (eV)
  ---------------------------------------------------
  alpha Z        PSCENC =      2862.17096503
  Ewald energy   TEWEN  =    -29213.47624162
  -1/2 Hartree   DENC   =     -4513.40311456
  -V(xc)+E(xc)   XCENC  =       455.81109050
  PAW double counting   =     23526.86340785   -22834.62280620
  entropy T*S    EENTRO =        -0.00255090
  eigenvalues    EBANDS =       -17.70413699
  atomic energy  EATOM  =     29633.77399530
  ---------------------------------------------------
  free energy    TOTEN  =      -100.58939158 eV

  energy without entropy =     -100.58684068  energy(sigma->0) =     -100.58854128


--------------------------------------------------------------------------------------------------------




----------------------------------------- Iteration    1(   8)  ---------------------------------------


    POTLOK:  VPU time    3.16: CPU time    3.16
    SETDIJ:  VPU time    8.10: CPU time    8.12
    EDDIAG:  VPU time  295.30: CPU time  296.29
  RMM-DIIS:  VPU time 2117.28: CPU time 2122.81
    ORTHCH:  VPU time   45.42: CPU time   45.62
    DOS   :  VPU time    0.00: CPU time   -0.00
    ------------------------------------------
      LOOP:  VPU time 2469.41: CPU time 2476.17

 eigenvalue-minimisations  : 10351
 total energy-change (2. order) : 0.1622859E-05  (-0.8202972E-06)
 number of electron  352.0000002 magnetization 
 augmentation part   130.3290673 magnetization 

 Free energy of the ion-electron system (eV)
  ---------------------------------------------------
  alpha Z        PSCENC =      2862.17096503
  Ewald energy   TEWEN  =    -29213.47624162
  -1/2 Hartree   DENC   =     -4513.31016025
  -V(xc)+E(xc)   XCENC  =       455.80750235
  PAW double counting   =     23526.17440562   -22833.93858316
  entropy T*S    EENTRO =        -0.00256326
  eigenvalues    EBANDS =       -17.78870998
  atomic energy  EATOM  =     29633.77399530
  ---------------------------------------------------
  free energy    TOTEN  =      -100.58938995 eV

  energy without entropy =     -100.58682670  energy(sigma->0) =     -100.58853554


--------------------------------------------------------------------------------------------------------




 average (electrostatic) potential at core
  the test charge radii are     1.2098
  (the norm of the test charge is              1.0000)
       1 -47.2731       2 -47.2755       3 -47.2755       4 -47.2731       5 -47.2729
       6 -47.2730       7 -47.2727       8 -47.2755       9 -47.2755      10 -47.2731
      11 -47.2729      12 -47.2729      13 -47.2729      14 -47.2729      15 -47.2704
      16 -47.2704      17 -47.2727      18 -47.2729      19 -47.2729      20 -47.2731
      21 -47.2729      22 -47.2730      23 -47.2704      24 -47.2704      25 -47.2727
      26 -47.2729      27 -47.2730      28 -47.2729      29 -47.2729      30 -47.2727
      31 -47.2729      32 -47.2729
 
 
 
 E-fermi :   3.3842     XC(G=0): -11.5164     alpha+bet : -8.2881
   add alpha+bet to get absolut eigen values

 k-point   1 :       0.0625    0.0625    0.0625
  band No.  band energies     occupation 
      1      -4.4637      2.00000
      2      -2.6070      2.00000
      3      -2.6041      2.00000
      4      -2.6013      2.00000
      5      -2.3049      2.00000
      6      -2.2846      2.00000
      7      -2.2845      2.00000
      8      -2.2845      2.00000
      9      -2.2583      2.00000
     10      -2.2559      2.00000
     11      -2.2533      2.00000
     12      -2.0405      2.00000
     13      -2.0404      2.00000
     14      -2.0404      2.00000
     15      -1.8335      2.00000
     16      -1.8334      2.00000
     17      -1.8333      2.00000
     18      -1.5338      2.00000
     19      -1.5318      2.00000
     20      -1.5299      2.00000
     21      -1.3755      2.00000
     22      -1.3750      2.00000
     23      -1.3727      2.00000
     24      -1.3726      2.00000
     25      -1.3703      2.00000
     26      -1.3699      2.00000
     27      -1.3049      2.00000
     28      -1.3028      2.00000
     29      -1.3008      2.00000
     30      -1.2358      2.00000
     31      -1.2345      2.00000
     32      -1.2343      2.00000
     33      -1.2332      2.00000
     34      -1.2311      2.00000
     35      -1.2309      2.00000
     36      -1.2308      2.00000
     37      -1.2307      2.00000
     38      -1.2276      2.00000
     39      -1.0958      2.00000
     40      -1.0944      2.00000
     41      -1.0930      2.00000
     42      -0.8148      2.00000
     43      -0.8147      2.00000
     44      -0.8134      2.00000
     45      -0.8132      2.00000
     46      -0.8118      2.00000
     47      -0.8118      2.00000
     48      -0.7453      2.00000
     49      -0.7435      2.00000
     50      -0.7421      2.00000
     51      -0.7251      2.00000
     52      -0.7241      2.00000
     53      -0.7229      2.00000
     54      -0.7227      2.00000
     55      -0.7216      2.00000
     56      -0.7205      2.00000
     57      -0.6666      2.00000
     58      -0.6652      2.00000
     59      -0.6636      2.00000
     60      -0.5322      2.00000
     61      -0.5322      2.00000
     62      -0.5306      2.00000
     63      -0.5305      2.00000
     64      -0.5290      2.00000
     65      -0.5289      2.00000
     66      -0.4687      2.00000
     67      -0.4656      2.00000
     68      -0.4653      2.00000
     69      -0.4652      2.00000
     70      -0.4650      2.00000
     71      -0.4627      2.00000
     72      -0.4529      2.00000
     73      -0.4520      2.00000
     74      -0.4505      2.00000
     75      -0.4240      2.00000
     76      -0.4239      2.00000
     77      -0.4238      2.00000
     78      -0.4080      2.00000
     79      -0.4079      2.00000
     80      -0.4047      2.00000
     81      -0.3984      2.00000
     82      -0.3982      2.00000
     83      -0.3982      2.00000
     84      -0.3920      2.00000
     85      -0.3908      2.00000
     86      -0.3891      2.00000
     87      -0.3886      2.00000
     88      -0.3885      2.00000
     89       0.0860      2.00000
     90       0.0867      2.00000
     91       0.0875      2.00000
     92       0.1633      2.00000
     93       0.1651      2.00000
     94       0.1671      2.00000
     95       0.2232      2.00000
     96       0.2241      2.00000
     97       0.2246      2.00000
     98       0.2844      2.00000
     99       0.2852      2.00000
    100       0.2864      2.00000
    101       0.2868      2.00000
    102       0.2881      2.00000
    103       0.2883      2.00000
    104       0.2886      2.00000
    105       0.2904      2.00000
    106       0.2917      2.00000
    107       0.3718      2.00000
    108       0.3732      2.00000
    109       0.3746      2.00000
    110       0.4391      2.00000
    111       0.4412      2.00000
    112       0.4433      2.00000
    113       0.5638      2.00000
    114       0.5659      2.00000
    115       0.5677      2.00000
    116       0.5856      2.00000
    117       0.5874      2.00000
    118       0.5892      2.00000
    119       0.6109      2.00000
    120       0.6134      2.00000
    121       0.6135      2.00000
    122       0.6137      2.00000
    123       0.6139      2.00000
    124       0.6163      2.00000
    125       0.6483      2.00000
    126       0.6484      2.00000
    127       0.6492      2.00000
    128       0.6505      2.00000
    129       0.6508      2.00000
    130       0.7031      2.00000
    131       0.7045      2.00000
    132       0.7059      2.00000
    133       0.7060      2.00000
    134       0.7073      2.00000
    135       0.7089      2.00000
    136       0.7874      2.00000
    137       0.7885      2.00000
    138       0.7895      2.00000
    139       1.0073      2.00000
    140       1.0083      2.00000
    141       1.0093      2.00000
    142       1.0900      2.00000
    143       1.0905      2.00000
    144       1.0910      2.00000
    145       1.3991      2.00000
    146       1.3996      2.00000
    147       1.4001      2.00000
    148       1.4369      2.00000
    149       1.4370      2.00000
    150       1.4371      2.00000
    151       1.4696      2.00000
    152       1.4697      2.00000
    153       1.4871      2.00000
    154       1.4871      2.00000
    155       1.4872      2.00000
    156       1.6557      2.00000
    157       1.6557      2.00000
    158       1.6558      2.00000
    159       1.6912      2.00000
    160       1.6913      2.00000
    161       1.6916      2.00000
    162       1.6916      2.00000
    163       1.6916      2.00000
    164       1.6919      2.00000
    165       1.6947      2.00000
    166       1.6947      2.00000
    167       1.6950      2.00000
    168       2.5393      2.00000
    169       2.5404      2.00000
    170       2.5414      2.00000
    171       2.9247      2.00546
    172       2.9251      2.00550
    173       2.9264      2.00564
    174       2.9265      2.00565
    175       2.9279      2.00582
    176       2.9281      2.00584
    177       2.9907      2.01774
    178       3.3335      1.41369
    179       3.3346      1.40526
    180       3.3355      1.39910
    181       3.3646      1.16501
    182       3.3647      1.16389
    183       3.3651      1.16089
    184       4.8946     -0.00000
    185       4.8953     -0.00000
    186       4.8962     -0.00000
    187       5.5504     -0.00000
    188       5.5509     -0.00000
    189       5.5515     -0.00000
    190       5.8715     -0.00000
    191       7.0236     -0.00000
    192       7.0242     -0.00000
    193       7.0246     -0.00000
    194       7.0246     -0.00000
    195       7.0251     -0.00000
    196       7.0256     -0.00000
    197       7.8345     -0.00000
    198       7.8352     -0.00000
    199       7.8358     -0.00000
    200       8.7638     -0.00000
    201       8.7641     -0.00000
    202       8.7664     -0.00000
    203       8.7664     -0.00000
    204       8.7687     -0.00000
    205       8.7691     -0.00000
    206       9.4640      0.00000
    207       9.4650      0.00000
    208       9.4673      0.00000
    209       9.4675      0.00000
    210       9.4700      0.00000
    211       9.4708      0.00000
    212      10.2393      0.00000

 k-point   2 :       0.1875    0.0625    0.0625
  band No.  band energies     occupation 
      1      -4.3878      2.00000
      2      -2.9973      2.00000
      3      -2.5498      2.00000
      4      -2.5498      2.00000
      5      -2.2862      2.00000
      6      -2.2454      2.00000
      7      -2.2453      2.00000
      8      -2.2256      2.00000
      9      -2.2035      2.00000
     10      -2.2035      2.00000
     11      -2.0186      2.00000
     12      -2.0158      2.00000
     13      -1.9952      2.00000
     14      -1.9951      2.00000
     15      -1.8091      2.00000
     16      -1.7955      2.00000
     17      -1.7955      2.00000
     18      -1.7135      2.00000
     19      -1.7135      2.00000
     20      -1.6708      2.00000
     21      -1.5324      2.00000
     22      -1.5324      2.00000
     23      -1.4783      2.00000
     24      -1.4782      2.00000
     25      -1.4530      2.00000
     26      -1.3684      2.00000
     27      -1.3227      2.00000
     28      -1.3226      2.00000
     29      -1.2521      2.00000
     30      -1.2521      2.00000
     31      -1.2320      2.00000
     32      -1.2320      2.00000
     33      -1.2105      2.00000
     34      -1.2105      2.00000
     35      -1.2091      2.00000
     36      -1.2091      2.00000
     37      -1.1963      2.00000
     38      -1.1963      2.00000
     39      -1.0746      2.00000
     40      -1.0745      2.00000
     41      -1.0600      2.00000
     42      -1.0600      2.00000
     43      -0.9534      2.00000
     44      -0.8312      2.00000
     45      -0.8312      2.00000
     46      -0.8137      2.00000
     47      -0.8133      2.00000
     48      -0.8057      2.00000
     49      -0.8055      2.00000
     50      -0.7866      2.00000
     51      -0.7866      2.00000
     52      -0.7290      2.00000
     53      -0.7289      2.00000
     54      -0.6519      2.00000
     55      -0.6453      2.00000
     56      -0.6450      2.00000
     57      -0.6328      2.00000
     58      -0.6327      2.00000
     59      -0.6084      2.00000
     60      -0.5772      2.00000
     61      -0.5771      2.00000
     62      -0.5752      2.00000
     63      -0.5751      2.00000
     64      -0.5248      2.00000
     65      -0.5248      2.00000
     66      -0.4991      2.00000
     67      -0.4991      2.00000
     68      -0.4856      2.00000
     69      -0.4855      2.00000
     70      -0.4528      2.00000
     71      -0.4392      2.00000
     72      -0.4391      2.00000
     73      -0.4335      2.00000
     74      -0.4058      2.00000
     75      -0.3875      2.00000
     76      -0.3700      2.00000
     77      -0.3699      2.00000
     78      -0.3660      2.00000
     79      -0.3660      2.00000
     80      -0.3617      2.00000
     81      -0.3596      2.00000
     82      -0.3587      2.00000
     83      -0.3242      2.00000
     84      -0.3241      2.00000
     85      -0.3007      2.00000
     86      -0.2527      2.00000
     87      -0.2188      2.00000
     88      -0.2188      2.00000
     89      -0.0272      2.00000
     90      -0.0271      2.00000
     91       0.0192      2.00000
     92       0.0192      2.00000
     93       0.0900      2.00000
     94       0.1051      2.00000
     95       0.1739      2.00000
     96       0.1739      2.00000
     97       0.1865      2.00000
     98       0.1944      2.00000
     99       0.2423      2.00000
    100       0.2423      2.00000
    101       0.2829      2.00000
    102       0.3516      2.00000
    103       0.3519      2.00000
    104       0.3591      2.00000
    105       0.3591      2.00000
    106       0.3660      2.00000
    107       0.3660      2.00000
    108       0.3992      2.00000
    109       0.4022      2.00000
    110       0.4029      2.00000
    111       0.5113      2.00000
    112       0.5114      2.00000
    113       0.5448      2.00000
    114       0.5455      2.00000
    115       0.5460      2.00000
    116       0.5465      2.00000
    117       0.6162      2.00000
    118       0.6176      2.00000
    119       0.6179      2.00000
    120       0.6302      2.00000
    121       0.6303      2.00000
    122       0.6612      2.00000
    123       0.6612      2.00000
    124       0.6638      2.00000
    125       0.7056      2.00000
    126       0.7058      2.00000
    127       0.7210      2.00000
    128       0.7641      2.00000
    129       0.7641      2.00000
    130       0.7663      2.00000
    131       0.8312      2.00000
    132       0.8312      2.00000
    133       0.8562      2.00000
    134       0.8563      2.00000
    135       0.8960      2.00000
    136       0.8964      2.00000
    137       0.9061      2.00000
    138       0.9061      2.00000
    139       0.9293      2.00000
    140       1.0496      2.00000
    141       1.0496      2.00000
    142       1.1562      2.00000
    143       1.1562      2.00000
    144       1.1735      2.00000
    145       1.2171      2.00000
    146       1.2386      2.00000
    147       1.2387      2.00000
    148       1.3675      2.00000
    149       1.3865      2.00000
    150       1.3865      2.00000
    151       1.4126      2.00000
    152       1.4162      2.00000
    153       1.4641      2.00000
    154       1.4655      2.00000
    155       1.4655      2.00000
    156       1.4883      2.00000
    157       1.4884      2.00000
    158       1.5948      2.00000
    159       1.6307      2.00000
    160       1.6307      2.00000
    161       1.6316      2.00000
    162       1.6316      2.00000
    163       1.6428      2.00000
    164       1.6903      2.00000
    165       1.6914      2.00000
    166       1.6917      2.00000
    167       1.6929      2.00000
    168       2.2015      2.00000
    169       2.2015      2.00000
    170       2.5357      2.00000
    171       2.5587      2.00000
    172       2.5587      2.00000
    173       2.6948      2.00001
    174       2.9379      2.00707
    175       2.9380      2.00707
    176       3.2679      1.82304
    177       3.2680      1.82264
    178       3.3626      1.18183
    179       3.3769      1.06134
    180       3.3770      1.06078
    181       3.6297     -0.07091
    182       3.7977     -0.01278
    183       3.7977     -0.01277
    184       4.2190     -0.00000
    185       5.1233     -0.00000
    186       5.1233     -0.00000
    187       5.5589     -0.00000
    188       5.8957     -0.00000
    189       5.8958     -0.00000
    190       6.3921     -0.00000
    191       6.5586     -0.00000
    192       6.5586     -0.00000
    193       6.7200     -0.00000
    194       6.7200     -0.00000
    195       7.0105     -0.00000
    196       7.0105     -0.00000
    197       7.7949     -0.00000
    198       7.7949     -0.00000
    199       8.1912     -0.00000
    200       8.1912     -0.00000
    201       8.6482     -0.00000
    202       8.7061     -0.00000
    203       8.7061     -0.00000
    204       8.8326     -0.00000
    205       8.8327     -0.00000
    206       9.3427      0.00000
    207       9.5930      0.00000
    208       9.5969      0.00000
    209       9.7623      0.00000
    210       9.7770      0.00000
    211       9.8583      0.00000
    212       9.8887      0.00000

 k-point   3 :       0.3125    0.0625    0.0625
  band No.  band energies     occupation 
      1      -4.2374      2.00000
      2      -3.3821      2.00000
      3      -2.4444      2.00000
      4      -2.4444      2.00000
      5      -2.2288      2.00000
      6      -2.1676      2.00000
      7      -2.1676      2.00000
      8      -2.1293      2.00000
      9      -2.1026      2.00000
     10      -2.1025      2.00000
     11      -1.9783      2.00000
     12      -1.9133      2.00000
     13      -1.9123      2.00000
     14      -1.9087      2.00000
     15      -1.9072      2.00000
     16      -1.9057      2.00000
     17      -1.8441      2.00000
     18      -1.7613      2.00000
     19      -1.7259      2.00000
     20      -1.7253      2.00000
     21      -1.7198      2.00000
     22      -1.7191      2.00000
     23      -1.6472      2.00000
     24      -1.6245      2.00000
     25      -1.6245      2.00000
     26      -1.4916      2.00000
     27      -1.4700      2.00000
     28      -1.4700      2.00000
     29      -1.2746      2.00000
     30      -1.2746      2.00000
     31      -1.2087      2.00000
     32      -1.2087      2.00000
     33      -1.1768      2.00000
     34      -1.1767      2.00000
     35      -1.1633      2.00000
     36      -1.1632      2.00000
     37      -1.1295      2.00000
     38      -1.1294      2.00000
     39      -1.1040      2.00000
     40      -1.1040      2.00000
     41      -1.0356      2.00000
     42      -1.0355      2.00000
     43      -0.9061      2.00000
     44      -0.9060      2.00000
     45      -0.8495      2.00000
     46      -0.8494      2.00000
     47      -0.8474      2.00000
     48      -0.8473      2.00000
     49      -0.8233      2.00000
     50      -0.8232      2.00000
     51      -0.8169      2.00000
     52      -0.7883      2.00000
     53      -0.7882      2.00000
     54      -0.6930      2.00000
     55      -0.6929      2.00000
     56      -0.6622      2.00000
     57      -0.6622      2.00000
     58      -0.6427      2.00000
     59      -0.6426      2.00000
     60      -0.6223      2.00000
     61      -0.5776      2.00000
     62      -0.5776      2.00000
     63      -0.5174      2.00000
     64      -0.5171      2.00000
     65      -0.5151      2.00000
     66      -0.5081      2.00000
     67      -0.5077      2.00000
     68      -0.4943      2.00000
     69      -0.4924      2.00000
     70      -0.4905      2.00000
     71      -0.4899      2.00000
     72      -0.4647      2.00000
     73      -0.4646      2.00000
     74      -0.4165      2.00000
     75      -0.3620      2.00000
     76      -0.3619      2.00000
     77      -0.3374      2.00000
     78      -0.3058      2.00000
     79      -0.3058      2.00000
     80      -0.3033      2.00000
     81      -0.3017      2.00000
     82      -0.2907      2.00000
     83      -0.1534      2.00000
     84      -0.1534      2.00000
     85      -0.1525      2.00000
     86      -0.1525      2.00000
     87      -0.0691      2.00000
     88      -0.0690      2.00000
     89      -0.0524      2.00000
     90      -0.0311      2.00000
     91       0.0206      2.00000
     92       0.0325      2.00000
     93       0.0344      2.00000
     94       0.0520      2.00000
     95       0.0594      2.00000
     96       0.0594      2.00000
     97       0.1195      2.00000
     98       0.1195      2.00000
     99       0.2743      2.00000
    100       0.2981      2.00000
    101       0.2981      2.00000
    102       0.3510      2.00000
    103       0.3511      2.00000
    104       0.4340      2.00000
    105       0.4340      2.00000
    106       0.4662      2.00000
    107       0.4662      2.00000
    108       0.4885      2.00000
    109       0.4886      2.00000
    110       0.5186      2.00000
    111       0.5186      2.00000
    112       0.5336      2.00000
    113       0.5336      2.00000
    114       0.5535      2.00000
    115       0.5995      2.00000
    116       0.5995      2.00000
    117       0.6171      2.00000
    118       0.6172      2.00000
    119       0.6476      2.00000
    120       0.6477      2.00000
    121       0.6572      2.00000
    122       0.6573      2.00000
    123       0.6931      2.00000
    124       0.7587      2.00000
    125       0.7961      2.00000
    126       0.7961      2.00000
    127       0.8538      2.00000
    128       0.8553      2.00000
    129       0.8573      2.00000
    130       0.8849      2.00000
    131       0.9630      2.00000
    132       0.9646      2.00000
    133       0.9758      2.00000
    134       0.9758      2.00000
    135       0.9895      2.00000
    136       0.9895      2.00000
    137       1.0256      2.00000
    138       1.0256      2.00000
    139       1.0396      2.00000
    140       1.0509      2.00000
    141       1.0510      2.00000
    142       1.0812      2.00000
    143       1.1689      2.00000
    144       1.1689      2.00000
    145       1.1816      2.00000
    146       1.1817      2.00000
    147       1.2312      2.00000
    148       1.2558      2.00000
    149       1.3126      2.00000
    150       1.3126      2.00000
    151       1.3191      2.00000
    152       1.3389      2.00000
    153       1.3390      2.00000
    154       1.3711      2.00000
    155       1.3941      2.00000
    156       1.3941      2.00000
    157       1.4021      2.00000
    158       1.4767      2.00000
    159       1.5190      2.00000
    160       1.5190      2.00000
    161       1.5200      2.00000
    162       1.5200      2.00000
    163       1.5486      2.00000
    164       1.6900      2.00000
    165       1.6912      2.00000
    166       1.6914      2.00000
    167       1.6926      2.00000
    168       1.8962      2.00000
    169       1.8962      2.00000
    170       2.2188      2.00000
    171       2.2188      2.00000
    172       2.5274      2.00000
    173       2.5562      2.00000
    174       2.9622      2.01104
    175       2.9623      2.01105
    176       3.1537      2.06913
    177       3.1538      2.06912
    178       3.3598      1.20457
    179       3.4184      0.71513
    180       3.6753     -0.05916
    181       3.9045     -0.00145
    182       3.9045     -0.00145
    183       4.3253     -0.00000
    184       4.3253     -0.00000
    185       5.5168     -0.00000
    186       5.5168     -0.00000
    187       5.8902     -0.00000
    188       5.8902     -0.00000
    189       5.9653     -0.00000
    190       6.1842     -0.00000
    191       6.1842     -0.00000
    192       6.4773     -0.00000
    193       6.4773     -0.00000
    194       6.8858     -0.00000
    195       6.8858     -0.00000
    196       7.0450     -0.00000
    197       7.7242     -0.00000
    198       7.7242     -0.00000
    199       7.7508     -0.00000
    200       7.7509     -0.00000
    201       8.3837     -0.00000
    202       8.7655     -0.00000
    203       8.7655     -0.00000
    204       8.9338      0.00000
    205       8.9338      0.00000
    206       8.9883      0.00000
    207       8.9885      0.00000
    208       9.4976      0.00000
    209       9.5034      0.00000
    210       9.5390      0.00000
    211       9.7950      0.00000
    212       9.8480      0.00000

 k-point   4 :       0.4375    0.0625    0.0625
  band No.  band energies     occupation 
      1      -4.0155      2.00000
      2      -3.7271      2.00000
      3      -2.2948      2.00000
      4      -2.2947      2.00000
      5      -2.1337      2.00000
      6      -2.1121      2.00000
      7      -2.1120      2.00000
      8      -2.0528      2.00000
      9      -2.0528      2.00000
     10      -2.0043      2.00000
     11      -1.9969      2.00000
     12      -1.9614      2.00000
     13      -1.9613      2.00000
     14      -1.9311      2.00000
     15      -1.9036      2.00000
     16      -1.9034      2.00000
     17      -1.8960      2.00000
     18      -1.8345      2.00000
     19      -1.7948      2.00000
     20      -1.7947      2.00000
     21      -1.7832      2.00000
     22      -1.7830      2.00000
     23      -1.6910      2.00000
     24      -1.6324      2.00000
     25      -1.6324      2.00000
     26      -1.6066      2.00000
     27      -1.6065      2.00000
     28      -1.6002      2.00000
     29      -1.4572      2.00000
     30      -1.4572      2.00000
     31      -1.1732      2.00000
     32      -1.1731      2.00000
     33      -1.1587      2.00000
     34      -1.1587      2.00000
     35      -1.0945      2.00000
     36      -1.0944      2.00000
     37      -1.0376      2.00000
     38      -1.0375      2.00000
     39      -1.0067      2.00000
     40      -1.0067      2.00000
     41      -0.9965      2.00000
     42      -0.9965      2.00000
     43      -0.9810      2.00000
     44      -0.9809      2.00000
     45      -0.9156      2.00000
     46      -0.9155      2.00000
     47      -0.8925      2.00000
     48      -0.8924      2.00000
     49      -0.8695      2.00000
     50      -0.8695      2.00000
     51      -0.8370      2.00000
     52      -0.8370      2.00000
     53      -0.7763      2.00000
     54      -0.7763      2.00000
     55      -0.6925      2.00000
     56      -0.6901      2.00000
     57      -0.6897      2.00000
     58      -0.6876      2.00000
     59      -0.6867      2.00000
     60      -0.5825      2.00000
     61      -0.5817      2.00000
     62      -0.5371      2.00000
     63      -0.5363      2.00000
     64      -0.5361      2.00000
     65      -0.5125      2.00000
     66      -0.5116      2.00000
     67      -0.5092      2.00000
     68      -0.5082      2.00000
     69      -0.4981      2.00000
     70      -0.4981      2.00000
     71      -0.4692      2.00000
     72      -0.4381      2.00000
     73      -0.4228      2.00000
     74      -0.4227      2.00000
     75      -0.3282      2.00000
     76      -0.3281      2.00000
     77      -0.3058      2.00000
     78      -0.3058      2.00000
     79      -0.2591      2.00000
     80      -0.2576      2.00000
     81      -0.2575      2.00000
     82      -0.2188      2.00000
     83      -0.2188      2.00000
     84      -0.2166      2.00000
     85      -0.2158      2.00000
     86      -0.1965      2.00000
     87      -0.1554      2.00000
     88      -0.1102      2.00000
     89      -0.1102      2.00000
     90      -0.1048      2.00000
     91      -0.1031      2.00000
     92      -0.0799      2.00000
     93       0.3027      2.00000
     94       0.3056      2.00000
     95       0.3057      2.00000
     96       0.3315      2.00000
     97       0.3316      2.00000
     98       0.3430      2.00000
     99       0.3433      2.00000
    100       0.3480      2.00000
    101       0.3654      2.00000
    102       0.4662      2.00000
    103       0.4762      2.00000
    104       0.4762      2.00000
    105       0.4907      2.00000
    106       0.4908      2.00000
    107       0.5182      2.00000
    108       0.5183      2.00000
    109       0.5247      2.00000
    110       0.5248      2.00000
    111       0.5487      2.00000
    112       0.5488      2.00000
    113       0.5796      2.00000
    114       0.5796      2.00000
    115       0.5980      2.00000
    116       0.5981      2.00000
    117       0.6033      2.00000
    118       0.6033      2.00000
    119       0.6442      2.00000
    120       0.6443      2.00000
    121       0.6506      2.00000
    122       0.6508      2.00000
    123       0.6654      2.00000
    124       0.6961      2.00000
    125       0.6967      2.00000
    126       0.6987      2.00000
    127       0.7358      2.00000
    128       0.7570      2.00000
    129       0.7570      2.00000
    130       0.7907      2.00000
    131       0.8386      2.00000
    132       0.8386      2.00000
    133       1.0230      2.00000
    134       1.0231      2.00000
    135       1.0471      2.00000
    136       1.0774      2.00000
    137       1.1453      2.00000
    138       1.1454      2.00000
    139       1.1471      2.00000
    140       1.1802      2.00000
    141       1.1805      2.00000
    142       1.1818      2.00000
    143       1.1946      2.00000
    144       1.2014      2.00000
    145       1.2016      2.00000
    146       1.2113      2.00000
    147       1.2114      2.00000
    148       1.2839      2.00000
    149       1.2840      2.00000
    150       1.2880      2.00000
    151       1.3056      2.00000
    152       1.3060      2.00000
    153       1.3396      2.00000
    154       1.3686      2.00000
    155       1.3687      2.00000
    156       1.3714      2.00000
    157       1.3715      2.00000
    158       1.3733      2.00000
    159       1.3734      2.00000
    160       1.4364      2.00000
    161       1.6016      2.00000
    162       1.6016      2.00000
    163       1.6177      2.00000
    164       1.6178      2.00000
    165       1.6899      2.00000
    166       1.6911      2.00000
    167       1.6913      2.00000
    168       1.6925      2.00000
    169       1.7764      2.00000
    170       1.8996      2.00000
    171       1.8996      2.00000
    172       2.5149      2.00000
    173       2.5186      2.00000
    174       2.5208      2.00000
    175       3.0025      2.02125
    176       3.0025      2.02126
    177       3.0642      2.04614
    178       3.0642      2.04615
    179       3.5000      0.17899
    180       3.5981     -0.06187
    181       4.5112     -0.00000
    182       4.5113     -0.00000
    183       4.9162     -0.00000
    184       4.9162     -0.00000
    185       5.1841     -0.00000
    186       5.1841     -0.00000
    187       5.5515     -0.00000
    188       5.5515     -0.00000
    189       6.0033     -0.00000
    190       6.0033     -0.00000
    191       6.5076     -0.00000
    192       6.5076     -0.00000
    193       6.6449     -0.00000
    194       7.2069     -0.00000
    195       7.2069     -0.00000
    196       7.4713     -0.00000
    197       7.6096     -0.00000
    198       7.6096     -0.00000
    199       7.6457     -0.00000
    200       7.6457     -0.00000
    201       7.7970     -0.00000
    202       8.0360     -0.00000
    203       8.0361     -0.00000
    204       8.6267     -0.00000
    205       8.9424      0.00000
    206       8.9502      0.00000
    207       9.1900      0.00000
    208       9.2057      0.00000
    209       9.2174      0.00000
    210       9.3011      0.00000
    211       9.5100      0.00000
    212      10.0112      0.00000

 k-point   5 :       0.0625    0.1875    0.0625
  band No.  band energies     occupation 
      1      -4.3878      2.00000
      2      -2.9972      2.00000
      3      -2.5518      2.00000
      4      -2.5478      2.00000
      5      -2.2862      2.00000
      6      -2.2455      2.00000
      7      -2.2452      2.00000
      8      -2.2256      2.00000
      9      -2.2052      2.00000
     10      -2.2017      2.00000
     11      -2.0182      2.00000
     12      -2.0161      2.00000
     13      -1.9952      2.00000
     14      -1.9951      2.00000
     15      -1.8091      2.00000
     16      -1.7956      2.00000
     17      -1.7954      2.00000
     18      -1.7151      2.00000
     19      -1.7120      2.00000
     20      -1.6708      2.00000
     21      -1.5332      2.00000
     22      -1.5316      2.00000
     23      -1.4801      2.00000
     24      -1.4764      2.00000
     25      -1.4530      2.00000
     26      -1.3684      2.00000
     27      -1.3228      2.00000
     28      -1.3225      2.00000
     29      -1.2535      2.00000
     30      -1.2509      2.00000
     31      -1.2331      2.00000
     32      -1.2311      2.00000
     33      -1.2115      2.00000
     34      -1.2101      2.00000
     35      -1.2097      2.00000
     36      -1.2079      2.00000
     37      -1.1975      2.00000
     38      -1.1949      2.00000
     39      -1.0754      2.00000
     40      -1.0734      2.00000
     41      -1.0602      2.00000
     42      -1.0600      2.00000
     43      -0.9535      2.00000
     44      -0.8318      2.00000
     45      -0.8307      2.00000
[...]
    108       0.3978      2.00000
    109       0.3979      2.00000
    110       0.3998      2.00000
    111       0.3999      2.00000
    112       0.4015      2.00000
    113       0.4018      2.00000
    114       0.4097      2.00000
    115       0.4118      2.00000
    116       0.4140      2.00000
    117       0.4894      2.00000
    118       0.4916      2.00000
    119       0.4939      2.00000
    120       0.5424      2.00000
    121       0.5426      2.00000
    122       0.5441      2.00000
    123       0.5441      2.00000
    124       0.5456      2.00000
    125       0.5457      2.00000
    126       0.6397      2.00000
    127       0.6399      2.00000
    128       0.6399      2.00000
    129       0.6883      2.00000
    130       0.6898      2.00000
    131       0.6912      2.00000
    132       0.7006      2.00000
    133       0.7007      2.00000
    134       0.7334      2.00000
    135       0.7354      2.00000
    136       0.7371      2.00000
    137       0.8292      2.00000
    138       0.8308      2.00000
    139       0.8325      2.00000
    140       0.8909      2.00000
    141       0.8909      2.00000
    142       0.9169      2.00000
    143       0.9181      2.00000
    144       0.9194      2.00000
    145       1.5080      2.00000
    146       1.5083      2.00000
    147       1.5088      2.00000
    148       1.5279      2.00000
    149       1.5289      2.00000
    150       1.5290      2.00000
    151       1.5290      2.00000
    152       1.5292      2.00000
    153       1.5293      2.00000
    154       1.5295      2.00000
    155       1.5296      2.00000
    156       1.5298      2.00000
    157       1.5299      2.00000
    158       1.5301      2.00000
    159       1.5309      2.00000
    160       1.5335      2.00000
    161       1.5336      2.00000
    162       1.5340      2.00000
    163       1.5484      2.00000
    164       1.5487      2.00000
    165       1.5491      2.00000
    166       1.5598      2.00000
    167       1.5600      2.00000
    168       1.5602      2.00000
    169       3.4658      0.36898
    170       3.4674      0.35868
    171       3.4690      0.34894
    172       3.7934     -0.01374
    173       3.7956     -0.01324
    174       3.7967     -0.01298
    175       3.7968     -0.01298
    176       3.7979     -0.01273
    177       3.8001     -0.01225
    178       4.0962     -0.00001
    179       4.0972     -0.00001
    180       4.0983     -0.00001
    181       4.2289     -0.00000
    182       4.2300     -0.00000
    183       4.2312     -0.00000
    184       4.5727     -0.00000
    185       4.5753     -0.00000
    186       4.5763     -0.00000
    187       4.5763     -0.00000
    188       4.5773     -0.00000
    189       4.5800     -0.00000
    190       4.9006     -0.00000
    191       4.9020     -0.00000
    192       4.9035     -0.00000
    193       7.3001     -0.00000
    194       7.3010     -0.00000
    195       7.3019     -0.00000
    196       7.6736     -0.00000
    197       7.6749     -0.00000
    198       7.6762     -0.00000
    199       8.0110     -0.00000
    200       8.0120     -0.00000
    201       8.0133     -0.00000
    202       8.0144     -0.00000
    203       8.0151     -0.00000
    204       8.0155     -0.00000
    205       8.4307     -0.00000
    206       8.4316     -0.00000
    207       8.4339     -0.00000
    208       8.4330     -0.00000
    209       8.4592     -0.00000
    210       8.5430     -0.00000
    211       8.6714     -0.00000
    212       9.0469      0.00000


--------------------------------------------------------------------------------------------------------


 soft charge-density along one line, spin component           1
         0         1         2         3         4         5         6         7         8         9
 total charge-density along one line
 
 pseudopotential strength for first ion, spin component:           1
-10.553   0.000   0.000   0.000   0.000   0.004  -0.000   0.000
  0.000 -10.553   0.000   0.000  -0.000  -0.000   0.004  -0.000
  0.000   0.000 -10.542   0.000  -0.000   0.000  -0.000   0.003
  0.000   0.000   0.000 -10.553   0.000  -0.000  -0.000  -0.000
  0.000  -0.000  -0.000   0.000 -10.542  -0.000   0.000   0.000
  0.004  -0.000   0.000  -0.000  -0.000   0.270   0.000   0.000
 -0.000   0.004  -0.000  -0.000   0.000   0.000   0.270   0.000
  0.000  -0.000   0.003  -0.000   0.000   0.000   0.000   0.270
 -0.000  -0.000  -0.000   0.004  -0.000   0.000   0.000   0.000
 -0.000   0.000   0.000  -0.000   0.003   0.000  -0.000  -0.000
 -0.000  -0.000   0.000  -0.000  -0.000   0.000   0.000  -0.000
  0.000   0.000  -0.000   0.000   0.000  -0.000  -0.000   0.000
  0.000  -0.000   0.000   0.000   0.000  -0.000   0.000  -0.000
  0.000  -0.000  -0.000   0.000   0.000  -0.000   0.000   0.000
 -0.000   0.000  -0.000  -0.000   0.000   0.000  -0.000   0.000
 -0.000   0.000  -0.000  -0.000  -0.000   0.000  -0.000   0.000
 -0.000  -0.000   0.000  -0.000  -0.000   0.000  -0.000  -0.000
  0.000  -0.000   0.000   0.000  -0.000  -0.000   0.000  -0.000
 total augmentation occupancy for first ion, spin component:           1
  1.909   0.000  -0.003  -0.001  -0.001  -0.070  -0.000   0.000   0.000   0.001   0.006   0.000   0.000  -0.000   0.000   0.000
  0.000   1.914  -0.001  -0.001  -0.003  -0.000  -0.075   0.002   0.001   0.000   0.004  -0.000   0.000   0.000   0.000   0.000
 -0.003  -0.001   1.961  -0.000  -0.003   0.000   0.002  -0.110   0.001   0.002   0.012   0.003   0.000  -0.000   0.000   0.000
 -0.001  -0.001  -0.000   1.920   0.001   0.000   0.001   0.001  -0.080   0.001   0.003  -0.001  -0.000   0.000   0.000   0.000
 -0.001  -0.003  -0.003   0.001   1.950   0.001   0.001   0.002   0.001  -0.102   0.007   0.002  -0.000  -0.000   0.000   0.000
 -0.070  -0.000   0.000   0.000   0.001   0.113   0.000   0.001  -0.000  -0.000  -0.002   0.001  -0.000   0.000  -0.000  -0.000
 -0.000  -0.075   0.002   0.001   0.001   0.000   0.116  -0.002  -0.001   0.001  -0.000   0.002  -0.000  -0.000  -0.000  -0.000
  0.000   0.002  -0.110   0.001   0.002   0.001  -0.002   0.093  -0.002  -0.001  -0.007  -0.001  -0.000   0.000  -0.000   0.000
  0.000   0.001   0.001  -0.080   0.001  -0.000  -0.001  -0.002   0.120  -0.002   0.001   0.002   0.000  -0.000   0.000  -0.000
  0.001   0.000   0.002   0.001  -0.102  -0.000   0.001  -0.001  -0.002   0.089  -0.004  -0.000  -0.000   0.000  -0.000   0.000
  0.006   0.004   0.012   0.003   0.007  -0.002  -0.000  -0.007   0.001  -0.004   0.990  -0.270   0.000  -0.000   0.000  -0.000
  0.000  -0.000   0.003  -0.001   0.002   0.001   0.002  -0.001   0.002  -0.000  -0.270   0.148  -0.000  -0.000   0.000   0.000
  0.000   0.000   0.000  -0.000  -0.000  -0.000  -0.000  -0.000   0.000  -0.000   0.000  -0.000   0.101   0.001   0.002  -0.007
 -0.000   0.000  -0.000   0.000  -0.000   0.000  -0.000   0.000  -0.000   0.000  -0.000  -0.000   0.001   0.102  -0.000  -0.000
  0.000   0.000   0.000   0.000   0.000  -0.000  -0.000  -0.000   0.000  -0.000   0.000   0.000   0.002  -0.000   0.101  -0.000
  0.000   0.000   0.000   0.000   0.000  -0.000  -0.000   0.000  -0.000   0.000  -0.000   0.000  -0.007  -0.000  -0.000   0.001
  0.000   0.000   0.000   0.000   0.000  -0.000  -0.000  -0.000  -0.000  -0.000  -0.000  -0.000  -0.000  -0.007  -0.000   0.000
 -0.000  -0.000  -0.000  -0.000   0.000   0.000   0.000   0.000   0.000  -0.000   0.000  -0.000  -0.000  -0.000  -0.007   0.000


------------------------ aborting loop because EDIFF is reached ----------------------------------------




--------------------------------------------------------------------------------------------------------


    CHARGE:  VPU time  146.59: CPU time  147.21
    FORLOC:  VPU time    0.52: CPU time    0.52
    FORNL :  VPU time  557.78: CPU time  558.66
    STRESS:  VPU time 4894.20: CPU time 4905.74
    FORCOR:  VPU time    3.30: CPU time    3.30
    FORHAR:  VPU time    1.24: CPU time    1.24
    MIXING:  VPU time    0.09: CPU time    0.09


--------------------------------------------------------------------------------------------------------



  FREE ENERGIE OF THE ION-ELECTRON SYSTEM (eV)
  ---------------------------------------------------
  free  energy   TOTEN  =      -100.589390 eV

  energy  without entropy=     -100.586827  energy(sigma->0) =     -100.588536
 

  FORCE on cell =-STRESS in cart. coord.  units (eV/reduce length):
  Direction    X        Y        Z        XY       YZ       ZX
  --------------------------------------------------------------------------------------
  Alpha Z   2862.17   2862.17   2862.17
  Ewald    -9737.95  -9737.82  -9737.82     -0.00     -0.00     -0.00
  Hartree   1504.43   1504.51   1504.51     -0.00     -0.00     -0.00
  E(xc)    -1574.54  -1574.54  -1574.54     -0.00     -0.00     -0.00
  Local     2321.76   2321.54   2321.54      0.00      0.00      0.00
  n-local  -1685.76  -1691.58  -1679.94      4.24      2.73      1.22
  augment   1377.22   1377.21   1377.21     -0.00     -0.00     -0.00
  Kinetic   4880.18   4874.51   4885.84      1.18     -0.38     -1.95
  -------------------------------------------------------------------------------------
  Total      -52.50    -52.50    -52.50     -0.00     -0.00     -0.00
  in kB     -125.53   -125.54   -125.54     -0.00     -0.00     -0.00
  external pressure =     -125.54 kB  Pullay stress =        0.00 kB


 VOLUME and BASIS-vectors are now :
 -----------------------------------------------------------------------------
  energy-cutoff  :      600.00
  volume of cell :      670.04
      direct lattice vectors                 reciprocal lattice vectors
     8.750512820  0.000000000  0.000000000     0.114279017 -0.000000002 -0.000000002
     0.000000160  8.750512820  0.000000000     0.000000000  0.114279017 -0.000000002
     0.000000160  0.000000160  8.750512820     0.000000000  0.000000000  0.114279017

  length of vectors
     8.750512820  8.750512820  8.750512820     0.114279017  0.114279017  0.114279017


 FORCES acting on ions
    electron-ion (+dipol)            ewald-force                    non-local-force                 convergence-correction
 -----------------------------------------------------------------------------------------------
   0.236E-01 0.136E+00 -.127E-07   -.249E-01 -.135E+00 0.137E-07   0.752E-03 -.339E-03 0.424E-21   -.497E-05 -.389E-03 0.180E-09
   0.857E+00 0.165E+01 -.842E-08   -.854E+00 -.165E+01 0.262E-09   -.778E-02 -.474E-02 0.000E+00   -.240E-03 -.373E-03 -.195E-09
   0.857E+00 -.279E-07 -.165E+01   -.854E+00 0.300E-07 0.165E+01   -.778E-02 0.866E-10 0.474E-02   -.240E-03 0.117E-09 0.373E-03
   0.236E-01 -.136E+00 0.736E-08   -.249E-01 0.135E+00 -.801E-08   0.752E-03 0.339E-03 0.000E+00   -.496E-05 0.389E-03 -.105E-09
   -.106E+01 -.803E-02 0.803E-02   0.106E+01 0.765E-02 -.765E-02   -.459E-02 -.171E-04 0.171E-04   0.103E-02 0.417E-03 -.417E-03
   -.563E+00 0.220E-08 0.371E-07   0.564E+00 -.152E-08 -.409E-07   -.117E-02 -.419E-19 0.000E+00   0.117E-02 0.315E-09 -.633E-09
   0.283E-01 -.136E+00 0.707E-08   -.299E-01 0.135E+00 -.769E-08   0.737E-03 0.364E-03 0.339E-20   0.256E-03 0.218E-03 -.110E-09
   0.857E+00 0.218E-07 0.165E+01   -.854E+00 -.300E-07 -.165E+01   -.778E-02 -.866E-10 -.474E-02   -.240E-03 -.201E-09 -.373E-03
   0.857E+00 -.165E+01 0.223E-08   -.854E+00 0.165E+01 -.261E-09   -.778E-02 0.474E-02 0.000E+00   -.240E-03 0.373E-03 0.110E-09
   0.236E-01 0.486E-08 -.136E+00   -.249E-01 -.554E-08 0.135E+00   0.752E-03 0.621E-11 0.339E-03   -.500E-05 -.978E-10 0.389E-03
   -.106E+01 -.803E-02 -.803E-02   0.106E+01 0.765E-02 0.765E-02   -.459E-02 -.171E-04 -.171E-04   0.103E-02 0.417E-03 0.417E-03
   -.680E+01 0.107E-06 0.218E-07   0.675E+01 -.117E-06 -.117E-06   0.688E-01 0.340E-19 0.000E+00   0.948E-02 0.623E-09 0.623E-09
   -.106E+01 0.803E-02 0.803E-02   0.106E+01 -.765E-02 -.765E-02   -.459E-02 0.171E-04 0.171E-04   0.103E-02 -.417E-03 -.417E-03
   -.236E+00 0.105E-07 0.105E-07   0.233E+00 -.109E-07 -.109E-07   0.163E-02 0.240E-21 0.000E+00   0.984E-03 -.322E-09 -.322E-09
   0.868E+00 -.163E+01 0.212E-08   -.864E+00 0.163E+01 -.235E-09   -.743E-02 0.432E-02 0.000E+00   -.869E-03 0.137E-02 0.997E-10
   0.868E+00 0.215E-07 0.163E+01   -.864E+00 -.295E-07 -.163E+01   -.743E-02 -.790E-10 -.432E-02   -.869E-03 -.197E-09 -.137E-02
   0.283E-01 0.136E+00 -.129E-07   -.299E-01 -.135E+00 0.140E-07   0.737E-03 -.364E-03 0.000E+00   0.256E-03 -.218E-03 0.154E-09
   0.598E+00 0.227E-02 -.227E-02   -.599E+00 -.229E-02 0.229E-02   0.608E-03 0.558E-04 -.558E-04   -.125E-02 -.376E-04 0.376E-04
   0.455E+00 -.209E-08 -.251E-07   -.443E+00 0.150E-08 0.258E-07   -.618E-02 0.115E-20 0.000E+00   -.190E-02 -.324E-09 0.594E-09
   0.236E-01 -.102E-07 0.136E+00   -.249E-01 0.112E-07 -.135E+00   0.752E-03 -.621E-11 -.339E-03   -.500E-05 0.172E-09 -.389E-03
   -.106E+01 0.803E-02 -.803E-02   0.106E+01 -.765E-02 0.765E-02   -.459E-02 0.171E-04 -.171E-04   0.103E-02 -.417E-03 0.417E-03
   -.563E+00 0.375E-07 0.219E-08   0.564E+00 -.409E-07 -.152E-08   -.117E-02 -.454E-20 0.136E-19   0.117E-02 -.633E-09 0.315E-09
   0.868E+00 -.276E-07 -.163E+01   -.864E+00 0.295E-07 0.163E+01   -.743E-02 0.790E-10 0.432E-02   -.869E-03 0.125E-09 0.137E-02
   0.868E+00 0.163E+01 -.831E-08   -.864E+00 -.163E+01 0.287E-09   -.743E-02 -.432E-02 0.000E+00   -.869E-03 -.137E-02 -.171E-09
   0.283E-01 -.105E-07 0.136E+00   -.299E-01 0.115E-07 -.135E+00   0.737E-03 -.666E-11 -.364E-03   0.256E-03 0.150E-09 -.219E-03
   0.598E+00 0.227E-02 0.227E-02   -.599E+00 -.229E-02 -.229E-02   0.608E-03 0.558E-04 0.558E-04   -.125E-02 -.376E-04 -.376E-04
   0.177E+01 -.457E-08 0.824E-07   -.178E+01 0.201E-08 0.201E-08   0.108E-01 0.383E-20 0.000E+00   -.125E-02 -.585E-09 -.585E-09
   0.598E+00 -.227E-02 -.227E-02   -.599E+00 0.229E-02 0.229E-02   0.608E-03 -.558E-04 -.558E-04   -.125E-02 0.376E-04 0.376E-04
   0.218E+00 -.927E-08 -.926E-08   -.218E+00 0.957E-08 0.957E-08   0.712E-03 -.799E-22 0.000E+00   -.814E-03 0.343E-09 0.343E-09
   0.283E-01 0.458E-08 -.136E+00   -.299E-01 -.523E-08 0.135E+00   0.737E-03 0.666E-11 0.364E-03   0.256E-03 -.106E-09 0.219E-03
   0.598E+00 -.227E-02 0.227E-02   -.599E+00 0.229E-02 -.229E-02   0.608E-03 -.558E-04 0.558E-04   -.125E-02 0.376E-04 -.376E-04
   0.455E+00 -.248E-07 -.210E-08   -.443E+00 0.258E-07 0.150E-08   -.618E-02 -.364E-19 0.000E+00   -.190E-02 0.593E-09 -.324E-09
 -----------------------------------------------------------------------------------------------
   -.626E-04 -.254E-10 -.139E-09   0.740E-12 -.609E-13 -.244E-12   -.358E-02 0.158E-17 0.949E-19   0.261E-02 0.158E-10 0.156E-10
 
 
 POSITION                                       TOTAL-FORCE (eV/Angst)
 -----------------------------------------------------------------------------------
      6.56288      6.56288      4.37526        -0.000544      0.000038      0.000000
      6.56288      6.56288      0.00000        -0.004841     -0.006852      0.000000
      6.56288      0.00000      2.18763        -0.004841      0.000000      0.006852
      6.56288      2.18763      4.37526        -0.000544     -0.000038      0.000000
      0.00000      6.56288      2.18763         0.004026      0.000018     -0.000018
      0.00000      0.00000      4.37526         0.001349     -0.000000      0.000000
      2.18763      6.56288      4.37526        -0.000522     -0.000044      0.000000
      6.56288      0.00000      6.56288        -0.004841     -0.000000     -0.006852
      6.56288      2.18763      0.00000        -0.004841      0.006852      0.000000
      6.56288      4.37526      2.18763        -0.000544     -0.000000     -0.000038
      0.00000      6.56288      6.56288         0.004026      0.000018      0.000018
      8.73051      0.00000      0.00000         0.028052      0.000000      0.000000
      0.00000      2.18763      2.18763         0.004026     -0.000018     -0.000018
      0.00000      4.37526      4.37526        -0.000225     -0.000000      0.000000
      2.18763      6.56288      0.00000        -0.004350      0.006164      0.000000
      2.18763      0.00000      2.18763        -0.004350     -0.000000     -0.006164
      2.18763      2.18763      4.37526        -0.000522      0.000044      0.000000
      4.37526      6.56288      2.18763        -0.001383     -0.000001      0.000001
      4.37526      0.00000      4.37526         0.003706     -0.000000      0.000000
      6.56288      4.37526      6.56288        -0.000544      0.000000      0.000038
      0.00000      2.18763      6.56288         0.004026     -0.000018      0.000018
      0.00000      4.37526      0.00000         0.001349     -0.000000      0.000000
      2.18763      0.00000      6.56288        -0.004350      0.000000      0.006164
      2.18763      2.18763      0.00000        -0.004350     -0.006164      0.000000
      2.18763      4.37526      2.18763        -0.000522      0.000000      0.000044
      4.37526      6.56288      6.56288        -0.001383     -0.000001     -0.000001
      4.37526      0.00000      0.00000        -0.007498     -0.000000     -0.000000
      4.37526      2.18763      2.18763        -0.001383      0.000001      0.000001
      4.37526      4.37526      4.37526         0.000020     -0.000000      0.000000
      2.18763      4.37526      6.56288        -0.000522     -0.000000     -0.000044
      4.37526      2.18763      6.56288        -0.001383      0.000001     -0.000001
      4.37526      4.37526      0.00000         0.003706     -0.000000      0.000000
 -----------------------------------------------------------------------------------
    total drift:                               -0.001027     -0.000000     -0.000000


--------------------------------------------------------------------------------------------------------



 mean value of Nose-termostat <S>:     1.000 mean value of <T> :     0.000
 mean temperature <T/S>/<1/S>  :     0.000

     LOOP+:  VPU time27311.14: CPU time27390.94

 ----------------------------------------------------------------------------- 
|                                                                             |
|           W    W    AA    RRRRR   N    N  II  N    N   GGGG   !!!           |
|           W    W   A  A   R    R  NN   N  II  NN   N  G    G  !!!           |
|           W    W  A    A  R    R  N N  N  II  N N  N  G       !!!           |
|           W WW W  AAAAAA  RRRRR   N  N N  II  N  N N  G  GGG   !            |
|           WW  WW  A    A  R   R   N   NN  II  N   NN  G    G                |
|           W    W  A    A  R    R  N    N  II  N    N   GGGG   !!!           |
|                                                                             |
|      The partial DOS and the PROCAR file are not evaluated for NPAR/=1      |
|      please rerun with NPAR=1                                               |
|                                                                             |
 ----------------------------------------------------------------------------- 

  
  
 General timing and accounting informations for this job:
 ========================================================
  
                  Total CPU time used (sec):    27511.424
                            User time (sec):    25523.504
                          System time (sec):     1987.920
                         Elapsed time (sec):    27636.507
  
                   Maximum memory used (kb):     3907892.
                   Average memory used (kb):           0.
  
                          Minor page faults:       716617
                          Major page faults:            0
                 Voluntary context switches:         1623
