 vasp.4.6.28 25Jul05 complex 
 executed on             LinuxIFC date 2017.01.25  10:34:11
 running on    4 nodes
 distr:  one band on    1 nodes,    4 groups


--------------------------------------------------------------------------------------------------------


 INCAR:
 POTCAR:   PAW_PBE Au 06Sep2000                   
 POTCAR:   PAW_PBE Au 06Sep2000                   
   VRHFIN =Au: s1d10                                                            
   LEXCH  = PE                                                                  
   EATOM  =   926.0567 eV,   68.0632 Ry                                         
                                                                                
   TITEL  = PAW_PBE Au 06Sep2000                                                
   LULTRA =        F    use ultrasoft PP ?                                      
   IUNSCR =        1    unscreen: 0-lin 1-nonlin 2-no                           
   RPACOR =    2.330    partial core radius                                     
   POMASS =  196.966; ZVAL   =   11.000    mass and valenz                      
   RCORE  =    2.500    outmost cutoff radius                                   
   RWIGS  =    2.840; RWIGS  =    1.503    wigner-seitz radius (au A)           
   ENMAX  =  229.948; ENMIN  =  172.461 eV                                      
   RCLOC  =    1.964    cutoff for local pot                                    
   LCOR   =        T    correct aug charges                                     
   LPAW   =        T    paw PP                                                  
   EAUG   =  356.670                                                            
   DEXC   =    -.025                                                            
   RMAX   =    3.041    core radius for proj-oper                               
   RAUG   =    1.300    factor for augmentation sphere                          
   RDEP   =    2.598    radius for radial grids                                 
   QCUT   =   -4.111; QGAM   =    8.222    optimization parameters              
                                                                                
   Description                                                                  
     l     E      TYP  RCUT    TYP  RCUT                                        
     2   .000     23  2.500                                                     
     2   .000     23  2.500                                                     
     0   .000     23  2.500                                                     
     0   .000     23  2.500                                                     
     1  -.200     23  2.500                                                     
     1   .000     23  2.500                                                     
     3   .000      7   .000                                                     
  local pseudopotential read in
  partial core-charges read in
  atomic valenz-charges read in
  non local Contribution for L=           2  read in
    real space projection operators read in
  non local Contribution for L=           2  read in
    real space projection operators read in
  non local Contribution for L=           0  read in
    real space projection operators read in
  non local Contribution for L=           0  read in
    real space projection operators read in
  non local Contribution for L=           1  read in
    real space projection operators read in
  non local Contribution for L=           1  read in
    real space projection operators read in
    PAW grid and wavefunctions read in
 
   number of l-projection  operators is LMAX  =           6
   number of lm-projection operators is LMMAX =          18
 

 ----------------------------------------------------------------------------- 
|                                                                             |
|  ADVICE TO THIS USER RUNNING 'VASP/VAMP'   (HEAR YOUR MASTER'S VOICE ...):  |
|                                                                             |
|      You have a (more or less) 'large supercell' and for larger cells       |
|      it might be more efficient to use real space projection operators      |
|      So try LREAL= Auto  in the INCAR   file.                               |
|      Mind: If you want to do an extremely accurate calculations keep the    |
|      reciprocal projection scheme          (i.e. LREAL=.FALSE.)             |
|                                                                             |
 ----------------------------------------------------------------------------- 

 PAW_PBE Au 06Sep2000                   :
 energy of atom  1       EATOM= -926.0567
 kinetic energy error for atom=    0.0013 (will be added to EATOM!!)
 
 EXHCAR: internal setup
 exchange correlation table for  LEXCH =        8
   RHO(1)=    0.500       N(1)  =     2000
   RHO(2)=  100.500       N(2)  =     4000
 
 POSCAR: No title                                
  positions in direct lattice
  No initial velocities read in
 


--------------------------------------------------------------------------------------------------------


 ion  position               nearest neighbor table
   1  0.750  0.750  0.500-   3 3.09   5 3.09  14 3.09  19 3.09  20 3.09  26 3.09  11 3.09   6 3.09
                            18 3.09  29 3.09  10 3.09   8 3.09
   2  0.750  0.750  0.000-   8 3.09  10 3.09  11 3.09  18 3.09  22 3.09  27 3.09  26 3.09   5 3.09
                            32 3.09   3 3.09  20 3.09  12 3.11
   3  0.750  0.000  0.250-   1 3.09   5 3.09   9 3.09  19 3.09  28 3.09  18 3.09   6 3.09  27 3.09
                            13 3.09   2 3.09   4 3.09  12 3.11
   4  0.750  0.250  0.500-   6 3.09   8 3.09  10 3.09  13 3.09  29 3.09  31 3.09  21 3.09  28 3.09
                            14 3.09  19 3.09   3 3.09  20 3.09
   5  0.000  0.750  0.250-   1 3.09   3 3.09  14 3.09  15 3.09  25 3.09   2 3.09   7 3.09  16 3.09
                            10 3.09  22 3.09   6 3.09  12 3.09
   6  0.000  0.000  0.500-   4 3.09   7 3.09   8 3.09  11 3.09  13 3.09  16 3.09   1 3.09   3 3.09
                            17 3.09  23 3.09  21 3.09   5 3.09
   7  0.250  0.750  0.500-   6 3.09  11 3.09  16 3.09  18 3.09  29 3.09  30 3.09  19 3.09  26 3.09
                             5 3.09  14 3.09  25 3.09  23 3.09
   8  0.750  0.000  0.750-   2 3.09   4 3.09   6 3.09  11 3.09  27 3.09  31 3.09  26 3.09  19 3.09
                            21 3.09   1 3.09   9 3.09  12 3.11
   9  0.750  0.250  0.000-   3 3.09  20 3.09  21 3.09  28 3.09  32 3.09  27 3.09  13 3.09  31 3.09
                            22 3.09   8 3.09  10 3.09  12 3.11
  10  0.750  0.500  0.250-   2 3.09   4 3.09  13 3.09  18 3.09  22 3.09  29 3.09  14 3.09  28 3.09
                             5 3.09  32 3.09   9 3.09   1 3.09
  11  0.000  0.750  0.750-   2 3.09   6 3.09   7 3.09   8 3.09  22 3.09  30 3.09  20 3.09   1 3.09
                            23 3.09  15 3.09  14 3.09  12 3.09
  12  0.002  0.000  0.000-  15 3.08  23 3.08  24 3.08  16 3.08   5 3.09  21 3.09  13 3.09  11 3.09
                             9 3.11   3 3.11   2 3.11   8 3.11
  13  0.000  0.250  0.250-   4 3.09   6 3.09  10 3.09  16 3.09  22 3.09  24 3.09  17 3.09   3 3.09
                             9 3.09  25 3.09  14 3.09  12 3.09
  14  0.000  0.500  0.500-   1 3.09   5 3.09  17 3.09  20 3.09  21 3.09  25 3.09   7 3.09  10 3.09
                             4 3.09  30 3.09  13 3.09  11 3.09
  15  0.250  0.750  0.000-  12 3.08   5 3.09  23 3.09  25 3.09  26 3.09  32 3.09  18 3.09  22 3.09
                            27 3.09  11 3.09  30 3.09  16 3.09
  16  0.250  0.000  0.250-  12 3.08   7 3.09   6 3.09  13 3.09  18 3.09  24 3.09  27 3.09   5 3.09
                            19 3.09  28 3.09  17 3.09  15 3.09
  17  0.250  0.250  0.500-  14 3.09  19 3.09  21 3.09  23 3.09  25 3.09  28 3.09   6 3.09  13 3.09
                            29 3.09  31 3.09  30 3.09  16 3.09
  18  0.500  0.750  0.250-   2 3.09   7 3.09  10 3.09  16 3.09  27 3.09  29 3.09   1 3.09  25 3.09
                             3 3.09  15 3.09  19 3.09  32 3.09
  19  0.500  0.000  0.500-   1 3.09   3 3.09  17 3.09  23 3.09  26 3.09  28 3.09   4 3.09   7 3.09
                             8 3.09  16 3.09  18 3.09  31 3.09
  20  0.750  0.500  0.750-   1 3.09   9 3.09  14 3.09  21 3.09  26 3.09  32 3.09  11 3.09  29 3.09
                            31 3.09  22 3.09   4 3.09   2 3.09
  21  0.000  0.250  0.750-   9 3.09  14 3.09  17 3.09  20 3.09  23 3.09   8 3.09   4 3.09  24 3.09
                            30 3.09  22 3.09   6 3.09  12 3.09
  22  0.000  0.500  0.000-   2 3.09  10 3.09  11 3.09  13 3.09  24 3.09  30 3.09  20 3.09   9 3.09
                            25 3.09  15 3.09  21 3.09   5 3.09
  23  0.250  0.000  0.750-  12 3.08  15 3.09  17 3.09  19 3.09  21 3.09  26 3.09   6 3.09  11 3.09
                            27 3.09  31 3.09  24 3.09   7 3.09
  24  0.250  0.250  0.000-  12 3.08  13 3.09  16 3.09  22 3.09  27 3.09  30 3.09  31 3.09  21 3.09
                            28 3.09  32 3.09  25 3.09  23 3.09
  25  0.250  0.500  0.250-   5 3.09  14 3.09  15 3.09  17 3.09  28 3.09  32 3.09  22 3.09  13 3.09
                            29 3.09  18 3.09  24 3.09   7 3.09
  26  0.500  0.750  0.750-   1 3.09  15 3.09  19 3.09  20 3.09  23 3.09  32 3.09   8 3.09   2 3.09
                            30 3.09   7 3.09  27 3.09  29 3.09
  27  0.500  0.000  0.000-   2 3.09   8 3.09  16 3.09  18 3.09  24 3.09  31 3.09   9 3.09  23 3.09
                            15 3.09   3 3.09  28 3.09  26 3.09
  28  0.500  0.250  0.250-   3 3.09   9 3.09  17 3.09  19 3.09  25 3.09  32 3.09  10 3.09  24 3.09
                            16 3.09   4 3.09  29 3.09  27 3.09
  29  0.500  0.500  0.500-   4 3.09   7 3.09  10 3.09  18 3.09  30 3.09  31 3.09  20 3.09  25 3.09
                            17 3.09   1 3.09  26 3.09  28 3.09
  30  0.250  0.500  0.750-   7 3.09  11 3.09  22 3.09  24 3.09  29 3.09  31 3.09  26 3.09  14 3.09
                            21 3.09  32 3.09  17 3.09  15 3.09
  31  0.500  0.250  0.750-   4 3.09   8 3.09  24 3.09  27 3.09  29 3.09  30 3.09   9 3.09  17 3.09
                            20 3.09  23 3.09  19 3.09  32 3.09
  32  0.500  0.500  0.000-   9 3.09  15 3.09  20 3.09  25 3.09  26 3.09  28 3.09   2 3.09  10 3.09
                            24 3.09  30 3.09  18 3.09  31 3.09
 
  LATTYP: Found a simple cubic cell.
 ALAT       =     8.7505128200
  
  Lattice vectors:
  
 A1 = (   8.7505128200,   0.0000000000,   0.0000000000)
 A2 = (   0.0000001600,   8.7505128200,   0.0000000000)
 A3 = (   0.0000001600,   0.0000001600,   8.7505128200)
 Subroutine PRICEL returns:
 Original cell was already a primitive cell.
 

Analysis of symmetry for initial positions (statically):

 Routine SETGRP: Setting up the symmetry group for a 
 simple cubic supercell.


 Subroutine GETGRP returns: Found  8 space group operations
 (whereof  8 operations were pure point group operations)
 out of a pool of 48 trial point group operations.


The static configuration has the point symmetry C_4v.

Analysis of symmetry for dynamics (positions and initial velocities):

 Subroutine DYNSYM returns: Found  8 space group operations
 (whereof  8 operations were pure point group operations)
 out of a pool of  8 trial space group operations
 (whereof  8 operations were pure point group operations)
 and found also     1 'primitive' translations


The dynamic configuration has the point symmetry C_4v.
 
 
 KPOINTS: Automatic mesh                          

Automatic generation of k-mesh.
 
 Subroutine IBZKPT returns following result:
 ===========================================
 
 Found     40 irreducible k-points:
 
 Following reciprocal coordinates:
            Coordinates               Weight
  0.062500  0.062500  0.062500      8.000000
  0.187500  0.062500  0.062500      8.000000
  0.312500  0.062500  0.062500      8.000000
  0.437500  0.062500  0.062500      8.000000
  0.062500  0.187500  0.062500     16.000000
  0.187500  0.187500  0.062500     16.000000
  0.312500  0.187500  0.062500     16.000000
  0.437500  0.187500  0.062500     16.000000
  0.062500  0.312500  0.062500     16.000000
  0.187500  0.312500  0.062500     16.000000
  0.312500  0.312500  0.062500     16.000000
  0.437500  0.312500  0.062500     16.000000
  0.062500  0.437500  0.062500     16.000000
  0.187500  0.437500  0.062500     16.000000
  0.312500  0.437500  0.062500     16.000000
  0.437500  0.437500  0.062500     16.000000
  0.062500  0.187500  0.187500      8.000000
  0.187500  0.187500  0.187500      8.000000
  0.312500  0.187500  0.187500      8.000000
  0.437500  0.187500  0.187500      8.000000
  0.062500  0.312500  0.187500     16.000000
  0.187500  0.312500  0.187500     16.000000
  0.312500  0.312500  0.187500     16.000000
  0.437500  0.312500  0.187500     16.000000
  0.062500  0.437500  0.187500     16.000000
  0.187500  0.437500  0.187500     16.000000
  0.312500  0.437500  0.187500     16.000000
  0.437500  0.437500  0.187500     16.000000
  0.062500  0.312500  0.312500      8.000000
  0.187500  0.312500  0.312500      8.000000
  0.312500  0.312500  0.312500      8.000000
  0.437500  0.312500  0.312500      8.000000
  0.062500  0.437500  0.312500     16.000000
  0.187500  0.437500  0.312500     16.000000
  0.312500  0.437500  0.312500     16.000000
  0.437500  0.437500  0.312500     16.000000
  0.062500  0.437500  0.437500      8.000000
  0.187500  0.437500  0.437500      8.000000
  0.312500  0.437500  0.437500      8.000000
  0.437500  0.437500  0.437500      8.000000
 
 Following cartesian coordinates:
            Coordinates               Weight
  0.007142  0.007142  0.007142      8.000000
  0.021427  0.007142  0.007142      8.000000
  0.035712  0.007142  0.007142      8.000000
  0.049997  0.007142  0.007142      8.000000
  0.007142  0.021427  0.007142     16.000000
  0.021427  0.021427  0.007142     16.000000
  0.035712  0.021427  0.007142     16.000000
  0.049997  0.021427  0.007142     16.000000
  0.007142  0.035712  0.007142     16.000000
  0.021427  0.035712  0.007142     16.000000
  0.035712  0.035712  0.007142     16.000000
  0.049997  0.035712  0.007142     16.000000
  0.007142  0.049997  0.007142     16.000000
  0.021427  0.049997  0.007142     16.000000
  0.035712  0.049997  0.007142     16.000000
  0.049997  0.049997  0.007142     16.000000
  0.007142  0.021427  0.021427      8.000000
  0.021427  0.021427  0.021427      8.000000
  0.035712  0.021427  0.021427      8.000000
  0.049997  0.021427  0.021427      8.000000
  0.007142  0.035712  0.021427     16.000000
  0.021427  0.035712  0.021427     16.000000
  0.035712  0.035712  0.021427     16.000000
  0.049997  0.035712  0.021427     16.000000
  0.007142  0.049997  0.021427     16.000000
  0.021427  0.049997  0.021427     16.000000
  0.035712  0.049997  0.021427     16.000000
  0.049997  0.049997  0.021427     16.000000
  0.007142  0.035712  0.035712      8.000000
  0.021427  0.035712  0.035712      8.000000
  0.035712  0.035712  0.035712      8.000000
  0.049997  0.035712  0.035712      8.000000
  0.007142  0.049997  0.035712     16.000000
  0.021427  0.049997  0.035712     16.000000
  0.035712  0.049997  0.035712     16.000000
  0.049997  0.049997  0.035712     16.000000
  0.007142  0.049997  0.049997      8.000000
  0.021427  0.049997  0.049997      8.000000
  0.035712  0.049997  0.049997      8.000000
  0.049997  0.049997  0.049997      8.000000
 


--------------------------------------------------------------------------------------------------------




 Dimension of arrays:
   k-Points           NKPTS =     40   number of bands    NBANDS=    212
   number of dos      NEDOS =    301   number of ions     NIONS =     32
   non local maximal  LDIM  =      6   non local SUM 2l+1 LMDIM =     18
   total plane-waves  NPLWV = 343000
   max r-space proj   IRMAX =      1   max aug-charges    IRDMAX= 250610
   dimension x,y,z NGX =    70 NGY =   70 NGZ =   70
   dimension x,y,z NGXF=   140 NGYF=  140 NGZF=  140
   support grid    NGXF=   280 NGYF=  280 NGZF=  280
   ions per type =              32
 NGX,Y,Z   is equivalent  to a cutoff of  13.30, 13.30, 13.30 a.u.
 NGXF,Y,Z  is equivalent  to a cutoff of  26.60, 26.60, 26.60 a.u.


 I would recommend the setting:
   dimension x,y,z NGX =    70 NGY =   70 NGZ =   70
 SYSTEM =  No title                                
 POSCAR =  No title                                

 Startparameter for this run:
   NWRITE =      2    write-flag & timer
   PREC   = accura    medium, high low
   ISTART =      1    job   : 0-new  1-cont  2-samecut
   ICHARG =      0    charge: 1-file 2-atom 10-const
   ISPIN  =      1    spin polarized calculation?
   LNONCOLLINEAR =      F non collinear calculations
   LSORBIT =      F    spin-orbit coupling
   INIWAV =      1    electr: 0-lowe 1-rand  2-diag
   LASPH  =      F    aspherical Exc in radial PAW
   METAGGA=      F    non-selfconsistent MetaGGA calc.

 Electronic Relaxation 1
   ENCUT  =  600.0 eV  44.10 Ry    6.64 a.u.  17.48 17.48 17.48*2*pi/ulx,y,z
   ENINI  =  600.0     initial cutoff
   ENAUG  =  356.7 eV  augmentation charge cutoff
   NELM   =     60;   NELMIN=  2; NELMDL=  0     # of ELM steps 
   EDIFF  = 0.1E-04   stopping-criterion for ELM
   LREAL  =      F    real-space projection
   LCOMPAT=      F    compatible to vasp.4.4
   LREAL_COMPAT= F    compatible to vasp.4.5.1-3
   GGA_COMPAT  = T    GGA compatible to vasp.4.4-vasp.4.6
   LMAXPAW     = -100 max onsite density
   LMAXMIX     =    2 max onsite mixed and CHGCAR
   VOSKOWN=      1    Vosko Wilk Nusair interpolation
   ROPT   =    0.00000
 Ionic relaxation
   EDIFFG = -.2E-01   stopping-criterion for IOM
   NSW    =      0    number of steps for IOM
   NBLOCK =      1;   KBLOCK =      1    inner block; outer block 
   IBRION =     -1    ionic relax: 0-MD 1-quasi-New 2-CG
   NFREE  =      0    steps in history (QN), initial steepest desc. (CG)
   ISIF   =      2    stress and relaxation
   IWAVPR =     10    prediction:  0-non 1-charg 2-wave 3-comb
   ISYM   =      2    0-nonsym 1-usesym 2-fastsym
   LCORR  =      T    Harris-Foulkes like correction to forces

   POTIM  =   0.50    time-step for ionic-motion
   TEIN   =    0.0    initial temperature
   TEBEG  =    0.0;   TEEND  =   0.0 temperature during run
   SMASS  =  -3.00    Nose mass-parameter (am)
   estimated Nose-frequenzy (Omega)   =  0.10E-29 period in steps =****** mass=  -0.175E-26a.u.
   NPACO  =    256;   APACO  = 16.0  distance and # of slots for P.C.
   PSTRESS=    0.0 pullay stress

  Mass of Ions in am
   POMASS = 196.97
  Ionic Valenz
   ZVAL   =  11.00
  Atomic Wigner-Seitz radii
   RWIGS  =   1.34
   NELECT =     352.0000    total number of electrons
   NUPDOWN=      -1.0000    fix difference up-down

 DOS related values:
   EMIN   =  10.00;   EMAX   =-10.00  energy-range for DOS
   ISMEAR =     1;   SIGMA  =   0.20  broadening in eV -4-tet -1-fermi 0-gaus

 Electronic relaxation 2 (details)
   IALGO  =     48    algorithm
   LDIAG  =      T    sub-space diagonalisation
   IMIX   =      4    mixing-type and parameters
     AMIX     =   0.40;   BMIX     =  1.00
     AMIX_MAG =   1.60;   BMIX_MAG =  1.00
     AMIN     =   0.10
     WC   =   100.;   INIMIX=   1;  MIXPRE=   1

 Intra band minimization:
   WEIMIN = 0.0000     energy-eigenvalue tresh-hold
   EBREAK =  0.12E-07  absolut break condition
   DEPER  =   0.30     relativ break condition  

   TIME   =   0.10     timestep for ELM

  volume/ion in A,a.u.               =      20.94       141.30
  Fermi-wavevector in a.u.,eV,Ry     =   1.320958 23.741200  1.744929

 Second variation
   LSECVAR=     F    do a second variation
 
 Write flags
   LWAVE  =      F    write WAVECAR
   LCHARG =      F    write CHGCAR
   LVTOT  =      F    write LOCPOT, local potential
   LELF   =      F    write electronic localiz. function (ELF)
   LORBIT =      0    0 simple, 1 ext, 2 COOP (PROOUT)


 Dipole corrections
   IDIPOL =      0    1-x, 2-y, 3-z
   LDIPOL =      F    correct potential



--------------------------------------------------------------------------------------------------------


 Static calculation
 charge density will be updated during run
 non-spin polarized calculation
 RMM-DIIS sequential band-by-band
 performe sub-space diagonalisation
    before iterative eigenvector-optimisation
 modified Broyden-mixing scheme, WC =      100.0
 initial mixing is a Kerker type mixing with AMIX =  0.4000 and BMIX =      1.0000
 Hartree-type preconditioning will be used
 using additional bands           36
 reciprocal scheme for non local part
 use partial core corrections
 calculate Harris-corrections to forces 
   (improved forces if not selfconsistent)
 use gradient corrections 
 use of overlap-Matrix (Vanderbilt PP)
 Methfessel and Paxton  Order N= 1 SIGMA  =   0.20


--------------------------------------------------------------------------------------------------------


  energy-cutoff  :      600.00
  volume of cell :      670.04
      direct lattice vectors                 reciprocal lattice vectors
     8.750512820  0.000000000  0.000000000     0.114279017 -0.000000002 -0.000000002
     0.000000160  8.750512820  0.000000000     0.000000000  0.114279017 -0.000000002
     0.000000160  0.000000160  8.750512820     0.000000000  0.000000000  0.114279017

  length of vectors
     8.750512820  8.750512820  8.750512820     0.114279017  0.114279017  0.114279017


 
 old parameters found on file WAVECAR:
  energy-cutoff  :      600.00
  volume of cell :      670.04
      direct lattice vectors                 reciprocal lattice vectors
     8.750512820  0.000000000  0.000000000     0.114279017 -0.000000002 -0.000000002
     0.000000160  8.750512820  0.000000000     0.000000000  0.114279017 -0.000000002
     0.000000160  0.000000160  8.750512820     0.000000000  0.000000000  0.114279017

  length of vectors

 
 k-points in units of 2pi/SCALE and weight: Automatic mesh                          
   0.00714244  0.00714244  0.00714244       0.016
   0.02142732  0.00714244  0.00714244       0.016
   0.03571219  0.00714244  0.00714244       0.016
   0.04999707  0.00714244  0.00714244       0.016
   0.00714244  0.02142732  0.00714244       0.031
   0.02142732  0.02142732  0.00714244       0.031
   0.03571219  0.02142731  0.00714244       0.031
   0.04999707  0.02142731  0.00714244       0.031
   0.00714244  0.03571219  0.00714244       0.031
   0.02142732  0.03571219  0.00714244       0.031
   0.03571219  0.03571219  0.00714244       0.031
   0.04999707  0.03571219  0.00714244       0.031
   0.00714244  0.04999707  0.00714244       0.031
   0.02142732  0.04999707  0.00714244       0.031
   0.03571219  0.04999707  0.00714244       0.031
   0.04999707  0.04999707  0.00714244       0.031
   0.00714244  0.02142732  0.02142732       0.016
   0.02142732  0.02142732  0.02142731       0.016
   0.03571219  0.02142731  0.02142731       0.016
   0.04999707  0.02142731  0.02142731       0.016
   0.00714244  0.03571219  0.02142731       0.031
   0.02142732  0.03571219  0.02142731       0.031
   0.03571219  0.03571219  0.02142731       0.031
   0.04999707  0.03571219  0.02142731       0.031
   0.00714244  0.04999707  0.02142731       0.031
   0.02142732  0.04999707  0.02142731       0.031
   0.03571219  0.04999707  0.02142731       0.031
   0.04999707  0.04999707  0.02142731       0.031
   0.00714244  0.03571219  0.03571219       0.016
   0.02142732  0.03571219  0.03571219       0.016
   0.03571219  0.03571219  0.03571219       0.016
   0.04999707  0.03571219  0.03571219       0.016
   0.00714244  0.04999707  0.03571219       0.031
   0.02142732  0.04999707  0.03571219       0.031
   0.03571219  0.04999707  0.03571219       0.031
   0.04999707  0.04999707  0.03571219       0.031
   0.00714244  0.04999707  0.04999707       0.016
   0.02142732  0.04999707  0.04999707       0.016
   0.03571219  0.04999707  0.04999707       0.016
   0.04999707  0.04999707  0.04999707       0.016
 
 k-points in reciprocal lattice and weights: Automatic mesh                          
   0.06250000  0.06250000  0.06250000       0.016
   0.18750000  0.06250000  0.06250000       0.016
   0.31250000  0.06250000  0.06250000       0.016
   0.43750000  0.06250000  0.06250000       0.016
   0.06250000  0.18750000  0.06250000       0.031
   0.18750000  0.18750000  0.06250000       0.031
   0.31250000  0.18750000  0.06250000       0.031
   0.43750000  0.18750000  0.06250000       0.031
   0.06250000  0.31250000  0.06250000       0.031
   0.18750000  0.31250000  0.06250000       0.031
   0.31250000  0.31250000  0.06250000       0.031
   0.43750000  0.31250000  0.06250000       0.031
   0.06250000  0.43750000  0.06250000       0.031
   0.18750000  0.43750000  0.06250000       0.031
   0.31250000  0.43750000  0.06250000       0.031
   0.43750000  0.43750000  0.06250000       0.031
   0.06250000  0.18750000  0.18750000       0.016
   0.18750000  0.18750000  0.18750000       0.016
   0.31250000  0.18750000  0.18750000       0.016
   0.43750000  0.18750000  0.18750000       0.016
   0.06250000  0.31250000  0.18750000       0.031
   0.18750000  0.31250000  0.18750000       0.031
   0.31250000  0.31250000  0.18750000       0.031
   0.43750000  0.31250000  0.18750000       0.031
   0.06250000  0.43750000  0.18750000       0.031
   0.18750000  0.43750000  0.18750000       0.031
   0.31250000  0.43750000  0.18750000       0.031
   0.43750000  0.43750000  0.18750000       0.031
   0.06250000  0.31250000  0.31250000       0.016
   0.18750000  0.31250000  0.31250000       0.016
   0.31250000  0.31250000  0.31250000       0.016
   0.43750000  0.31250000  0.31250000       0.016
   0.06250000  0.43750000  0.31250000       0.031
   0.18750000  0.43750000  0.31250000       0.031
   0.31250000  0.43750000  0.31250000       0.031
   0.43750000  0.43750000  0.31250000       0.031
   0.06250000  0.43750000  0.43750000       0.016
   0.18750000  0.43750000  0.43750000       0.016
   0.31250000  0.43750000  0.43750000       0.016
   0.43750000  0.43750000  0.43750000       0.016
 
 position of ions in fractional coordinates (direct lattice) 
   0.75000000  0.75000000  0.50000000
   0.75000000  0.75000000  0.00000000
   0.75000000  0.00000000  0.25000000
   0.75000000  0.25000000  0.50000000
   0.00000000  0.75000000  0.25000000
   0.00000000  0.00000000  0.50000000
   0.25000000  0.75000000  0.50000000
   0.75000000  0.00000000  0.75000000
   0.75000000  0.25000000  0.00000000
   0.75000000  0.50000000  0.25000000
   0.00000000  0.75000000  0.75000000
   0.00228600  0.00000000  0.00000000
   0.00000000  0.25000000  0.25000000
   0.00000000  0.50000000  0.50000000
   0.25000000  0.75000000  0.00000000
   0.25000000  0.00000000  0.25000000
   0.25000000  0.25000000  0.50000000
   0.50000000  0.75000000  0.25000000
   0.50000000  0.00000000  0.50000000
   0.75000000  0.50000000  0.75000000
   0.00000000  0.25000000  0.75000000
   0.00000000  0.50000000  0.00000000
   0.25000000  0.00000000  0.75000000
   0.25000000  0.25000000  0.00000000
   0.25000000  0.50000000  0.25000000
   0.50000000  0.75000000  0.75000000
   0.50000000  0.00000000  0.00000000
   0.50000000  0.25000000  0.25000000
   0.50000000  0.50000000  0.50000000
   0.25000000  0.50000000  0.75000000
   0.50000000  0.25000000  0.75000000
   0.50000000  0.50000000  0.00000000
 
 position of ions in cartesian coordinates  (Angst):
   6.56288482  6.56288470  4.37525641
   6.56288474  6.56288462  0.00000000
   6.56288466  0.00000004  2.18762821
   6.56288474  2.18762829  4.37525641
   0.00000016  6.56288466  2.18762821
   0.00000008  0.00000008  4.37525641
   2.18762841  6.56288470  4.37525641
   6.56288474  0.00000012  6.56288462
   6.56288466  2.18762821  0.00000000
   6.56288474  4.37525645  2.18762821
   0.00000024  6.56288474  6.56288462
   0.02000367  0.00000000  0.00000000
   0.00000008  2.18762825  2.18762821
   0.00000016  4.37525649  4.37525641
   2.18762833  6.56288462  0.00000000
   2.18762825  0.00000004  2.18762821
   2.18762833  2.18762829  4.37525641
   4.37525657  6.56288466  2.18762821
   4.37525649  0.00000008  4.37525641
   6.56288482  4.37525653  6.56288462
   0.00000016  2.18762833  6.56288462
   0.00000008  4.37525641  0.00000000
   2.18762833  0.00000012  6.56288462
   2.18762825  2.18762821  0.00000000
   2.18762833  4.37525645  2.18762821
   4.37525665  6.56288474  6.56288462
   4.37525641  0.00000000  0.00000000
   4.37525649  2.18762825  2.18762821
   4.37525657  4.37525649  4.37525641
   2.18762841  4.37525653  6.56288462
   4.37525657  2.18762833  6.56288462
   4.37525649  4.37525641  0.00000000
 


--------------------------------------------------------------------------------------------------------


 k-point  1 :  0.06250.06250.0625  plane waves:  22392
 k-point  2 :  0.18750.06250.0625  plane waves:  22381
 k-point  3 :  0.31250.06250.0625  plane waves:  22371
 k-point  4 :  0.43750.06250.0625  plane waves:  22366
 k-point  5 :  0.06250.18750.0625  plane waves:  22381
 k-point  6 :  0.18750.18750.0625  plane waves:  22372
 k-point  7 :  0.31250.18750.0625  plane waves:  22395
 k-point  8 :  0.43750.18750.0625  plane waves:  22355
 k-point  9 :  0.06250.31250.0625  plane waves:  22371
 k-point 10 :  0.18750.31250.0625  plane waves:  22395
 k-point 11 :  0.31250.31250.0625  plane waves:  22372
 k-point 12 :  0.43750.31250.0625  plane waves:  22344
 k-point 13 :  0.06250.43750.0625  plane waves:  22366
 k-point 14 :  0.18750.43750.0625  plane waves:  22355
 k-point 15 :  0.31250.43750.0625  plane waves:  22344
 k-point 16 :  0.43750.43750.0625  plane waves:  22363
 k-point 17 :  0.06250.18750.1875  plane waves:  22372
 k-point 18 :  0.18750.18750.1875  plane waves:  22394
 k-point 19 :  0.31250.18750.1875  plane waves:  22367
 k-point 20 :  0.43750.18750.1875  plane waves:  22349
 k-point 21 :  0.06250.31250.1875  plane waves:  22395
 k-point 22 :  0.18750.31250.1875  plane waves:  22367
 k-point 23 :  0.31250.31250.1875  plane waves:  22358
 k-point 24 :  0.43750.31250.1875  plane waves:  22344
 k-point 25 :  0.06250.43750.1875  plane waves:  22355
 k-point 26 :  0.18750.43750.1875  plane waves:  22349
 k-point 27 :  0.31250.43750.1875  plane waves:  22344
 k-point 28 :  0.43750.43750.1875  plane waves:  22346
 k-point 29 :  0.06250.31250.3125  plane waves:  22372
 k-point 30 :  0.18750.31250.3125  plane waves:  22358
 k-point 31 :  0.31250.31250.3125  plane waves:  22349
 k-point 32 :  0.43750.31250.3125  plane waves:  22347
 k-point 33 :  0.06250.43750.3125  plane waves:  22344
 k-point 34 :  0.18750.43750.3125  plane waves:  22344
 k-point 35 :  0.31250.43750.3125  plane waves:  22347
 k-point 36 :  0.43750.43750.3125  plane waves:  22334
 k-point 37 :  0.06250.43750.4375  plane waves:  22363
 k-point 38 :  0.18750.43750.4375  plane waves:  22346
 k-point 39 :  0.31250.43750.4375  plane waves:  22334
 k-point 40 :  0.43750.43750.4375  plane waves:  22328

 maximum and minimum number of plane-waves per node :  22395 22328

 maximum number of plane-waves:  22395
 maximal index in each direction: 
   IXMAX= 17   IYMAX= 17   IZMAX= 17
   IXMIN=-17   IYMIN=-17   IZMIN=-17

 NGX is ok and might be reduce to  70
 NGY is ok and might be reduce to  70
 NGZ is ok and might be reduce to  70

 parallel 3dFFT wavefunction:
    minimum data exchange during FFTs selected (reduces bandwidth)
 parallel 3dFFT charge:
    minimum data exchange during FFTs selected (reduces bandwidth)

 For storing wavefunctions 3033.90 MBYTES are necessary
 For predicting wavefunctions  162.88 MBYTES are necessary
Broyden mixing: mesh for mixing (old mesh)
   NGX = 35   NGY = 35   NGZ = 35
  (NGX  =140   NGY  =140   NGZ  =140)
 gives a total of  42875 points
 charge density for first step will be calculated from the start-wavefunctions


--------------------------------------------------------------------------------------------------------


 Maximum index for augmentation-charges        60844 (set IRDMAX)


--------------------------------------------------------------------------------------------------------


 initial charge from wavefunction
 First call to EWALD:  gamma=   0.203
 Maximum number of real-space cells 3x 3x 3
 Maximum number of reciprocal cells 3x 3x 3

    FEWALD:  VPU time    0.01: CPU time    0.01


----------------------------------------- Iteration    1(   1)  ---------------------------------------


    POTLOK:  VPU time    1.24: CPU time    1.24
    SETDIJ:  VPU time    2.16: CPU time    2.16
    EDDIAG:  VPU time   91.08: CPU time   91.10
  RMM-DIIS:  VPU time  458.72: CPU time  458.82
    ORTHCH:  VPU time   14.68: CPU time   14.69
    DOS   :  VPU time    0.00: CPU time   -0.00
    CHARGE:  VPU time   34.82: CPU time   34.83
    MIXING:  VPU time    0.03: CPU time    0.03
    ------------------------------------------
      LOOP:  VPU time  602.84: CPU time  602.98

 eigenvalue-minimisations  : 17661
 total energy-change (2. order) :-0.1032763E+03  (-0.6319681E+02)
 number of electron  352.0000002 magnetization 
 augmentation part   133.2662314 magnetization 

 Broyden mixing:
  rms(total) = 0.83801E+00    rms(broyden)= 0.78671E+00
  rms(prec ) = 0.11837E+01
  weight for this iteration     100.00

 Free energy of the ion-electron system (eV)
  ---------------------------------------------------
  alpha Z        PSCENC =      2862.17096503
  Ewald energy   TEWEN  =    -29213.47624162
  -1/2 Hartree   DENC   =     -4374.95796001
  -V(xc)+E(xc)   XCENC  =       423.96142218
  PAW double counting   =     22524.60883570   -21836.19161647
  entropy T*S    EENTRO =        -0.00904263
  eigenvalues    EBANDS =      -123.15661494
  atomic energy  EATOM  =     29633.77399530
  ---------------------------------------------------
  free energy    TOTEN  =      -103.27625746 eV

  energy without entropy =     -103.26721483  energy(sigma->0) =     -103.27324325


--------------------------------------------------------------------------------------------------------




----------------------------------------- Iteration    1(   2)  ---------------------------------------


    POTLOK:  VPU time    1.18: CPU time    1.18
    SETDIJ:  VPU time    2.17: CPU time    2.17
    EDDIAG:  VPU time   91.52: CPU time   91.54
  RMM-DIIS:  VPU time  465.75: CPU time  465.85
    ORTHCH:  VPU time   14.68: CPU time   14.68
    DOS   :  VPU time    0.00: CPU time   -0.00
    CHARGE:  VPU time   35.09: CPU time   35.10
    MIXING:  VPU time    0.03: CPU time    0.03
    ------------------------------------------
      LOOP:  VPU time  610.54: CPU time  610.70

 eigenvalue-minimisations  : 18018
 total energy-change (2. order) : 0.2725272E+01  (-0.1326040E+01)
 number of electron  352.0000002 magnetization 
 augmentation part   130.7519020 magnetization 

 Broyden mixing:
  rms(total) = 0.13098E+00    rms(broyden)= 0.13098E+00
  rms(prec ) = 0.18643E+00
  weight for this iteration     100.00

 eigenvalues of (default mixing * dielectric matrix)
  average eigenvalue GAMMA=   1.0845
  1.0845

 Free energy of the ion-electron system (eV)
  ---------------------------------------------------
  alpha Z        PSCENC =      2862.17096503
  Ewald energy   TEWEN  =    -29213.47624162
  -1/2 Hartree   DENC   =     -4496.44412068
  -V(xc)+E(xc)   XCENC  =       454.97515846
  PAW double counting   =     23067.25846673   -22375.77648849
  entropy T*S    EENTRO =        -0.00385878
  eigenvalues    EBANDS =       -33.02886140
  atomic energy  EATOM  =     29633.77399530
  ---------------------------------------------------
  free energy    TOTEN  =      -100.55098545 eV

  energy without entropy =     -100.54712667  energy(sigma->0) =     -100.54969919


--------------------------------------------------------------------------------------------------------




----------------------------------------- Iteration    1(   3)  ---------------------------------------


    POTLOK:  VPU time    1.17: CPU time    1.17
    SETDIJ:  VPU time    2.16: CPU time    2.16
    EDDIAG:  VPU time   90.88: CPU time   90.90
  RMM-DIIS:  VPU time 1108.26: CPU time 1108.55
    ORTHCH:  VPU time   23.50: CPU time   23.51
    DOS   :  VPU time    0.00: CPU time   -0.00
    CHARGE:  VPU time  124.73: CPU time  124.77
    MIXING:  VPU time    0.12: CPU time    0.12
    ------------------------------------------
      LOOP:  VPU time 1350.96: CPU time 1352.30

 eigenvalue-minimisations  : 18821
 total energy-change (2. order) :-0.3552695E-01  (-0.9226139E-01)
 number of electron  352.0000002 magnetization 
 augmentation part   130.2912991 magnetization 

 Broyden mixing:
  rms(total) = 0.79323E-01    rms(broyden)= 0.79323E-01
  rms(prec ) = 0.86193E-01
  weight for this iteration     100.00

 eigenvalues of (default mixing * dielectric matrix)
  average eigenvalue GAMMA=   1.5705
  1.2472  1.8938

 Free energy of the ion-electron system (eV)
  ---------------------------------------------------
  alpha Z        PSCENC =      2862.17096503
  Ewald energy   TEWEN  =    -29213.47624162
  -1/2 Hartree   DENC   =     -4515.20411283
  -V(xc)+E(xc)   XCENC  =       455.81900835
  PAW double counting   =     23297.64664372   -22605.54973527
  entropy T*S    EENTRO =        -0.00196168
  eigenvalues    EBANDS =       -15.76507341
  atomic energy  EATOM  =     29633.77399530
  ---------------------------------------------------
  free energy    TOTEN  =      -100.58651240 eV

  energy without entropy =     -100.58455072  energy(sigma->0) =     -100.58585851


--------------------------------------------------------------------------------------------------------




----------------------------------------- Iteration    1(   4)  ---------------------------------------


    POTLOK:  VPU time    2.54: CPU time    2.54
    SETDIJ:  VPU time    5.78: CPU time    5.78
    EDDIAG:  VPU time  242.86: CPU time  242.93
  RMM-DIIS:  VPU time 2449.02: CPU time 2449.71
    ORTHCH:  VPU time   21.19: CPU time   21.19
    DOS   :  VPU time    0.00: CPU time   -0.00
    CHARGE:  VPU time  106.24: CPU time  106.28
    MIXING:  VPU time    0.08: CPU time    0.08
    ------------------------------------------
      LOOP:  VPU time 2827.83: CPU time 2828.65

 eigenvalue-minimisations  : 18639
 total energy-change (2. order) :-0.2530131E-02  (-0.3458465E-02)
 number of electron  352.0000002 magnetization 
 augmentation part   130.3537786 magnetization 

 Broyden mixing:
  rms(total) = 0.25252E-01    rms(broyden)= 0.25252E-01
  rms(prec ) = 0.29443E-01
  weight for this iteration     100.00

 eigenvalues of (default mixing * dielectric matrix)
  average eigenvalue GAMMA=   1.5597
  1.0514  1.0514  2.5762

 Free energy of the ion-electron system (eV)
  ---------------------------------------------------
  alpha Z        PSCENC =      2862.17096503
  Ewald energy   TEWEN  =    -29213.47624162
  -1/2 Hartree   DENC   =     -4511.19442485
  -V(xc)+E(xc)   XCENC  =       455.68807644
  PAW double counting   =     23438.21432546   -22746.14110416
  entropy T*S    EENTRO =        -0.00265832
  eigenvalues    EBANDS =       -19.62197583
  atomic energy  EATOM  =     29633.77399530
  ---------------------------------------------------
  free energy    TOTEN  =      -100.58904254 eV

  energy without entropy =     -100.58638422  energy(sigma->0) =     -100.58815643


--------------------------------------------------------------------------------------------------------




----------------------------------------- Iteration    1(   5)  ---------------------------------------


    POTLOK:  VPU time    1.98: CPU time    1.98
    SETDIJ:  VPU time    4.93: CPU time    4.93
    EDDIAG:  VPU time  223.39: CPU time  223.46
  RMM-DIIS:  VPU time 2517.14: CPU time 2517.87
    ORTHCH:  VPU time   25.25: CPU time   25.25
    DOS   :  VPU time    0.00: CPU time   -0.00
    CHARGE:  VPU time  100.68: CPU time  100.71
    MIXING:  VPU time    0.04: CPU time    0.04
    ------------------------------------------
      LOOP:  VPU time 2873.54: CPU time 2874.38

 eigenvalue-minimisations  : 18709
 total energy-change (2. order) :-0.4635199E-03  (-0.2139284E-03)
 number of electron  352.0000002 magnetization 
 augmentation part   130.3546972 magnetization 

 Broyden mixing:
  rms(total) = 0.68831E-02    rms(broyden)= 0.68831E-02
  rms(prec ) = 0.10480E-01
  weight for this iteration     100.00

 eigenvalues of (default mixing * dielectric matrix)
  average eigenvalue GAMMA=   1.4660
  2.5638  1.2287  1.2287  0.8428

 Free energy of the ion-electron system (eV)
  ---------------------------------------------------
  alpha Z        PSCENC =      2862.17096503
  Ewald energy   TEWEN  =    -29213.47624162
  -1/2 Hartree   DENC   =     -4512.05532307
  -V(xc)+E(xc)   XCENC  =       455.74859715
  PAW double counting   =     23520.65408018   -22828.46538213
  entropy T*S    EENTRO =        -0.00268623
  eigenvalues    EBANDS =       -18.93751067
  atomic energy  EATOM  =     29633.77399530
  ---------------------------------------------------
  free energy    TOTEN  =      -100.58950606 eV

  energy without entropy =     -100.58681983  energy(sigma->0) =     -100.58861065


--------------------------------------------------------------------------------------------------------




----------------------------------------- Iteration    1(   6)  ---------------------------------------


    POTLOK:  VPU time    1.65: CPU time    1.65
    SETDIJ:  VPU time    4.70: CPU time    4.70
    EDDIAG:  VPU time  206.68: CPU time  206.74
  RMM-DIIS:  VPU time 2475.70: CPU time 2476.40
    ORTHCH:  VPU time   26.51: CPU time   26.52
    DOS   :  VPU time    0.00: CPU time   -0.00
    CHARGE:  VPU time  127.40: CPU time  127.44
    MIXING:  VPU time    0.08: CPU time    0.08
    ------------------------------------------
      LOOP:  VPU time 2842.86: CPU time 2843.67

 eigenvalue-minimisations  : 18225
 total energy-change (2. order) : 0.1044966E-03  (-0.1150908E-03)
 number of electron  352.0000002 magnetization 
 augmentation part   130.3257426 magnetization 

 Broyden mixing:
  rms(total) = 0.19545E-02    rms(broyden)= 0.19545E-02
  rms(prec ) = 0.27044E-02
  weight for this iteration     100.00

 eigenvalues of (default mixing * dielectric matrix)
  average eigenvalue GAMMA=   1.5568
  2.5238  2.1975  1.1159  1.1159  0.8308

 Free energy of the ion-electron system (eV)
  ---------------------------------------------------
  alpha Z        PSCENC =      2862.17096503
  Ewald energy   TEWEN  =    -29213.47624162
  -1/2 Hartree   DENC   =     -4513.58454553
  -V(xc)+E(xc)   XCENC  =       455.81721095
  PAW double counting   =     23529.05400067   -22836.80867203
  entropy T*S    EENTRO =        -0.00252267
  eigenvalues    EBANDS =       -17.53359166
  atomic energy  EATOM  =     29633.77399530
  ---------------------------------------------------
  free energy    TOTEN  =      -100.58940156 eV

  energy without entropy =     -100.58687889  energy(sigma->0) =     -100.58856067


--------------------------------------------------------------------------------------------------------




----------------------------------------- Iteration    1(   7)  ---------------------------------------


    POTLOK:  VPU time    2.46: CPU time    2.47
    SETDIJ:  VPU time    5.67: CPU time    5.67
    EDDIAG:  VPU time  229.55: CPU time  229.62
  RMM-DIIS:  VPU time 1903.65: CPU time 1904.18
    ORTHCH:  VPU time   24.11: CPU time   24.12
    DOS   :  VPU time    0.00: CPU time   -0.00
    ------------------------------------------
      LOOP:  VPU time 2165.57: CPU time 2166.18

 eigenvalue-minimisations  : 15182
 total energy-change (2. order) : 0.9821946E-05  (-0.6983221E-05)
 number of electron  352.0000002 magnetization 
 augmentation part   130.3257426 magnetization 

 Free energy of the ion-electron system (eV)
  ---------------------------------------------------
  alpha Z        PSCENC =      2862.17096503
  Ewald energy   TEWEN  =    -29213.47624162
  -1/2 Hartree   DENC   =     -4513.41248648
  -V(xc)+E(xc)   XCENC  =       455.81148054
  PAW double counting   =     23526.86463822   -22834.62368234
  entropy T*S    EENTRO =        -0.00254975
  eigenvalues    EBANDS =       -17.69551064
  atomic energy  EATOM  =     29633.77399530
  ---------------------------------------------------
  free energy    TOTEN  =      -100.58939174 eV

  energy without entropy =     -100.58684198  energy(sigma->0) =     -100.58854182


--------------------------------------------------------------------------------------------------------




 average (electrostatic) potential at core
  the test charge radii are     1.2098
  (the norm of the test charge is              1.0000)
       1 -47.2722       2 -47.2700       3 -47.2700       4 -47.2722       5 -47.2723
       6 -47.2723       7 -47.2726       8 -47.2700       9 -47.2700      10 -47.2722
      11 -47.2723      12 -47.2729      13 -47.2723      14 -47.2724      15 -47.2747
      16 -47.2747      17 -47.2726      18 -47.2724      19 -47.2723      20 -47.2722
      21 -47.2723      22 -47.2723      23 -47.2747      24 -47.2747      25 -47.2726
      26 -47.2724      27 -47.2723      28 -47.2724      29 -47.2724      30 -47.2726
      31 -47.2724      32 -47.2723
 
 
 
 E-fermi :   3.3844     XC(G=0): -11.5164     alpha+bet : -8.2881
   add alpha+bet to get absolut eigen values

 k-point   1 :       0.0625    0.0625    0.0625
  band No.  band energies     occupation 
      1      -4.4637      2.00000
      2      -2.6069      2.00000
      3      -2.6040      2.00000
      4      -2.6013      2.00000
      5      -2.3047      2.00000
      6      -2.2845      2.00000
      7      -2.2844      2.00000
      8      -2.2843      2.00000
      9      -2.2583      2.00000
     10      -2.2558      2.00000
     11      -2.2533      2.00000
     12      -2.0403      2.00000
     13      -2.0402      2.00000
     14      -2.0402      2.00000
     15      -1.8333      2.00000
     16      -1.8331      2.00000
     17      -1.8331      2.00000
     18      -1.5337      2.00000
     19      -1.5317      2.00000
     20      -1.5298      2.00000
     21      -1.3754      2.00000
     22      -1.3749      2.00000
     23      -1.3725      2.00000
     24      -1.3725      2.00000
     25      -1.3702      2.00000
     26      -1.3697      2.00000
     27      -1.3048      2.00000
     28      -1.3026      2.00000
     29      -1.3006      2.00000
     30      -1.2356      2.00000
     31      -1.2342      2.00000
     32      -1.2340      2.00000
     33      -1.2329      2.00000
     34      -1.2308      2.00000
     35      -1.2306      2.00000
     36      -1.2306      2.00000
     37      -1.2305      2.00000
     38      -1.2274      2.00000
     39      -1.0955      2.00000
     40      -1.0942      2.00000
     41      -1.0928      2.00000
     42      -0.8146      2.00000
     43      -0.8145      2.00000
     44      -0.8131      2.00000
     45      -0.8130      2.00000
     46      -0.8116      2.00000
     47      -0.8116      2.00000
     48      -0.7450      2.00000
     49      -0.7433      2.00000
     50      -0.7418      2.00000
     51      -0.7248      2.00000
     52      -0.7239      2.00000
     53      -0.7226      2.00000
     54      -0.7225      2.00000
     55      -0.7213      2.00000
     56      -0.7202      2.00000
     57      -0.6663      2.00000
     58      -0.6649      2.00000
     59      -0.6633      2.00000
     60      -0.5319      2.00000
     61      -0.5319      2.00000
     62      -0.5303      2.00000
     63      -0.5303      2.00000
     64      -0.5288      2.00000
     65      -0.5287      2.00000
     66      -0.4685      2.00000
     67      -0.4653      2.00000
     68      -0.4651      2.00000
     69      -0.4650      2.00000
     70      -0.4647      2.00000
     71      -0.4624      2.00000
     72      -0.4527      2.00000
     73      -0.4517      2.00000
     74      -0.4503      2.00000
     75      -0.4237      2.00000
     76      -0.4237      2.00000
     77      -0.4235      2.00000
     78      -0.4077      2.00000
     79      -0.4076      2.00000
     80      -0.4044      2.00000
     81      -0.3981      2.00000
     82      -0.3979      2.00000
     83      -0.3979      2.00000
     84      -0.3918      2.00000
     85      -0.3906      2.00000
     86      -0.3889      2.00000
     87      -0.3883      2.00000
     88      -0.3882      2.00000
     89       0.0863      2.00000
     90       0.0870      2.00000
     91       0.0878      2.00000
     92       0.1635      2.00000
     93       0.1653      2.00000
     94       0.1674      2.00000
     95       0.2236      2.00000
     96       0.2244      2.00000
     97       0.2249      2.00000
     98       0.2847      2.00000
     99       0.2855      2.00000
    100       0.2868      2.00000
    101       0.2871      2.00000
    102       0.2885      2.00000
    103       0.2886      2.00000
    104       0.2889      2.00000
    105       0.2907      2.00000
    106       0.2920      2.00000
    107       0.3721      2.00000
    108       0.3735      2.00000
    109       0.3749      2.00000
    110       0.4394      2.00000
    111       0.4415      2.00000
    112       0.4436      2.00000
    113       0.5641      2.00000
    114       0.5662      2.00000
    115       0.5680      2.00000
    116       0.5859      2.00000
    117       0.5877      2.00000
    118       0.5896      2.00000
    119       0.6112      2.00000
    120       0.6138      2.00000
    121       0.6138      2.00000
    122       0.6141      2.00000
    123       0.6142      2.00000
    124       0.6166      2.00000
    125       0.6486      2.00000
    126       0.6487      2.00000
    127       0.6495      2.00000
    128       0.6508      2.00000
    129       0.6511      2.00000
    130       0.7034      2.00000
    131       0.7048      2.00000
    132       0.7062      2.00000
    133       0.7063      2.00000
    134       0.7076      2.00000
    135       0.7092      2.00000
    136       0.7878      2.00000
    137       0.7888      2.00000
    138       0.7898      2.00000
    139       1.0076      2.00000
    140       1.0086      2.00000
    141       1.0096      2.00000
    142       1.0904      2.00000
    143       1.0909      2.00000
    144       1.0913      2.00000
    145       1.3994      2.00000
    146       1.4000      2.00000
    147       1.4004      2.00000
    148       1.4373      2.00000
    149       1.4373      2.00000
    150       1.4375      2.00000
    151       1.4700      2.00000
    152       1.4700      2.00000
    153       1.4875      2.00000
    154       1.4875      2.00000
    155       1.4876      2.00000
    156       1.6560      2.00000
    157       1.6561      2.00000
    158       1.6561      2.00000
    159       1.6915      2.00000
    160       1.6917      2.00000
    161       1.6919      2.00000
    162       1.6919      2.00000
    163       1.6920      2.00000
    164       1.6922      2.00000
    165       1.6950      2.00000
    166       1.6950      2.00000
    167       1.6953      2.00000
    168       2.5395      2.00000
    169       2.5406      2.00000
    170       2.5417      2.00000
    171       2.9250      2.00547
    172       2.9253      2.00551
    173       2.9266      2.00565
    174       2.9267      2.00566
    175       2.9282      2.00583
    176       2.9284      2.00585
    177       2.9907      2.01769
    178       3.3338      1.41342
    179       3.3349      1.40487
    180       3.3357      1.39877
    181       3.3646      1.16649
    182       3.3647      1.16537
    183       3.3651      1.16232
    184       4.8946     -0.00000
    185       4.8953     -0.00000
    186       4.8962     -0.00000
    187       5.5506     -0.00000
    188       5.5511     -0.00000
    189       5.5517     -0.00000
    190       5.8717     -0.00000
    191       7.0238     -0.00000
    192       7.0243     -0.00000
    193       7.0248     -0.00000
    194       7.0248     -0.00000
    195       7.0252     -0.00000
    196       7.0257     -0.00000
    197       7.8347     -0.00000
    198       7.8354     -0.00000
    199       7.8360     -0.00000
    200       8.7638     -0.00000
    201       8.7642     -0.00000
    202       8.7665     -0.00000
    203       8.7665     -0.00000
    204       8.7688     -0.00000
    205       8.7692     -0.00000
    206       9.4644      0.00000
    207       9.4649      0.00000
    208       9.4674      0.00000
    209       9.4676      0.00000
    210       9.4703      0.00000
    211       9.4708      0.00000
    212      10.2416      0.00000

 k-point   2 :       0.1875    0.0625    0.0625
  band No.  band energies     occupation 
      1      -4.3878      2.00000
      2      -2.9972      2.00000
      3      -2.5498      2.00000
      4      -2.5497      2.00000
      5      -2.2860      2.00000
      6      -2.2452      2.00000
      7      -2.2452      2.00000
      8      -2.2254      2.00000
      9      -2.2035      2.00000
     10      -2.2034      2.00000
     11      -2.0184      2.00000
     12      -2.0157      2.00000
     13      -1.9950      2.00000
     14      -1.9949      2.00000
     15      -1.8089      2.00000
     16      -1.7953      2.00000
     17      -1.7953      2.00000
     18      -1.7134      2.00000
     19      -1.7134      2.00000
     20      -1.6706      2.00000
     21      -1.5322      2.00000
     22      -1.5322      2.00000
     23      -1.4782      2.00000
     24      -1.4781      2.00000
     25      -1.4529      2.00000
     26      -1.3681      2.00000
     27      -1.3225      2.00000
     28      -1.3224      2.00000
     29      -1.2519      2.00000
     30      -1.2519      2.00000
     31      -1.2319      2.00000
     32      -1.2318      2.00000
     33      -1.2103      2.00000
     34      -1.2102      2.00000
     35      -1.2089      2.00000
     36      -1.2089      2.00000
     37      -1.1960      2.00000
     38      -1.1960      2.00000
     39      -1.0743      2.00000
     40      -1.0742      2.00000
     41      -1.0597      2.00000
     42      -1.0597      2.00000
     43      -0.9532      2.00000
     44      -0.8309      2.00000
     45      -0.8309      2.00000
     46      -0.8135      2.00000
     47      -0.8130      2.00000
     48      -0.8054      2.00000
     49      -0.8053      2.00000
     50      -0.7864      2.00000
     51      -0.7864      2.00000
     52      -0.7288      2.00000
     53      -0.7287      2.00000
     54      -0.6517      2.00000
     55      -0.6451      2.00000
     56      -0.6448      2.00000
     57      -0.6325      2.00000
     58      -0.6325      2.00000
     59      -0.6082      2.00000
     60      -0.5770      2.00000
     61      -0.5769      2.00000
     62      -0.5749      2.00000
     63      -0.5748      2.00000
     64      -0.5246      2.00000
     65      -0.5245      2.00000
     66      -0.4988      2.00000
     67      -0.4988      2.00000
     68      -0.4853      2.00000
     69      -0.4853      2.00000
     70      -0.4525      2.00000
     71      -0.4389      2.00000
     72      -0.4388      2.00000
     73      -0.4332      2.00000
     74      -0.4055      2.00000
     75      -0.3873      2.00000
     76      -0.3698      2.00000
     77      -0.3696      2.00000
     78      -0.3657      2.00000
     79      -0.3657      2.00000
     80      -0.3614      2.00000
     81      -0.3593      2.00000
     82      -0.3584      2.00000
     83      -0.3239      2.00000
     84      -0.3239      2.00000
     85      -0.3005      2.00000
     86      -0.2525      2.00000
     87      -0.2186      2.00000
     88      -0.2186      2.00000
     89      -0.0269      2.00000
     90      -0.0268      2.00000
     91       0.0194      2.00000
     92       0.0195      2.00000
     93       0.0903      2.00000
     94       0.1054      2.00000
     95       0.1742      2.00000
     96       0.1742      2.00000
     97       0.1868      2.00000
     98       0.1947      2.00000
     99       0.2426      2.00000
    100       0.2427      2.00000
    101       0.2832      2.00000
    102       0.3519      2.00000
    103       0.3522      2.00000
    104       0.3594      2.00000
    105       0.3594      2.00000
    106       0.3663      2.00000
    107       0.3663      2.00000
    108       0.3994      2.00000
    109       0.4025      2.00000
    110       0.4032      2.00000
    111       0.5117      2.00000
    112       0.5117      2.00000
    113       0.5451      2.00000
    114       0.5458      2.00000
    115       0.5463      2.00000
    116       0.5468      2.00000
    117       0.6165      2.00000
    118       0.6179      2.00000
    119       0.6182      2.00000
    120       0.6305      2.00000
    121       0.6306      2.00000
    122       0.6615      2.00000
    123       0.6615      2.00000
    124       0.6641      2.00000
    125       0.7060      2.00000
    126       0.7061      2.00000
    127       0.7213      2.00000
    128       0.7644      2.00000
    129       0.7644      2.00000
    130       0.7666      2.00000
    131       0.8315      2.00000
    132       0.8315      2.00000
    133       0.8566      2.00000
    134       0.8566      2.00000
    135       0.8963      2.00000
    136       0.8967      2.00000
    137       0.9064      2.00000
    138       0.9064      2.00000
    139       0.9296      2.00000
    140       1.0499      2.00000
    141       1.0500      2.00000
    142       1.1565      2.00000
    143       1.1565      2.00000
    144       1.1738      2.00000
    145       1.2174      2.00000
    146       1.2390      2.00000
    147       1.2390      2.00000
    148       1.3679      2.00000
    149       1.3868      2.00000
    150       1.3868      2.00000
    151       1.4129      2.00000
    152       1.4165      2.00000
    153       1.4644      2.00000
    154       1.4658      2.00000
    155       1.4658      2.00000
    156       1.4887      2.00000
    157       1.4887      2.00000
    158       1.5951      2.00000
    159       1.6311      2.00000
    160       1.6311      2.00000
    161       1.6319      2.00000
    162       1.6319      2.00000
    163       1.6432      2.00000
    164       1.6907      2.00000
    165       1.6918      2.00000
    166       1.6920      2.00000
    167       1.6931      2.00000
    168       2.2018      2.00000
    169       2.2018      2.00000
    170       2.5360      2.00000
    171       2.5590      2.00000
    172       2.5590      2.00000
    173       2.6949      2.00001
    174       2.9382      2.00707
    175       2.9382      2.00708
    176       3.2679      1.82364
    177       3.2680      1.82322
    178       3.3628      1.18155
    179       3.3772      1.06090
    180       3.3772      1.06039
    181       3.6297     -0.07091
    182       3.7979     -0.01277
    183       3.7979     -0.01277
    184       4.2191     -0.00000
    185       5.1234     -0.00000
    186       5.1234     -0.00000
    187       5.5591     -0.00000
    188       5.8959     -0.00000
    189       5.8959     -0.00000
    190       6.3922     -0.00000
    191       6.5587     -0.00000
    192       6.5588     -0.00000
    193       6.7201     -0.00000
    194       6.7201     -0.00000
    195       7.0106     -0.00000
    196       7.0107     -0.00000
    197       7.7950     -0.00000
    198       7.7951     -0.00000
    199       8.1913     -0.00000
    200       8.1913     -0.00000
    201       8.6484     -0.00000
    202       8.7062     -0.00000
    203       8.7062     -0.00000
    204       8.8327     -0.00000
    205       8.8328     -0.00000
    206       9.3435      0.00000
    207       9.5954      0.00000
    208       9.5994      0.00000
    209       9.7647      0.00000
    210       9.7817      0.00000
    211       9.8618      0.00000
    212       9.8987      0.00000

 k-point   3 :       0.3125    0.0625    0.0625
  band No.  band energies     occupation 
      1      -4.2374      2.00000
      2      -3.3821      2.00000
      3      -2.4444      2.00000
      4      -2.4443      2.00000
      5      -2.2286      2.00000
      6      -2.1675      2.00000
      7      -2.1675      2.00000
      8      -2.1291      2.00000
      9      -2.1025      2.00000
     10      -2.1024      2.00000
     11      -1.9781      2.00000
     12      -1.9133      2.00000
     13      -1.9123      2.00000
     14      -1.9085      2.00000
     15      -1.9070      2.00000
     16      -1.9055      2.00000
     17      -1.8439      2.00000
     18      -1.7610      2.00000
     19      -1.7258      2.00000
     20      -1.7251      2.00000
     21      -1.7195      2.00000
     22      -1.7189      2.00000
     23      -1.6470      2.00000
     24      -1.6244      2.00000
     25      -1.6244      2.00000
     26      -1.4913      2.00000
     27      -1.4698      2.00000
     28      -1.4697      2.00000
     29      -1.2743      2.00000
     30      -1.2743      2.00000
     31      -1.2085      2.00000
     32      -1.2085      2.00000
     33      -1.1765      2.00000
     34      -1.1765      2.00000
     35      -1.1630      2.00000
     36      -1.1630      2.00000
     37      -1.1292      2.00000
     38      -1.1292      2.00000
     39      -1.1038      2.00000
     40      -1.1038      2.00000
     41      -1.0353      2.00000
     42      -1.0352      2.00000
     43      -0.9058      2.00000
     44      -0.9058      2.00000
     45      -0.8493      2.00000
     46      -0.8492      2.00000
     47      -0.8472      2.00000
     48      -0.8470      2.00000
     49      -0.8230      2.00000
     50      -0.8229      2.00000
     51      -0.8167      2.00000
     52      -0.7881      2.00000
     53      -0.7880      2.00000
     54      -0.6928      2.00000
     55      -0.6927      2.00000
     56      -0.6620      2.00000
     57      -0.6619      2.00000
     58      -0.6424      2.00000
     59      -0.6424      2.00000
     60      -0.6220      2.00000
     61      -0.5773      2.00000
     62      -0.5773      2.00000
     63      -0.5172      2.00000
     64      -0.5169      2.00000
     65      -0.5148      2.00000
     66      -0.5079      2.00000
     67      -0.5075      2.00000
     68      -0.4940      2.00000
     69      -0.4921      2.00000
     70      -0.4902      2.00000
     71      -0.4896      2.00000
     72      -0.4644      2.00000
     73      -0.4643      2.00000
     74      -0.4162      2.00000
     75      -0.3617      2.00000
     76      -0.3616      2.00000
     77      -0.3371      2.00000
     78      -0.3055      2.00000
     79      -0.3055      2.00000
     80      -0.3030      2.00000
     81      -0.3014      2.00000
     82      -0.2904      2.00000
     83      -0.1531      2.00000
     84      -0.1531      2.00000
     85      -0.1523      2.00000
     86      -0.1522      2.00000
     87      -0.0688      2.00000
     88      -0.0688      2.00000
     89      -0.0522      2.00000
     90      -0.0308      2.00000
     91       0.0209      2.00000
     92       0.0328      2.00000
     93       0.0347      2.00000
     94       0.0523      2.00000
     95       0.0596      2.00000
     96       0.0597      2.00000
     97       0.1198      2.00000
     98       0.1198      2.00000
     99       0.2746      2.00000
    100       0.2984      2.00000
    101       0.2984      2.00000
    102       0.3514      2.00000
    103       0.3514      2.00000
    104       0.4343      2.00000
    105       0.4343      2.00000
    106       0.4665      2.00000
    107       0.4665      2.00000
    108       0.4888      2.00000
    109       0.4889      2.00000
    110       0.5189      2.00000
    111       0.5189      2.00000
    112       0.5339      2.00000
    113       0.5339      2.00000
    114       0.5538      2.00000
    115       0.5998      2.00000
    116       0.5998      2.00000
    117       0.6174      2.00000
    118       0.6175      2.00000
    119       0.6479      2.00000
    120       0.6480      2.00000
    121       0.6575      2.00000
    122       0.6576      2.00000
    123       0.6934      2.00000
    124       0.7589      2.00000
    125       0.7964      2.00000
    126       0.7964      2.00000
    127       0.8541      2.00000
    128       0.8556      2.00000
    129       0.8576      2.00000
    130       0.8852      2.00000
    131       0.9633      2.00000
    132       0.9649      2.00000
    133       0.9760      2.00000
    134       0.9761      2.00000
    135       0.9898      2.00000
    136       0.9899      2.00000
    137       1.0259      2.00000
    138       1.0259      2.00000
    139       1.0400      2.00000
    140       1.0513      2.00000
    141       1.0513      2.00000
    142       1.0814      2.00000
    143       1.1692      2.00000
    144       1.1693      2.00000
    145       1.1819      2.00000
    146       1.1820      2.00000
    147       1.2315      2.00000
    148       1.2562      2.00000
    149       1.3129      2.00000
    150       1.3129      2.00000
    151       1.3194      2.00000
    152       1.3393      2.00000
    153       1.3393      2.00000
    154       1.3715      2.00000
    155       1.3944      2.00000
    156       1.3945      2.00000
    157       1.4025      2.00000
    158       1.4771      2.00000
    159       1.5194      2.00000
    160       1.5194      2.00000
    161       1.5204      2.00000
    162       1.5204      2.00000
    163       1.5489      2.00000
    164       1.6904      2.00000
    165       1.6915      2.00000
    166       1.6917      2.00000
    167       1.6929      2.00000
    168       1.8965      2.00000
    169       1.8965      2.00000
    170       2.2191      2.00000
    171       2.2191      2.00000
    172       2.5276      2.00000
    173       2.5563      2.00000
    174       2.9624      2.01105
    175       2.9625      2.01106
    176       3.1538      2.06915
    177       3.1539      2.06913
    178       3.3599      1.20533
    179       3.4186      0.71495
    180       3.6754     -0.05919
    181       3.9047     -0.00145
    182       3.9047     -0.00145
    183       4.3255     -0.00000
    184       4.3255     -0.00000
    185       5.5168     -0.00000
    186       5.5168     -0.00000
    187       5.8903     -0.00000
    188       5.8903     -0.00000
    189       5.9655     -0.00000
    190       6.1844     -0.00000
    191       6.1844     -0.00000
    192       6.4775     -0.00000
    193       6.4775     -0.00000
    194       6.8859     -0.00000
    195       6.8860     -0.00000
    196       7.0452     -0.00000
    197       7.7243     -0.00000
    198       7.7243     -0.00000
    199       7.7509     -0.00000
    200       7.7510     -0.00000
    201       8.3838     -0.00000
    202       8.7656     -0.00000
    203       8.7657     -0.00000
    204       8.9339      0.00000
    205       8.9340      0.00000
    206       8.9885      0.00000
    207       8.9887      0.00000
    208       9.5014      0.00000
    209       9.5077      0.00000
    210       9.5470      0.00000
    211       9.7943      0.00000
    212       9.8587      0.00000

 k-point   4 :       0.4375    0.0625    0.0625
  band No.  band energies     occupation 
      1      -4.0154      2.00000
      2      -3.7271      2.00000
      3      -2.2948      2.00000
      4      -2.2947      2.00000
      5      -2.1336      2.00000
      6      -2.1120      2.00000
      7      -2.1120      2.00000
      8      -2.0527      2.00000
      9      -2.0526      2.00000
     10      -2.0041      2.00000
     11      -1.9967      2.00000
     12      -1.9614      2.00000
     13      -1.9612      2.00000
     14      -1.9309      2.00000
     15      -1.9034      2.00000
     16      -1.9033      2.00000
     17      -1.8958      2.00000
     18      -1.8343      2.00000
     19      -1.7947      2.00000
     20      -1.7946      2.00000
     21      -1.7830      2.00000
     22      -1.7828      2.00000
     23      -1.6907      2.00000
     24      -1.6322      2.00000
     25      -1.6322      2.00000
     26      -1.6063      2.00000
     27      -1.6063      2.00000
     28      -1.5999      2.00000
     29      -1.4570      2.00000
     30      -1.4570      2.00000
     31      -1.1730      2.00000
     32      -1.1729      2.00000
     33      -1.1585      2.00000
     34      -1.1585      2.00000
     35      -1.0942      2.00000
     36      -1.0941      2.00000
     37      -1.0374      2.00000
     38      -1.0372      2.00000
     39      -1.0064      2.00000
     40      -1.0064      2.00000
     41      -0.9963      2.00000
     42      -0.9963      2.00000
     43      -0.9807      2.00000
     44      -0.9806      2.00000
     45      -0.9153      2.00000
     46      -0.9153      2.00000
     47      -0.8922      2.00000
     48      -0.8922      2.00000
     49      -0.8693      2.00000
     50      -0.8693      2.00000
     51      -0.8368      2.00000
     52      -0.8368      2.00000
     53      -0.7761      2.00000
     54      -0.7761      2.00000
     55      -0.6923      2.00000
     56      -0.6899      2.00000
     57      -0.6895      2.00000
     58      -0.6873      2.00000
     59      -0.6865      2.00000
     60      -0.5822      2.00000
     61      -0.5814      2.00000
     62      -0.5368      2.00000
     63      -0.5360      2.00000
     64      -0.5358      2.00000
     65      -0.5123      2.00000
     66      -0.5114      2.00000
     67      -0.5090      2.00000
     68      -0.5080      2.00000
     69      -0.4978      2.00000
     70      -0.4978      2.00000
     71      -0.4689      2.00000
     72      -0.4378      2.00000
     73      -0.4226      2.00000
     74      -0.4225      2.00000
     75      -0.3280      2.00000
     76      -0.3278      2.00000
     77      -0.3055      2.00000
     78      -0.3055      2.00000
     79      -0.2588      2.00000
     80      -0.2573      2.00000
     81      -0.2572      2.00000
     82      -0.2185      2.00000
     83      -0.2185      2.00000
     84      -0.2163      2.00000
     85      -0.2155      2.00000
     86      -0.1962      2.00000
     87      -0.1551      2.00000
     88      -0.1099      2.00000
     89      -0.1099      2.00000
     90      -0.1045      2.00000
     91      -0.1028      2.00000
     92      -0.0796      2.00000
     93       0.3029      2.00000
     94       0.3058      2.00000
     95       0.3060      2.00000
     96       0.3318      2.00000
     97       0.3319      2.00000
     98       0.3433      2.00000
     99       0.3436      2.00000
    100       0.3482      2.00000
    101       0.3658      2.00000
    102       0.4665      2.00000
    103       0.4764      2.00000
    104       0.4765      2.00000
    105       0.4910      2.00000
    106       0.4911      2.00000
    107       0.5186      2.00000
    108       0.5186      2.00000
    109       0.5250      2.00000
    110       0.5251      2.00000
    111       0.5490      2.00000
    112       0.5491      2.00000
    113       0.5799      2.00000
    114       0.5800      2.00000
    115       0.5983      2.00000
    116       0.5984      2.00000
    117       0.6036      2.00000
    118       0.6036      2.00000
    119       0.6445      2.00000
    120       0.6446      2.00000
    121       0.6509      2.00000
    122       0.6511      2.00000
    123       0.6656      2.00000
    124       0.6963      2.00000
    125       0.6971      2.00000
    126       0.6990      2.00000
    127       0.7361      2.00000
    128       0.7573      2.00000
    129       0.7573      2.00000
    130       0.7911      2.00000
    131       0.8389      2.00000
    132       0.8389      2.00000
    133       1.0234      2.00000
    134       1.0234      2.00000
    135       1.0474      2.00000
    136       1.0777      2.00000
    137       1.1456      2.00000
    138       1.1458      2.00000
    139       1.1474      2.00000
    140       1.1805      2.00000
    141       1.1809      2.00000
    142       1.1821      2.00000
    143       1.1950      2.00000
    144       1.2017      2.00000
    145       1.2020      2.00000
    146       1.2117      2.00000
    147       1.2118      2.00000
    148       1.2842      2.00000
    149       1.2843      2.00000
    150       1.2884      2.00000
    151       1.3060      2.00000
    152       1.3064      2.00000
    153       1.3400      2.00000
    154       1.3689      2.00000
    155       1.3690      2.00000
    156       1.3718      2.00000
    157       1.3718      2.00000
    158       1.3736      2.00000
    159       1.3737      2.00000
    160       1.4368      2.00000
    161       1.6019      2.00000
    162       1.6020      2.00000
    163       1.6180      2.00000
    164       1.6181      2.00000
    165       1.6903      2.00000
    166       1.6915      2.00000
    167       1.6916      2.00000
    168       1.6928      2.00000
    169       1.7765      2.00000
    170       1.8999      2.00000
    171       1.8999      2.00000
    172       2.5150      2.00000
    173       2.5188      2.00000
    174       2.5210      2.00000
    175       3.0027      2.02126
    176       3.0027      2.02126
    177       3.0644      2.04614
    178       3.0644      2.04614
    179       3.5002      0.17899
    180       3.5983     -0.06185
    181       4.5114     -0.00000
    182       4.5114     -0.00000
    183       4.9164     -0.00000
    184       4.9164     -0.00000
    185       5.1842     -0.00000
    186       5.1843     -0.00000
    187       5.5517     -0.00000
    188       5.5517     -0.00000
    189       6.0033     -0.00000
    190       6.0033     -0.00000
    191       6.5077     -0.00000
    192       6.5077     -0.00000
    193       6.6451     -0.00000
    194       7.2071     -0.00000
    195       7.2071     -0.00000
    196       7.4715     -0.00000
    197       7.6097     -0.00000
    198       7.6097     -0.00000
    199       7.6458     -0.00000
    200       7.6459     -0.00000
    201       7.7972     -0.00000
    202       8.0362     -0.00000
    203       8.0362     -0.00000
    204       8.6271     -0.00000
    205       8.9426      0.00000
    206       8.9539      0.00000
    207       9.1903      0.00000
    208       9.2066      0.00000
    209       9.2176      0.00000
    210       9.3236      0.00000
    211       9.5124      0.00000
    212      10.0277      0.00000

 k-point   5 :       0.0625    0.1875    0.0625
  band No.  band energies     occupation 
      1      -4.3878      2.00000
      2      -2.9972      2.00000
      3      -2.5518      2.00000
      4      -2.5478      2.00000
      5      -2.2860      2.00000
      6      -2.2454      2.00000
      7      -2.2450      2.00000
      8      -2.2254      2.00000
      9      -2.2052      2.00000
     10      -2.2016      2.00000
     11      -2.0180      2.00000
     12      -2.0160      2.00000
     13      -1.9950      2.00000
     14      -1.9949      2.00000
     15      -1.8089      2.00000
     16      -1.7954      2.00000
     17      -1.7952      2.00000
     18      -1.7150      2.00000
     19      -1.7119      2.00000
     20      -1.6707      2.00000
     21      -1.5330      2.00000
     22      -1.5314      2.00000
     23      -1.4800      2.00000
     24      -1.4763      2.00000
     25      -1.4528      2.00000
     26      -1.3681      2.00000
     27      -1.3226      2.00000
     28      -1.3223      2.00000
     29      -1.2533      2.00000
     30      -1.2507      2.00000
     31      -1.2329      2.00000
     32      -1.2309      2.00000
     33      -1.2113      2.00000
     34      -1.2099      2.00000
     35      -1.2094      2.00000
     36      -1.2077      2.00000
     37      -1.1972      2.00000
     38      -1.1947      2.00000
     39      -1.0751      2.00000
     40      -1.0731      2.00000
     41      -1.0600      2.00000
     42      -1.0597      2.00000
     43      -0.9532      2.00000
     44      -0.8315      2.00000
     45      -0.8304      2.00000
     46      -0.8144      2.00000
     47      -0.8119      2.00000
     48      -0.8061      2.00000
     49      -0.8046      2.00000
     50      -0.7873      2.00000
     51      -0.7851      2.00000
     52      -0.7299      2.00000
     53      -0.7277      2.00000
     54      -0.6516      2.00000
     55      -0.6463      2.00000
     56      -0.6437      2.00000
     57      -0.6330      2.00000
     58      -0.6321      2.00000
     59      -0.6081      2.00000
     60      -0.5784      2.00000
     61      -0.5759      2.00000
     62      -0.5754      2.00000
     63      -0.5741      2.00000
     64      -0.5260      2.00000
     65      -0.5231      2.00000
     66      -0.4996      2.00000
     67      -0.4980      2.00000
     68      -0.4861      2.00000
     69      -0.4845      2.00000
     70      -0.4526      2.00000
     71      -0.4391      2.00000
     72      -0.4386      2.00000
     73      -0.4333      2.00000
     74      -0.4056      2.00000
     75      -0.3872      2.00000
     76      -0.3706      2.00000
     77      -0.3688      2.00000
     78      -0.3657      2.00000
     79      -0.3654      2.00000
     80      -0.3614      2.00000
     81      -0.3592      2.00000
     82      -0.3583      2.00000
     83      -0.3244      2.00000
     84      -0.3234      2.00000
     85      -0.3005      2.00000
     86      -0.2525      2.00000
     87      -0.2188      2.00000
     88      -0.2184      2.00000
     89      -0.0276      2.00000
     90      -0.0261      2.00000
     91       0.0184      2.00000
     92       0.0207      2.00000
     93       0.0902      2.00000
     94       0.1055      2.00000
     95       0.1738      2.00000
     96       0.1747      2.00000
     97       0.1869      2.00000
     98       0.1947      2.00000
     99       0.2422      2.00000
[...]
    108       0.3982      2.00000
    109       0.3982      2.00000
    110       0.4002      2.00000
    111       0.4002      2.00000
    112       0.4018      2.00000
    113       0.4021      2.00000
    114       0.4100      2.00000
    115       0.4121      2.00000
    116       0.4144      2.00000
    117       0.4897      2.00000
    118       0.4919      2.00000
    119       0.4942      2.00000
    120       0.5427      2.00000
    121       0.5429      2.00000
    122       0.5444      2.00000
    123       0.5444      2.00000
    124       0.5459      2.00000
    125       0.5461      2.00000
    126       0.6401      2.00000
    127       0.6402      2.00000
    128       0.6402      2.00000
    129       0.6886      2.00000
    130       0.6901      2.00000
    131       0.6915      2.00000
    132       0.7010      2.00000
    133       0.7010      2.00000
    134       0.7338      2.00000
    135       0.7357      2.00000
    136       0.7375      2.00000
    137       0.8295      2.00000
    138       0.8311      2.00000
    139       0.8329      2.00000
    140       0.8912      2.00000
    141       0.8912      2.00000
    142       0.9172      2.00000
    143       0.9185      2.00000
    144       0.9197      2.00000
    145       1.5084      2.00000
    146       1.5087      2.00000
    147       1.5091      2.00000
    148       1.5282      2.00000
    149       1.5292      2.00000
    150       1.5294      2.00000
    151       1.5294      2.00000
    152       1.5295      2.00000
    153       1.5297      2.00000
    154       1.5298      2.00000
    155       1.5300      2.00000
    156       1.5301      2.00000
    157       1.5302      2.00000
    158       1.5305      2.00000
    159       1.5312      2.00000
    160       1.5338      2.00000
    161       1.5340      2.00000
    162       1.5343      2.00000
    163       1.5488      2.00000
    164       1.5491      2.00000
    165       1.5495      2.00000
    166       1.5602      2.00000
    167       1.5603      2.00000
    168       1.5605      2.00000
    169       3.4660      0.36889
    170       3.4676      0.35858
    171       3.4692      0.34885
    172       3.7935     -0.01374
    173       3.7958     -0.01324
    174       3.7969     -0.01298
    175       3.7969     -0.01298
    176       3.7981     -0.01273
    177       3.8003     -0.01225
    178       4.0963     -0.00001
    179       4.0974     -0.00001
    180       4.0984     -0.00001
    181       4.2290     -0.00000
    182       4.2302     -0.00000
    183       4.2314     -0.00000
    184       4.5729     -0.00000
    185       4.5755     -0.00000
    186       4.5765     -0.00000
    187       4.5765     -0.00000
    188       4.5775     -0.00000
    189       4.5801     -0.00000
    190       4.9008     -0.00000
    191       4.9022     -0.00000
    192       4.9036     -0.00000
    193       7.3002     -0.00000
    194       7.3011     -0.00000
    195       7.3020     -0.00000
    196       7.6737     -0.00000
    197       7.6750     -0.00000
    198       7.6764     -0.00000
    199       8.0109     -0.00000
    200       8.0117     -0.00000
    201       8.0134     -0.00000
    202       8.0141     -0.00000
    203       8.0161     -0.00000
    204       8.0170     -0.00000
    205       8.4298     -0.00000
    206       8.4320     -0.00000
    207       8.4329     -0.00000
    208       8.4363     -0.00000
    209       8.4673     -0.00000
    210       8.5580     -0.00000
    211       8.6745     -0.00000
    212       9.0491      0.00000


--------------------------------------------------------------------------------------------------------


 soft charge-density along one line, spin component           1
         0         1         2         3         4         5         6         7         8         9
 total charge-density along one line
 
 pseudopotential strength for first ion, spin component:           1
-10.553   0.000  -0.000   0.000  -0.000   0.004  -0.000  -0.000
  0.000 -10.553   0.000  -0.000  -0.000  -0.000   0.004  -0.000
 -0.000   0.000 -10.541   0.000  -0.000  -0.000  -0.000   0.003
  0.000  -0.000   0.000 -10.553   0.000  -0.000   0.000  -0.000
 -0.000  -0.000  -0.000   0.000 -10.541   0.000   0.000   0.000
  0.004  -0.000  -0.000  -0.000   0.000   0.270   0.000  -0.000
 -0.000   0.004  -0.000   0.000   0.000   0.000   0.270   0.000
 -0.000  -0.000   0.003  -0.000   0.000  -0.000   0.000   0.270
 -0.000   0.000  -0.000   0.004  -0.000   0.000  -0.000   0.000
  0.000   0.000   0.000  -0.000   0.003  -0.000  -0.000  -0.000
  0.000  -0.000   0.000  -0.000  -0.000  -0.000   0.000  -0.000
 -0.000   0.000   0.000   0.000   0.000   0.000  -0.000   0.000
 -0.000   0.000   0.000  -0.000   0.000   0.000  -0.000  -0.000
 -0.000  -0.000   0.000  -0.000  -0.000   0.000   0.000  -0.000
 -0.000  -0.000   0.000   0.000  -0.000   0.000   0.000  -0.000
  0.000  -0.000  -0.000   0.000  -0.000  -0.000   0.000   0.000
  0.000   0.000  -0.000   0.000   0.000  -0.000  -0.000   0.000
  0.000   0.000  -0.000  -0.000   0.000  -0.000  -0.000   0.000
 total augmentation occupancy for first ion, spin component:           1
  1.909   0.000  -0.003  -0.001  -0.001  -0.070  -0.000   0.000   0.000   0.001   0.006   0.000  -0.000   0.000  -0.000  -0.000
  0.000   1.914  -0.001  -0.001  -0.003  -0.000  -0.075   0.002   0.001   0.001   0.004  -0.000   0.000  -0.000  -0.000   0.000
 -0.003  -0.001   1.961  -0.000  -0.003   0.000   0.002  -0.109   0.001   0.002   0.012   0.003  -0.000   0.000  -0.000   0.000
 -0.001  -0.001  -0.000   1.920   0.001   0.000   0.001   0.001  -0.080   0.001   0.003  -0.001   0.000  -0.000  -0.000  -0.000
 -0.001  -0.003  -0.003   0.001   1.950   0.001   0.001   0.002   0.001  -0.102   0.007   0.002   0.000   0.000  -0.000   0.000
 -0.070  -0.000   0.000   0.000   0.001   0.113   0.000   0.001  -0.000  -0.000  -0.002   0.001   0.000  -0.000   0.000  -0.000
 -0.000  -0.075   0.002   0.001   0.001   0.000   0.116  -0.002  -0.001   0.001  -0.000   0.001   0.000   0.000   0.000  -0.000
  0.000   0.002  -0.109   0.001   0.002   0.001  -0.002   0.093  -0.002  -0.001  -0.007  -0.001   0.000  -0.000   0.000  -0.000
  0.000   0.001   0.001  -0.080   0.001  -0.000  -0.001  -0.002   0.119  -0.002   0.001   0.002  -0.000   0.000  -0.000   0.000
  0.001   0.001   0.002   0.001  -0.102  -0.000   0.001  -0.001  -0.002   0.089  -0.004  -0.000   0.000  -0.000   0.000  -0.000
  0.006   0.004   0.012   0.003   0.007  -0.002  -0.000  -0.007   0.001  -0.004   0.991  -0.270  -0.000   0.000  -0.000   0.000
  0.000  -0.000   0.003  -0.001   0.002   0.001   0.001  -0.001   0.002  -0.000  -0.270   0.148   0.000   0.000  -0.000  -0.000
 -0.000   0.000  -0.000   0.000   0.000   0.000   0.000   0.000  -0.000   0.000  -0.000   0.000   0.101   0.001   0.002  -0.007
  0.000  -0.000   0.000  -0.000   0.000  -0.000   0.000  -0.000   0.000  -0.000   0.000   0.000   0.001   0.102  -0.001  -0.000
 -0.000  -0.000  -0.000  -0.000  -0.000   0.000   0.000   0.000  -0.000   0.000  -0.000  -0.000   0.002  -0.001   0.101  -0.000
 -0.000   0.000   0.000  -0.000   0.000  -0.000  -0.000  -0.000   0.000  -0.000   0.000  -0.000  -0.007  -0.000  -0.000   0.001
 -0.000  -0.000  -0.000  -0.000  -0.000   0.000   0.000   0.000   0.000   0.000  -0.000  -0.000  -0.000  -0.007  -0.000   0.000
 -0.000   0.000   0.000   0.000  -0.000   0.000  -0.000  -0.000  -0.000   0.000  -0.000   0.000  -0.000  -0.000  -0.007   0.000


------------------------ aborting loop because EDIFF is reached ----------------------------------------




--------------------------------------------------------------------------------------------------------


    CHARGE:  VPU time  106.57: CPU time  106.73
    FORLOC:  VPU time    0.27: CPU time    0.27
    FORNL :  VPU time  303.28: CPU time  303.61
    STRESS:  VPU time 2933.63: CPU time 2935.05
    FORCOR:  VPU time    2.22: CPU time    2.22
    FORHAR:  VPU time    0.79: CPU time    0.79
    MIXING:  VPU time    0.05: CPU time    0.05


--------------------------------------------------------------------------------------------------------



  FREE ENERGIE OF THE ION-ELECTRON SYSTEM (eV)
  ---------------------------------------------------
  free  energy   TOTEN  =      -100.589392 eV

  energy  without entropy=     -100.586842  energy(sigma->0) =     -100.588542
 

  FORCE on cell =-STRESS in cart. coord.  units (eV/reduce length):
  Direction    X        Y        Z        XY       YZ       ZX
  --------------------------------------------------------------------------------------
  Alpha Z   2862.17   2862.17   2862.17
  Ewald    -9737.95  -9737.82  -9737.82     -0.00     -0.00     -0.00
  Hartree   1504.37   1504.46   1504.46     -0.00     -0.00     -0.00
  E(xc)    -1574.55  -1574.55  -1574.55     -0.00     -0.00     -0.00
  Local     2321.71   2321.49   2321.49      0.00      0.00      0.00
  n-local  -1685.77  -1691.58  -1679.94      4.24      2.73      1.22
  augment   1377.16   1377.16   1377.16     -0.00     -0.00     -0.00
  Kinetic   4880.17   4874.50   4885.83      1.18     -0.38     -1.95
  -------------------------------------------------------------------------------------
  Total      -52.67    -52.69    -52.69     -0.00     -0.00     -0.00
  in kB     -125.94   -125.98   -125.98     -0.00     -0.00     -0.00
  external pressure =     -125.97 kB  Pullay stress =        0.00 kB


 VOLUME and BASIS-vectors are now :
 -----------------------------------------------------------------------------
  energy-cutoff  :      600.00
  volume of cell :      670.04
      direct lattice vectors                 reciprocal lattice vectors
     8.750512820  0.000000000  0.000000000     0.114279017 -0.000000002 -0.000000002
     0.000000160  8.750512820  0.000000000     0.000000000  0.114279017 -0.000000002
     0.000000160  0.000000160  8.750512820     0.000000000  0.000000000  0.114279017

  length of vectors
     8.750512820  8.750512820  8.750512820     0.114279017  0.114279017  0.114279017


 FORCES acting on ions
    electron-ion (+dipol)            ewald-force                    non-local-force                 convergence-correction
 -----------------------------------------------------------------------------------------------
   -.280E-01 -.137E+00 0.129E-07   0.299E-01 0.135E+00 -.140E-07   -.417E-03 -.121E-03 0.424E-21   -.932E-03 0.240E-02 -.213E-09
   -.869E+00 -.163E+01 0.833E-08   0.864E+00 0.163E+01 -.287E-09   0.682E-02 0.465E-02 0.000E+00   0.290E-02 0.341E-03 0.251E-09
   -.869E+00 0.276E-07 0.163E+01   0.864E+00 -.295E-07 -.163E+01   0.682E-02 -.850E-10 -.465E-02   0.290E-02 -.217E-09 -.341E-03
   -.280E-01 0.137E+00 -.706E-08   0.299E-01 -.135E+00 0.769E-08   -.417E-03 0.121E-03 0.339E-20   -.932E-03 -.240E-02 0.158E-09
   0.106E+01 -.725E-02 0.725E-02   -.106E+01 0.765E-02 -.765E-02   0.418E-02 0.361E-04 -.361E-04   -.149E-02 -.445E-03 0.445E-03
   0.565E+00 -.222E-08 -.372E-07   -.564E+00 0.152E-08 0.409E-07   0.178E-02 -.280E-20 0.136E-19   -.402E-02 -.412E-09 0.903E-09
   -.227E-01 0.138E+00 -.737E-08   0.249E-01 -.135E+00 0.801E-08   -.439E-03 0.211E-03 0.339E-20   -.126E-02 -.251E-02 0.180E-09
   -.869E+00 -.214E-07 -.163E+01   0.864E+00 0.295E-07 0.163E+01   0.682E-02 0.850E-10 0.465E-02   0.290E-02 0.257E-09 0.341E-03
   -.869E+00 0.163E+01 -.208E-08   0.864E+00 -.163E+01 0.236E-09   0.682E-02 -.465E-02 0.000E+00   0.290E-02 -.341E-03 -.211E-09
   -.280E-01 -.455E-08 0.137E+00   0.299E-01 0.523E-08 -.135E+00   -.417E-03 0.222E-11 0.121E-03   -.932E-03 0.114E-09 -.240E-02
   0.106E+01 -.725E-02 -.725E-02   -.106E+01 0.765E-02 0.765E-02   0.418E-02 0.361E-04 0.361E-04   -.149E-02 -.445E-03 -.445E-03
   0.681E+01 -.107E-06 -.219E-07   -.675E+01 0.117E-06 0.117E-06   -.623E-01 0.263E-18 0.000E+00   -.221E-01 -.846E-09 -.846E-09
   0.106E+01 0.725E-02 0.725E-02   -.106E+01 -.765E-02 -.765E-02   0.418E-02 -.361E-04 -.361E-04   -.149E-02 0.445E-03 0.445E-03
   0.235E+00 -.104E-07 -.104E-07   -.233E+00 0.109E-07 0.109E-07   -.178E-02 0.997E-20 0.000E+00   0.400E-03 0.416E-09 0.416E-09
   -.860E+00 0.165E+01 -.221E-08   0.854E+00 -.165E+01 0.261E-09   0.708E-02 -.508E-02 0.000E+00   0.339E-02 -.120E-02 -.203E-09
   -.860E+00 -.218E-07 -.165E+01   0.854E+00 0.300E-07 0.165E+01   0.708E-02 0.928E-10 0.508E-02   0.339E-02 0.354E-09 0.120E-02
   -.227E-01 -.138E+00 0.127E-07   0.249E-01 0.135E+00 -.137E-07   -.439E-03 -.211E-03 0.212E-21   -.126E-02 0.251E-02 -.267E-09
   -.598E+00 0.231E-02 -.231E-02   0.599E+00 -.229E-02 0.229E-02   -.669E-03 0.934E-04 -.934E-04   0.168E-02 -.100E-03 0.100E-03
   -.458E+00 0.214E-08 0.251E-07   0.443E+00 -.150E-08 -.258E-07   0.450E-02 0.965E-20 0.000E+00   0.661E-02 0.375E-09 -.810E-09
   -.280E-01 0.104E-07 -.137E+00   0.299E-01 -.115E-07 0.135E+00   -.417E-03 -.222E-11 -.121E-03   -.932E-03 -.169E-09 0.240E-02
   0.106E+01 0.725E-02 -.725E-02   -.106E+01 -.765E-02 0.765E-02   0.418E-02 -.361E-04 0.361E-04   -.149E-02 0.445E-03 -.445E-03
   0.565E+00 -.375E-07 -.221E-08   -.564E+00 0.409E-07 0.152E-08   0.178E-02 0.157E-19 0.000E+00   -.402E-02 0.903E-09 -.412E-09
   -.860E+00 0.280E-07 0.165E+01   0.854E+00 -.300E-07 -.165E+01   0.708E-02 -.928E-10 -.508E-02   0.339E-02 -.225E-09 -.120E-02
   -.860E+00 -.165E+01 0.842E-08   0.854E+00 0.165E+01 -.261E-09   0.708E-02 0.508E-02 0.000E+00   0.339E-02 0.120E-02 0.332E-09
   -.227E-01 0.102E-07 -.138E+00   0.249E-01 -.112E-07 0.135E+00   -.439E-03 -.385E-11 -.211E-03   -.126E-02 -.222E-09 0.251E-02
   -.598E+00 0.231E-02 0.231E-02   0.599E+00 -.229E-02 -.229E-02   -.669E-03 0.934E-04 0.934E-04   0.168E-02 -.100E-03 -.100E-03
   -.176E+01 0.452E-08 -.824E-07   0.178E+01 -.201E-08 -.201E-08   -.852E-02 0.293E-19 0.678E-20   -.313E-02 0.914E-09 0.914E-09
   -.598E+00 -.231E-02 -.231E-02   0.599E+00 0.229E-02 0.229E-02   -.669E-03 -.934E-04 -.934E-04   0.168E-02 0.100E-03 0.100E-03
   -.218E+00 0.927E-08 0.927E-08   0.218E+00 -.957E-08 -.957E-08   -.884E-03 -.132E-19 0.000E+00   0.948E-03 -.460E-09 -.460E-09
   -.227E-01 -.485E-08 0.138E+00   0.249E-01 0.554E-08 -.135E+00   -.439E-03 0.385E-11 0.211E-03   -.126E-02 0.134E-09 -.251E-02
   -.598E+00 -.231E-02 0.231E-02   0.599E+00 0.229E-02 -.229E-02   -.669E-03 -.934E-04 0.934E-04   0.168E-02 0.100E-03 -.100E-03
   -.458E+00 0.248E-07 0.215E-08   0.443E+00 -.258E-07 -.150E-08   0.450E-02 0.834E-20 0.678E-20   0.661E-02 -.810E-09 0.375E-09
 -----------------------------------------------------------------------------------------------
   -.352E-02 -.217E-10 0.171E-09   0.616E-12 -.756E-13 -.740E-14   0.526E-02 0.361E-18 -.197E-18   -.158E-02 -.270E-10 -.269E-10
 
 
 POSITION                                       TOTAL-FORCE (eV/Angst)
 -----------------------------------------------------------------------------------
      6.56288      6.56288      4.37526         0.000548      0.000019      0.000000
      6.56288      6.56288      0.00000         0.004440      0.006235      0.000000
      6.56288      0.00000      2.18763         0.004440     -0.000000     -0.006235
      6.56288      2.18763      4.37526         0.000548     -0.000019     -0.000000
      0.00000      6.56288      2.18763        -0.004058     -0.000004      0.000004
      0.00000      0.00000      4.37526        -0.001368     -0.000000      0.000000
      2.18763      6.56288      4.37526         0.000547     -0.000005     -0.000000
      6.56288      0.00000      6.56288         0.004440      0.000000      0.006235
      6.56288      2.18763      0.00000         0.004440     -0.006235     -0.000000
      6.56288      4.37526      2.18763         0.000548     -0.000000     -0.000019
      0.00000      6.56288      6.56288        -0.004058     -0.000004     -0.000004
      0.02000      0.00000      0.00000        -0.029376      0.000000      0.000000
      0.00000      2.18763      2.18763        -0.004058      0.000004      0.000004
      0.00000      4.37526      4.37526         0.000249      0.000000      0.000000
      2.18763      6.56288      0.00000         0.004946     -0.006982      0.000000
      2.18763      0.00000      2.18763         0.004946      0.000000      0.006982
      2.18763      2.18763      4.37526         0.000547      0.000005      0.000000
      4.37526      6.56288      2.18763         0.001436      0.000006     -0.000006
      4.37526      0.00000      4.37526        -0.003600      0.000000      0.000000
      6.56288      4.37526      6.56288         0.000548      0.000000      0.000019
      0.00000      2.18763      6.56288        -0.004058      0.000004     -0.000004
      0.00000      4.37526      0.00000        -0.001368      0.000000      0.000000
      2.18763      0.00000      6.56288         0.004946     -0.000000     -0.006982
      2.18763      2.18763      0.00000         0.004946      0.006982      0.000000
      2.18763      4.37526      2.18763         0.000547      0.000000      0.000005
      4.37526      6.56288      6.56288         0.001436      0.000006      0.000006
      4.37526      0.00000      0.00000         0.007637     -0.000000      0.000000
      4.37526      2.18763      2.18763         0.001436     -0.000006     -0.000006
      4.37526      4.37526      4.37526        -0.000009     -0.000000      0.000000
      2.18763      4.37526      6.56288         0.000547     -0.000000     -0.000005
      4.37526      2.18763      6.56288         0.001436     -0.000006      0.000006
      4.37526      4.37526      0.00000        -0.003600     -0.000000      0.000000
 -----------------------------------------------------------------------------------
    total drift:                                0.000162     -0.000000      0.000000


--------------------------------------------------------------------------------------------------------



 mean value of Nose-termostat <S>:     1.000 mean value of <T> :     0.000
 mean temperature <T/S>/<1/S>  :     0.000

     LOOP+:  VPU time16621.35: CPU time16627.98

 ----------------------------------------------------------------------------- 
|                                                                             |
|           W    W    AA    RRRRR   N    N  II  N    N   GGGG   !!!           |
|           W    W   A  A   R    R  NN   N  II  NN   N  G    G  !!!           |
|           W    W  A    A  R    R  N N  N  II  N N  N  G       !!!           |
|           W WW W  AAAAAA  RRRRR   N  N N  II  N  N N  G  GGG   !            |
|           WW  WW  A    A  R   R   N   NN  II  N   NN  G    G                |
|           W    W  A    A  R    R  N    N  II  N    N   GGGG   !!!           |
|                                                                             |
|      The partial DOS and the PROCAR file are not evaluated for NPAR/=1      |
|      please rerun with NPAR=1                                               |
|                                                                             |
 ----------------------------------------------------------------------------- 

  
  
 General timing and accounting informations for this job:
 ========================================================
  
                  Total CPU time used (sec):    16753.099
                            User time (sec):    16562.983
                          System time (sec):      190.116
                         Elapsed time (sec):    16759.866
  
                   Maximum memory used (kb):     3909364.
                   Average memory used (kb):           0.
  
                          Minor page faults:       719925
                          Major page faults:            0
                 Voluntary context switches:          870
