       N       E                     dE             d eps       ncg     rms          rms(c)
RMM:   1    -0.103276257455E+03   -0.10328E+03   -0.63197E+02 17661   0.429E+01    0.838E+00
RMM:   2    -0.100550985451E+03    0.27253E+01   -0.13260E+01 18018   0.101E+01    0.131E+00
RMM:   3    -0.100586512405E+03   -0.35527E-01   -0.92261E-01 18821   0.197E+00    0.793E-01
RMM:   4    -0.100589042536E+03   -0.25301E-02   -0.34585E-02 18639   0.338E-01    0.253E-01
RMM:   5    -0.100589506056E+03   -0.46352E-03   -0.21393E-03 18709   0.101E-01    0.688E-02
RMM:   6    -0.100589401559E+03    0.10450E-03   -0.11509E-03 18225   0.966E-02    0.195E-02
RMM:   7    -0.100589391737E+03    0.98219E-05   -0.69832E-05 15182   0.184E-02
   1 F= -.10058939E+03 E0= -.10058854E+03  d E =-.254975E-02
