 running on    4 nodes
 distr:  one band on    1 nodes,    4 groups
 vasp.4.6.28 25Jul05 complex 
 POSCAR found :  1 types and   32 ions

 ----------------------------------------------------------------------------- 
|                                                                             |
|  ADVICE TO THIS USER RUNNING 'VASP/VAMP'   (HEAR YOUR MASTER'S VOICE ...):  |
|                                                                             |
|      You have a (more or less) 'large supercell' and for larger cells       |
|      it might be more efficient to use real space projection operators      |
|      So try LREAL= Auto  in the INCAR   file.                               |
|      Mind: If you want to do an extremely accurate calculations keep the    |
|      reciprocal projection scheme          (i.e. LREAL=.FALSE.)             |
|                                                                             |
 ----------------------------------------------------------------------------- 

 LDA part: xc-table for Pade appr. of Perdew
 POSCAR, INCAR and KPOINTS ok, starting setup
 FFT: planning ...           4
 reading WAVECAR
 entering main loop
       N       E                     dE             d eps       ncg     rms          rms(c)
RMM:   1     0.443933182290E+04    0.44393E+04   -0.15609E+05  4240   0.163E+03
RMM:   2     0.988705762726E+03   -0.34506E+04   -0.36751E+04  4240   0.408E+02
RMM:   3     0.250908951111E+03   -0.73780E+03   -0.78701E+03  4240   0.153E+02
RMM:   4     0.263943341004E+02   -0.22451E+03   -0.17474E+03  4240   0.906E+01
RMM:   5    -0.568712250813E+02   -0.83266E+02   -0.57481E+02  4240   0.575E+01
RMM:   6    -0.867157797105E+02   -0.29845E+02   -0.22854E+02  4240   0.349E+01
RMM:   7    -0.999960063245E+02   -0.13280E+02   -0.10180E+02  4240   0.236E+01
RMM:   8    -0.104611335497E+03   -0.46153E+01   -0.40883E+01  4240   0.148E+01
RMM:   9    -0.107332713146E+03   -0.27214E+01   -0.25276E+01  8962   0.934E+00
RMM:  10    -0.107644907393E+03   -0.31219E+00   -0.31860E+00  9837   0.168E+00
RMM:  11    -0.107655738248E+03   -0.10831E-01   -0.88073E-02  9149   0.573E-01
RMM:  12    -0.107657574214E+03   -0.18360E-02   -0.17436E-02  9151   0.813E-02    0.149E+01
RMM:  13    -0.100842667873E+03    0.68149E+01   -0.21587E+01  8480   0.142E+01    0.381E+00
RMM:  14    -0.100635850957E+03    0.20682E+00   -0.19150E+00  8482   0.292E+00    0.181E+00
RMM:  15    -0.100590728648E+03    0.45122E-01   -0.98878E-02  8483   0.112E+00    0.320E-01
RMM:  16    -0.100590108086E+03    0.62056E-03   -0.25642E-02  8504   0.391E-01    0.128E-01
RMM:  17    -0.100589768942E+03    0.33914E-03   -0.91097E-04  8677   0.470E-02    0.583E-02
RMM:  18    -0.100589680641E+03    0.88301E-04   -0.44484E-04  8481   0.647E-02    0.357E-03
RMM:  19    -0.100589676683E+03    0.39579E-05   -0.74719E-06  4770   0.430E-03
   1 F= -.10058968E+03 E0= -.10058882E+03  d E =-.100590E+03
 curvature:   0.00 expect dE= 0.000E+00 dE for cont linesearch  0.000E+00
 trial: gam= 0.00000 g(F)=  0.315E-57 g(S)=  0.000E+00 ort = 0.000E+00 (trialstep = 0.100E+01)
 search vector abs. value=  0.100E-09
 reached required accuracy - stopping structural energy minimisation
 writing wavefunctions

 ----------------------------------------------------------------------------- 
|                                                                             |
|           W    W    AA    RRRRR   N    N  II  N    N   GGGG   !!!           |
|           W    W   A  A   R    R  NN   N  II  NN   N  G    G  !!!           |
|           W    W  A    A  R    R  N N  N  II  N N  N  G       !!!           |
|           W WW W  AAAAAA  RRRRR   N  N N  II  N  N N  G  GGG   !            |
|           WW  WW  A    A  R   R   N   NN  II  N   NN  G    G                |
|           W    W  A    A  R    R  N    N  II  N    N   GGGG   !!!           |
|                                                                             |
|      The partial DOS and the PROCAR file are not evaluated for NPAR/=1      |
|      please rerun with NPAR=1                                               |
|                                                                             |
 ----------------------------------------------------------------------------- 

