 vasp.4.6.28 25Jul05 complex 
 executed on             LinuxIFC date 2017.01.24  12:37:11
 running on    4 nodes
 distr:  one band on    1 nodes,    4 groups


--------------------------------------------------------------------------------------------------------


 INCAR:
 POTCAR:   PAW_PBE Au 06Sep2000                   
 POTCAR:   PAW_PBE Au 06Sep2000                   
   VRHFIN =Au: s1d10                                                            
   LEXCH  = PE                                                                  
   EATOM  =   926.0567 eV,   68.0632 Ry                                         
                                                                                
   TITEL  = PAW_PBE Au 06Sep2000                                                
   LULTRA =        F    use ultrasoft PP ?                                      
   IUNSCR =        1    unscreen: 0-lin 1-nonlin 2-no                           
   RPACOR =    2.330    partial core radius                                     
   POMASS =  196.966; ZVAL   =   11.000    mass and valenz                      
   RCORE  =    2.500    outmost cutoff radius                                   
   RWIGS  =    2.840; RWIGS  =    1.503    wigner-seitz radius (au A)           
   ENMAX  =  229.948; ENMIN  =  172.461 eV                                      
   RCLOC  =    1.964    cutoff for local pot                                    
   LCOR   =        T    correct aug charges                                     
   LPAW   =        T    paw PP                                                  
   EAUG   =  356.670                                                            
   DEXC   =    -.025                                                            
   RMAX   =    3.041    core radius for proj-oper                               
   RAUG   =    1.300    factor for augmentation sphere                          
   RDEP   =    2.598    radius for radial grids                                 
   QCUT   =   -4.111; QGAM   =    8.222    optimization parameters              
                                                                                
   Description                                                                  
     l     E      TYP  RCUT    TYP  RCUT                                        
     2   .000     23  2.500                                                     
     2   .000     23  2.500                                                     
     0   .000     23  2.500                                                     
     0   .000     23  2.500                                                     
     1  -.200     23  2.500                                                     
     1   .000     23  2.500                                                     
     3   .000      7   .000                                                     
  local pseudopotential read in
  partial core-charges read in
  atomic valenz-charges read in
  non local Contribution for L=           2  read in
    real space projection operators read in
  non local Contribution for L=           2  read in
    real space projection operators read in
  non local Contribution for L=           0  read in
    real space projection operators read in
  non local Contribution for L=           0  read in
    real space projection operators read in
  non local Contribution for L=           1  read in
    real space projection operators read in
  non local Contribution for L=           1  read in
    real space projection operators read in
    PAW grid and wavefunctions read in
 
   number of l-projection  operators is LMAX  =           6
   number of lm-projection operators is LMMAX =          18
 

 ----------------------------------------------------------------------------- 
|                                                                             |
|  ADVICE TO THIS USER RUNNING 'VASP/VAMP'   (HEAR YOUR MASTER'S VOICE ...):  |
|                                                                             |
|      You have a (more or less) 'large supercell' and for larger cells       |
|      it might be more efficient to use real space projection operators      |
|      So try LREAL= Auto  in the INCAR   file.                               |
|      Mind: If you want to do an extremely accurate calculations keep the    |
|      reciprocal projection scheme          (i.e. LREAL=.FALSE.)             |
|                                                                             |
 ----------------------------------------------------------------------------- 

 PAW_PBE Au 06Sep2000                   :
 energy of atom  1       EATOM= -926.0567
 kinetic energy error for atom=    0.0013 (will be added to EATOM!!)
 
 EXHCAR: internal setup
 exchange correlation table for  LEXCH =        8
   RHO(1)=    0.500       N(1)  =     2000
   RHO(2)=  100.500       N(2)  =     4000
 
 POSCAR: No title                                
  positions in direct lattice
  No initial velocities read in
 


--------------------------------------------------------------------------------------------------------


 ion  position               nearest neighbor table
   1  0.750  0.750  0.500-   3 3.09   5 3.09  14 3.09  19 3.09  20 3.09  26 3.09  11 3.09   6 3.09
                            18 3.09  29 3.09  10 3.09   8 3.09
   2  0.750  0.750  0.000-   8 3.09  10 3.09  11 3.09  18 3.09  22 3.09  27 3.09  12 3.09  26 3.09
                             5 3.09  32 3.09   3 3.09  20 3.09
   3  0.750  0.000  0.250-   1 3.09   5 3.09   9 3.09  12 3.09  19 3.09  28 3.09  18 3.09   6 3.09
                            27 3.09  13 3.09   4 3.09   2 3.09
   4  0.750  0.250  0.500-   6 3.09   8 3.09  10 3.09  13 3.09  29 3.09  31 3.09  21 3.09  28 3.09
                            14 3.09  19 3.09   3 3.09  20 3.09
   5  0.000  0.750  0.250-   1 3.09   3 3.09  12 3.09  14 3.09  15 3.09  25 3.09   7 3.09  10 3.09
                            16 3.09   2 3.09  22 3.09   6 3.09
   6  0.000  0.000  0.500-   4 3.09   7 3.09   8 3.09  11 3.09  13 3.09  16 3.09   1 3.09   3 3.09
                            17 3.09  23 3.09  21 3.09   5 3.09
   7  0.250  0.750  0.500-   6 3.09  11 3.09  16 3.09  18 3.09  29 3.09  30 3.09  19 3.09  26 3.09
                             5 3.09  14 3.09  25 3.09  23 3.09
   8  0.750  0.000  0.750-   2 3.09   4 3.09   6 3.09  11 3.09  27 3.09  31 3.09  21 3.09  26 3.09
                            12 3.09  19 3.09   9 3.09   1 3.09
   9  0.750  0.250  0.000-   3 3.09  12 3.09  20 3.09  21 3.09  28 3.09  32 3.09  27 3.09  13 3.09
                            31 3.09  22 3.09  10 3.09   8 3.09
  10  0.750  0.500  0.250-   2 3.09   4 3.09  13 3.09  18 3.09  22 3.09  29 3.09  14 3.09  28 3.09
                             5 3.09  32 3.09   9 3.09   1 3.09
  11  0.000  0.750  0.750-   2 3.09   6 3.09   7 3.09   8 3.09  22 3.09  30 3.09  20 3.09   1 3.09
                            23 3.09  15 3.09  14 3.09  12 3.09
  12  0.000  0.000  0.000-   3 3.09   5 3.09   9 3.09  15 3.09  21 3.09  23 3.09  16 3.09   2 3.09
                             8 3.09  24 3.09  13 3.09  11 3.09
  13  0.000  0.250  0.250-   4 3.09   6 3.09  10 3.09  16 3.09  22 3.09  24 3.09  17 3.09   3 3.09
                             9 3.09  25 3.09  14 3.09  12 3.09
  14  0.000  0.500  0.500-   1 3.09   5 3.09  17 3.09  20 3.09  21 3.09  25 3.09   7 3.09  10 3.09
                             4 3.09  30 3.09  13 3.09  11 3.09
  15  0.250  0.750  0.000-   5 3.09  12 3.09  23 3.09  25 3.09  26 3.09  32 3.09  18 3.09  22 3.09
                            27 3.09  11 3.09  30 3.09  16 3.09
  16  0.250  0.000  0.250-   6 3.09   7 3.09  13 3.09  18 3.09  24 3.09  27 3.09  19 3.09   5 3.09
                            12 3.09  28 3.09  17 3.09  15 3.09
  17  0.250  0.250  0.500-  14 3.09  19 3.09  21 3.09  23 3.09  25 3.09  28 3.09   6 3.09  13 3.09
                            29 3.09  31 3.09  30 3.09  16 3.09
  18  0.500  0.750  0.250-   2 3.09   7 3.09  10 3.09  16 3.09  27 3.09  29 3.09   1 3.09  25 3.09
                             3 3.09  15 3.09  19 3.09  32 3.09
  19  0.500  0.000  0.500-   1 3.09   3 3.09  17 3.09  23 3.09  26 3.09  28 3.09   4 3.09   7 3.09
                             8 3.09  16 3.09  18 3.09  31 3.09
  20  0.750  0.500  0.750-   1 3.09   9 3.09  14 3.09  21 3.09  26 3.09  32 3.09  11 3.09  29 3.09
                            31 3.09  22 3.09   4 3.09   2 3.09
  21  0.000  0.250  0.750-   9 3.09  12 3.09  14 3.09  17 3.09  20 3.09  23 3.09   4 3.09   8 3.09
                            24 3.09  30 3.09  22 3.09   6 3.09
  22  0.000  0.500  0.000-   2 3.09  10 3.09  11 3.09  13 3.09  24 3.09  30 3.09  20 3.09   9 3.09
                            25 3.09  15 3.09  21 3.09   5 3.09
  23  0.250  0.000  0.750-  12 3.09  15 3.09  17 3.09  19 3.09  21 3.09  26 3.09   6 3.09  11 3.09
                            27 3.09  31 3.09  24 3.09   7 3.09
  24  0.250  0.250  0.000-  13 3.09  16 3.09  22 3.09  27 3.09  30 3.09  31 3.09  28 3.09  12 3.09
                            21 3.09  32 3.09  25 3.09  23 3.09
  25  0.250  0.500  0.250-   5 3.09  14 3.09  15 3.09  17 3.09  28 3.09  32 3.09  22 3.09  13 3.09
                            29 3.09  18 3.09  24 3.09   7 3.09
  26  0.500  0.750  0.750-   1 3.09  15 3.09  19 3.09  20 3.09  23 3.09  32 3.09   8 3.09   2 3.09
                            30 3.09   7 3.09  27 3.09  29 3.09
  27  0.500  0.000  0.000-   2 3.09   8 3.09  16 3.09  18 3.09  24 3.09  31 3.09   9 3.09  23 3.09
                            15 3.09   3 3.09  28 3.09  26 3.09
  28  0.500  0.250  0.250-   3 3.09   9 3.09  17 3.09  19 3.09  25 3.09  32 3.09  10 3.09  24 3.09
                            16 3.09   4 3.09  29 3.09  27 3.09
  29  0.500  0.500  0.500-   4 3.09   7 3.09  10 3.09  18 3.09  30 3.09  31 3.09  20 3.09  25 3.09
                            17 3.09   1 3.09  26 3.09  28 3.09
  30  0.250  0.500  0.750-   7 3.09  11 3.09  22 3.09  24 3.09  29 3.09  31 3.09  26 3.09  14 3.09
                            21 3.09  32 3.09  17 3.09  15 3.09
  31  0.500  0.250  0.750-   4 3.09   8 3.09  24 3.09  27 3.09  29 3.09  30 3.09   9 3.09  17 3.09
                            20 3.09  23 3.09  19 3.09  32 3.09
  32  0.500  0.500  0.000-   9 3.09  15 3.09  20 3.09  25 3.09  26 3.09  28 3.09   2 3.09  10 3.09
                            24 3.09  30 3.09  18 3.09  31 3.09
 
  LATTYP: Found a simple cubic cell.
 ALAT       =     8.7505128200
  
  Lattice vectors:
  
 A1 = (   8.7505128200,   0.0000000000,   0.0000000000)
 A2 = (   0.0000001600,   8.7505128200,   0.0000000000)
 A3 = (   0.0000001600,   0.0000001600,   8.7505128200)
 Subroutine PRICEL returns following result:
 
  LATTYP: Found a face centered cubic cell.
 ALAT       =     4.3752564500
  
  Lattice vectors:
  
 A1 = (   2.1876282450,   2.1876282050,   0.0000000000)
 A2 = (   2.1876281650,  -0.0000000400,  -2.1876282050)
 A3 = (  -0.0000000000,   2.1876281650,  -2.1876282050)
 
  32 primitive cells build up your supercell.
 

Analysis of symmetry for initial positions (statically):

 Routine SETGRP: Setting up the symmetry group for a 
 simple cubic supercell.


 Subroutine GETGRP returns: Found 48 space group operations
 (whereof 48 operations were pure point group operations)
 out of a pool of 48 trial point group operations.


The static configuration has the point symmetry O_h .

Analysis of symmetry for dynamics (positions and initial velocities):

 Subroutine DYNSYM returns: Found 48 space group operations
 (whereof 48 operations were pure point group operations)
 out of a pool of 48 trial space group operations
 (whereof 48 operations were pure point group operations)
 and found also    32 'primitive' translations


The dynamic configuration has the point symmetry O_h .
 
 
 KPOINTS: Automatic mesh                          

Automatic generation of k-mesh.
 
 Subroutine IBZKPT returns following result:
 ===========================================
 
 Found     20 irreducible k-points:
 
 Following reciprocal coordinates:
            Coordinates               Weight
  0.062500  0.062500  0.062500      8.000000
  0.187500  0.062500  0.062500     24.000000
  0.312500  0.062500  0.062500     24.000000
  0.437500  0.062500  0.062500     24.000000
  0.187500  0.187500  0.062500     24.000000
  0.312500  0.187500  0.062500     48.000000
  0.437500  0.187500  0.062500     48.000000
  0.312500  0.312500  0.062500     24.000000
  0.437500  0.312500  0.062500     48.000000
  0.437500  0.437500  0.062500     24.000000
  0.187500  0.187500  0.187500      8.000000
  0.312500  0.187500  0.187500     24.000000
  0.437500  0.187500  0.187500     24.000000
  0.312500  0.312500  0.187500     24.000000
  0.437500  0.312500  0.187500     48.000000
  0.437500  0.437500  0.187500     24.000000
  0.312500  0.312500  0.312500      8.000000
  0.437500  0.312500  0.312500     24.000000
  0.437500  0.437500  0.312500     24.000000
  0.437500  0.437500  0.437500      8.000000
 
 Following cartesian coordinates:
            Coordinates               Weight
  0.007142  0.007142  0.007142      8.000000
  0.021427  0.007142  0.007142     24.000000
  0.035712  0.007142  0.007142     24.000000
  0.049997  0.007142  0.007142     24.000000
  0.021427  0.021427  0.007142     24.000000
  0.035712  0.021427  0.007142     48.000000
  0.049997  0.021427  0.007142     48.000000
  0.035712  0.035712  0.007142     24.000000
  0.049997  0.035712  0.007142     48.000000
  0.049997  0.049997  0.007142     24.000000
  0.021427  0.021427  0.021427      8.000000
  0.035712  0.021427  0.021427     24.000000
  0.049997  0.021427  0.021427     24.000000
  0.035712  0.035712  0.021427     24.000000
  0.049997  0.035712  0.021427     48.000000
  0.049997  0.049997  0.021427     24.000000
  0.035712  0.035712  0.035712      8.000000
  0.049997  0.035712  0.035712     24.000000
  0.049997  0.049997  0.035712     24.000000
  0.049997  0.049997  0.049997      8.000000
 


--------------------------------------------------------------------------------------------------------




 Dimension of arrays:
   k-Points           NKPTS =     20   number of bands    NBANDS=    212
   number of dos      NEDOS =    301   number of ions     NIONS =     32
   non local maximal  LDIM  =      6   non local SUM 2l+1 LMDIM =     18
   total plane-waves  NPLWV = 343000
   max r-space proj   IRMAX =      1   max aug-charges    IRDMAX= 250610
   dimension x,y,z NGX =    70 NGY =   70 NGZ =   70
   dimension x,y,z NGXF=   140 NGYF=  140 NGZF=  140
   support grid    NGXF=   280 NGYF=  280 NGZF=  280
   ions per type =              32
 NGX,Y,Z   is equivalent  to a cutoff of  13.30, 13.30, 13.30 a.u.
 NGXF,Y,Z  is equivalent  to a cutoff of  26.60, 26.60, 26.60 a.u.


 I would recommend the setting:
   dimension x,y,z NGX =    70 NGY =   70 NGZ =   70
 SYSTEM =  No title                                
 POSCAR =  No title                                

 Startparameter for this run:
   NWRITE =      2    write-flag & timer
   PREC   = accura    medium, high low
   ISTART =      0    job   : 0-new  1-cont  2-samecut
   ICHARG =      2    charge: 1-file 2-atom 10-const
   ISPIN  =      1    spin polarized calculation?
   LNONCOLLINEAR =      F non collinear calculations
   LSORBIT =      F    spin-orbit coupling
   INIWAV =      1    electr: 0-lowe 1-rand  2-diag
   LASPH  =      F    aspherical Exc in radial PAW
   METAGGA=      F    non-selfconsistent MetaGGA calc.

 Electronic Relaxation 1
   ENCUT  =  600.0 eV  44.10 Ry    6.64 a.u.  17.48 17.48 17.48*2*pi/ulx,y,z
   ENINI  =  600.0     initial cutoff
   ENAUG  =  356.7 eV  augmentation charge cutoff
   NELM   =     60;   NELMIN=  2; NELMDL=-12     # of ELM steps 
   EDIFF  = 0.1E-04   stopping-criterion for ELM
   LREAL  =      F    real-space projection
   LCOMPAT=      F    compatible to vasp.4.4
   LREAL_COMPAT= F    compatible to vasp.4.5.1-3
   GGA_COMPAT  = T    GGA compatible to vasp.4.4-vasp.4.6
   LMAXPAW     = -100 max onsite density
   LMAXMIX     =    2 max onsite mixed and CHGCAR
   VOSKOWN=      1    Vosko Wilk Nusair interpolation
   ROPT   =    0.00000
 Ionic relaxation
   EDIFFG = -.2E-01   stopping-criterion for IOM
   NSW    =    100    number of steps for IOM
   NBLOCK =      1;   KBLOCK =    100    inner block; outer block 
   IBRION =      2    ionic relax: 0-MD 1-quasi-New 2-CG
   NFREE  =      1    steps in history (QN), initial steepest desc. (CG)
   ISIF   =      2    stress and relaxation
   IWAVPR =     11    prediction:  0-non 1-charg 2-wave 3-comb
   ISYM   =      2    0-nonsym 1-usesym 2-fastsym
   LCORR  =      T    Harris-Foulkes like correction to forces

   POTIM  =   0.50    time-step for ionic-motion
   TEIN   =    0.0    initial temperature
   TEBEG  =    0.0;   TEEND  =   0.0 temperature during run
   SMASS  =  -3.00    Nose mass-parameter (am)
   estimated Nose-frequenzy (Omega)   =  0.10E-29 period in steps =****** mass=  -0.175E-26a.u.
   NPACO  =    256;   APACO  = 16.0  distance and # of slots for P.C.
   PSTRESS=    0.0 pullay stress

  Mass of Ions in am
   POMASS = 196.97
  Ionic Valenz
   ZVAL   =  11.00
  Atomic Wigner-Seitz radii
   RWIGS  =   1.34
   NELECT =     352.0000    total number of electrons
   NUPDOWN=      -1.0000    fix difference up-down

 DOS related values:
   EMIN   =  10.00;   EMAX   =-10.00  energy-range for DOS
   ISMEAR =     1;   SIGMA  =   0.20  broadening in eV -4-tet -1-fermi 0-gaus

 Electronic relaxation 2 (details)
   IALGO  =     48    algorithm
   LDIAG  =      T    sub-space diagonalisation
   IMIX   =      4    mixing-type and parameters
     AMIX     =   0.40;   BMIX     =  1.00
     AMIX_MAG =   1.60;   BMIX_MAG =  1.00
     AMIN     =   0.10
     WC   =   100.;   INIMIX=   1;  MIXPRE=   1

 Intra band minimization:
   WEIMIN = 0.0010     energy-eigenvalue tresh-hold
   EBREAK =  0.12E-07  absolut break condition
   DEPER  =   0.30     relativ break condition  

   TIME   =   0.10     timestep for ELM

  volume/ion in A,a.u.               =      20.94       141.30
  Fermi-wavevector in a.u.,eV,Ry     =   1.320958 23.741200  1.744929

 Second variation
   LSECVAR=     F    do a second variation
 
 Write flags
   LWAVE  =      T    write WAVECAR
   LCHARG =      F    write CHGCAR
   LVTOT  =      F    write LOCPOT, local potential
   LELF   =      F    write electronic localiz. function (ELF)
   LORBIT =      0    0 simple, 1 ext, 2 COOP (PROOUT)


 Dipole corrections
   IDIPOL =      0    1-x, 2-y, 3-z
   LDIPOL =      F    correct potential



--------------------------------------------------------------------------------------------------------


 conjugate gradient relaxation of ions
 charge density will be updated during run
 non-spin polarized calculation
 RMM-DIIS sequential band-by-band
 performe sub-space diagonalisation
    before iterative eigenvector-optimisation
 modified Broyden-mixing scheme, WC =      100.0
 initial mixing is a Kerker type mixing with AMIX =  0.4000 and BMIX =      1.0000
 Hartree-type preconditioning will be used
 using additional bands           36
 reciprocal scheme for non local part
 use partial core corrections
 calculate Harris-corrections to forces 
   (improved forces if not selfconsistent)
 use gradient corrections 
 use of overlap-Matrix (Vanderbilt PP)
 Methfessel and Paxton  Order N= 1 SIGMA  =   0.20


--------------------------------------------------------------------------------------------------------


  energy-cutoff  :      600.00
  volume of cell :      670.04
      direct lattice vectors                 reciprocal lattice vectors
     8.750512820  0.000000000  0.000000000     0.114279017 -0.000000002 -0.000000002
     0.000000160  8.750512820  0.000000000     0.000000000  0.114279017 -0.000000002
     0.000000160  0.000000160  8.750512820     0.000000000  0.000000000  0.114279017

  length of vectors
     8.750512820  8.750512820  8.750512820     0.114279017  0.114279017  0.114279017


 
 k-points in units of 2pi/SCALE and weight: Automatic mesh                          
   0.00714244  0.00714244  0.00714244       0.016
   0.02142732  0.00714244  0.00714244       0.047
   0.03571219  0.00714244  0.00714244       0.047
   0.04999707  0.00714244  0.00714244       0.047
   0.02142732  0.02142732  0.00714244       0.047
   0.03571219  0.02142731  0.00714244       0.094
   0.04999707  0.02142731  0.00714244       0.094
   0.03571219  0.03571219  0.00714244       0.047
   0.04999707  0.03571219  0.00714244       0.094
   0.04999707  0.04999707  0.00714244       0.047
   0.02142732  0.02142732  0.02142731       0.016
   0.03571219  0.02142731  0.02142731       0.047
   0.04999707  0.02142731  0.02142731       0.047
   0.03571219  0.03571219  0.02142731       0.047
   0.04999707  0.03571219  0.02142731       0.094
   0.04999707  0.04999707  0.02142731       0.047
   0.03571219  0.03571219  0.03571219       0.016
   0.04999707  0.03571219  0.03571219       0.047
   0.04999707  0.04999707  0.03571219       0.047
   0.04999707  0.04999707  0.04999707       0.016
 
 k-points in reciprocal lattice and weights: Automatic mesh                          
   0.06250000  0.06250000  0.06250000       0.016
   0.18750000  0.06250000  0.06250000       0.047
   0.31250000  0.06250000  0.06250000       0.047
   0.43750000  0.06250000  0.06250000       0.047
   0.18750000  0.18750000  0.06250000       0.047
   0.31250000  0.18750000  0.06250000       0.094
   0.43750000  0.18750000  0.06250000       0.094
   0.31250000  0.31250000  0.06250000       0.047
   0.43750000  0.31250000  0.06250000       0.094
   0.43750000  0.43750000  0.06250000       0.047
   0.18750000  0.18750000  0.18750000       0.016
   0.31250000  0.18750000  0.18750000       0.047
   0.43750000  0.18750000  0.18750000       0.047
   0.31250000  0.31250000  0.18750000       0.047
   0.43750000  0.31250000  0.18750000       0.094
   0.43750000  0.43750000  0.18750000       0.047
   0.31250000  0.31250000  0.31250000       0.016
   0.43750000  0.31250000  0.31250000       0.047
   0.43750000  0.43750000  0.31250000       0.047
   0.43750000  0.43750000  0.43750000       0.016
 
 position of ions in fractional coordinates (direct lattice) 
   0.75000000  0.75000000  0.50000000
   0.75000000  0.75000000  0.00000000
   0.75000000  0.00000000  0.25000000
   0.75000000  0.25000000  0.50000000
   0.00000000  0.75000000  0.25000000
   0.00000000  0.00000000  0.50000000
   0.25000000  0.75000000  0.50000000
   0.75000000  0.00000000  0.75000000
   0.75000000  0.25000000  0.00000000
   0.75000000  0.50000000  0.25000000
   0.00000000  0.75000000  0.75000000
   0.00000000  0.00000000  0.00000000
   0.00000000  0.25000000  0.25000000
   0.00000000  0.50000000  0.50000000
   0.25000000  0.75000000  0.00000000
   0.25000000  0.00000000  0.25000000
   0.25000000  0.25000000  0.50000000
   0.50000000  0.75000000  0.25000000
   0.50000000  0.00000000  0.50000000
   0.75000000  0.50000000  0.75000000
   0.00000000  0.25000000  0.75000000
   0.00000000  0.50000000  0.00000000
   0.25000000  0.00000000  0.75000000
   0.25000000  0.25000000  0.00000000
   0.25000000  0.50000000  0.25000000
   0.50000000  0.75000000  0.75000000
   0.50000000  0.00000000  0.00000000
   0.50000000  0.25000000  0.25000000
   0.50000000  0.50000000  0.50000000
   0.25000000  0.50000000  0.75000000
   0.50000000  0.25000000  0.75000000
   0.50000000  0.50000000  0.00000000
 
 position of ions in cartesian coordinates  (Angst):
   6.56288482  6.56288470  4.37525641
   6.56288474  6.56288462  0.00000000
   6.56288466  0.00000004  2.18762821
   6.56288474  2.18762829  4.37525641
   0.00000016  6.56288466  2.18762821
   0.00000008  0.00000008  4.37525641
   2.18762841  6.56288470  4.37525641
   6.56288474  0.00000012  6.56288462
   6.56288466  2.18762821  0.00000000
   6.56288474  4.37525645  2.18762821
   0.00000024  6.56288474  6.56288462
   0.00000000  0.00000000  0.00000000
   0.00000008  2.18762825  2.18762821
   0.00000016  4.37525649  4.37525641
   2.18762833  6.56288462  0.00000000
   2.18762825  0.00000004  2.18762821
   2.18762833  2.18762829  4.37525641
   4.37525657  6.56288466  2.18762821
   4.37525649  0.00000008  4.37525641
   6.56288482  4.37525653  6.56288462
   0.00000016  2.18762833  6.56288462
   0.00000008  4.37525641  0.00000000
   2.18762833  0.00000012  6.56288462
   2.18762825  2.18762821  0.00000000
   2.18762833  4.37525645  2.18762821
   4.37525665  6.56288474  6.56288462
   4.37525641  0.00000000  0.00000000
   4.37525649  2.18762825  2.18762821
   4.37525657  4.37525649  4.37525641
   2.18762841  4.37525653  6.56288462
   4.37525657  2.18762833  6.56288462
   4.37525649  4.37525641  0.00000000
 


--------------------------------------------------------------------------------------------------------


 k-point  1 :  0.06250.06250.0625  plane waves:  22392
 k-point  2 :  0.18750.06250.0625  plane waves:  22381
 k-point  3 :  0.31250.06250.0625  plane waves:  22371
 k-point  4 :  0.43750.06250.0625  plane waves:  22366
 k-point  5 :  0.18750.18750.0625  plane waves:  22372
 k-point  6 :  0.31250.18750.0625  plane waves:  22395
 k-point  7 :  0.43750.18750.0625  plane waves:  22355
 k-point  8 :  0.31250.31250.0625  plane waves:  22372
 k-point  9 :  0.43750.31250.0625  plane waves:  22344
 k-point 10 :  0.43750.43750.0625  plane waves:  22363
 k-point 11 :  0.18750.18750.1875  plane waves:  22394
 k-point 12 :  0.31250.18750.1875  plane waves:  22367
 k-point 13 :  0.43750.18750.1875  plane waves:  22349
 k-point 14 :  0.31250.31250.1875  plane waves:  22358
 k-point 15 :  0.43750.31250.1875  plane waves:  22344
 k-point 16 :  0.43750.43750.1875  plane waves:  22346
 k-point 17 :  0.31250.31250.3125  plane waves:  22349
 k-point 18 :  0.43750.31250.3125  plane waves:  22347
 k-point 19 :  0.43750.43750.3125  plane waves:  22334
 k-point 20 :  0.43750.43750.4375  plane waves:  22328

 maximum and minimum number of plane-waves per node :  22395 22328

 maximum number of plane-waves:  22395
 maximal index in each direction: 
   IXMAX= 17   IYMAX= 17   IZMAX= 17
   IXMIN=-17   IYMIN=-17   IZMIN=-17

 NGX is ok and might be reduce to  70
 NGY is ok and might be reduce to  70
 NGZ is ok and might be reduce to  70

 parallel 3dFFT wavefunction:
    minimum data exchange during FFTs selected (reduces bandwidth)
 parallel 3dFFT charge:
    minimum data exchange during FFTs selected (reduces bandwidth)

 For storing wavefunctions 1516.99 MBYTES are necessary
 For predicting wavefunctions  162.88 MBYTES are necessary
Broyden mixing: mesh for mixing (old mesh)
   NGX = 35   NGY = 35   NGZ = 35
  (NGX  =140   NGY  =140   NGZ  =140)
 gives a total of  42875 points
 initial charge density was supplied:
 charge density of overlapping atoms calculated
 number of electron  352.0000000 magnetization 
 keeping initial charge density in first step


--------------------------------------------------------------------------------------------------------


 Maximum index for augmentation-charges        60844 (set IRDMAX)


--------------------------------------------------------------------------------------------------------


 First call to EWALD:  gamma=   0.203
 Maximum number of real-space cells 3x 3x 3
 Maximum number of reciprocal cells 3x 3x 3

    FEWALD:  VPU time    0.01: CPU time    0.01


----------------------------------------- Iteration    1(   1)  ---------------------------------------


    POTLOK:  VPU time    1.17: CPU time    1.17
    SETDIJ:  VPU time    2.16: CPU time    2.16
    EDDIAG:  VPU time   45.18: CPU time   45.19
  RMM-DIIS:  VPU time  125.62: CPU time  125.65
    ORTHCH:  VPU time    7.35: CPU time    7.35
    DOS   :  VPU time    0.00: CPU time   -0.00
    ------------------------------------------
      LOOP:  VPU time  181.54: CPU time  181.58

 eigenvalue-minimisations  :  4240
 total energy-change (2. order) : 0.4439332E+04  (-0.1560923E+05)
 number of electron  352.0000000 magnetization 
 augmentation part   352.0000000 magnetization 

 Free energy of the ion-electron system (eV)
  ---------------------------------------------------
  alpha Z        PSCENC =      2862.17096503
  Ewald energy   TEWEN  =    -29213.54379886
  -1/2 Hartree   DENC   =     -4844.15620180
  -V(xc)+E(xc)   XCENC  =       470.97603148
  PAW double counting   =     23920.39735419   -23172.13309131
  entropy T*S    EENTRO =         0.01412673
  eigenvalues    EBANDS =      4781.83244213
  atomic energy  EATOM  =     29633.77399530
  ---------------------------------------------------
  free energy    TOTEN  =      4439.33182290 eV

  energy without entropy =     4439.31769617  energy(sigma->0) =     4439.32711399


--------------------------------------------------------------------------------------------------------




----------------------------------------- Iteration    1(   2)  ---------------------------------------


    EDDIAG:  VPU time   45.38: CPU time   45.39
  RMM-DIIS:  VPU time  127.86: CPU time  127.89
    ORTHCH:  VPU time    7.32: CPU time    7.32
    DOS   :  VPU time    0.00: CPU time   -0.00
    ------------------------------------------
      LOOP:  VPU time  180.62: CPU time  180.67

 eigenvalue-minimisations  :  4240
 total energy-change (2. order) :-0.3450626E+04  (-0.3675072E+04)
 number of electron  352.0000000 magnetization 
 augmentation part   352.0000000 magnetization 

 Free energy of the ion-electron system (eV)
  ---------------------------------------------------
  alpha Z        PSCENC =      2862.17096503
  Ewald energy   TEWEN  =    -29213.54379886
  -1/2 Hartree   DENC   =     -4844.15620180
  -V(xc)+E(xc)   XCENC  =       470.97603148
  PAW double counting   =     23920.39735419   -23172.13309131
  entropy T*S    EENTRO =         0.00938865
  eigenvalues    EBANDS =      1331.21112004
  atomic energy  EATOM  =     29633.77399530
  ---------------------------------------------------
  free energy    TOTEN  =       988.70576273 eV

  energy without entropy =      988.69637407  energy(sigma->0) =      988.70263318


--------------------------------------------------------------------------------------------------------




----------------------------------------- Iteration    1(   3)  ---------------------------------------


    EDDIAG:  VPU time   61.67: CPU time   61.69
  RMM-DIIS:  VPU time  523.85: CPU time  524.39
    ORTHCH:  VPU time   13.04: CPU time   13.10
    DOS   :  VPU time    0.00: CPU time   -0.00
    ------------------------------------------
      LOOP:  VPU time  598.62: CPU time  599.25

 eigenvalue-minimisations  :  4240
 total energy-change (2. order) :-0.7377968E+03  (-0.7870127E+03)
 number of electron  352.0000000 magnetization 
 augmentation part   352.0000000 magnetization 

 Free energy of the ion-electron system (eV)
  ---------------------------------------------------
  alpha Z        PSCENC =      2862.17096503
  Ewald energy   TEWEN  =    -29213.54379886
  -1/2 Hartree   DENC   =     -4844.15620180
  -V(xc)+E(xc)   XCENC  =       470.97603148
  PAW double counting   =     23920.39735419   -23172.13309131
  entropy T*S    EENTRO =        -0.01285941
  eigenvalues    EBANDS =       593.43655649
  atomic energy  EATOM  =     29633.77399530
  ---------------------------------------------------
  free energy    TOTEN  =       250.90895111 eV

  energy without entropy =      250.92181052  energy(sigma->0) =      250.91323758


--------------------------------------------------------------------------------------------------------




----------------------------------------- Iteration    1(   4)  ---------------------------------------


    EDDIAG:  VPU time  106.78: CPU time  107.30
  RMM-DIIS:  VPU time  477.92: CPU time  480.34
    ORTHCH:  VPU time   13.04: CPU time   13.11
    DOS   :  VPU time    0.00: CPU time   -0.00
    ------------------------------------------
      LOOP:  VPU time  597.80: CPU time  600.81

 eigenvalue-minimisations  :  4240
 total energy-change (2. order) :-0.2245146E+03  (-0.1747433E+03)
 number of electron  352.0000000 magnetization 
 augmentation part   352.0000000 magnetization 

 Free energy of the ion-electron system (eV)
  ---------------------------------------------------
  alpha Z        PSCENC =      2862.17096503
  Ewald energy   TEWEN  =    -29213.54379886
  -1/2 Hartree   DENC   =     -4844.15620180
  -V(xc)+E(xc)   XCENC  =       470.97603148
  PAW double counting   =     23920.39735419   -23172.13309131
  entropy T*S    EENTRO =        -0.00044981
  eigenvalues    EBANDS =       368.90952988
  atomic energy  EATOM  =     29633.77399530
  ---------------------------------------------------
  free energy    TOTEN  =        26.39433410 eV

  energy without entropy =       26.39478391  energy(sigma->0) =       26.39448404


--------------------------------------------------------------------------------------------------------




----------------------------------------- Iteration    1(   5)  ---------------------------------------


    EDDIAG:  VPU time   97.11: CPU time   97.53
  RMM-DIIS:  VPU time  415.34: CPU time  416.67
    ORTHCH:  VPU time   13.07: CPU time   13.09
    DOS   :  VPU time    0.00: CPU time   -0.00
    ------------------------------------------
      LOOP:  VPU time  525.60: CPU time  527.37

 eigenvalue-minimisations  :  4240
 total energy-change (2. order) :-0.8326556E+02  (-0.5748145E+02)
 number of electron  352.0000000 magnetization 
 augmentation part   352.0000000 magnetization 

 Free energy of the ion-electron system (eV)
  ---------------------------------------------------
  alpha Z        PSCENC =      2862.17096503
  Ewald energy   TEWEN  =    -29213.54379886
  -1/2 Hartree   DENC   =     -4844.15620180
  -V(xc)+E(xc)   XCENC  =       470.97603148
  PAW double counting   =     23920.39735419   -23172.13309131
  entropy T*S    EENTRO =        -0.01698541
  eigenvalues    EBANDS =       285.66050630
  atomic energy  EATOM  =     29633.77399530
  ---------------------------------------------------
  free energy    TOTEN  =       -56.87122508 eV

  energy without entropy =      -56.85423967  energy(sigma->0) =      -56.86556328


--------------------------------------------------------------------------------------------------------




----------------------------------------- Iteration    1(   6)  ---------------------------------------


    EDDIAG:  VPU time   93.10: CPU time   93.23
  RMM-DIIS:  VPU time  398.42: CPU time  399.75
    ORTHCH:  VPU time   13.22: CPU time   13.27
    DOS   :  VPU time   -0.00: CPU time   -0.00
    ------------------------------------------
      LOOP:  VPU time  504.81: CPU time  506.34

 eigenvalue-minimisations  :  4240
 total energy-change (2. order) :-0.2984455E+02  (-0.2285361E+02)
 number of electron  352.0000000 magnetization 
 augmentation part   352.0000000 magnetization 

 Free energy of the ion-electron system (eV)
  ---------------------------------------------------
  alpha Z        PSCENC =      2862.17096503
  Ewald energy   TEWEN  =    -29213.54379886
  -1/2 Hartree   DENC   =     -4844.15620180
  -V(xc)+E(xc)   XCENC  =       470.97603148
  PAW double counting   =     23920.39735419   -23172.13309131
  entropy T*S    EENTRO =        -0.00452952
  eigenvalues    EBANDS =       255.80349577
  atomic energy  EATOM  =     29633.77399530
  ---------------------------------------------------
  free energy    TOTEN  =       -86.71577971 eV

  energy without entropy =      -86.71125019  energy(sigma->0) =      -86.71426987


--------------------------------------------------------------------------------------------------------




----------------------------------------- Iteration    1(   7)  ---------------------------------------


    EDDIAG:  VPU time  106.02: CPU time  106.58
  RMM-DIIS:  VPU time  384.44: CPU time  385.25
    ORTHCH:  VPU time   13.03: CPU time   13.05
    DOS   :  VPU time    0.00: CPU time   -0.00
    ------------------------------------------
      LOOP:  VPU time  503.57: CPU time  504.96

 eigenvalue-minimisations  :  4240
 total energy-change (2. order) :-0.1328023E+02  (-0.1018046E+02)
 number of electron  352.0000000 magnetization 
 augmentation part   352.0000000 magnetization 

 Free energy of the ion-electron system (eV)
  ---------------------------------------------------
  alpha Z        PSCENC =      2862.17096503
  Ewald energy   TEWEN  =    -29213.54379886
  -1/2 Hartree   DENC   =     -4844.15620180
  -V(xc)+E(xc)   XCENC  =       470.97603148
  PAW double counting   =     23920.39735419   -23172.13309131
  entropy T*S    EENTRO =         0.00479486
  eigenvalues    EBANDS =       242.51394478
  atomic energy  EATOM  =     29633.77399530
  ---------------------------------------------------
  free energy    TOTEN  =       -99.99600632 eV

  energy without entropy =     -100.00080118  energy(sigma->0) =      -99.99760461


--------------------------------------------------------------------------------------------------------




----------------------------------------- Iteration    1(   8)  ---------------------------------------


    EDDIAG:  VPU time  106.31: CPU time  106.51
  RMM-DIIS:  VPU time  395.68: CPU time  396.01
    ORTHCH:  VPU time   13.19: CPU time   13.20
    DOS   :  VPU time    0.00: CPU time   -0.00
    ------------------------------------------
      LOOP:  VPU time  515.24: CPU time  515.79

 eigenvalue-minimisations  :  4240
 total energy-change (2. order) :-0.4615329E+01  (-0.4088292E+01)
 number of electron  352.0000000 magnetization 
 augmentation part   352.0000000 magnetization 

 Free energy of the ion-electron system (eV)
  ---------------------------------------------------
  alpha Z        PSCENC =      2862.17096503
  Ewald energy   TEWEN  =    -29213.54379886
  -1/2 Hartree   DENC   =     -4844.15620180
  -V(xc)+E(xc)   XCENC  =       470.97603148
  PAW double counting   =     23920.39735419   -23172.13309131
  entropy T*S    EENTRO =         0.00792371
  eigenvalues    EBANDS =       237.89548675
  atomic energy  EATOM  =     29633.77399530
  ---------------------------------------------------
  free energy    TOTEN  =      -104.61133550 eV

  energy without entropy =     -104.61925921  energy(sigma->0) =     -104.61397673


--------------------------------------------------------------------------------------------------------




----------------------------------------- Iteration    1(   9)  ---------------------------------------


    EDDIAG:  VPU time  106.86: CPU time  106.95
  RMM-DIIS:  VPU time  936.54: CPU time  937.37
    ORTHCH:  VPU time    9.30: CPU time    9.31
    DOS   :  VPU time   -0.00: CPU time   -0.00
    ------------------------------------------
      LOOP:  VPU time 1052.76: CPU time 1053.70

 eigenvalue-minimisations  :  8962
 total energy-change (2. order) :-0.2721378E+01  (-0.2527639E+01)
 number of electron  352.0000000 magnetization 
 augmentation part   352.0000000 magnetization 

 Free energy of the ion-electron system (eV)
  ---------------------------------------------------
  alpha Z        PSCENC =      2862.17096503
  Ewald energy   TEWEN  =    -29213.54379886
  -1/2 Hartree   DENC   =     -4844.15620180
  -V(xc)+E(xc)   XCENC  =       470.97603148
  PAW double counting   =     23920.39735419   -23172.13309131
  entropy T*S    EENTRO =         0.00905498
  eigenvalues    EBANDS =       235.17297784
  atomic energy  EATOM  =     29633.77399530
  ---------------------------------------------------
  free energy    TOTEN  =      -107.33271315 eV

  energy without entropy =     -107.34176813  energy(sigma->0) =     -107.33573147


--------------------------------------------------------------------------------------------------------




----------------------------------------- Iteration    1(  10)  ---------------------------------------


    EDDIAG:  VPU time   94.03: CPU time   94.10
  RMM-DIIS:  VPU time 1177.63: CPU time 1178.72
    ORTHCH:  VPU time   12.97: CPU time   12.98
    DOS   :  VPU time    0.00: CPU time   -0.00
    ------------------------------------------
      LOOP:  VPU time 1284.70: CPU time 1285.87

 eigenvalue-minimisations  :  9837
 total energy-change (2. order) :-0.3121942E+00  (-0.3185953E+00)
 number of electron  352.0000000 magnetization 
 augmentation part   352.0000000 magnetization 

 Free energy of the ion-electron system (eV)
  ---------------------------------------------------
  alpha Z        PSCENC =      2862.17096503
  Ewald energy   TEWEN  =    -29213.54379886
  -1/2 Hartree   DENC   =     -4844.15620180
  -V(xc)+E(xc)   XCENC  =       470.97603148
  PAW double counting   =     23920.39735419   -23172.13309131
  entropy T*S    EENTRO =         0.01028860
  eigenvalues    EBANDS =       234.85954997
  atomic energy  EATOM  =     29633.77399530
  ---------------------------------------------------
  free energy    TOTEN  =      -107.64490739 eV

  energy without entropy =     -107.65519600  energy(sigma->0) =     -107.64833693


--------------------------------------------------------------------------------------------------------




----------------------------------------- Iteration    1(  11)  ---------------------------------------


    EDDIAG:  VPU time  106.79: CPU time  106.89
  RMM-DIIS:  VPU time 1074.07: CPU time 1075.04
    ORTHCH:  VPU time   12.83: CPU time   12.84
    DOS   :  VPU time    0.00: CPU time   -0.00
    ------------------------------------------
      LOOP:  VPU time 1193.75: CPU time 1194.85

 eigenvalue-minimisations  :  9149
 total energy-change (2. order) :-0.1083086E-01  (-0.8807251E-02)
 number of electron  352.0000000 magnetization 
 augmentation part   352.0000000 magnetization 

 Free energy of the ion-electron system (eV)
  ---------------------------------------------------
  alpha Z        PSCENC =      2862.17096503
  Ewald energy   TEWEN  =    -29213.54379886
  -1/2 Hartree   DENC   =     -4844.15620180
  -V(xc)+E(xc)   XCENC  =       470.97603148
  PAW double counting   =     23920.39735419   -23172.13309131
  entropy T*S    EENTRO =         0.01030018
  eigenvalues    EBANDS =       234.84870754
  atomic energy  EATOM  =     29633.77399530
  ---------------------------------------------------
  free energy    TOTEN  =      -107.65573825 eV

  energy without entropy =     -107.66603843  energy(sigma->0) =     -107.65917164


--------------------------------------------------------------------------------------------------------




----------------------------------------- Iteration    1(  12)  ---------------------------------------


    EDDIAG:  VPU time  103.13: CPU time  103.23
  RMM-DIIS:  VPU time  897.05: CPU time  897.84
    ORTHCH:  VPU time   11.47: CPU time   11.48
    DOS   :  VPU time    0.00: CPU time   -0.00
    CHARGE:  VPU time   48.06: CPU time   48.10
    MIXING:  VPU time    0.05: CPU time    0.05
    ------------------------------------------
      LOOP:  VPU time 1059.82: CPU time 1060.76

 eigenvalue-minimisations  :  9151
 total energy-change (2. order) :-0.1835966E-02  (-0.1743649E-02)
 number of electron  352.0000002 magnetization 
 augmentation part   125.0032808 magnetization 

 Broyden mixing:
  rms(total) = 0.14909E+01    rms(broyden)= 0.14909E+01
  rms(prec ) = 0.22764E+01
  weight for this iteration     100.00

 Free energy of the ion-electron system (eV)
  ---------------------------------------------------
  alpha Z        PSCENC =      2862.17096503
  Ewald energy   TEWEN  =    -29213.54379886
  -1/2 Hartree   DENC   =     -4844.15620180
  -V(xc)+E(xc)   XCENC  =       470.97603148
  PAW double counting   =     23920.39735419   -23172.13309131
  entropy T*S    EENTRO =         0.01030298
  eigenvalues    EBANDS =       234.84686877
  atomic energy  EATOM  =     29633.77399530
  ---------------------------------------------------
  free energy    TOTEN  =      -107.65757421 eV

  energy without entropy =     -107.66787719  energy(sigma->0) =     -107.66100854


--------------------------------------------------------------------------------------------------------




----------------------------------------- Iteration    1(  13)  ---------------------------------------


    POTLOK:  VPU time    1.90: CPU time    1.90
    SETDIJ:  VPU time    4.36: CPU time    4.36
    EDDIAG:  VPU time   88.04: CPU time   88.12
  RMM-DIIS:  VPU time  796.51: CPU time  797.46
    ORTHCH:  VPU time   11.43: CPU time   11.45
    DOS   :  VPU time    0.00: CPU time   -0.00
    CHARGE:  VPU time   48.09: CPU time   48.16
    MIXING:  VPU time    0.06: CPU time    0.06
    ------------------------------------------
      LOOP:  VPU time  950.45: CPU time  951.58

 eigenvalue-minimisations  :  8480
 total energy-change (2. order) : 0.6814906E+01  (-0.2158664E+01)
 number of electron  352.0000002 magnetization 
 augmentation part   129.3999637 magnetization 

 Broyden mixing:
  rms(total) = 0.38059E+00    rms(broyden)= 0.38058E+00
  rms(prec ) = 0.54802E+00
  weight for this iteration     100.00

 eigenvalues of (default mixing * dielectric matrix)
  average eigenvalue GAMMA=   1.1615
  1.1615

 Free energy of the ion-electron system (eV)
  ---------------------------------------------------
  alpha Z        PSCENC =      2862.17096503
  Ewald energy   TEWEN  =    -29213.54379886
  -1/2 Hartree   DENC   =     -4594.24419396
  -V(xc)+E(xc)   XCENC  =       459.85971398
  PAW double counting   =     23485.49736595   -22765.04396805
  entropy T*S    EENTRO =         0.00207827
  eigenvalues    EBANDS =        30.68517447
  atomic energy  EATOM  =     29633.77399530
  ---------------------------------------------------
  free energy    TOTEN  =      -100.84266787 eV

  energy without entropy =     -100.84474614  energy(sigma->0) =     -100.84336063


--------------------------------------------------------------------------------------------------------




----------------------------------------- Iteration    1(  14)  ---------------------------------------


    POTLOK:  VPU time    1.91: CPU time    1.92
    SETDIJ:  VPU time    4.36: CPU time    4.37
    EDDIAG:  VPU time   73.52: CPU time   73.61
  RMM-DIIS:  VPU time  948.39: CPU time  949.72
    ORTHCH:  VPU time   13.07: CPU time   13.09
    DOS   :  VPU time    0.00: CPU time   -0.00
    CHARGE:  VPU time   65.78: CPU time   65.89
    MIXING:  VPU time    0.06: CPU time    0.06
    ------------------------------------------
      LOOP:  VPU time 1107.16: CPU time 1108.73

 eigenvalue-minimisations  :  8482
 total energy-change (2. order) : 0.2068169E+00  (-0.1915010E+00)
 number of electron  352.0000002 magnetization 
 augmentation part   130.3735378 magnetization 

 Broyden mixing:
  rms(total) = 0.18097E+00    rms(broyden)= 0.18097E+00
  rms(prec ) = 0.20561E+00
  weight for this iteration     100.00

 eigenvalues of (default mixing * dielectric matrix)
  average eigenvalue GAMMA=   1.7295
  1.2371  2.2218

 Free energy of the ion-electron system (eV)
  ---------------------------------------------------
  alpha Z        PSCENC =      2862.17096503
  Ewald energy   TEWEN  =    -29213.54379886
  -1/2 Hartree   DENC   =     -4529.81931504
  -V(xc)+E(xc)   XCENC  =       456.82732029
  PAW double counting   =     23426.22646734   -22721.09863666
  entropy T*S    EENTRO =        -0.00320099
  eigenvalues    EBANDS =       -15.16964738
  atomic energy  EATOM  =     29633.77399530
  ---------------------------------------------------
  free energy    TOTEN  =      -100.63585096 eV

  energy without entropy =     -100.63264997  energy(sigma->0) =     -100.63478396


--------------------------------------------------------------------------------------------------------




----------------------------------------- Iteration    1(  15)  ---------------------------------------


    POTLOK:  VPU time    2.45: CPU time    2.45
    SETDIJ:  VPU time    5.62: CPU time    5.62
    EDDIAG:  VPU time  114.21: CPU time  114.26
  RMM-DIIS:  VPU time  968.73: CPU time  969.01
    ORTHCH:  VPU time   11.67: CPU time   11.67
    DOS   :  VPU time    0.00: CPU time   -0.00
    CHARGE:  VPU time   55.05: CPU time   55.06
    MIXING:  VPU time    0.05: CPU time    0.05
    ------------------------------------------
      LOOP:  VPU time 1157.85: CPU time 1158.20

 eigenvalue-minimisations  :  8483
 total energy-change (2. order) : 0.4512231E-01  (-0.9887799E-02)
 number of electron  352.0000002 magnetization 
 augmentation part   130.2188730 magnetization 

 Broyden mixing:
  rms(total) = 0.32000E-01    rms(broyden)= 0.31999E-01
  rms(prec ) = 0.49358E-01
  weight for this iteration     100.00

 eigenvalues of (default mixing * dielectric matrix)
  average eigenvalue GAMMA=   1.7590
  1.2459  1.2459  2.7854

 Free energy of the ion-electron system (eV)
  ---------------------------------------------------
  alpha Z        PSCENC =      2862.17096503
  Ewald energy   TEWEN  =    -29213.54379886
  -1/2 Hartree   DENC   =     -4520.32993375
  -V(xc)+E(xc)   XCENC  =       456.16213410
  PAW double counting   =     23513.78513302   -22820.66213978
  entropy T*S    EENTRO =        -0.00200385
  eigenvalues    EBANDS =       -11.94507986
  atomic energy  EATOM  =     29633.77399530
  ---------------------------------------------------
  free energy    TOTEN  =      -100.59072865 eV

  energy without entropy =     -100.58872480  energy(sigma->0) =     -100.59006070


--------------------------------------------------------------------------------------------------------




----------------------------------------- Iteration    1(  16)  ---------------------------------------


    POTLOK:  VPU time    2.07: CPU time    2.07
    SETDIJ:  VPU time    4.75: CPU time    4.75
    EDDIAG:  VPU time  101.63: CPU time  101.66
  RMM-DIIS:  VPU time 1007.38: CPU time 1007.71
    ORTHCH:  VPU time   11.97: CPU time   11.98
    DOS   :  VPU time    0.00: CPU time   -0.00
    CHARGE:  VPU time   55.01: CPU time   55.03
    MIXING:  VPU time    0.05: CPU time    0.05
    ------------------------------------------
      LOOP:  VPU time 1182.93: CPU time 1183.33

 eigenvalue-minimisations  :  8504
 total energy-change (2. order) : 0.6205624E-03  (-0.2564197E-02)
 number of electron  352.0000002 magnetization 
 augmentation part   130.3556377 magnetization 

 Broyden mixing:
  rms(total) = 0.12828E-01    rms(broyden)= 0.12828E-01
  rms(prec ) = 0.18074E-01
  weight for this iteration     100.00

 eigenvalues of (default mixing * dielectric matrix)
  average eigenvalue GAMMA=   1.8635
  1.0832  1.0832  2.6439  2.6439

 Free energy of the ion-electron system (eV)
  ---------------------------------------------------
  alpha Z        PSCENC =      2862.17096503
  Ewald energy   TEWEN  =    -29213.54379886
  -1/2 Hartree   DENC   =     -4510.07393874
  -V(xc)+E(xc)   XCENC  =       455.66999454
  PAW double counting   =     23516.48069885   -22825.46513282
  entropy T*S    EENTRO =        -0.00280830
  eigenvalues    EBANDS =       -19.60008308
  atomic energy  EATOM  =     29633.77399530
  ---------------------------------------------------
  free energy    TOTEN  =      -100.59010809 eV

  energy without entropy =     -100.58729978  energy(sigma->0) =     -100.58917198


--------------------------------------------------------------------------------------------------------




----------------------------------------- Iteration    1(  17)  ---------------------------------------


    POTLOK:  VPU time    2.05: CPU time    2.05
    SETDIJ:  VPU time    4.74: CPU time    4.75
    EDDIAG:  VPU time  101.77: CPU time  101.96
  RMM-DIIS:  VPU time 1033.84: CPU time 1034.61
    ORTHCH:  VPU time   11.84: CPU time   11.85
    DOS   :  VPU time   -0.00: CPU time   -0.00
    CHARGE:  VPU time   55.07: CPU time   55.10
    MIXING:  VPU time    0.06: CPU time    0.06
    ------------------------------------------
      LOOP:  VPU time 1209.43: CPU time 1210.44

 eigenvalue-minimisations  :  8677
 total energy-change (2. order) : 0.3391435E-03  (-0.9109664E-04)
 number of electron  352.0000002 magnetization 
 augmentation part   130.3497737 magnetization 

 Broyden mixing:
  rms(total) = 0.58285E-02    rms(broyden)= 0.58285E-02
  rms(prec ) = 0.83120E-02
  weight for this iteration     100.00

 eigenvalues of (default mixing * dielectric matrix)
  average eigenvalue GAMMA=   1.7251
  2.8697  2.3624  1.0863  1.1537  1.1537

 Free energy of the ion-electron system (eV)
  ---------------------------------------------------
  alpha Z        PSCENC =      2862.17096503
  Ewald energy   TEWEN  =    -29213.54379886
  -1/2 Hartree   DENC   =     -4512.33749741
  -V(xc)+E(xc)   XCENC  =       455.76909872
  PAW double counting   =     23524.25657582   -22832.04894091
  entropy T*S    EENTRO =        -0.00267519
  eigenvalues    EBANDS =       -18.62749144
  atomic energy  EATOM  =     29633.77399530
  ---------------------------------------------------
  free energy    TOTEN  =      -100.58976894 eV

  energy without entropy =     -100.58709375  energy(sigma->0) =     -100.58887721


--------------------------------------------------------------------------------------------------------




----------------------------------------- Iteration    1(  18)  ---------------------------------------


    POTLOK:  VPU time    2.04: CPU time    2.04
    SETDIJ:  VPU time    4.70: CPU time    4.70
    EDDIAG:  VPU time  101.90: CPU time  101.96
  RMM-DIIS:  VPU time 1121.88: CPU time 1122.54
    ORTHCH:  VPU time   12.32: CPU time   12.33
    DOS   :  VPU time    0.00: CPU time   -0.00
    CHARGE:  VPU time   55.08: CPU time   55.11
    MIXING:  VPU time    0.06: CPU time    0.06
    ------------------------------------------
      LOOP:  VPU time 1298.06: CPU time 1298.82

 eigenvalue-minimisations  :  8481
 total energy-change (2. order) : 0.8830141E-04  (-0.4448417E-04)
 number of electron  352.0000002 magnetization 
 augmentation part   130.3306466 magnetization 

 Broyden mixing:
  rms(total) = 0.35678E-03    rms(broyden)= 0.35663E-03
  rms(prec ) = 0.47004E-03
  weight for this iteration     100.00

 eigenvalues of (default mixing * dielectric matrix)
  average eigenvalue GAMMA=   1.9012
  2.9518  2.9518  2.3126  0.9745  1.1082  1.1082

 Free energy of the ion-electron system (eV)
  ---------------------------------------------------
  alpha Z        PSCENC =      2862.17096503
  Ewald energy   TEWEN  =    -29213.54379886
  -1/2 Hartree   DENC   =     -4513.27735408
  -V(xc)+E(xc)   XCENC  =       455.80844593
  PAW double counting   =     23526.41628025   -22834.19002491
  entropy T*S    EENTRO =        -0.00256030
  eigenvalues    EBANDS =       -17.74562899
  atomic energy  EATOM  =     29633.77399530
  ---------------------------------------------------
  free energy    TOTEN  =      -100.58968064 eV

  energy without entropy =     -100.58712034  energy(sigma->0) =     -100.58882721


--------------------------------------------------------------------------------------------------------




----------------------------------------- Iteration    1(  19)  ---------------------------------------


    POTLOK:  VPU time    2.06: CPU time    2.06
    SETDIJ:  VPU time    4.74: CPU time    4.74
    EDDIAG:  VPU time   95.76: CPU time   95.82
  RMM-DIIS:  VPU time  631.93: CPU time  633.00
    ORTHCH:  VPU time   13.00: CPU time   13.04
    DOS   :  VPU time    0.00: CPU time   -0.00
    ------------------------------------------
      LOOP:  VPU time  747.57: CPU time  748.73

 eigenvalue-minimisations  :  4770
 total energy-change (2. order) : 0.3957895E-05  (-0.7471925E-06)
 number of electron  352.0000002 magnetization 
 augmentation part   130.3306466 magnetization 

 Free energy of the ion-electron system (eV)
  ---------------------------------------------------
  alpha Z        PSCENC =      2862.17096503
  Ewald energy   TEWEN  =    -29213.54379886
  -1/2 Hartree   DENC   =     -4513.31572543
  -V(xc)+E(xc)   XCENC  =       455.81032986
  PAW double counting   =     23526.02940573   -22833.78483148
  entropy T*S    EENTRO =        -0.00255806
  eigenvalues    EBANDS =       -17.72745877
  atomic energy  EATOM  =     29633.77399530
  ---------------------------------------------------
  free energy    TOTEN  =      -100.58967668 eV

  energy without entropy =     -100.58711862  energy(sigma->0) =     -100.58882399


--------------------------------------------------------------------------------------------------------




 average (electrostatic) potential at core
  the test charge radii are     1.2098
  (the norm of the test charge is              1.0000)
       1 -47.2726       2 -47.2726       3 -47.2726       4 -47.2726       5 -47.2726
       6 -47.2726       7 -47.2726       8 -47.2726       9 -47.2726      10 -47.2726
      11 -47.2726      12 -47.2726      13 -47.2726      14 -47.2726      15 -47.2726
      16 -47.2726      17 -47.2726      18 -47.2726      19 -47.2726      20 -47.2726
      21 -47.2726      22 -47.2726      23 -47.2726      24 -47.2726      25 -47.2726
      26 -47.2726      27 -47.2726      28 -47.2726      29 -47.2726      30 -47.2726
      31 -47.2726      32 -47.2726
 
 
 
 E-fermi :   3.3843     XC(G=0): -11.5163     alpha+bet : -8.2881
   add alpha+bet to get absolut eigen values

 k-point   1 :       0.0625    0.0625    0.0625
  band No.  band energies     occupation 
      1      -4.4636      2.00000
      2      -2.6040      2.00000
      3      -2.6040      2.00000
      4      -2.6040      2.00000
      5      -2.3047      2.00000
      6      -2.2844      2.00000
      7      -2.2844      2.00000
      8      -2.2844      2.00000
      9      -2.2558      2.00000
     10      -2.2558      2.00000
     11      -2.2558      2.00000
     12      -2.0403      2.00000
     13      -2.0403      2.00000
     14      -2.0403      2.00000
     15      -1.8332      2.00000
     16      -1.8332      2.00000
     17      -1.8332      2.00000
     18      -1.5317      2.00000
     19      -1.5317      2.00000
     20      -1.5317      2.00000
     21      -1.3725      2.00000
     22      -1.3725      2.00000
     23      -1.3725      2.00000
     24      -1.3725      2.00000
     25      -1.3725      2.00000
     26      -1.3725      2.00000
     27      -1.3027      2.00000
     28      -1.3027      2.00000
     29      -1.3027      2.00000
     30      -1.2342      2.00000
     31      -1.2342      2.00000
     32      -1.2342      2.00000
     33      -1.2308      2.00000
     34      -1.2308      2.00000
     35      -1.2308      2.00000
     36      -1.2308      2.00000
     37      -1.2308      2.00000
     38      -1.2308      2.00000
     39      -1.0942      2.00000
     40      -1.0942      2.00000
     41      -1.0942      2.00000
     42      -0.8130      2.00000
     43      -0.8130      2.00000
     44      -0.8130      2.00000
     45      -0.8130      2.00000
     46      -0.8130      2.00000
     47      -0.8130      2.00000
     48      -0.7433      2.00000
     49      -0.7433      2.00000
     50      -0.7433      2.00000
     51      -0.7227      2.00000
     52      -0.7227      2.00000
     53      -0.7227      2.00000
     54      -0.7227      2.00000
     55      -0.7227      2.00000
     56      -0.7227      2.00000
     57      -0.6650      2.00000
     58      -0.6650      2.00000
     59      -0.6650      2.00000
     60      -0.5304      2.00000
     61      -0.5304      2.00000
     62      -0.5304      2.00000
     63      -0.5304      2.00000
     64      -0.5304      2.00000
     65      -0.5304      2.00000
     66      -0.4651      2.00000
     67      -0.4651      2.00000
     68      -0.4651      2.00000
     69      -0.4651      2.00000
     70      -0.4651      2.00000
     71      -0.4651      2.00000
     72      -0.4518      2.00000
     73      -0.4518      2.00000
     74      -0.4518      2.00000
     75      -0.4237      2.00000
     76      -0.4237      2.00000
     77      -0.4237      2.00000
     78      -0.4078      2.00000
     79      -0.4078      2.00000
     80      -0.4045      2.00000
     81      -0.3981      2.00000
     82      -0.3981      2.00000
     83      -0.3981      2.00000
     84      -0.3906      2.00000
     85      -0.3906      2.00000
     86      -0.3906      2.00000
     87      -0.3885      2.00000
     88      -0.3885      2.00000
     89       0.0869      2.00000
     90       0.0869      2.00000
     91       0.0869      2.00000
     92       0.1654      2.00000
     93       0.1654      2.00000
     94       0.1654      2.00000
     95       0.2242      2.00000
     96       0.2242      2.00000
     97       0.2242      2.00000
     98       0.2870      2.00000
     99       0.2870      2.00000
    100       0.2870      2.00000
    101       0.2870      2.00000
    102       0.2870      2.00000
    103       0.2870      2.00000
    104       0.2898      2.00000
    105       0.2898      2.00000
    106       0.2898      2.00000
    107       0.3734      2.00000
    108       0.3734      2.00000
    109       0.3734      2.00000
    110       0.4414      2.00000
    111       0.4414      2.00000
    112       0.4414      2.00000
    113       0.5661      2.00000
    114       0.5661      2.00000
    115       0.5661      2.00000
    116       0.5877      2.00000
    117       0.5877      2.00000
    118       0.5877      2.00000
    119       0.6138      2.00000
    120       0.6138      2.00000
    121       0.6138      2.00000
    122       0.6138      2.00000
    123       0.6138      2.00000
    124       0.6138      2.00000
    125       0.6493      2.00000
    126       0.6493      2.00000
    127       0.6497      2.00000
    128       0.6497      2.00000
    129       0.6497      2.00000
    130       0.7060      2.00000
    131       0.7060      2.00000
    132       0.7060      2.00000
    133       0.7060      2.00000
    134       0.7060      2.00000
    135       0.7060      2.00000
    136       0.7886      2.00000
    137       0.7886      2.00000
    138       0.7886      2.00000
    139       1.0085      2.00000
    140       1.0085      2.00000
    141       1.0085      2.00000
    142       1.0907      2.00000
    143       1.0907      2.00000
    144       1.0907      2.00000
    145       1.3998      2.00000
    146       1.3998      2.00000
    147       1.3998      2.00000
    148       1.4372      2.00000
    149       1.4372      2.00000
    150       1.4372      2.00000
    151       1.4699      2.00000
    152       1.4699      2.00000
    153       1.4874      2.00000
    154       1.4874      2.00000
    155       1.4874      2.00000
    156       1.6560      2.00000
    157       1.6560      2.00000
    158       1.6560      2.00000
    159       1.6918      2.00000
    160       1.6918      2.00000
    161       1.6918      2.00000
    162       1.6918      2.00000
    163       1.6918      2.00000
    164       1.6918      2.00000
    165       1.6949      2.00000
    166       1.6949      2.00000
    167       1.6949      2.00000
    168       2.5405      2.00000
    169       2.5405      2.00000
    170       2.5405      2.00000
    171       2.9267      2.00566
    172       2.9267      2.00566
    173       2.9267      2.00566
    174       2.9267      2.00566
    175       2.9267      2.00566
    176       2.9267      2.00566
    177       2.9905      2.01766
    178       3.3348      1.40461
    179       3.3348      1.40461
    180       3.3348      1.40461
    181       3.3646      1.16547
    182       3.3646      1.16547
    183       3.3646      1.16547
    184       4.8954     -0.00000
    185       4.8954     -0.00000
    186       4.8954     -0.00000
    187       5.5511     -0.00000
    188       5.5511     -0.00000
    189       5.5511     -0.00000
    190       5.8716     -0.00000
    191       7.0247     -0.00000
    192       7.0247     -0.00000
    193       7.0247     -0.00000
    194       7.0247     -0.00000
    195       7.0247     -0.00000
    196       7.0247     -0.00000
    197       7.8353     -0.00000
    198       7.8353     -0.00000
    199       7.8354     -0.00000
    200       8.7665     -0.00000
    201       8.7666     -0.00000
    202       8.7666     -0.00000
    203       8.7671     -0.00000
    204       8.7687     -0.00000
    205       8.7769     -0.00000
    206       9.4682      0.00000
    207       9.4697      0.00000
    208       9.4721      0.00000
    209       9.4770      0.00000
    210       9.5233      0.00000
    211       9.7509      0.00000
    212      10.3472      0.00000

 k-point   2 :       0.1875    0.0625    0.0625
  band No.  band energies     occupation 
      1      -4.3877      2.00000
      2      -2.9971      2.00000
      3      -2.5497      2.00000
      4      -2.5497      2.00000
      5      -2.2860      2.00000
      6      -2.2452      2.00000
      7      -2.2452      2.00000
      8      -2.2254      2.00000
      9      -2.2034      2.00000
     10      -2.2034      2.00000
     11      -2.0180      2.00000
     12      -2.0160      2.00000
     13      -1.9950      2.00000
     14      -1.9950      2.00000
     15      -1.8089      2.00000
     16      -1.7953      2.00000
     17      -1.7953      2.00000
     18      -1.7134      2.00000
     19      -1.7134      2.00000
     20      -1.6707      2.00000
     21      -1.5322      2.00000
     22      -1.5322      2.00000
     23      -1.4781      2.00000
     24      -1.4781      2.00000
     25      -1.4529      2.00000
     26      -1.3682      2.00000
     27      -1.3224      2.00000
     28      -1.3224      2.00000
     29      -1.2519      2.00000
     30      -1.2519      2.00000
     31      -1.2319      2.00000
     32      -1.2319      2.00000
     33      -1.2103      2.00000
     34      -1.2103      2.00000
     35      -1.2090      2.00000
     36      -1.2090      2.00000
     37      -1.1961      2.00000
     38      -1.1961      2.00000
     39      -1.0741      2.00000
     40      -1.0741      2.00000
     41      -1.0600      2.00000
     42      -1.0600      2.00000
     43      -0.9532      2.00000
     44      -0.8310      2.00000
     45      -0.8310      2.00000
     46      -0.8131      2.00000
     47      -0.8131      2.00000
     48      -0.8055      2.00000
     49      -0.8055      2.00000
     50      -0.7864      2.00000
     51      -0.7864      2.00000
     52      -0.7289      2.00000
     53      -0.7289      2.00000
     54      -0.6514      2.00000
     55      -0.6451      2.00000
     56      -0.6451      2.00000
     57      -0.6326      2.00000
     58      -0.6326      2.00000
     59      -0.6082      2.00000
     60      -0.5768      2.00000
     61      -0.5768      2.00000
     62      -0.5753      2.00000
     63      -0.5753      2.00000
     64      -0.5246      2.00000
     65      -0.5246      2.00000
     66      -0.4989      2.00000
     67      -0.4989      2.00000
     68      -0.4854      2.00000
     69      -0.4854      2.00000
     70      -0.4527      2.00000
     71      -0.4390      2.00000
     72      -0.4390      2.00000
     73      -0.4334      2.00000
     74      -0.4056      2.00000
     75      -0.3873      2.00000
     76      -0.3697      2.00000
     77      -0.3697      2.00000
     78      -0.3658      2.00000
     79      -0.3658      2.00000
     80      -0.3615      2.00000
     81      -0.3594      2.00000
     82      -0.3585      2.00000
     83      -0.3240      2.00000
     84      -0.3240      2.00000
     85      -0.3007      2.00000
     86      -0.2526      2.00000
     87      -0.2187      2.00000
     88      -0.2187      2.00000
     89      -0.0269      2.00000
     90      -0.0269      2.00000
     91       0.0194      2.00000
     92       0.0194      2.00000
     93       0.0901      2.00000
     94       0.1053      2.00000
     95       0.1741      2.00000
     96       0.1741      2.00000
     97       0.1868      2.00000
     98       0.1946      2.00000
     99       0.2425      2.00000
    100       0.2425      2.00000
    101       0.2831      2.00000
    102       0.3521      2.00000
    103       0.3521      2.00000
    104       0.3592      2.00000
    105       0.3592      2.00000
    106       0.3661      2.00000
    107       0.3661      2.00000
    108       0.3997      2.00000
    109       0.4023      2.00000
    110       0.4023      2.00000
    111       0.5116      2.00000
    112       0.5116      2.00000
    113       0.5458      2.00000
    114       0.5458      2.00000
    115       0.5459      2.00000
    116       0.5459      2.00000
    117       0.6165      2.00000
    118       0.6179      2.00000
    119       0.6179      2.00000
    120       0.6305      2.00000
    121       0.6305      2.00000
    122       0.6614      2.00000
    123       0.6614      2.00000
    124       0.6641      2.00000
    125       0.7058      2.00000
    126       0.7058      2.00000
    127       0.7211      2.00000
    128       0.7643      2.00000
    129       0.7643      2.00000
    130       0.7663      2.00000
    131       0.8313      2.00000
    132       0.8313      2.00000
    133       0.8564      2.00000
    134       0.8564      2.00000
    135       0.8962      2.00000
    136       0.8966      2.00000
    137       0.9062      2.00000
    138       0.9062      2.00000
    139       0.9294      2.00000
    140       1.0498      2.00000
    141       1.0498      2.00000
    142       1.1564      2.00000
    143       1.1564      2.00000
    144       1.1737      2.00000
    145       1.2173      2.00000
    146       1.2388      2.00000
    147       1.2388      2.00000
    148       1.3678      2.00000
    149       1.3867      2.00000
    150       1.3867      2.00000
    151       1.4127      2.00000
    152       1.4163      2.00000
    153       1.4642      2.00000
    154       1.4657      2.00000
    155       1.4657      2.00000
    156       1.4885      2.00000
    157       1.4885      2.00000
    158       1.5950      2.00000
    159       1.6309      2.00000
    160       1.6309      2.00000
    161       1.6317      2.00000
    162       1.6317      2.00000
    163       1.6431      2.00000
    164       1.6917      2.00000
    165       1.6917      2.00000
    166       1.6919      2.00000
    167       1.6919      2.00000
    168       2.2017      2.00000
    169       2.2017      2.00000
    170       2.5359      2.00000
    171       2.5589      2.00000
    172       2.5589      2.00000
    173       2.6949      2.00001
    174       2.9381      2.00708
    175       2.9381      2.00708
    176       3.2680      1.82282
    177       3.2680      1.82282
    178       3.3627      1.18140
    179       3.3770      1.06143
    180       3.3770      1.06143
    181       3.6298     -0.07091
    182       3.7978     -0.01278
    183       3.7978     -0.01278
    184       4.2190     -0.00000
    185       5.1234     -0.00000
    186       5.1234     -0.00000
    187       5.5590     -0.00000
    188       5.8959     -0.00000
    189       5.8959     -0.00000
    190       6.3922     -0.00000
    191       6.5587     -0.00000
    192       6.5587     -0.00000
    193       6.7200     -0.00000
    194       6.7200     -0.00000
    195       7.0106     -0.00000
    196       7.0106     -0.00000
    197       7.7950     -0.00000
    198       7.7956     -0.00000
    199       8.1915     -0.00000
    200       8.1923     -0.00000
    201       8.6538     -0.00000
    202       8.7083     -0.00000
    203       8.7179     -0.00000
    204       8.8359     -0.00000
    205       8.8509      0.00000
    206       9.3700      0.00000
    207       9.6275      0.00000
    208       9.6597      0.00000
    209       9.7813      0.00000
    210       9.8285      0.00000
    211       9.9079      0.00000
    212      10.0175      0.00000

 k-point   3 :       0.3125    0.0625    0.0625
  band No.  band energies     occupation 
      1      -4.2374      2.00000
      2      -3.3820      2.00000
      3      -2.4443      2.00000
      4      -2.4443      2.00000
      5      -2.2286      2.00000
      6      -2.1675      2.00000
      7      -2.1675      2.00000
      8      -2.1291      2.00000
      9      -2.1024      2.00000
     10      -2.1024      2.00000
     11      -1.9781      2.00000
     12      -1.9120      2.00000
     13      -1.9120      2.00000
     14      -1.9080      2.00000
     15      -1.9073      2.00000
     16      -1.9073      2.00000
     17      -1.8440      2.00000
     18      -1.7610      2.00000
     19      -1.7251      2.00000
     20      -1.7251      2.00000
     21      -1.7196      2.00000
     22      -1.7196      2.00000
     23      -1.6470      2.00000
     24      -1.6245      2.00000
     25      -1.6245      2.00000
     26      -1.4914      2.00000
     27      -1.4698      2.00000
     28      -1.4698      2.00000
     29      -1.2744      2.00000
     30      -1.2744      2.00000
     31      -1.2085      2.00000
     32      -1.2085      2.00000
     33      -1.1766      2.00000
     34      -1.1766      2.00000
     35      -1.1631      2.00000
     36      -1.1631      2.00000
     37      -1.1293      2.00000
     38      -1.1293      2.00000
     39      -1.1039      2.00000
     40      -1.1039      2.00000
     41      -1.0353      2.00000
     42      -1.0353      2.00000
     43      -0.9058      2.00000
     44      -0.9058      2.00000
     45      -0.8492      2.00000
     46      -0.8492      2.00000
     47      -0.8471      2.00000
     48      -0.8471      2.00000
     49      -0.8230      2.00000
     50      -0.8230      2.00000
     51      -0.8169      2.00000
     52      -0.7882      2.00000
     53      -0.7882      2.00000
     54      -0.6928      2.00000
     55      -0.6928      2.00000
     56      -0.6620      2.00000
     57      -0.6620      2.00000
     58      -0.6425      2.00000
     59      -0.6425      2.00000
     60      -0.6222      2.00000
     61      -0.5774      2.00000
     62      -0.5774      2.00000
     63      -0.5168      2.00000
     64      -0.5168      2.00000
     65      -0.5149      2.00000
     66      -0.5080      2.00000
     67      -0.5080      2.00000
     68      -0.4942      2.00000
     69      -0.4918      2.00000
     70      -0.4902      2.00000
     71      -0.4902      2.00000
     72      -0.4645      2.00000
     73      -0.4645      2.00000
     74      -0.4164      2.00000
     75      -0.3617      2.00000
     76      -0.3617      2.00000
     77      -0.3372      2.00000
     78      -0.3055      2.00000
     79      -0.3055      2.00000
     80      -0.3031      2.00000
     81      -0.3015      2.00000
     82      -0.2904      2.00000
     83      -0.1531      2.00000
     84      -0.1531      2.00000
     85      -0.1524      2.00000
     86      -0.1524      2.00000
     87      -0.0689      2.00000
     88      -0.0689      2.00000
     89      -0.0523      2.00000
     90      -0.0309      2.00000
     91       0.0208      2.00000
     92       0.0327      2.00000
     93       0.0347      2.00000
     94       0.0522      2.00000
     95       0.0596      2.00000
     96       0.0596      2.00000
     97       0.1196      2.00000
     98       0.1196      2.00000
     99       0.2745      2.00000
    100       0.2983      2.00000
    101       0.2983      2.00000
    102       0.3512      2.00000
    103       0.3512      2.00000
    104       0.4342      2.00000
    105       0.4342      2.00000
    106       0.4664      2.00000
    107       0.4664      2.00000
    108       0.4887      2.00000
    109       0.4887      2.00000
    110       0.5188      2.00000
    111       0.5188      2.00000
    112       0.5337      2.00000
    113       0.5337      2.00000
    114       0.5536      2.00000
    115       0.5997      2.00000
    116       0.5997      2.00000
    117       0.6173      2.00000
    118       0.6173      2.00000
    119       0.6479      2.00000
    120       0.6479      2.00000
    121       0.6574      2.00000
    122       0.6574      2.00000
    123       0.6934      2.00000
    124       0.7588      2.00000
    125       0.7963      2.00000
    126       0.7963      2.00000
    127       0.8554      2.00000
    128       0.8554      2.00000
    129       0.8561      2.00000
    130       0.8850      2.00000
    131       0.9632      2.00000
    132       0.9648      2.00000
    133       0.9760      2.00000
    134       0.9760      2.00000
    135       0.9897      2.00000
    136       0.9897      2.00000
    137       1.0257      2.00000
    138       1.0257      2.00000
    139       1.0398      2.00000
    140       1.0511      2.00000
    141       1.0511      2.00000
    142       1.0813      2.00000
    143       1.1691      2.00000
    144       1.1691      2.00000
    145       1.1818      2.00000
    146       1.1818      2.00000
    147       1.2314      2.00000
    148       1.2560      2.00000
    149       1.3128      2.00000
    150       1.3128      2.00000
    151       1.3193      2.00000
    152       1.3391      2.00000
    153       1.3391      2.00000
    154       1.3713      2.00000
    155       1.3943      2.00000
    156       1.3943      2.00000
    157       1.4023      2.00000
    158       1.4769      2.00000
    159       1.5192      2.00000
    160       1.5192      2.00000
    161       1.5202      2.00000
    162       1.5202      2.00000
    163       1.5488      2.00000
    164       1.6915      2.00000
    165       1.6915      2.00000
    166       1.6916      2.00000
    167       1.6916      2.00000
    168       1.8964      2.00000
    169       1.8964      2.00000
    170       2.2190      2.00000
    171       2.2190      2.00000
    172       2.5276      2.00000
    173       2.5563      2.00000
    174       2.9624      2.01105
    175       2.9624      2.01105
    176       3.1539      2.06912
    177       3.1539      2.06912
    178       3.3599      1.20506
[...]
    111       0.4000      2.00000
    112       0.4000      2.00000
    113       0.4000      2.00000
    114       0.4119      2.00000
    115       0.4119      2.00000
    116       0.4119      2.00000
    117       0.4918      2.00000
    118       0.4918      2.00000
    119       0.4918      2.00000
    120       0.5442      2.00000
    121       0.5442      2.00000
    122       0.5442      2.00000
    123       0.5442      2.00000
    124       0.5442      2.00000
    125       0.5442      2.00000
    126       0.6400      2.00000
    127       0.6400      2.00000
    128       0.6400      2.00000
    129       0.6899      2.00000
    130       0.6899      2.00000
    131       0.6899      2.00000
    132       0.7008      2.00000
    133       0.7008      2.00000
    134       0.7354      2.00000
    135       0.7354      2.00000
    136       0.7354      2.00000
    137       0.8310      2.00000
    138       0.8310      2.00000
    139       0.8310      2.00000
    140       0.8910      2.00000
    141       0.8910      2.00000
    142       0.9183      2.00000
    143       0.9183      2.00000
    144       0.9183      2.00000
    145       1.5086      2.00000
    146       1.5086      2.00000
    147       1.5086      2.00000
    148       1.5294      2.00000
    149       1.5294      2.00000
    150       1.5294      2.00000
    151       1.5294      2.00000
    152       1.5294      2.00000
    153       1.5294      2.00000
    154       1.5299      2.00000
    155       1.5299      2.00000
    156       1.5299      2.00000
    157       1.5299      2.00000
    158       1.5299      2.00000
    159       1.5299      2.00000
    160       1.5338      2.00000
    161       1.5338      2.00000
    162       1.5338      2.00000
    163       1.5490      2.00000
    164       1.5490      2.00000
    165       1.5490      2.00000
    166       1.5602      2.00000
    167       1.5602      2.00000
    168       1.5602      2.00000
    169       3.4675      0.35861
    170       3.4675      0.35861
    171       3.4675      0.35861
    172       3.7969     -0.01298
    173       3.7969     -0.01298
    174       3.7969     -0.01298
    175       3.7969     -0.01298
    176       3.7969     -0.01298
    177       3.7969     -0.01298
    178       4.0974     -0.00001
    179       4.0974     -0.00001
    180       4.0974     -0.00001
    181       4.2301     -0.00000
    182       4.2301     -0.00000
    183       4.2301     -0.00000
    184       4.5764     -0.00000
    185       4.5764     -0.00000
    186       4.5764     -0.00000
    187       4.5764     -0.00000
    188       4.5764     -0.00000
    189       4.5764     -0.00000
    190       4.9021     -0.00000
    191       4.9021     -0.00000
    192       4.9021     -0.00000
    193       7.3011     -0.00000
    194       7.3012     -0.00000
    195       7.3022     -0.00000
    196       7.6755     -0.00000
    197       7.6773     -0.00000
    198       7.6996     -0.00000
    199       8.0132     -0.00000
    200       8.0132     -0.00000
    201       8.0137     -0.00000
    202       8.0190     -0.00000
    203       8.0331     -0.00000
    204       8.0874     -0.00000
    205       8.4318     -0.00000
    206       8.4318     -0.00000
    207       8.4390     -0.00000
    208       8.4851     -0.00000
    209       8.5673     -0.00000
    210       8.6313     -0.00000
    211       8.8312     -0.00000
    212       8.9963      0.00000


--------------------------------------------------------------------------------------------------------


 soft charge-density along one line, spin component           1
         0         1         2         3         4         5         6         7         8         9
 total charge-density along one line
 
 pseudopotential strength for first ion, spin component:           1
-10.553   0.000  -0.000   0.000  -0.000   0.004  -0.000   0.000
  0.000 -10.553   0.000   0.000  -0.000  -0.000   0.004  -0.000
 -0.000   0.000 -10.541   0.000  -0.000   0.000  -0.000   0.003
  0.000   0.000   0.000 -10.553   0.000  -0.000  -0.000  -0.000
 -0.000  -0.000  -0.000   0.000 -10.541   0.000   0.000   0.000
  0.004  -0.000   0.000  -0.000   0.000   0.270   0.000  -0.000
 -0.000   0.004  -0.000  -0.000   0.000   0.000   0.270   0.000
  0.000  -0.000   0.003  -0.000   0.000  -0.000   0.000   0.270
 -0.000  -0.000  -0.000   0.004  -0.000   0.000   0.000   0.000
  0.000   0.000   0.000  -0.000   0.003  -0.000  -0.000  -0.000
 -0.000  -0.000  -0.000  -0.000  -0.000   0.000   0.000  -0.000
  0.000   0.000   0.000   0.000   0.000  -0.000  -0.000  -0.000
  0.000  -0.000  -0.000   0.000  -0.000  -0.000   0.000   0.000
  0.000   0.000  -0.000   0.000   0.000  -0.000  -0.000   0.000
  0.000   0.000  -0.000  -0.000   0.000  -0.000  -0.000   0.000
 -0.000   0.000   0.000  -0.000   0.000   0.000  -0.000  -0.000
 -0.000  -0.000   0.000  -0.000  -0.000   0.000   0.000  -0.000
 -0.000  -0.000   0.000   0.000  -0.000   0.000   0.000  -0.000
 total augmentation occupancy for first ion, spin component:           1
  1.905  -0.001  -0.003   0.001   0.001  -0.068   0.001   0.001  -0.001  -0.001   0.007   0.000   0.000   0.000  -0.000   0.000
 -0.001   1.922  -0.003  -0.001  -0.002   0.001  -0.083   0.004   0.001  -0.000   0.001  -0.002   0.000   0.000   0.000   0.000
 -0.003  -0.003   1.965  -0.001   0.004   0.001   0.004  -0.112   0.002  -0.002   0.020   0.004   0.000   0.000  -0.000  -0.000
  0.001  -0.001  -0.001   1.916   0.003  -0.001   0.001   0.002  -0.074  -0.001   0.005   0.000   0.000   0.000  -0.000   0.000
  0.001  -0.002   0.004   0.003   1.946  -0.001  -0.000  -0.002  -0.001  -0.099  -0.008  -0.002   0.000  -0.000  -0.000   0.000
 -0.068   0.001   0.001  -0.001  -0.001   0.112  -0.001   0.002   0.000   0.000  -0.002   0.001   0.000  -0.000   0.000  -0.000
  0.001  -0.083   0.004   0.001  -0.000  -0.001   0.123  -0.004  -0.001   0.002   0.003   0.003  -0.000   0.000  -0.000   0.000
  0.001   0.004  -0.112   0.002  -0.002   0.002  -0.004   0.095  -0.002   0.000  -0.011  -0.001  -0.000  -0.000   0.000  -0.000
 -0.001   0.001   0.002  -0.074  -0.001   0.000  -0.001  -0.002   0.113  -0.000  -0.002   0.001  -0.000  -0.000   0.000   0.000
 -0.001  -0.000  -0.002  -0.001  -0.099   0.000   0.002   0.000  -0.000   0.087   0.006   0.001  -0.000   0.000   0.000  -0.000
  0.007   0.001   0.020   0.005  -0.008  -0.002   0.003  -0.011  -0.002   0.006   0.991  -0.270   0.000  -0.000  -0.000   0.000
  0.000  -0.002   0.004   0.000  -0.002   0.001   0.003  -0.001   0.001   0.001  -0.270   0.148   0.000  -0.000   0.000  -0.000
  0.000   0.000   0.000   0.000   0.000   0.000  -0.000  -0.000  -0.000  -0.000   0.000   0.000   0.100  -0.001   0.003  -0.007
  0.000   0.000   0.000   0.000  -0.000  -0.000   0.000  -0.000  -0.000   0.000  -0.000  -0.000  -0.001   0.103   0.001  -0.000
 -0.000   0.000  -0.000  -0.000  -0.000   0.000  -0.000   0.000   0.000   0.000  -0.000   0.000   0.003   0.001   0.102  -0.000
  0.000   0.000  -0.000   0.000   0.000  -0.000   0.000  -0.000   0.000  -0.000   0.000  -0.000  -0.007  -0.000  -0.000   0.001
  0.000   0.000   0.000   0.000  -0.000  -0.000  -0.000  -0.000  -0.000   0.000   0.000   0.000  -0.000  -0.007  -0.000   0.000
 -0.000   0.000   0.000  -0.000  -0.000   0.000  -0.000   0.000   0.000   0.000  -0.000  -0.000  -0.000  -0.000  -0.007   0.000


------------------------ aborting loop because EDIFF is reached ----------------------------------------




--------------------------------------------------------------------------------------------------------


    CHARGE:  VPU time   59.14: CPU time   59.29
    FORLOC:  VPU time    0.34: CPU time    0.34
    FORNL :  VPU time  202.46: CPU time  202.93
    STRESS:  VPU time 1014.36: CPU time 1015.94
    FORCOR:  VPU time    1.90: CPU time    1.90
    FORHAR:  VPU time    0.70: CPU time    0.70
    MIXING:  VPU time    0.05: CPU time    0.05


--------------------------------------------------------------------------------------------------------



  FREE ENERGIE OF THE ION-ELECTRON SYSTEM (eV)
  ---------------------------------------------------
  free  energy   TOTEN  =      -100.589677 eV

  energy  without entropy=     -100.587119  energy(sigma->0) =     -100.588824
 

  FORCE on cell =-STRESS in cart. coord.  units (eV/reduce length):
  Direction    X        Y        Z        XY       YZ       ZX
  --------------------------------------------------------------------------------------
  Alpha Z   2862.17   2862.17   2862.17
  Ewald    -9737.89  -9737.89  -9737.89     -0.00     -0.00     -0.00
  Hartree   1504.44   1504.44   1504.44     -0.00     -0.00     -0.00
  E(xc)    -1574.54  -1574.54  -1574.54     -0.00     -0.00     -0.00
  Local     2321.63   2321.63   2321.63      0.00      0.00      0.00
  n-local  -1693.37  -1688.03  -1675.91      4.69      0.16      3.33
  augment   1377.19   1377.19   1377.19     -0.00     -0.00     -0.00
  Kinetic   4872.48   4878.58   4889.46      1.65     -3.05      0.25
  -------------------------------------------------------------------------------------
  Total      -52.60    -52.60    -52.60     -0.00     -0.00     -0.00
  in kB     -125.78   -125.78   -125.78     -0.00     -0.00     -0.00
  external pressure =     -125.78 kB  Pullay stress =        0.00 kB


 VOLUME and BASIS-vectors are now :
 -----------------------------------------------------------------------------
  energy-cutoff  :      600.00
  volume of cell :      670.04
      direct lattice vectors                 reciprocal lattice vectors
     8.750512820  0.000000000  0.000000000     0.114279017 -0.000000002 -0.000000002
     0.000000160  8.750512820  0.000000000     0.000000000  0.114279017 -0.000000002
     0.000000160  0.000000160  8.750512820     0.000000000  0.000000000  0.114279017

  length of vectors
     8.750512820  8.750512820  8.750512820     0.114279017  0.114279017  0.114279017


 FORCES acting on ions
    electron-ion (+dipol)            ewald-force                    non-local-force                 convergence-correction
 -----------------------------------------------------------------------------------------------
   0.486E-12 -.132E-10 0.225E-11   -.844E-13 0.271E-13 0.661E-13   0.855E-22 -.264E-22 -.273E-22   0.731E-13 -.142E-13 -.769E-12
   0.468E-12 -.791E-12 -.225E-12   -.204E-12 -.977E-14 0.665E-14   -.131E-22 -.646E-22 -.993E-23   -.488E-13 -.451E-12 0.103E-11
   0.479E-12 -.542E-13 -.557E-11   -.240E-13 -.333E-13 0.338E-13   -.501E-22 0.361E-22 -.174E-22   -.177E-12 -.388E-12 -.107E-12
   0.485E-12 0.379E-11 0.167E-11   -.182E-13 0.355E-13 -.189E-13   -.692E-22 -.648E-23 0.724E-23   0.213E-13 -.205E-13 -.289E-12
   -.232E-13 0.483E-12 0.158E-12   -.104E-12 0.733E-13 0.111E-12   0.405E-24 0.128E-21 -.662E-23   -.852E-13 -.116E-12 -.248E-12
   -.412E-13 -.397E-13 0.319E-12   -.127E-12 0.504E-13 -.928E-13   -.364E-22 -.209E-22 -.579E-23   0.974E-13 -.191E-12 -.426E-12
   0.125E-12 -.115E-11 0.126E-11   -.173E-13 0.142E-13 0.936E-13   -.649E-22 0.802E-22 0.147E-22   -.675E-13 -.331E-13 -.379E-12
   0.479E-12 0.105E-13 0.226E-11   -.121E-12 0.220E-13 0.195E-13   0.106E-21 -.293E-22 -.869E-23   0.282E-13 0.805E-13 -.224E-12
   0.467E-12 -.872E-11 -.290E-12   -.417E-13 0.488E-13 0.251E-13   0.360E-22 0.214E-22 -.827E-23   -.257E-12 0.444E-12 0.572E-12
   0.474E-12 -.133E-11 0.694E-11   0.231E-13 -.934E-13 -.329E-13   -.922E-23 -.104E-21 0.165E-22   -.492E-13 0.444E-12 -.551E-12
   -.408E-13 0.488E-12 0.435E-12   0.681E-13 0.528E-13 0.355E-13   -.483E-23 0.144E-22 0.153E-22   0.301E-12 -.223E-12 -.362E-13
   -.227E-13 -.451E-13 -.329E-13   -.290E-14 -.176E-13 0.710E-14   0.422E-22 -.556E-22 -.414E-23   0.452E-12 -.957E-13 0.700E-12
   -.167E-13 0.118E-12 0.165E-12   -.508E-13 -.422E-13 -.213E-13   -.390E-22 0.346E-22 0.794E-22   0.274E-12 0.883E-13 -.346E-12
   -.355E-13 0.321E-12 0.314E-12   -.682E-13 -.785E-13 -.416E-13   -.890E-22 0.214E-22 0.248E-22   0.122E-12 0.233E-12 -.329E-12
   0.144E-12 0.212E-11 0.897E-12   -.435E-13 0.364E-13 0.824E-13   -.177E-22 -.112E-22 -.562E-22   0.548E-13 -.883E-13 0.640E-12
   0.132E-12 -.324E-13 -.138E-11   -.173E-13 -.477E-14 -.160E-13   -.410E-22 -.166E-22 0.252E-22   0.189E-12 -.286E-13 -.443E-12
   0.125E-12 0.171E-11 0.124E-11   -.154E-12 -.164E-13 -.970E-14   0.141E-21 -.295E-22 -.414E-23   -.148E-13 0.968E-14 -.292E-12
   0.320E-12 -.336E-11 -.311E-12   0.803E-13 -.124E-13 0.506E-13   -.977E-23 0.537E-22 -.290E-22   0.128E-12 -.230E-14 -.390E-12
   0.337E-12 -.313E-13 -.269E-11   0.190E-12 -.294E-13 0.342E-13   -.633E-22 0.499E-22 0.174E-22   -.583E-13 -.127E-12 -.621E-12
   0.474E-12 -.907E-12 -.101E-10   0.888E-15 -.652E-13 -.258E-13   0.108E-22 0.783E-22 -.827E-24   -.300E-14 -.245E-13 0.231E-12
   -.344E-13 0.111E-12 0.430E-12   0.760E-13 -.591E-13 0.275E-13   0.122E-21 -.231E-22 0.620E-23   0.270E-12 0.196E-12 0.708E-13
   -.174E-13 0.327E-12 -.263E-13   0.458E-13 -.405E-13 -.915E-13   0.566E-23 -.473E-22 -.132E-22   0.848E-13 0.124E-12 0.583E-12
   0.132E-12 -.439E-13 0.214E-11   0.915E-13 0.224E-13 0.178E-14   -.783E-22 0.331E-22 0.505E-22   -.157E-13 0.439E-13 0.158E-12
   0.144E-12 -.148E-11 0.918E-12   0.533E-14 0.240E-13 -.112E-13   -.177E-22 0.810E-22 0.430E-22   0.266E-12 0.615E-13 0.580E-12
   0.137E-12 0.315E-12 0.181E-11   -.151E-13 -.228E-13 -.102E-12   -.131E-21 -.312E-22 0.827E-23   0.641E-13 0.899E-13 -.498E-12
   0.337E-12 0.279E-11 0.485E-11   0.265E-12 0.808E-13 0.302E-13   -.487E-22 -.412E-22 -.168E-22   -.258E-12 -.268E-12 0.669E-13
   0.319E-12 0.129E-14 0.213E-11   0.186E-12 0.206E-13 -.587E-13   0.743E-22 0.264E-22 -.463E-22   -.414E-12 0.135E-12 0.919E-12
   0.314E-12 -.250E-11 -.401E-12   0.181E-12 0.471E-13 -.586E-13   -.435E-22 -.243E-22 -.667E-23   -.233E-12 -.512E-13 -.652E-12
   0.330E-12 -.281E-11 -.252E-11   0.214E-12 -.613E-13 -.664E-13   0.106E-21 -.609E-22 0.569E-23   -.817E-13 0.201E-12 -.370E-12
   0.137E-12 0.325E-12 -.105E-11   0.105E-12 -.955E-13 -.240E-13   -.412E-22 -.118E-23 -.566E-22   0.179E-13 0.163E-13 0.212E-12
   0.331E-12 -.221E-11 -.152E-11   0.213E-12 0.409E-13 -.790E-13   -.318E-23 -.507E-22 -.101E-22   -.227E-12 0.216E-12 0.325E-12
   0.313E-12 -.284E-11 0.183E-11   0.237E-12 -.549E-13 -.632E-13   -.634E-22 -.566E-22 -.141E-22   -.464E-13 -.604E-13 0.635E-12
 -----------------------------------------------------------------------------------------------
   0.726E-11 -.287E-10 0.590E-11   0.888E-12 -.141E-12 -.189E-12   -.204E-21 -.422E-22 -.279E-22   0.409E-12 0.200E-12 -.248E-12
 
 
 POSITION                                       TOTAL-FORCE (eV/Angst)
 -----------------------------------------------------------------------------------
      6.56288      6.56288      4.37526        -0.000000      0.000000     -0.000000
      6.56288      6.56288      0.00000         0.000000      0.000000      0.000000
      6.56288      0.00000      2.18763         0.000000      0.000000      0.000000
      6.56288      2.18763      4.37526        -0.000000     -0.000000      0.000000
      0.00000      6.56288      2.18763        -0.000000      0.000000     -0.000000
      0.00000      0.00000      4.37526         0.000000     -0.000000     -0.000000
      2.18763      6.56288      4.37526        -0.000000     -0.000000      0.000000
      6.56288      0.00000      6.56288        -0.000000     -0.000000     -0.000000
      6.56288      2.18763      0.00000        -0.000000      0.000000      0.000000
      6.56288      4.37526      2.18763         0.000000      0.000000      0.000000
      0.00000      6.56288      6.56288        -0.000000     -0.000000      0.000000
      0.00000      0.00000      0.00000         0.000000     -0.000000      0.000000
      0.00000      2.18763      2.18763         0.000000     -0.000000     -0.000000
      0.00000      4.37526      4.37526        -0.000000      0.000000     -0.000000
      2.18763      6.56288      0.00000        -0.000000     -0.000000     -0.000000
      2.18763      0.00000      2.18763         0.000000      0.000000      0.000000
      2.18763      2.18763      4.37526         0.000000     -0.000000     -0.000000
      4.37526      6.56288      2.18763         0.000000     -0.000000     -0.000000
      4.37526      0.00000      4.37526         0.000000     -0.000000      0.000000
      6.56288      4.37526      6.56288        -0.000000      0.000000     -0.000000
      0.00000      2.18763      6.56288        -0.000000     -0.000000      0.000000
      0.00000      4.37526      0.00000         0.000000     -0.000000      0.000000
      2.18763      0.00000      6.56288        -0.000000     -0.000000     -0.000000
      2.18763      2.18763      0.00000         0.000000      0.000000     -0.000000
      2.18763      4.37526      2.18763         0.000000      0.000000      0.000000
      4.37526      6.56288      6.56288        -0.000000     -0.000000     -0.000000
      4.37526      0.00000      0.00000        -0.000000      0.000000     -0.000000
      4.37526      2.18763      2.18763         0.000000      0.000000      0.000000
      4.37526      4.37526      4.37526         0.000000      0.000000     -0.000000
      2.18763      4.37526      6.56288        -0.000000     -0.000000      0.000000
      4.37526      2.18763      6.56288         0.000000     -0.000000      0.000000
      4.37526      4.37526      0.00000        -0.000000     -0.000000      0.000000
 -----------------------------------------------------------------------------------
    total drift:                                0.000000     -0.000000      0.000000


--------------------------------------------------------------------------------------------------------




--------------------------------------------------------------------------------------------------------


  
 reached required accuracy - stopping structural energy minimisation
 writing wavefunctions
     LOOP+:  VPU time17143.85: CPU time17171.98

 ----------------------------------------------------------------------------- 
|                                                                             |
|           W    W    AA    RRRRR   N    N  II  N    N   GGGG   !!!           |
|           W    W   A  A   R    R  NN   N  II  NN   N  G    G  !!!           |
|           W    W  A    A  R    R  N N  N  II  N N  N  G       !!!           |
|           W WW W  AAAAAA  RRRRR   N  N N  II  N  N N  G  GGG   !            |
|           WW  WW  A    A  R   R   N   NN  II  N   NN  G    G                |
|           W    W  A    A  R    R  N    N  II  N    N   GGGG   !!!           |
|                                                                             |
|      The partial DOS and the PROCAR file are not evaluated for NPAR/=1      |
|      please rerun with NPAR=1                                               |
|                                                                             |
 ----------------------------------------------------------------------------- 

  
  
 General timing and accounting informations for this job:
 ========================================================
  
                  Total CPU time used (sec):    17195.749
                            User time (sec):    16989.335
                          System time (sec):      206.414
                         Elapsed time (sec):    17223.917
  
                   Maximum memory used (kb):     2139360.
                   Average memory used (kb):           0.
  
                          Minor page faults:       423944
                          Major page faults:            0
                 Voluntary context switches:         2011
