   4   4   0   0
  0.1455556E+02  0.3875814E-09  0.3875814E-09  0.3875814E-09  0.5000000E-15
  1.000000000000000E-004
  CAR 
 unknown system                          
     22.63396837     -3.86213542  301      9.34374511      1.00000000
     -3.862  0.0000E+00  0.0000E+00
     -3.774  0.0000E+00  0.0000E+00
     -3.685  0.0000E+00  0.0000E+00
     -3.597  0.0000E+00  0.0000E+00
     -3.509  0.0000E+00  0.0000E+00
     -3.421  0.0000E+00  0.0000E+00
     -3.332  0.0000E+00  0.0000E+00
     -3.244  0.0000E+00  0.0000E+00
     -3.156  0.0000E+00  0.0000E+00
     -3.067  0.0000E+00  0.0000E+00
     -2.979  0.0000E+00  0.0000E+00
     -2.891  0.0000E+00  0.0000E+00
     -2.802  0.0000E+00  0.0000E+00
     -2.714  0.1237E-16  0.1092E-17
     -2.626  0.1310E-01  0.1157E-02
     -2.537  0.8031E-01  0.8251E-02
     -2.449  0.2292E+00  0.2850E-01
     -2.361  0.7860E-01  0.3819E-01
     -2.272  0.3146E+00  0.6598E-01
     -2.184  0.3144E+00  0.9375E-01
     -2.096  0.1555E+00  0.1075E+00
     -2.007  0.3931E+00  0.1424E+00
     -1.919  0.3315E+00  0.1716E+00
     -1.831  0.3917E+00  0.2062E+00
     -1.742  0.3145E+00  0.2350E+00
     -1.654  0.6290E+00  0.2905E+00
     -1.566  0.5012E-01  0.2949E+00
     -1.477  0.6287E+00  0.3530E+00
     -1.389  0.4719E+00  0.3947E+00
     -1.301  0.4133E+00  0.4312E+00
     -1.213  0.6245E+00  0.5054E+00
     -1.124  0.3145E+00  0.5336E+00
     -1.036  0.3424E-01  0.5366E+00
     -0.948  0.6564E+00  0.5946E+00
     -0.859  0.9435E+00  0.6794E+00
     -0.771  0.4193E+00  0.7164E+00
     -0.683  0.8090E+00  0.7879E+00
     -0.594  0.6290E+00  0.8553E+00
     -0.506  0.1019E-02  0.8554E+00
     -0.418  0.5923E+00  0.9077E+00
     -0.329  0.6289E+00  0.9803E+00
     -0.241  0.6296E+00  0.1036E+01
     -0.153  0.5552E+00  0.1085E+01
     -0.064  0.9424E+00  0.1182E+01
      0.024  0.1135E-03  0.1182E+01
      0.112  0.7662E+00  0.1249E+01
      0.201  0.6266E+00  0.1376E+01
      0.289  0.3145E+00  0.1404E+01
      0.377  0.5499E+00  0.1453E+01
      0.466  0.6238E+00  0.1570E+01
      0.554  0.3368E-05  0.1571E+01
      0.642  0.2381E+00  0.1592E+01
      0.731  0.1085E+01  0.1738E+01
      0.819  0.6290E+00  0.1795E+01
      0.907  0.4613E+00  0.1836E+01
      0.995  0.1235E+01  0.2015E+01
      1.084  0.7911E-05  0.2017E+01
      1.172  0.7184E+00  0.2081E+01
      1.260  0.3089E+00  0.2156E+01
      1.349  0.9435E+00  0.2240E+01
      1.437  0.1347E+00  0.2251E+01
      1.525  0.1236E+01  0.2432E+01
      1.614  0.4902E-05  0.2434E+01
      1.702  0.3236E+00  0.2463E+01
      1.790  0.1245E+01  0.2662E+01
      1.879  0.3146E+00  0.2691E+01
      1.967  0.9867E+00  0.2778E+01
      2.055  0.6247E+00  0.2913E+01
      2.144  0.1340E-03  0.2913E+01
      2.232  0.7085E+00  0.2976E+01
      2.320  0.1570E+01  0.3149E+01
      2.409  0.7340E+00  0.3214E+01
      2.497  0.1015E+01  0.3304E+01
      2.585  0.6287E+00  0.3409E+01
      2.674  0.1516E-02  0.3409E+01
      2.762  0.1313E+01  0.3525E+01
      2.850  0.6290E+00  0.3610E+01
      2.939  0.9584E+00  0.3695E+01
      3.027  0.1184E+01  0.3799E+01
      3.115  0.1573E+01  0.3943E+01
      3.203  0.5080E-01  0.3948E+01
      3.292  0.1845E+01  0.4134E+01
      3.380  0.1573E+01  0.4277E+01
      3.468  0.6288E+00  0.4332E+01
      3.557  0.6276E+00  0.4388E+01
      3.645  0.1258E+01  0.4499E+01
      3.733  0.2603E+00  0.4522E+01
      3.822  0.6290E+00  0.4582E+01
      3.910  0.1676E+01  0.4730E+01
      3.998  0.9488E+00  0.4821E+01
      4.087  0.2209E+01  0.5020E+01
      4.175  0.6218E+00  0.5075E+01
      4.263  0.9563E+00  0.5160E+01
      4.352  0.1271E+01  0.5275E+01
      4.440  0.2020E+01  0.5454E+01
      4.528  0.3200E+00  0.5497E+01
      4.617  0.1454E+01  0.5625E+01
      4.705  0.3145E+00  0.5719E+01
      4.793  0.4673E+00  0.5760E+01
      4.882  0.1168E+01  0.5881E+01
      4.970  0.9434E+00  0.6001E+01
      5.058  0.9541E+00  0.6085E+01
      5.147  0.1621E+01  0.6283E+01
      5.235  0.3485E+00  0.6337E+01
      5.323  0.1559E+01  0.6475E+01
      5.412  0.9368E+00  0.6564E+01
      5.500  0.3703E+00  0.6597E+01
      5.588  0.1884E+01  0.6786E+01
      5.676  0.6964E+00  0.6847E+01
      5.765  0.1588E+01  0.6988E+01
      5.853  0.1258E+01  0.7133E+01
      5.941  0.2206E+01  0.7328E+01
      6.030  0.3145E+00  0.7411E+01
      6.118  0.9435E+00  0.7494E+01
      6.206  0.7386E+00  0.7559E+01
      6.295  0.1467E+01  0.7697E+01
      6.383  0.2157E+01  0.7887E+01
      6.471  0.9898E+00  0.7988E+01
      6.560  0.1292E+01  0.8126E+01
      6.648  0.1360E+01  0.8246E+01
      6.736  0.8712E+00  0.8325E+01
      6.825  0.9253E+00  0.8454E+01
      6.913  0.1585E+01  0.8624E+01
      7.001  0.1397E+01  0.8747E+01
      7.090  0.4191E+00  0.8799E+01
      7.178  0.8190E+00  0.8871E+01
      7.266  0.2004E+01  0.9048E+01
      7.355  0.7376E+00  0.9114E+01
      7.443  0.2224E+01  0.9329E+01
      7.531  0.1569E+01  0.9493E+01
      7.620  0.6290E+00  0.9549E+01
      7.708  0.4773E+00  0.9591E+01
      7.796  0.1491E+01  0.9722E+01
      7.884  0.1347E+01  0.9852E+01
      7.973  0.1682E+01  0.1003E+02
      8.061  0.9409E+00  0.1012E+02
      8.149  0.1672E+01  0.1027E+02
      8.238  0.1468E+01  0.1040E+02
      8.326  0.1531E+01  0.1056E+02
      8.414  0.7738E+00  0.1068E+02
      8.503  0.7069E+00  0.1074E+02
      8.591  0.1241E+01  0.1090E+02
      8.679  0.2228E+01  0.1110E+02
      8.768  0.7089E+00  0.1117E+02
      8.856  0.6075E+00  0.1122E+02
      8.944  0.9989E+00  0.1131E+02
      9.033  0.1566E+01  0.1150E+02
      9.121  0.1124E+01  0.1160E+02
      9.209  0.2148E+01  0.1179E+02
      9.298  0.1467E+01  0.1195E+02
      9.386  0.1515E+01  0.1211E+02
      9.474  0.1021E+01  0.1221E+02
      9.563  0.1357E+01  0.1235E+02
      9.651  0.5940E+00  0.1243E+02
      9.739  0.1597E+01  0.1257E+02
      9.828  0.2129E+00  0.1261E+02
      9.916  0.1730E+01  0.1277E+02
     10.004  0.1313E+01  0.1291E+02
     10.092  0.1224E+01  0.1306E+02
     10.181  0.2018E+01  0.1324E+02
     10.269  0.5098E+00  0.1329E+02
     10.357  0.2224E+01  0.1349E+02
     10.446  0.1730E+01  0.1365E+02
     10.534  0.6485E+00  0.1377E+02
     10.622  0.2665E+01  0.1400E+02
     10.711  0.1560E+01  0.1414E+02
     10.799  0.1253E+01  0.1425E+02
     10.887  0.1292E+01  0.1436E+02
     10.976  0.5861E+00  0.1450E+02
     11.064  0.9390E+00  0.1458E+02
     11.152  0.8461E+00  0.1466E+02
     11.241  0.2885E+01  0.1492E+02
     11.329  0.9429E+00  0.1501E+02
     11.417  0.1891E+01  0.1517E+02
     11.506  0.1256E+01  0.1534E+02
     11.594  0.1710E+01  0.1549E+02
     11.682  0.2056E+01  0.1570E+02
     11.771  0.9429E+00  0.1580E+02
     11.859  0.3145E+00  0.1583E+02
     11.947  0.2183E+01  0.1602E+02
     12.036  0.1824E+01  0.1618E+02
     12.124  0.2822E+00  0.1621E+02
     12.212  0.1716E+01  0.1642E+02
     12.300  0.1103E+01  0.1654E+02
     12.389  0.2242E+01  0.1674E+02
     12.477  0.1238E+01  0.1693E+02
     12.565  0.1478E+01  0.1706E+02
     12.654  0.2176E+01  0.1728E+02
     12.742  0.1078E+01  0.1737E+02
     12.830  0.1330E+01  0.1754E+02
     12.919  0.2187E+01  0.1773E+02
     13.007  0.1430E+00  0.1775E+02
     13.095  0.2211E+01  0.1796E+02
     13.184  0.2780E+01  0.1821E+02
     13.272  0.1572E+00  0.1826E+02
     13.360  0.1552E+01  0.1840E+02
     13.449  0.2950E+01  0.1866E+02
     13.537  0.9442E+00  0.1876E+02
     13.625  0.1413E+01  0.1888E+02
     13.714  0.1959E+01  0.1906E+02
     13.802  0.2755E+01  0.1930E+02
     13.890  0.3498E+00  0.1936E+02
     13.979  0.2792E+00  0.1938E+02
     14.067  0.1549E+01  0.1952E+02
     14.155  0.1570E+01  0.1972E+02
     14.244  0.2917E+01  0.1998E+02
     14.332  0.2804E+01  0.2023E+02
     14.420  0.2516E+01  0.2054E+02
     14.508  0.3975E+00  0.2058E+02
     14.597  0.1353E+01  0.2072E+02
     14.685  0.1613E+01  0.2088E+02
     14.773  0.2538E+01  0.2110E+02
     14.862  0.6502E+00  0.2117E+02
     14.950  0.5474E+00  0.2127E+02
     15.038  0.1976E+01  0.2148E+02
     15.127  0.1482E+01  0.2164E+02
     15.215  0.7103E+00  0.2173E+02
     15.303  0.5781E+00  0.2185E+02
     15.392  0.2224E+01  0.2208E+02
     15.480  0.6378E-01  0.2210E+02
     15.568  0.4364E+00  0.2216E+02
     15.657  0.9791E+00  0.2226E+02
     15.745  0.1504E+01  0.2240E+02
     15.833  0.1106E+01  0.2251E+02
     15.922  0.1573E+01  0.2265E+02
     16.010  0.1258E+01  0.2276E+02
     16.098  0.1284E+01  0.2288E+02
     16.187  0.6037E+00  0.2293E+02
     16.275  0.1424E+00  0.2295E+02
     16.363  0.7862E-01  0.2296E+02
     16.452  0.0000E+00  0.2296E+02
     16.540  0.3144E+00  0.2299E+02
     16.628  0.1258E+01  0.2310E+02
     16.717  0.8816E+00  0.2318E+02
     16.805  0.9435E+00  0.2327E+02
     16.893  0.8898E-11  0.2327E+02
     16.981  0.3145E+00  0.2329E+02
     17.070  0.4200E-01  0.2330E+02
     17.158  0.7258E+00  0.2337E+02
     17.246  0.6284E+00  0.2342E+02
     17.335  0.6286E+00  0.2348E+02
     17.423  0.5207E+00  0.2352E+02
     17.511  0.0000E+00  0.2353E+02
     17.600  0.0000E+00  0.2353E+02
     17.688  0.0000E+00  0.2353E+02
     17.776  0.3245E+00  0.2356E+02
     17.865  0.6141E+00  0.2362E+02
     17.953  0.0000E+00  0.2362E+02
     18.041  0.2173E+00  0.2363E+02
     18.130  0.1560E+00  0.2366E+02
     18.218  0.3145E+00  0.2370E+02
     18.306  0.6291E+00  0.2375E+02
     18.395  0.1046E+00  0.2376E+02
     18.483  0.3144E+00  0.2379E+02
     18.571  0.0000E+00  0.2379E+02
     18.660  0.0000E+00  0.2379E+02
     18.748  0.0000E+00  0.2379E+02
     18.836  0.3492E-16  0.2379E+02
     18.925  0.3145E+00  0.2382E+02
     19.013  0.0000E+00  0.2382E+02
     19.101  0.3144E+00  0.2385E+02
     19.189  0.6290E+00  0.2390E+02
     19.278  0.0000E+00  0.2390E+02
     19.366  0.0000E+00  0.2390E+02
     19.454  0.8737E-01  0.2391E+02
     19.543  0.0000E+00  0.2393E+02
     19.631  0.0000E+00  0.2393E+02
     19.719  0.0000E+00  0.2393E+02
     19.808  0.5820E-17  0.2393E+02
     19.896  0.1050E+00  0.2394E+02
     19.984  0.3143E+00  0.2397E+02
     20.073  0.0000E+00  0.2397E+02
     20.161  0.0000E+00  0.2397E+02
     20.249  0.3142E+00  0.2400E+02
     20.338  0.0000E+00  0.2400E+02
     20.426  0.0000E+00  0.2400E+02
     20.514  0.0000E+00  0.2400E+02
     20.603  0.0000E+00  0.2400E+02
     20.691  0.0000E+00  0.2400E+02
     20.779  0.0000E+00  0.2400E+02
     20.868  0.0000E+00  0.2400E+02
     20.956  0.0000E+00  0.2400E+02
     21.044  0.0000E+00  0.2400E+02
     21.133  0.0000E+00  0.2400E+02
     21.221  0.0000E+00  0.2400E+02
     21.309  0.0000E+00  0.2400E+02
     21.397  0.1461E-06  0.2400E+02
     21.486  0.5242E-01  0.2400E+02
     21.574  0.0000E+00  0.2400E+02
     21.662  0.0000E+00  0.2400E+02
     21.751  0.0000E+00  0.2400E+02
     21.839  0.0000E+00  0.2400E+02
     21.927  0.0000E+00  0.2400E+02
     22.016  0.0000E+00  0.2400E+02
     22.104  0.0000E+00  0.2400E+02
     22.192  0.0000E+00  0.2400E+02
     22.281  0.0000E+00  0.2400E+02
     22.369  0.0000E+00  0.2400E+02
     22.457  0.0000E+00  0.2400E+02
     22.546  0.0000E+00  0.2400E+02
     22.634  0.0000E+00  0.2400E+02
