    4    4    1    1
  0.1455556E+02  0.3875814E-09  0.3875814E-09  0.3875814E-09  0.5000000E-15
  1.000000000000000E-004
  CAR 
 unknown system                          
   12   84   12
 
  0.0000000E+00  0.0000000E+00  0.0000000E+00  0.5787037E-03
   1       -2.6578
   2        6.1447
   3        6.1447
   4        6.1447
   5        7.7200
   6        7.7200
   7        7.7200
   8       14.6533
   9       14.6533
  10       14.6533
  11       15.5897
  12       15.5897
 
  0.8333333E-01  0.0000000E+00  0.0000000E+00  0.3472222E-02
   1       -2.5894
   2        5.2538
   3        6.2063
   4        6.2063
   5        7.7829
   6        7.7829
   7        8.7258
   8       13.6091
   9       13.6091
  10       14.7209
  11       15.1635
  12       15.1635
 
  0.1666667E+00  0.0000000E+00  0.0000000E+00  0.3472222E-02
   1       -2.3845
   2        3.9721
   3        6.3910
   4        6.3910
   5        7.9695
   6        7.9695
   7       10.3521
   8       12.3300
   9       12.3300
  10       14.2528
  11       14.2528
  12       14.9236
 
  0.2500000E+00  0.0000000E+00  0.0000000E+00  0.3472222E-02
   1       -2.0438
   2        2.7528
   3        6.6991
   4        6.6991
   5        8.2714
   6        8.2714
   7       11.1552
   8       11.1552
   9       12.1449
  10       13.2483
  11       13.2483
  12       15.2611
 
  0.3333333E+00  0.0000000E+00  0.0000000E+00  0.3472222E-02
   1       -1.5683
   2        1.6409
   3        7.1309
   4        7.1309
   5        8.6665
   6        8.6665
   7       10.1014
   8       10.1014
   9       12.3094
  10       12.3094
  11       14.0581
  12       15.7326
 
  0.4166667E+00  0.0000000E+00  0.0000000E+00  0.3472222E-02
   1       -0.9597
   2        0.6480
   3        7.6867
   4        7.6867
   5        9.0864
   6        9.0864
   7        9.1717
   8        9.1717
   9       11.5517
  10       11.5517
  11       16.0769
  12       16.3367
 
  0.5000000E+00  0.0000000E+00  0.0000000E+00  0.1736111E-02
   1       -0.2200
   2       -0.2200
   3        8.3668
   4        8.3668
   5        8.3668
   6        8.3668
   7        9.3083
   8        9.3083
   9       11.2157
  10       11.2157
  11       17.0711
  12       17.0711
 
  0.8333333E-01  0.8333333E-01  0.0000000E+00  0.6944444E-02
   1       -2.5211
   2        5.3169
   3        5.3169
   4        6.2679
   5        7.8446
   6        8.7864
   7        8.7864
   8       12.7938
   9       13.6728
  10       13.6728
  11       15.2223
  12       15.2223
 
  0.1666667E+00  0.8333333E-01  0.0000000E+00  0.1388889E-01
   1       -2.3163
   2        4.0365
   3        5.5062
   4        6.4526
   5        8.0259
   6        8.9656
   7       10.4086
   8       11.5923
   9       12.3929
  10       13.8636
  11       14.3172
  12       15.0629
 
  0.2500000E+00  0.8333333E-01  0.0000000E+00  0.1388889E-01
   1       -1.9757
   2        2.8181
   3        5.8208
   4        6.7608
   5        8.3082
   6        9.2532
   7       10.4671
   8       11.2177
   9       12.1935
  10       13.3224
  11       14.0652
  12       14.1813
 
  0.3333333E+00  0.8333333E-01  0.0000000E+00  0.1388889E-01
   1       -1.5005
   2        1.7068
   3        6.2593
   4        7.1926
   5        8.5797
   6        9.5680
   7        9.6172
   8       10.1637
   9       12.4091
  10       13.1047
  11       14.0853
  12       14.6251
 
  0.4166667E+00  0.8333333E-01  0.0000000E+00  0.1388889E-01
   1       -0.8923
   2        0.7146
   3        6.8182
   4        7.7485
   5        8.2192
   6        9.2338
   7        9.4955
   8        9.9360
   9       11.7501
  10       12.2735
  11       15.1938
  12       15.9805
 
  0.5000000E+00  0.8333333E-01  0.0000000E+00  0.6944444E-02
   1       -0.1530
   2       -0.1530
   3        7.4878
   4        7.4878
   5        8.4288
   6        8.4288
   7        9.8747
   8        9.8747
   9       11.7078
  10       11.7078
  11       15.8858
  12       15.8858
 
  0.1666667E+00  0.1666667E+00  0.0000000E+00  0.6944444E-02
   1       -2.1118
   2        4.2294
   3        4.2294
   4        6.6375
   5        8.1809
   6       10.4484
   7       10.5731
   8       10.5731
   9       12.5814
  10       12.5814
  11       14.5130
  12       14.5130
 
  0.2500000E+00  0.1666667E+00  0.0000000E+00  0.1388889E-01
   1       -1.7719
   2        3.0137
   3        4.5502
   4        6.9459
   5        8.3199
   6        9.4791
   7       10.8208
   8       11.4053
   9       12.3236
  10       12.8954
  11       13.5574
  12       14.8542
 
  0.3333333E+00  0.1666667E+00  0.0000000E+00  0.1388889E-01
   1       -1.2974
   2        1.9045
   3        4.9972
   4        7.3780
   5        7.8812
   6        9.3050
   7       10.3506
   8       11.0480
   9       12.7759
  10       13.3347
  11       14.0874
  12       14.5818
 
  0.4166667E+00  0.1666667E+00  0.0000000E+00  0.1388889E-01
   1       -0.6902
   2        0.9140
   3        5.5680
   4        7.0499
   5        7.9342
   6        9.4203
   7        9.7450
   8       10.9026
   9       12.5709
  10       13.7246
  11       13.8988
  12       15.3879
 
  0.5000000E+00  0.1666667E+00  0.0000000E+00  0.6944444E-02
   1        0.0479
   2        0.0479
   3        6.2570
   4        6.2570
   5        8.6148
   6        8.6148
   7       10.3409
   8       10.3409
   9       13.0087
  10       13.0087
  11       14.5871
  12       14.5871
 
  0.2500000E+00  0.2500000E+00  0.0000000E+00  0.6944444E-02
   1       -1.4328
   2        3.3389
   3        3.3389
   4        7.2545
   5        7.7619
   6        9.2093
   7       11.7179
   8       11.7179
   9       12.4384
  10       12.4384
  11       14.0356
  12       14.0356
 
  0.3333333E+00  0.2500000E+00  0.0000000E+00  0.1388889E-01
   1       -0.9597
   2        2.2333
   3        3.7925
   4        6.8130
   5        7.6870
   6        9.5476
   7       10.6623
   8       12.1554
   9       12.1773
  10       13.6855
  11       13.7408
  12       15.1285
 
  0.4166667E+00  0.2500000E+00  0.0000000E+00  0.1388889E-01
   1       -0.3541
   2        1.2456
   3        4.3724
   4        5.8941
   5        8.2437
   6        9.7311
   7       10.0854
   8       11.4878
   9       12.7178
  10       14.0719
  11       14.2159
  12       14.4628
 
  0.5000000E+00  0.2500000E+00  0.0000000E+00  0.6944444E-02
   1        0.3819
   2        0.3819
   3        5.0751
   4        5.0751
   5        8.9250
   6        8.9250
   7       10.7475
   8       10.7475
   9       13.4048
  10       13.4048
  11       14.6698
  12       14.6698
 
  0.3333333E+00  0.3333333E+00  0.0000000E+00  0.6944444E-02
   1       -0.4884
   2        2.6919
   3        2.6919
   4        5.7710
   5        8.1201
   6        9.9778
   7       11.0987
   8       11.0987
   9       12.8725
  10       12.8725
  11       14.0917
  12       15.3840
 
  0.4166667E+00  0.3333333E+00  0.0000000E+00  0.1388889E-01
   1        0.1149
   2        1.7083
   3        3.2786
   4        4.8241
   5        8.6775
   6       10.1666
   7       10.5441
   8       11.6599
   9       12.0168
  10       13.1566
  11       13.5109
  12       15.0190
 
  0.5000000E+00  0.3333333E+00  0.0000000E+00  0.6944444E-02
   1        0.8480
   2        0.8480
   3        3.9907
   4        3.9907
   5        9.3595
   6        9.3595
   7       11.2294
   8       11.2294
   9       12.3459
  10       12.3459
  11       14.2188
  12       14.2188
 
  0.4166667E+00  0.4166667E+00  0.0000000E+00  0.6944444E-02
   1        0.7152
   2        2.3005
   3        2.3005
   4        3.8627
   5        9.2357
   6       10.7267
   7       10.7267
   8       11.1227
   9       12.2217
  10       12.6183
  11       12.6183
  12       14.1218
 
  0.5000000E+00  0.4166667E+00  0.0000000E+00  0.6944444E-02
   1        1.4446
   2        1.4446
   3        3.0197
   4        3.0197
   5        9.9187
   6        9.9187
   7       11.4117
   8       11.4117
   9       11.8170
  10       11.8170
  11       13.3191
  12       13.3191
 
  0.5000000E+00  0.5000000E+00  0.0000000E+00  0.1736111E-02
   1        2.1696
   2        2.1696
   3        2.1696
   4        2.1696
   5       10.6027
   6       10.6027
   7       10.6027
   8       10.6027
   9       12.5149
  10       12.5149
  11       12.5149
  12       12.5149
 
  0.8333333E-01  0.8333333E-01  0.8333333E-01  0.4629630E-02
   1       -2.4528
   2        5.3800
   3        5.3800
   4        5.3800
   5        8.8453
   6        8.8453
   7        8.8453
   8       12.8585
   9       12.8585
  10       12.8585
  11       15.7600
  12       15.7600
 
  0.1666667E+00  0.8333333E-01  0.8333333E-01  0.1388889E-01
   1       -2.2481
   2        4.1008
   3        5.5690
   4        5.5690
   5        9.0161
   6        9.0161
   7       10.4604
   8       11.6620
   9       11.6620
  10       13.0547
  11       15.1239
  12       15.1239
 
  0.2500000E+00  0.8333333E-01  0.8333333E-01  0.1388889E-01
   1       -1.9077
   2        2.8834
   3        5.8830
   4        5.8830
   5        9.2609
   6        9.2609
   7       10.5651
   8       10.5651
   9       12.2176
  10       13.4000
  11       14.1321
  12       14.1321
 
  0.3333333E+00  0.8333333E-01  0.8333333E-01  0.1388889E-01
   1       -1.4328
   2        1.7728
   3        6.3194
   4        6.3194
   5        9.1759
   6        9.1759
   7       10.0071
   8       10.0071
   9       13.1834
  10       13.1834
  11       13.6574
  12       14.3041
 
  0.4166667E+00  0.8333333E-01  0.8333333E-01  0.1388889E-01
   1       -0.8249
   2        0.7811
   3        6.8695
   4        6.8695
   5        8.4011
   6        8.4011
   7       10.3145
   8       10.3145
   9       12.3931
  10       12.3931
  11       14.3082
  12       15.8175
 
  0.5000000E+00  0.8333333E-01  0.8333333E-01  0.6944444E-02
   1       -0.0860
   2       -0.0860
   3        7.3717
   4        7.3717
   5        7.7934
   6        7.7934
   7       10.5589
   8       10.5589
   9       12.0163
  10       12.0163
  11       15.0072
  12       15.0072
 
  0.1666667E+00  0.1666667E+00  0.8333333E-01  0.1388889E-01
   1       -2.0438
   2        4.2936
   3        4.2936
   4        5.7570
   5        9.1341
   6       10.5533
   7       10.5910
   8       10.5910
   9       11.8905
  10       11.8905
  11       15.3077
  12       15.3077
 
  0.2500000E+00  0.1666667E+00  0.8333333E-01  0.2777778E-01
   1       -1.7040
   2        3.0788
   3        4.6139
   4        6.0680
   5        8.9493
   6        9.9045
   7       10.4278
   8       11.1806
   9       11.9307
  10       12.6396
  11       14.3370
  12       15.5648
 
  0.3333333E+00  0.1666667E+00  0.8333333E-01  0.2777778E-01
   1       -1.2298
   2        1.9703
   3        5.0600
   4        6.4928
   5        8.1014
   6        9.5220
   7       10.1436
   8       11.3819
   9       12.5040
  10       13.4438
  11       14.3727
  12       14.6481
 
  0.4166667E+00  0.1666667E+00  0.8333333E-01  0.2777778E-01
   1       -0.6229
   2        0.9804
   3        5.6279
   4        6.8814
   5        7.3732
   6        8.6156
   7       10.6379
   8       11.5572
   9       12.9005
  10       13.0888
  11       13.8020
  12       14.5932
 
  0.5000000E+00  0.1666667E+00  0.8333333E-01  0.1388889E-01
   1        0.1148
   2        0.1148
   3        6.3046
   4        6.3046
   5        7.8277
   6        7.8277
   7       11.2026
   8       11.2026
   9       13.1274
  10       13.1274
  11       13.7825
  12       13.7825
 
  0.2500000E+00  0.2500000E+00  0.8333333E-01  0.1388889E-01
   1       -1.3651
   2        3.4038
   3        3.4038
   4        6.3669
   5        7.9897
   6       10.0471
   7       10.8949
   8       10.8949
   9       12.7487
  10       12.7487
  11       14.7065
  12       14.7065
 
  0.3333333E+00  0.2500000E+00  0.8333333E-01  0.2777778E-01
   1       -0.8923
   2        2.2989
   3        3.8568
   4        6.6327
   5        7.1401
   6        9.8637
   7       10.4521
   8       11.3598
   9       12.8212
  10       14.0656
  11       14.3391
  12       14.3666
 
  0.4166667E+00  0.2500000E+00  0.8333333E-01  0.2777778E-01
   1       -0.2870
   2        1.3118
   3        4.4356
   4        5.9411
   5        7.4606
   6        8.9370
   7       10.9958
   8       11.9327
   9       12.3438
  10       13.4363
  11       14.1851
  12       15.3167
 
  0.5000000E+00  0.2500000E+00  0.8333333E-01  0.1388889E-01
   1        0.4486
   2        0.4486
   3        5.1353
   4        5.1353
   5        8.1309
   6        8.1309
   7       11.6460
   8       11.6460
   9       12.6244
  10       12.6244
  11       14.7448
  12       14.7448
 
  0.3333333E+00  0.3333333E+00  0.8333333E-01  0.1388889E-01
   1       -0.4212
   2        2.7571
   3        2.7571
   4        5.8180
   5        7.3367
   6       10.3127
   7       10.3127
   8       10.8925
   9       13.3182
  10       13.7233
  11       13.7233
  12       15.4859
 
  0.4166667E+00  0.3333333E+00  0.8333333E-01  0.2777778E-01
   1        0.1817
   2        1.7742
   3        3.3433
   4        4.8846
   5        7.8835
   6        9.3802
   7       10.8817
   8       11.4551
   9       12.3856
  10       12.9039
  11       14.3879
  12       15.8929
 
  0.5000000E+00  0.3333333E+00  0.8333333E-01  0.1388889E-01
   1        0.9145
   2        0.9145
   3        4.0543
   4        4.0543
   5        8.5688
   6        8.5688
   7       11.5728
   8       11.5728
   9       12.1312
  10       12.1312
  11       15.0955
  12       15.0955
 
  0.4166667E+00  0.4166667E+00  0.8333333E-01  0.1388889E-01
   1        0.7817
   2        2.3660
   3        2.3660
   4        3.9264
   5        8.4450
   6        9.9472
   7        9.9472
   8       11.4515
   9       12.0281
  10       13.5060
  11       13.5060
  12       14.9992
 
  0.5000000E+00  0.4166667E+00  0.8333333E-01  0.1388889E-01
   1        1.5107
   2        1.5107
   3        3.0846
   4        3.0846
   5        9.1340
   6        9.1340
   7       10.6380
   8       10.6380
   9       12.7140
  10       12.7140
  11       14.2018
  12       14.2018
 
  0.5000000E+00  0.5000000E+00  0.8333333E-01  0.3472222E-02
   1        2.2352
   2        2.2352
   3        2.2352
   4        2.2352
   5        9.8243
   6        9.8243
   7        9.8243
   8        9.8243
   9       13.4048
  10       13.4048
  11       13.4048
  12       13.4048
 
  0.1666667E+00  0.1666667E+00  0.1666667E+00  0.4629630E-02
   1       -1.8398
   2        4.4856
   3        4.4856
   4        4.4856
   5       10.3237
   6       10.3237
   7       10.3237
   8       11.1667
   9       11.1667
  10       11.1667
  11       16.2716
  12       16.2717
 
  0.2500000E+00  0.1666667E+00  0.1666667E+00  0.1388889E-01
   1       -1.5005
   2        3.2738
   3        4.8043
   4        4.8043
   5        9.3473
   6        9.3473
   7       10.8337
   8       11.2991
   9       11.2991
  10       12.7521
  11       15.3620
  12       15.7430
 
  0.3333333E+00  0.1666667E+00  0.1666667E+00  0.1388889E-01
   1       -1.0272
   2        2.1675
   3        5.2462
   4        5.2462
   5        8.3301
   6        8.3301
   7       11.3087
   8       11.6770
   9       11.6770
  10       14.3211
  11       14.6131
  12       14.8514
 
  0.4166667E+00  0.1666667E+00  0.1666667E+00  0.1388889E-01
   1       -0.4212
   2        1.1794
   3        5.7982
   4        5.7982
   5        7.4207
   6        7.4207
   7       11.8858
   8       12.1374
   9       12.1374
  10       13.3919
  11       14.0592
  12       14.0592
 
  0.5000000E+00  0.1666667E+00  0.1666667E+00  0.6944444E-02
   1        0.3152
   2        0.3152
   3        6.2673
   4        6.2673
   5        6.8313
   6        6.8313
   7       12.4281
   8       12.4281
   9       12.5795
  10       12.5795
  11       13.6556
  12       13.6556
 
  0.2500000E+00  0.2500000E+00  0.1666667E+00  0.1388889E-01
   1       -1.1622
   2        3.5978
   3        3.5978
   4        5.1186
   5        8.2214
   6        9.7027
   7        9.7027
   8       11.5967
   9       13.0252
  10       13.0252
  11       14.2172
  12       16.0531
 
  0.3333333E+00  0.2500000E+00  0.1666667E+00  0.2777778E-01
   1       -0.6902
   2        2.4954
   3        4.0490
   4        5.5441
   5        7.1910
   6        8.6574
   7       10.1579
   8       12.0204
   9       13.1720
  10       13.3743
  11       14.8694
  12       15.2188
 
  0.4166667E+00  0.2500000E+00  0.1666667E+00  0.2777778E-01
   1       -0.0859
   2        1.5102
   3        4.6234
   4        5.8934
   5        6.4700
   6        7.7251
   7       10.7310
   8       12.2395
   9       12.5518
  10       13.5631
  11       14.7007
  12       15.6720
 
  0.5000000E+00  0.2500000E+00  0.1666667E+00  0.1388889E-01
   1        0.6485
   2        0.6485
   3        5.3062
   4        5.3062
   5        6.9275
   6        6.9275
   7       11.4250
   8       11.4250
   9       13.1468
  10       13.1468
  11       14.9933
  12       14.9933
 
  0.3333333E+00  0.3333333E+00  0.1666667E+00  0.1388889E-01
   1       -0.2199
   2        2.9526
   3        2.9526
   4        5.7685
   5        6.3464
   6        9.1051
   7        9.1051
   8       12.1231
   9       12.4663
  10       14.9508
  11       14.9508
  12       15.9552
 
  0.4166667E+00  0.3333333E+00  0.1666667E+00  0.2777778E-01
   1        0.3821
   2        1.9718
   3        3.5367
   4        5.0563
   5        6.6763
   6        8.1665
   7        9.6763
   8       11.1875
   9       13.0217
  10       14.3971
  11       15.8684
  12       16.1742
 
  0.5000000E+00  0.3333333E+00  0.1666667E+00  0.1388889E-01
   1        1.1136
   2        1.1136
   3        4.2431
   4        4.2431
   5        7.3515
   6        7.3515
   7       10.3710
   8       10.3710
   9       13.6780
  10       13.6780
  11       16.5975
  12       16.5975
 
  0.4166667E+00  0.4166667E+00  0.1666667E+00  0.1388889E-01
   1        0.9810
   2        2.5622
   3        2.5622
   4        4.1156
   5        7.2259
   6        8.7362
   7        8.7362
   8       10.2495
   9       13.5910
  10       15.0358
  11       15.0358
  12       16.5162
 
  0.5000000E+00  0.4166667E+00  0.1666667E+00  0.1388889E-01
   1        1.7088
   2        1.7088
   3        3.2786
   4        3.2786
   5        7.9174
   6        7.9174
   7        9.4314
   8        9.4314
   9       14.2654
  10       14.2654
  11       15.7309
  12       15.7309
 
  0.5000000E+00  0.5000000E+00  0.1666667E+00  0.3472222E-02
   1        2.4317
   2        2.4317
   3        2.4317
   4        2.4317
   5        8.6122
   6        8.6122
   7        8.6122
   8        8.6122
   9       14.9488
  10       14.9488
  11       14.9488
  12       14.9488
 
  0.2500000E+00  0.2500000E+00  0.2500000E+00  0.4629630E-02
   1       -0.8249
   2        3.9198
   3        3.9198
   4        3.9198
   5        8.5500
   6        8.5500
   7        8.5500
   8       13.0695
   9       13.3518
  10       13.3518
  11       13.3518
  12       17.1265
 
  0.3333333E+00  0.2500000E+00  0.2500000E+00  0.1388889E-01
   1       -0.3540
   2        2.8220
   3        4.3663
   4        4.3663
   5        7.4962
   6        7.4962
   7        8.9988
   8       12.0205
   9       13.7697
  10       13.7697
  11       15.2305
  12       16.7538
 
  0.4166667E+00  0.2500000E+00  0.2500000E+00  0.1388889E-01
   1        0.2486
   2        1.8401
   3        4.9235
   4        4.9235
   5        6.5709
   6        6.5709
   7        9.5712
   8       11.0844
   9       14.2521
  10       14.2521
  11       16.0307
  12       16.0307
 
  0.5000000E+00  0.2500000E+00  0.2500000E+00  0.6944444E-02
   1        0.9809
   2        0.9809
   3        5.3942
   4        5.3942
   5        5.9770
   6        5.9770
   7       10.2669
   8       10.2669
   9       14.5676
  10       14.5676
  11       15.6206
  12       15.6206
 
  0.3333333E+00  0.3333333E+00  0.2500000E+00  0.1388889E-01
   1        0.1149
   2        3.2769
   3        3.2769
   4        4.7956
   5        6.4489
   6        7.9390
   7        7.9390
   8       10.9676
   9       14.2218
  10       15.6145
  11       15.6145
  12       17.2027
 
  0.4166667E+00  0.3333333E+00  0.2500000E+00  0.2777778E-01
   1        0.7152
   2        2.3001
   3        3.8561
   4        5.1440
   5        5.7233
   6        6.9967
   7        8.5105
   8       10.0279
   9       14.7633
  10       15.8225
  11       16.7533
  12       17.3118
 
  0.5000000E+00  0.3333333E+00  0.2500000E+00  0.1388889E-01
   1        1.4446
   2        1.4446
   3        4.5453
   4        4.5453
   5        6.1909
   6        6.1909
   7        9.2077
   8        9.2077
   9       15.3696
  10       15.3696
  11       17.0854
  12       17.0854
 
  0.4166667E+00  0.4166667E+00  0.2500000E+00  0.1388889E-01
   1        1.3125
   2        2.8879
   3        2.8879
   4        4.4185
   5        6.0633
   6        7.5652
   7        7.5652
   8        9.0852
   9       15.3323
  10       16.7074
  11       16.7074
  12       18.1789
 
  0.5000000E+00  0.4166667E+00  0.2500000E+00  0.1388889E-01
   1        2.0379
   2        2.0379
   3        3.5991
   4        3.5991
   5        6.7441
   6        6.7441
   7        8.2629
   8        8.2629
   9       15.9880
  10       15.9880
  11       17.4164
  12       17.4164
 
  0.5000000E+00  0.5000000E+00  0.2500000E+00  0.3472222E-02
   1        2.7578
   2        2.7578
   3        2.7578
   4        2.7578
   5        7.4397
   6        7.4397
   7        7.4397
   8        7.4397
   9       16.6635
  10       16.6635
  11       16.6635
  12       16.6635
 
  0.3333333E+00  0.3333333E+00  0.3333333E+00  0.4629630E-02
   1        0.5821
   2        3.7267
   3        3.7267
   4        3.7267
   5        6.8753
   6        6.8753
   7        6.8753
   8        9.9102
   9       16.0913
  10       16.0913
  11       16.0913
  12       18.3264
 
  0.4166667E+00  0.3333333E+00  0.3333333E+00  0.1388889E-01
   1        1.1801
   2        2.7574
   3        4.2890
   4        4.2890
   5        5.9416
   6        5.9416
   7        7.4446
   8        8.9666
   9       16.5956
  10       16.5956
  11       18.0378
  12       18.1297
 
  0.5000000E+00  0.3333333E+00  0.3333333E+00  0.6944444E-02
   1        1.9063
   2        1.9063
   3        4.7686
   4        4.7686
   5        5.3377
   6        5.3377
   7        8.1433
   8        8.1433
   9       16.9395
  10       16.9395
  11       17.7611
  12       17.7611
 
  0.4166667E+00  0.4166667E+00  0.3333333E+00  0.1388889E-01
   1        1.7747
   2        3.3399
   3        3.3399
   4        4.6434
   5        5.2077
   6        6.4968
   7        6.4968
   8        8.0196
   9       17.1783
  10       18.2815
  11       18.2815
  12       18.8944
 
  0.5000000E+00  0.4166667E+00  0.3333333E+00  0.1388889E-01
   1        2.4964
   2        2.4964
   3        4.0340
   4        4.0340
   5        5.6852
   6        5.6852
   7        7.1943
   8        7.1943
   9       17.7904
  10       17.7904
  11       19.1331
  12       19.1331
 
  0.5000000E+00  0.5000000E+00  0.3333333E+00  0.3472222E-02
   1        3.2105
   2        3.2105
   3        3.2105
   4        3.2105
   5        6.3698
   6        6.3698
   7        6.3698
   8        6.3698
   9       18.4587
  10       18.4587
  11       18.4587
  12       18.4587
 
  0.4166667E+00  0.4166667E+00  0.4166667E+00  0.4629630E-02
   1        2.3655
   2        3.9056
   3        3.9056
   4        3.9056
   5        5.5580
   6        5.5580
   7        5.5580
   8        7.0694
   9       19.0769
  10       19.0769
  11       19.0769
  12       19.8664
 
  0.5000000E+00  0.4166667E+00  0.4166667E+00  0.6944444E-02
   1        3.0806
   2        3.0806
   3        4.3929
   4        4.3929
   5        4.9459
   6        4.9459
   7        6.2438
   8        6.2438
   9       19.4586
  10       19.4586
  11       19.9188
  12       19.9188
 
  0.5000000E+00  0.5000000E+00  0.4166667E+00  0.3472222E-02
   1        3.7774
   2        3.7774
   3        3.7774
   4        3.7774
   5        5.4293
   6        5.4293
   7        5.4293
   8        5.4293
   9       20.2277
  10       20.2277
  11       20.2277
  12       20.2277
 
  0.5000000E+00  0.5000000E+00  0.5000000E+00  0.5787037E-03
   1        4.2677
   2        4.2677
   3        4.2677
   4        4.2677
   5        4.8141
   6        4.8141
   7        4.8141
   8        4.8141
   9       21.4296
  10       21.4296
  11       21.4296
  12       21.4296
