   4   4   0   0
  0.2210809E+02  0.4455233E-09  0.4455233E-09  0.4455233E-09  0.5000000E-15
  1.000000000000000E-004
  CAR 
 unknown system                          
     17.50810432     -5.58467474  301      1.58389037      1.00000000
     -5.585  0.0000E+00  0.0000E+00
     -5.508  0.0000E+00  0.0000E+00
     -5.431  0.0000E+00  0.0000E+00
     -5.354  0.0000E+00  0.0000E+00
     -5.277  0.0000E+00  0.0000E+00
     -5.200  0.0000E+00  0.0000E+00
     -5.123  0.0000E+00  0.0000E+00
     -5.046  0.0000E+00  0.0000E+00
     -4.969  0.0000E+00  0.0000E+00
     -4.892  0.0000E+00  0.0000E+00
     -4.815  0.0000E+00  0.0000E+00
     -4.738  0.0000E+00  0.0000E+00
     -4.661  0.0000E+00  0.0000E+00
     -4.584  0.1199E-14  0.9232E-16
     -4.507  0.2026E-01  0.1559E-02
     -4.430  0.1253E+00  0.1125E-01
     -4.353  0.2005E+00  0.2676E-01
     -4.276  0.2337E+00  0.4515E-01
     -4.199  0.2966E+00  0.6808E-01
     -4.122  0.3239E+00  0.9333E-01
     -4.045  0.4067E+00  0.1247E+00
     -3.968  0.4253E+00  0.1582E+00
     -3.891  0.4386E+00  0.1927E+00
     -3.814  0.5226E+00  0.2338E+00
     -3.737  0.6037E+00  0.2814E+00
     -3.660  0.6076E+00  0.3290E+00
     -3.583  0.7650E+00  0.3889E+00
     -3.506  0.1514E+01  0.5076E+00
     -3.429  0.6304E+01  0.9968E+00
     -3.352  0.1117E+02  0.1870E+01
     -3.275  0.1419E+02  0.2984E+01
     -3.198  0.1929E+02  0.4492E+01
     -3.121  0.2226E+02  0.6247E+01
     -3.044  0.1880E+02  0.7724E+01
     -2.967  0.1619E+02  0.8997E+01
     -2.891  0.1284E+02  0.1001E+02
     -2.814  0.1341E+02  0.1106E+02
     -2.737  0.1564E+02  0.1229E+02
     -2.660  0.1893E+02  0.1378E+02
     -2.583  0.1608E+02  0.1505E+02
     -2.506  0.1573E+02  0.1628E+02
     -2.429  0.1903E+02  0.1777E+02
     -2.352  0.2659E+02  0.1985E+02
     -2.275  0.2454E+02  0.2179E+02
     -2.198  0.1737E+02  0.2316E+02
     -2.121  0.1462E+02  0.2431E+02
     -2.044  0.1786E+02  0.2571E+02
     -1.967  0.1985E+02  0.2727E+02
     -1.890  0.1976E+02  0.2882E+02
     -1.813  0.2169E+02  0.3053E+02
     -1.736  0.1791E+02  0.3193E+02
     -1.659  0.1669E+02  0.3325E+02
     -1.582  0.1697E+02  0.3458E+02
     -1.505  0.1797E+02  0.3599E+02
     -1.428  0.2369E+02  0.3785E+02
     -1.351  0.2688E+02  0.3997E+02
     -1.274  0.1238E+02  0.4095E+02
     -1.197  0.2454E+01  0.4116E+02
     -1.120  0.8974E+00  0.4123E+02
     -1.043  0.9160E+00  0.4130E+02
     -0.966  0.1042E+01  0.4138E+02
     -0.889  0.7838E+00  0.4144E+02
     -0.812  0.1074E+01  0.4153E+02
     -0.735  0.7915E+00  0.4159E+02
     -0.658  0.1029E+01  0.4167E+02
     -0.581  0.8937E+00  0.4174E+02
     -0.504  0.9364E+00  0.4181E+02
     -0.427  0.8884E+00  0.4188E+02
     -0.350  0.9028E+00  0.4195E+02
     -0.273  0.1021E+01  0.4203E+02
     -0.196  0.8545E+00  0.4210E+02
     -0.119  0.1037E+01  0.4218E+02
     -0.042  0.9219E+00  0.4225E+02
      0.035  0.9333E+00  0.4233E+02
      0.112  0.9934E+00  0.4241E+02
      0.189  0.9521E+00  0.4248E+02
      0.265  0.1010E+01  0.4256E+02
      0.342  0.1113E+01  0.4265E+02
      0.419  0.8354E+00  0.4271E+02
      0.496  0.1102E+01  0.4280E+02
      0.573  0.1028E+01  0.4288E+02
      0.650  0.1008E+01  0.4296E+02
      0.727  0.1027E+01  0.4304E+02
      0.804  0.1048E+01  0.4312E+02
      0.881  0.1041E+01  0.4320E+02
      0.958  0.1173E+01  0.4329E+02
      1.035  0.9765E+00  0.4337E+02
      1.112  0.1045E+01  0.4345E+02
      1.189  0.1157E+01  0.4354E+02
      1.266  0.1151E+01  0.4364E+02
      1.343  0.9740E+00  0.4371E+02
      1.420  0.1311E+01  0.4382E+02
      1.497  0.1005E+01  0.4390E+02
      1.574  0.1190E+01  0.4399E+02
      1.651  0.1212E+01  0.4408E+02
      1.728  0.1289E+01  0.4418E+02
      1.805  0.1136E+01  0.4427E+02
      1.882  0.1354E+01  0.4438E+02
      1.959  0.1314E+01  0.4448E+02
      2.036  0.1197E+01  0.4458E+02
      2.113  0.1249E+01  0.4467E+02
      2.190  0.1192E+01  0.4477E+02
      2.267  0.1320E+01  0.4487E+02
      2.344  0.1178E+01  0.4496E+02
      2.421  0.1252E+01  0.4506E+02
      2.498  0.1242E+01  0.4516E+02
      2.575  0.1196E+01  0.4525E+02
      2.652  0.1091E+01  0.4534E+02
      2.729  0.1253E+01  0.4544E+02
      2.806  0.1188E+01  0.4553E+02
      2.883  0.1023E+01  0.4562E+02
      2.960  0.1288E+01  0.4572E+02
      3.037  0.1211E+01  0.4581E+02
      3.114  0.1102E+01  0.4590E+02
      3.191  0.1135E+01  0.4599E+02
      3.268  0.1085E+01  0.4607E+02
      3.345  0.1166E+01  0.4617E+02
      3.422  0.1164E+01  0.4626E+02
      3.498  0.1229E+01  0.4635E+02
      3.575  0.1073E+01  0.4644E+02
      3.652  0.1192E+01  0.4653E+02
      3.729  0.9776E+00  0.4661E+02
      3.806  0.1024E+01  0.4669E+02
      3.883  0.1121E+01  0.4678E+02
      3.960  0.1222E+01  0.4687E+02
      4.037  0.1251E+01  0.4697E+02
      4.114  0.1434E+01  0.4708E+02
      4.191  0.1550E+01  0.4721E+02
      4.268  0.1484E+01  0.4732E+02
      4.345  0.1450E+01  0.4744E+02
      4.422  0.1612E+01  0.4756E+02
      4.499  0.1450E+01  0.4768E+02
      4.576  0.1579E+01  0.4780E+02
      4.653  0.1421E+01  0.4791E+02
      4.730  0.1498E+01  0.4803E+02
      4.807  0.1533E+01  0.4815E+02
      4.884  0.1360E+01  0.4826E+02
      4.961  0.1295E+01  0.4836E+02
      5.038  0.1694E+01  0.4849E+02
      5.115  0.1218E+01  0.4859E+02
      5.192  0.1517E+01  0.4871E+02
      5.269  0.1368E+01  0.4882E+02
      5.346  0.1372E+01  0.4892E+02
      5.423  0.1384E+01  0.4903E+02
      5.500  0.1237E+01  0.4913E+02
      5.577  0.1436E+01  0.4924E+02
      5.654  0.1282E+01  0.4934E+02
      5.731  0.1310E+01  0.4945E+02
      5.808  0.1397E+01  0.4955E+02
      5.885  0.1169E+01  0.4965E+02
      5.962  0.1459E+01  0.4976E+02
      6.039  0.1183E+01  0.4985E+02
      6.116  0.1273E+01  0.4995E+02
      6.193  0.1420E+01  0.5006E+02
      6.270  0.1186E+01  0.5016E+02
      6.347  0.1339E+01  0.5026E+02
      6.424  0.1333E+01  0.5037E+02
      6.501  0.1200E+01  0.5046E+02
      6.578  0.1664E+01  0.5059E+02
      6.654  0.2018E+01  0.5075E+02
      6.731  0.1935E+01  0.5090E+02
      6.808  0.1575E+01  0.5103E+02
      6.885  0.1606E+01  0.5115E+02
      6.962  0.1849E+01  0.5130E+02
      7.039  0.1180E+01  0.5140E+02
      7.116  0.1280E+01  0.5150E+02
      7.193  0.1523E+01  0.5162E+02
      7.270  0.1736E+01  0.5175E+02
      7.347  0.1758E+01  0.5189E+02
      7.424  0.1570E+01  0.5201E+02
      7.501  0.1651E+01  0.5214E+02
      7.578  0.2141E+01  0.5231E+02
      7.655  0.1968E+01  0.5247E+02
      7.732  0.1865E+01  0.5261E+02
      7.809  0.1565E+01  0.5274E+02
      7.886  0.1621E+01  0.5287E+02
      7.963  0.1844E+01  0.5301E+02
      8.040  0.2282E+01  0.5319E+02
      8.117  0.1854E+01  0.5333E+02
      8.194  0.1392E+01  0.5344E+02
      8.271  0.1737E+01  0.5358E+02
      8.348  0.1670E+01  0.5371E+02
      8.425  0.1902E+01  0.5386E+02
      8.502  0.2176E+01  0.5403E+02
      8.579  0.1627E+01  0.5416E+02
      8.656  0.1549E+01  0.5429E+02
      8.733  0.2005E+01  0.5444E+02
      8.810  0.1801E+01  0.5459E+02
      8.887  0.1832E+01  0.5473E+02
      8.964  0.2062E+01  0.5489E+02
      9.041  0.1818E+01  0.5504E+02
      9.118  0.1873E+01  0.5518E+02
      9.195  0.1989E+01  0.5534E+02
      9.272  0.1748E+01  0.5548E+02
      9.349  0.1926E+01  0.5563E+02
      9.426  0.1938E+01  0.5578E+02
      9.503  0.2141E+01  0.5595E+02
      9.580  0.2122E+01  0.5611E+02
      9.657  0.1951E+01  0.5627E+02
      9.734  0.1833E+01  0.5641E+02
      9.811  0.2063E+01  0.5657E+02
      9.887  0.1871E+01  0.5672E+02
      9.964  0.2119E+01  0.5689E+02
     10.041  0.2309E+01  0.5707E+02
     10.118  0.1998E+01  0.5723E+02
     10.195  0.2020E+01  0.5738E+02
     10.272  0.2100E+01  0.5755E+02
     10.349  0.2082E+01  0.5771E+02
     10.426  0.2084E+01  0.5787E+02
     10.503  0.2433E+01  0.5807E+02
     10.580  0.2192E+01  0.5824E+02
     10.657  0.2240E+01  0.5841E+02
     10.734  0.2120E+01  0.5858E+02
     10.811  0.2084E+01  0.5874E+02
     10.888  0.2363E+01  0.5893E+02
     10.965  0.2592E+01  0.5913E+02
     11.042  0.2350E+01  0.5932E+02
     11.119  0.2525E+01  0.5952E+02
     11.196  0.2241E+01  0.5969E+02
     11.273  0.2072E+01  0.5986E+02
     11.350  0.2279E+01  0.6004E+02
     11.427  0.2263E+01  0.6022E+02
     11.504  0.2072E+01  0.6038E+02
     11.581  0.2196E+01  0.6055E+02
     11.658  0.2138E+01  0.6072E+02
     11.735  0.2040E+01  0.6089E+02
     11.812  0.1913E+01  0.6104E+02
     11.889  0.2040E+01  0.6119E+02
     11.966  0.2032E+01  0.6135E+02
     12.043  0.1866E+01  0.6150E+02
     12.120  0.1712E+01  0.6163E+02
     12.197  0.1638E+01  0.6176E+02
     12.274  0.1779E+01  0.6190E+02
     12.351  0.1404E+01  0.6201E+02
     12.428  0.1378E+01  0.6212E+02
     12.505  0.1196E+01  0.6222E+02
     12.582  0.1217E+01  0.6232E+02
     12.659  0.1214E+01  0.6241E+02
     12.736  0.8262E+00  0.6248E+02
     12.813  0.1105E+01  0.6256E+02
     12.890  0.1086E+01  0.6265E+02
     12.967  0.9069E+00  0.6272E+02
     13.044  0.9776E+00  0.6279E+02
     13.120  0.7873E+00  0.6286E+02
     13.197  0.7704E+00  0.6292E+02
     13.274  0.9140E+00  0.6299E+02
     13.351  0.6483E+00  0.6304E+02
     13.428  0.6165E+00  0.6309E+02
     13.505  0.8519E+00  0.6315E+02
     13.582  0.5631E+00  0.6320E+02
     13.659  0.4684E+00  0.6323E+02
     13.736  0.7408E+00  0.6329E+02
     13.813  0.4588E+00  0.6333E+02
     13.890  0.4685E+00  0.6336E+02
     13.967  0.6297E+00  0.6341E+02
     14.044  0.3999E+00  0.6344E+02
     14.121  0.3134E+00  0.6347E+02
     14.198  0.5142E+00  0.6351E+02
     14.275  0.4099E+00  0.6354E+02
     14.352  0.4016E+00  0.6357E+02
     14.429  0.3167E+00  0.6360E+02
     14.506  0.4351E+00  0.6363E+02
     14.583  0.2347E+00  0.6365E+02
     14.660  0.3797E+00  0.6368E+02
     14.737  0.2824E+00  0.6370E+02
     14.814  0.2481E+00  0.6372E+02
     14.891  0.3192E+00  0.6375E+02
     14.968  0.2751E+00  0.6377E+02
     15.045  0.1902E+00  0.6378E+02
     15.122  0.2813E+00  0.6381E+02
     15.199  0.1846E+00  0.6382E+02
     15.276  0.2277E+00  0.6384E+02
     15.353  0.2381E+00  0.6386E+02
     15.430  0.1814E+00  0.6387E+02
     15.507  0.1439E+00  0.6388E+02
     15.584  0.1842E+00  0.6390E+02
     15.661  0.1184E+00  0.6391E+02
     15.738  0.1784E+00  0.6392E+02
     15.815  0.1804E+00  0.6393E+02
     15.892  0.6251E-01  0.6394E+02
     15.969  0.1633E+00  0.6395E+02
     16.046  0.1195E+00  0.6396E+02
     16.123  0.8037E-01  0.6397E+02
     16.200  0.1108E+00  0.6398E+02
     16.276  0.1120E+00  0.6399E+02
     16.353  0.7815E-01  0.6399E+02
     16.430  0.9090E-01  0.6400E+02
     16.507  0.4455E-02  0.6400E+02
     16.584  0.0000E+00  0.6400E+02
     16.661  0.0000E+00  0.6400E+02
     16.738  0.0000E+00  0.6400E+02
     16.815  0.0000E+00  0.6400E+02
     16.892  0.0000E+00  0.6400E+02
     16.969  0.0000E+00  0.6400E+02
     17.046  0.0000E+00  0.6400E+02
     17.123  0.0000E+00  0.6400E+02
     17.200  0.0000E+00  0.6400E+02
     17.277  0.0000E+00  0.6400E+02
     17.354  0.0000E+00  0.6400E+02
     17.431  0.0000E+00  0.6400E+02
     17.508  0.0000E+00  0.6400E+02
