    4    4    1    1
  0.2210809E+02  0.4455233E-09  0.4455233E-09  0.4455233E-09  0.5000000E-15
  1.000000000000000E-004
  CAR 
 unknown system                          
   44 1330   32
 
  0.0000000E+00  0.0000000E+00  0.0000000E+00  0.2143347E-04
   1       -4.5350
   2       -3.5397
   3       -3.5397
   4       -3.5397
   5       -3.4813
   6       -3.4813
   7       -3.4813
   8       -2.5395
   9       -2.5395
  10       -2.5395
  11       -1.8930
  12       -1.8930
  13       -1.4134
  14       -1.4134
  15       -1.4134
  16       -1.2609
  17       -1.2609
  18       -1.2609
  19       -1.2609
  20       -1.2609
  21       -1.2609
  22        3.3600
  23        3.3600
  24        3.3600
  25        6.4966
  26        6.4966
  27        6.4966
  28       10.9963
  29       10.9963
  30       10.9963
  31       10.9963
  32       10.9963
 
  0.2777778E-01  0.0000000E+00  0.0000000E+00  0.1286008E-03
   1       -4.5284
   2       -3.5374
   3       -3.5368
   4       -3.5368
   5       -3.4796
   6       -3.4787
   7       -3.4787
   8       -2.5415
   9       -2.5376
  10       -2.5376
  11       -1.8950
  12       -1.8922
  13       -1.4159
  14       -1.4159
  15       -1.4144
  16       -1.2691
  17       -1.2691
  18       -1.2640
  19       -1.2640
  20       -1.2608
  21       -1.2608
  22        3.2937
  23        3.3742
  24        3.3742
  25        6.4983
  26        6.4983
  27        6.5743
  28       10.9659
  29       10.9659
  30       10.9660
  31       10.9660
  32       11.0069
 
  0.5555556E-01  0.0000000E+00  0.0000000E+00  0.1286008E-03
   1       -4.5086
   2       -3.5306
   3       -3.5280
   4       -3.5280
   5       -3.4746
   6       -3.4709
   7       -3.4709
   8       -2.5473
   9       -2.5318
  10       -2.5318
  11       -1.9007
  12       -1.8895
  13       -1.4235
  14       -1.4235
  15       -1.4172
  16       -1.2936
  17       -1.2936
  18       -1.2733
  19       -1.2733
  20       -1.2608
  21       -1.2608
  22        3.1117
  23        3.4165
  24        3.4165
  25        6.5035
  26        6.5035
  27        6.7904
  28       10.8774
  29       10.8774
  30       10.8781
  31       10.8781
  32       11.0386
 
  0.8333333E-01  0.0000000E+00  0.0000000E+00  0.1286008E-03
   1       -4.4757
   2       -3.5194
   3       -3.5136
   4       -3.5136
   5       -3.4663
   6       -3.4579
   7       -3.4579
   8       -2.5569
   9       -2.5222
  10       -2.5222
  11       -1.9101
  12       -1.8852
  13       -1.4359
  14       -1.4359
  15       -1.4219
  16       -1.3334
  17       -1.3334
  18       -1.2888
  19       -1.2888
  20       -1.2608
  21       -1.2608
  22        2.8498
  23        3.4860
  24        3.4860
  25        6.5121
  26        6.5121
  27        7.1094
  28       10.7372
  29       10.7372
  30       10.7426
  31       10.7426
  32       11.0913
 
  0.1111111E+00  0.0000000E+00  0.0000000E+00  0.1286008E-03
   1       -4.4299
   2       -3.5038
   3       -3.4936
   4       -3.4936
   5       -3.4548
   6       -3.4398
   7       -3.4398
   8       -2.5702
   9       -2.5088
  10       -2.5088
  11       -1.9229
  12       -1.8791
  13       -1.4531
  14       -1.4531
  15       -1.4284
  16       -1.3870
  17       -1.3870
  18       -1.3101
  19       -1.3101
  20       -1.2608
  21       -1.2608
  22        2.5402
  23        3.5811
  24        3.5811
  25        6.5242
  26        6.5242
  27        7.4989
  28       10.5541
  29       10.5541
  30       10.5715
  31       10.5715
  32       11.1647
 
  0.1388889E+00  0.0000000E+00  0.0000000E+00  0.1286008E-03
   1       -4.3715
   2       -3.4842
   3       -3.4685
   4       -3.4685
   5       -3.4402
   6       -3.4165
   7       -3.4165
   8       -2.5870
   9       -2.4916
  10       -2.4916
  11       -1.9388
  12       -1.8713
  13       -1.4749
  14       -1.4749
  15       -1.4526
  16       -1.4526
  17       -1.4367
  18       -1.3370
  19       -1.3370
  20       -1.2607
  21       -1.2607
  22        2.2050
  23        3.6999
  24        3.6999
  25        6.5399
  26        6.5399
  27        7.9369
  28       10.3372
  29       10.3372
  30       10.3765
  31       10.3765
  32       11.2584
 
  0.1666667E+00  0.0000000E+00  0.0000000E+00  0.1286008E-03
   1       -4.3008
   2       -3.4607
   3       -3.4386
   4       -3.4386
   5       -3.4224
   6       -3.3881
   7       -3.3881
   8       -2.6073
   9       -2.4707
  10       -2.4707
  11       -1.9573
  12       -1.8620
  13       -1.5283
  14       -1.5283
  15       -1.5010
  16       -1.5010
  17       -1.4467
  18       -1.3690
  19       -1.3690
  20       -1.2607
  21       -1.2607
  22        1.8580
  23        3.8406
  24        3.8406
  25        6.5591
  26        6.5591
  27        8.4097
  28       10.0945
  29       10.0945
  30       10.1679
  31       10.1679
  32       11.3719
 
  0.1944444E+00  0.0000000E+00  0.0000000E+00  0.1286008E-03
   1       -4.2183
   2       -3.4338
   3       -3.4044
   4       -3.4044
   5       -3.4017
   6       -3.3546
   7       -3.3546
   8       -2.6309
   9       -2.4462
  10       -2.4462
  11       -1.9778
  12       -1.8511
  13       -1.6122
  14       -1.6122
  15       -1.5309
  16       -1.5309
  17       -1.4583
  18       -1.4058
  19       -1.4058
  20       -1.2607
  21       -1.2607
  22        1.5077
  23        4.0010
  24        4.0010
  25        6.5818
  26        6.5818
  27        8.9090
  28        9.8325
  29        9.8325
  30        9.9536
  31        9.9536
  32       11.5047
 
  0.2222222E+00  0.0000000E+00  0.0000000E+00  0.1286008E-03
   1       -4.1248
   2       -3.4038
   3       -3.3782
   4       -3.3666
   5       -3.3666
   6       -3.3160
   7       -3.3160
   8       -2.6574
   9       -2.4181
  10       -2.4181
  11       -1.9992
  12       -1.8387
  13       -1.7024
  14       -1.7024
  15       -1.5643
  16       -1.5643
  17       -1.4714
  18       -1.4469
  19       -1.4469
  20       -1.2606
  21       -1.2606
  22        1.1594
  23        4.1792
  24        4.1792
  25        6.6080
  26        6.6080
  27        9.4294
  28        9.5567
  29        9.5567
  30        9.7398
  31        9.7398
  32       11.6562
 
  0.2500000E+00  0.0000000E+00  0.0000000E+00  0.1286008E-03
   1       -4.0213
   2       -3.3713
   3       -3.3519
   4       -3.3259
   5       -3.3259
   6       -3.2723
   7       -3.2723
   8       -2.6868
   9       -2.3867
  10       -2.3867
  11       -2.0205
  12       -1.8249
  13       -1.7972
  14       -1.7972
  15       -1.6005
  16       -1.6005
  17       -1.4917
  18       -1.4917
  19       -1.4859
  20       -1.2606
  21       -1.2606
  22        0.8167
  23        4.3734
  24        4.3734
  25        6.6376
  26        6.6376
  27        9.2710
  28        9.2710
  29        9.5314
  30        9.5314
  31        9.9675
  32       11.8257
 
  0.2777778E+00  0.0000000E+00  0.0000000E+00  0.1286008E-03
   1       -3.9092
   2       -3.3370
   3       -3.3232
   4       -3.2832
   5       -3.2832
   6       -3.2237
   7       -3.2237
   8       -2.7187
   9       -2.3519
  10       -2.3519
  11       -2.0399
  12       -1.8951
  13       -1.8951
  14       -1.8099
  15       -1.6386
  16       -1.6386
  17       -1.5397
  18       -1.5397
  19       -1.5017
  20       -1.2605
  21       -1.2605
  22        0.4825
  23        4.5819
  24        4.5819
  25        6.6702
  26        6.6702
  27        8.9787
  28        8.9787
  29        9.3322
  30        9.3322
  31       10.5209
  32       12.0125
 
  0.3055556E+00  0.0000000E+00  0.0000000E+00  0.1286008E-03
   1       -3.7907
   2       -3.3016
   3       -3.2921
   4       -3.2396
   5       -3.2396
   6       -3.1701
   7       -3.1701
   8       -2.7528
   9       -2.3139
  10       -2.3139
  11       -2.0551
  12       -1.9948
  13       -1.9948
  14       -1.7936
  15       -1.6778
  16       -1.6778
  17       -1.5904
  18       -1.5904
  19       -1.5187
  20       -1.2605
  21       -1.2605
  22        0.1586
  23        4.8033
  24        4.8033
  25        6.7052
  26        6.7052
  27        8.6822
  28        8.6822
  29        9.1453
  30        9.1453
  31       11.0879
  32       12.2159
 
  0.3333333E+00  0.0000000E+00  0.0000000E+00  0.1286008E-03
   1       -3.6687
   2       -3.2661
   3       -3.2589
   4       -3.1965
   5       -3.1965
   6       -3.1117
   7       -3.1117
   8       -2.7888
   9       -2.2730
  10       -2.2730
  11       -2.0951
  12       -2.0951
  13       -2.0630
  14       -1.7763
  15       -1.7169
  16       -1.7169
  17       -1.6433
  18       -1.6433
  19       -1.5366
  20       -1.2604
  21       -1.2604
  22       -0.1530
  23        5.0362
  24        5.0362
  25        6.7420
  26        6.7420
  27        8.3835
  28        8.3835
  29        8.9737
  30        8.9737
  31       11.6670
  32       12.4350
 
  0.3611111E+00  0.0000000E+00  0.0000000E+00  0.1286008E-03
   1       -3.5474
   2       -3.2319
   3       -3.2237
   4       -3.1552
   5       -3.1552
   6       -3.0485
   7       -3.0485
   8       -2.8265
   9       -2.2292
  10       -2.2292
  11       -2.1951
  12       -2.1951
  13       -2.0589
  14       -1.7581
  15       -1.7545
  16       -1.7545
  17       -1.6978
  18       -1.6978
  19       -1.5555
  20       -1.2604
  21       -1.2604
  22       -0.4506
  23        5.2794
  24        5.2794
  25        6.7792
  26        6.7792
  27        8.0842
  28        8.0842
  29        8.8202
  30        8.8202
  31       12.2572
  32       12.6692
 
  0.3888889E+00  0.0000000E+00  0.0000000E+00  0.1286008E-03
   1       -3.4326
   2       -3.2006
   3       -3.1869
   4       -3.1176
   5       -3.1176
   6       -2.9806
   7       -2.9806
   8       -2.8655
   9       -2.2940
  10       -2.2940
  11       -2.1829
  12       -2.1829
  13       -2.0370
  14       -1.7890
  15       -1.7890
  16       -1.7533
  17       -1.7533
  18       -1.7391
  19       -1.5751
  20       -1.2603
  21       -1.2603
  22       -0.7322
  23        5.5320
  24        5.5320
  25        6.8152
  26        6.8152
  27        7.7855
  28        7.7855
  29        8.6875
  30        8.6875
  31       12.8572
  32       12.9175
 
  0.4166667E+00  0.0000000E+00  0.0000000E+00  0.1286008E-03
   1       -3.3311
   2       -3.1745
   3       -3.1487
   4       -3.0855
   5       -3.0855
   6       -2.9083
   7       -2.9083
   8       -2.9055
   9       -2.3910
  10       -2.3910
  11       -2.1342
  12       -2.1342
  13       -1.9900
  14       -1.8186
  15       -1.8186
  16       -1.8094
  17       -1.8094
  18       -1.7193
  19       -1.5953
  20       -1.2603
  21       -1.2603
  22       -0.9955
  23        5.7929
  24        5.7929
  25        6.8477
  26        6.8477
  27        7.4886
  28        7.4886
  29        8.5790
  30        8.5790
  31       13.1792
  32       13.1792
 
  0.4444444E+00  0.0000000E+00  0.0000000E+00  0.1286008E-03
   1       -3.2497
   2       -3.1564
   3       -3.1094
   4       -3.0608
   5       -3.0608
   6       -2.9462
   7       -2.8315
   8       -2.8315
   9       -2.4856
  10       -2.4856
  11       -2.0834
  12       -2.0834
  13       -1.9109
  14       -1.8657
  15       -1.8657
  16       -1.8414
  17       -1.8414
  18       -1.6991
  19       -1.6158
  20       -1.2603
  21       -1.2603
  22       -1.2375
  23        6.0614
  24        6.0614
  25        6.8740
  26        6.8740
  27        7.1944
  28        7.1944
  29        8.4980
  30        8.4980
  31       13.4533
  32       13.4533
 
  0.4722222E+00  0.0000000E+00  0.0000000E+00  0.1286008E-03
   1       -3.1929
   2       -3.1503
   3       -3.0691
   4       -3.0452
   5       -3.0452
   6       -2.9872
   7       -2.7506
   8       -2.7506
   9       -2.5774
  10       -2.5774
  11       -2.0309
  12       -2.0309
  13       -1.9216
  14       -1.9216
  15       -1.8559
  16       -1.8559
  17       -1.7950
  18       -1.6784
  19       -1.6367
  20       -1.4545
  21       -1.2603
  22       -1.2603
  23        6.3365
  24        6.3365
  25        6.8912
  26        6.8912
  27        6.9038
  28        6.9038
  29        8.4478
  30        8.4478
  31       13.7391
  32       13.7391
 
  0.5000000E+00  0.0000000E+00  0.0000000E+00  0.6430041E-04
   1       -3.1609
   2       -3.1609
   3       -3.0398
   4       -3.0398
   5       -3.0283
   6       -3.0283
   7       -2.6658
   8       -2.6658
   9       -2.6658
  10       -2.6658
  11       -1.9768
  12       -1.9768
  13       -1.9768
  14       -1.9768
  15       -1.8609
  16       -1.8609
  17       -1.6576
  18       -1.6576
  19       -1.6418
  20       -1.6418
  21       -1.2603
  22       -1.2603
  23        6.6176
  24        6.6176
  25        6.6176
  26        6.6176
  27        6.8972
  28        6.8972
  29        8.4307
  30        8.4307
  31       14.0357
  32       14.0357
 
  0.2777778E-01  0.2777778E-01  0.0000000E+00  0.2572016E-03
   1       -4.5218
   2       -3.5345
   3       -3.5345
   4       -3.5339
   5       -3.4770
   6       -3.4770
   7       -3.4760
   8       -2.5422
   9       -2.5369
  10       -2.5357
  11       -1.8955
  12       -1.8927
  13       -1.4184
  14       -1.4170
  15       -1.4170
  16       -1.2751
  17       -1.2722
  18       -1.2722
  19       -1.2640
  20       -1.2640
  21       -1.2630
  22        3.3077
  23        3.3077
  24        3.3884
  25        6.5000
  26        6.5762
  27        6.5762
  28       10.8577
  29       10.9764
  30       10.9764
  31       10.9765
  32       10.9765
 
  0.5555556E-01  0.2777778E-01  0.0000000E+00  0.5144033E-03
   1       -4.5021
   2       -3.5277
   3       -3.5257
   4       -3.5255
   5       -3.4720
   6       -3.4692
   7       -3.4679
   8       -2.5473
   9       -2.5318
  10       -2.5299
  11       -1.9006
  12       -1.8905
  13       -1.4259
  14       -1.4248
  15       -1.4201
  16       -1.2984
  17       -1.2964
  18       -1.2813
  19       -1.2733
  20       -1.2641
  21       -1.2640
  22        3.1254
  23        3.3495
  24        3.4306
  25        6.5052
  26        6.5819
  27        6.7927
  28       10.7008
  29       10.8878
  30       10.8884
  31       11.0068
  32       11.0079
 
  0.8333333E-01  0.2777778E-01  0.0000000E+00  0.5144033E-03
   1       -4.4692
   2       -3.5164
   3       -3.5115
   4       -3.5113
   5       -3.4638
   6       -3.4563
   7       -3.4546
   8       -2.5568
   9       -2.5223
  10       -2.5204
  11       -1.9099
  12       -1.8862
  13       -1.4383
  14       -1.4379
  15       -1.4253
  16       -1.3377
  17       -1.3354
  18       -1.2962
  19       -1.2888
  20       -1.2644
  21       -1.2640
  22        2.8630
  23        3.4180
  24        3.4998
  25        6.5138
  26        6.5914
  27        7.1120
  28       10.5059
  29       10.7474
  30       10.7527
  31       10.9376
  32       11.0602
 
  0.1111111E+00  0.2777778E-01  0.0000000E+00  0.5144033E-03
   1       -4.4235
   2       -3.5009
   3       -3.4923
   4       -3.4913
   5       -3.4523
   6       -3.4382
   7       -3.4358
   8       -2.5700
   9       -2.5089
  10       -2.5070
  11       -1.9227
  12       -1.8801
  13       -1.4569
  14       -1.4555
  15       -1.4326
  16       -1.3909
  17       -1.3873
  18       -1.3167
  19       -1.3101
  20       -1.2644
  21       -1.2639
  22        2.5531
  23        3.5117
  24        3.5946
  25        6.5258
  26        6.6047
  27        7.5018
  28       10.2832
  29       10.5641
  30       10.5813
  31       10.8177
  32       11.1332
 
  0.1388889E+00  0.2777778E-01  0.0000000E+00  0.5144033E-03
   1       -4.3652
   2       -3.4812
   3       -3.4680
   4       -3.4662
   5       -3.4377
   6       -3.4150
   7       -3.4118
   8       -2.5868
   9       -2.4917
  10       -2.4900
  11       -1.9385
  12       -1.8722
  13       -1.4855
  14       -1.4772
  15       -1.4562
  16       -1.4461
  17       -1.4422
  18       -1.3423
  19       -1.3370
  20       -1.2644
  21       -1.2639
  22        2.2177
  23        3.6287
  24        3.7132
  25        6.5413
  26        6.6220
  27        7.9398
  28       10.0415
  29       10.3470
  30       10.3861
  31       10.6575
  32       11.2261
 
  0.1666667E+00  0.2777778E-01  0.0000000E+00  0.5144033E-03
   1       -4.2945
   2       -3.4577
   3       -3.4392
   4       -3.4363
   5       -3.4200
   6       -3.3866
   7       -3.3825
   8       -2.6070
   9       -2.4708
  10       -2.4692
  11       -1.9569
  12       -1.8627
  13       -1.5414
  14       -1.5315
  15       -1.5031
  16       -1.4919
  17       -1.4545
  18       -1.3721
  19       -1.3690
  20       -1.2644
  21       -1.2639
  22        1.8707
  23        3.7670
  24        3.8535
  25        6.5604
  26        6.6432
  27        8.4125
  28        9.7875
  29       10.1040
  30       10.1774
  31       10.4679
  32       11.3391
 
  0.1944444E+00  0.2777778E-01  0.0000000E+00  0.5144033E-03
   1       -4.2122
   2       -3.4307
   3       -3.4060
   4       -3.4021
   5       -3.3993
   6       -3.3531
   7       -3.3481
   8       -2.6305
   9       -2.4463
  10       -2.4450
  11       -1.9771
  12       -1.8517
  13       -1.6209
  14       -1.6150
  15       -1.5330
  16       -1.5261
  17       -1.4703
  18       -1.4059
  19       -1.4047
  20       -1.2644
  21       -1.2639
  22        1.5203
  23        3.9245
  24        4.0135
  25        6.5828
  26        6.6684
  27        8.9115
  28        9.5260
  29        9.8420
  30        9.9632
  31       10.2592
  32       11.4707
 
  0.2222222E+00  0.2777778E-01  0.0000000E+00  0.5144033E-03
   1       -4.1189
   2       -3.4007
   3       -3.3758
   4       -3.3691
   5       -3.3642
   6       -3.3146
   7       -3.3087
   8       -2.6570
   9       -2.4183
  10       -2.4173
  11       -1.9983
  12       -1.8391
  13       -1.7096
  14       -1.7049
  15       -1.5662
  16       -1.5609
  17       -1.4921
  18       -1.4469
  19       -1.4372
  20       -1.2643
  21       -1.2638
  22        1.1721
  23        4.0991
  24        4.1914
  25        6.6085
  26        6.6976
  27        9.2603
  28        9.4314
  29        9.5660
  30        9.7496
  31       10.0399
  32       11.6219
 
  0.2500000E+00  0.2777778E-01  0.0000000E+00  0.5144033E-03
   1       -4.0156
   2       -3.3682
   3       -3.3496
   4       -3.3291
   5       -3.3235
   6       -3.2710
   7       -3.2646
   8       -2.6862
   9       -2.3868
  10       -2.3863
  11       -2.0191
  12       -1.8252
  13       -1.8035
  14       -1.7993
  15       -1.6022
  16       -1.5977
  17       -1.5234
  18       -1.4918
  19       -1.4654
  20       -1.2643
  21       -1.2638
  22        0.8297
  23        4.2889
  24        4.3852
  25        6.6373
  26        6.7306
  27        8.9924
  28        9.2802
  29        9.5417
  30        9.8174
  31        9.9688
  32       11.7896
 
  0.2777778E+00  0.2777778E-01  0.0000000E+00  0.5144033E-03
   1       -3.9037
   2       -3.3338
   3       -3.3210
   4       -3.2866
   5       -3.2807
   6       -3.2224
   7       -3.2160
   8       -2.7180
   9       -2.3523
  10       -2.3520
  11       -2.0377
  12       -1.9008
  13       -1.8969
  14       -1.8099
  15       -1.6402
  16       -1.6363
  17       -1.5643
  18       -1.5398
  19       -1.4886
  20       -1.2642
  21       -1.2638
  22        0.4957
  23        4.4921
  24        4.5934
  25        6.6685
  26        6.7671
  27        8.7238
  28        8.9879
  29        9.3434
  30        9.5980
  31       10.5212
  32       11.9755
 
  0.3055556E+00  0.2777778E-01  0.0000000E+00  0.5144033E-03
   1       -3.7855
   2       -3.2983
   3       -3.2900
   4       -3.2428
   5       -3.2371
   6       -3.1689
   7       -3.1629
   8       -2.7520
   9       -2.3157
  10       -2.3141
  11       -2.0517
  12       -1.9999
  13       -1.9962
  14       -1.7934
  15       -1.6793
  16       -1.6758
  17       -1.6116
  18       -1.5905
  19       -1.5093
  20       -1.2641
  21       -1.2637
  22        0.1723
  23        4.7071
  24        4.8145
  25        6.7012
  26        6.8068
  27        8.4555
  28        8.6913
  29        9.1579
  30        9.3869
  31       11.0865
  32       12.1781
 
  0.3333333E+00  0.2777778E-01  0.0000000E+00  0.5144033E-03
   1       -3.6637
   2       -3.2628
   3       -3.2568
   4       -3.1991
   5       -3.1939
   6       -3.1106
   7       -3.1053
   8       -2.7879
   9       -2.2772
  10       -2.2732
  11       -2.0997
  12       -2.0962
  13       -2.0572
  14       -1.7758
  15       -1.7182
  16       -1.7152
  17       -1.6626
  18       -1.6434
  19       -1.5295
  20       -1.2641
  21       -1.2637
  22       -0.1388
  23        4.9323
  24        5.0471
  25        6.7338
  26        6.8487
  27        8.1885
  28        8.3926
  29        8.9883
  30        9.1888
  31       11.6626
  32       12.3959
 
  0.3611111E+00  0.2777778E-01  0.0000000E+00  0.5144033E-03
   1       -3.5427
   2       -3.2285
   3       -3.2218
   4       -3.1569
   5       -3.1527
   6       -3.0475
   7       -3.0433
   8       -2.8255
   9       -2.2374
  10       -2.2294
  11       -2.1992
  12       -2.1960
  13       -2.0494
  14       -1.7573
  15       -1.7557
  16       -1.7530
  17       -1.7163
  18       -1.6979
  19       -1.5498
  20       -1.2640
  21       -1.2637
  22       -0.4357
  23        5.1662
  24        5.2901
  25        6.7633
  26        6.8918
  27        7.9249
  28        8.0933
  29        8.8379
  30        9.0080
  31       12.2447
  32       12.6285
 
  0.3888889E+00  0.2777778E-01  0.0000000E+00  0.5144033E-03
   1       -3.4281
   2       -3.1972
   3       -3.1851
   4       -3.1184
   5       -3.1151
   6       -2.9798
   7       -2.9768
   8       -2.8644
   9       -2.2975
  10       -2.2946
  11       -2.1966
  12       -2.1831
  13       -2.0221
  14       -1.7900
  15       -1.7878
  16       -1.7716
  17       -1.7534
  18       -1.7379
  19       -1.5704
  20       -1.2639
  21       -1.2637
  22       -0.7164
  23        5.4072
  24        5.5424
  25        6.7839
  26        6.9344
  27        7.6693
  28        7.7947
  29        8.7099
  30        8.8484
  31       12.7859
  32       12.8745
 
  0.4166667E+00  0.2777778E-01  0.0000000E+00  0.5144033E-03
   1       -3.3269
   2       -3.1709
   3       -3.1469
   4       -3.0853
   5       -3.0830
   6       -2.9075
   7       -2.9057
   8       -2.9043
   9       -2.3940
  10       -2.3914
  11       -2.1535
  12       -2.1344
  13       -1.9698
  14       -1.8279
  15       -1.8193
  16       -1.8177
  17       -1.8096
  18       -1.7178
  19       -1.5914
  20       -1.2639
  21       -1.2637
  22       -0.9786
  23        5.6534
  24        5.8031
  25        6.7828
  26        6.9746
  27        7.4326
  28        7.4978
  29        8.6081
  30        8.7139
  31       13.1071
  32       13.1330
 
  0.4444444E+00  0.2777778E-01  0.0000000E+00  0.5144033E-03
   1       -3.2456
   2       -3.1527
   3       -3.1077
   4       -3.0599
   5       -3.0584
   6       -2.9449
   7       -2.8309
   8       -2.8302
   9       -2.4879
  10       -2.4858
  11       -2.1060
  12       -2.0836
  13       -1.8879
  14       -1.8849
  15       -1.8658
  16       -1.8420
  17       -1.8408
  18       -1.6970
  19       -1.6127
  20       -1.2638
  21       -1.2637
  22       -1.2191
  23        5.9023
  24        6.0714
  25        6.7313
  26        7.0105
  27        7.2038
  28        7.2412
  29        8.5366
  30        8.6083
  31       13.3849
  32       13.4039
 
  0.4722222E+00  0.2777778E-01  0.0000000E+00  0.5144033E-03
   1       -3.1889
   2       -3.1465
   3       -3.0675
   4       -3.0436
   5       -3.0429
   6       -2.9858
   7       -2.7504
   8       -2.7502
   9       -2.5789
  10       -2.5773
  11       -2.0538
  12       -2.0310
  13       -1.9420
  14       -1.9218
  15       -1.8562
  16       -1.8556
  17       -1.7726
  18       -1.6754
  19       -1.6344
  20       -1.4341
  21       -1.2638
  22       -1.2637
  23        6.1499
  24        6.3463
  25        6.5946
  26        6.9133
  27        7.0420
  28        7.1275
  29        8.4992
  30        8.5355
  31       13.6685
  32       13.6858
 
  0.5000000E+00  0.2777778E-01  0.0000000E+00  0.2572016E-03
   1       -3.1570
   2       -3.1570
   3       -3.0379
   4       -3.0379
   5       -3.0268
   6       -3.0268
   7       -2.6665
   8       -2.6665
   9       -2.6656
  10       -2.6656
  11       -1.9986
  12       -1.9986
  13       -1.9770
  14       -1.9770
  15       -1.8609
  16       -1.8609
  17       -1.6580
  18       -1.6580
  19       -1.6172
  20       -1.6172
  21       -1.2637
  22       -1.2637
  23        6.3876
  24        6.3876
  25        6.6272
  26        6.6272
  27        7.0746
  28        7.0746
  29        8.4986
  30        8.4986
  31       13.9608
  32       13.9676
 
  0.5555556E-01  0.5555556E-01  0.0000000E+00  0.2572016E-03
   1       -4.4824
   2       -3.5189
   3       -3.5189
   4       -3.5179
   5       -3.4643
   6       -3.4643
   7       -3.4592
   8       -2.5499
   9       -2.5291
  10       -2.5243
  11       -1.9027
  12       -1.8913
  13       -1.4333
  14       -1.4288
  15       -1.4288
  16       -1.3169
  17       -1.3045
  18       -1.3045
  19       -1.2733
  20       -1.2733
  21       -1.2696
  22        3.1659
  23        3.1659
  24        3.4724
  25        6.5103
  26        6.7995
  27        6.7995
  28       10.4868
  29       10.9190
  30       10.9190
  31       10.9194
  32       10.9194
 
  0.8333333E-01  0.5555556E-01  0.0000000E+00  0.5144033E-03
   1       -4.4497
   2       -3.5076
   3       -3.5054
   4       -3.5044
   5       -3.4561
   6       -3.4514
   7       -3.4446
   8       -2.5577
   9       -2.5212
  10       -2.5149
  11       -1.9104
  12       -1.8883
  13       -1.4456
  14       -1.4441
  15       -1.4358
  16       -1.3527
  17       -1.3415
  18       -1.3178
  19       -1.2888
  20       -1.2733
  21       -1.2727
  22        2.9022
  23        3.2322
  24        3.5410
  25        6.5187
  26        6.8109
  27        7.1199
  28       10.2463
  29       10.7780
  30       10.7828
  31       10.9707
  32       10.9707
 
  0.1111111E+00  0.5555556E-01  0.0000000E+00  0.5144033E-03
   1       -4.4042
   2       -3.4920
   3       -3.4879
   4       -3.4844
   5       -3.4447
   6       -3.4334
   7       -3.4243
   8       -2.5701
   9       -2.5085
  10       -2.5019
  11       -1.9225
  12       -1.8824
  13       -1.4679
  14       -1.4625
  15       -1.4458
  16       -1.4039
  17       -1.3884
  18       -1.3356
  19       -1.3102
  20       -1.2740
  21       -1.2734
  22        2.5914
  23        3.3228
  24        3.6350
  25        6.5305
  26        6.8269
  27        7.5103
  28        9.9882
  29       10.5940
  30       10.6107
  31       11.0368
  32       11.0423
 
  0.1388889E+00  0.5555556E-01  0.0000000E+00  0.5144033E-03
   1       -4.3461
   2       -3.4723
   3       -3.4658
   4       -3.4593
   5       -3.4302
   6       -3.4103
   7       -3.3984
   8       -2.5864
   9       -2.4917
  10       -2.4852
  11       -1.9379
  12       -1.8744
  13       -1.5062
  14       -1.4839
  15       -1.4675
  16       -1.4596
  17       -1.4374
  18       -1.3570
  19       -1.3371
  20       -1.2746
  21       -1.2734
  22        2.2554
  23        3.4358
  24        3.7527
  25        6.5457
  26        6.8475
  27        7.9484
  28        9.7193
  29       10.3763
  30       10.4150
  31       10.9333
  32       11.1337
 
  0.1666667E+00  0.5555556E-01  0.0000000E+00  0.5144033E-03
   1       -4.2759
   2       -3.4488
   3       -3.4392
   4       -3.4293
   5       -3.4126
   6       -3.3820
   7       -3.3673
   8       -2.6063
   9       -2.4710
  10       -2.4650
  11       -1.9558
  12       -1.8646
  13       -1.5659
  14       -1.5415
  15       -1.5096
  16       -1.4791
  17       -1.4779
  18       -1.3809
  19       -1.3692
  20       -1.2749
  21       -1.2734
  22        1.9081
  23        3.5689
  24        3.8920
  25        6.5641
  26        6.8729
  27        8.4207
  28        9.4452
  29       10.1328
  30       10.2060
  31       10.7878
  32       11.2451
 
  0.1944444E+00  0.5555556E-01  0.0000000E+00  0.5144033E-03
   1       -4.1939
   2       -3.4217
   3       -3.4082
   4       -3.3950
   5       -3.3921
   6       -3.3487
   7       -3.3311
   8       -2.6295
   9       -2.4466
  10       -2.4414
  11       -1.9755
  12       -1.8531
  13       -1.6426
  14       -1.6238
  15       -1.5391
  16       -1.5159
  17       -1.5019
  18       -1.4060
  19       -1.4056
  20       -1.2750
  21       -1.2734
  22        1.5578
  23        3.7201
  24        4.0510
  25        6.5855
  26        6.9029
  27        8.9187
  28        9.1696
  29        9.8702
  30        9.9920
  31       10.6117
  32       11.3741
 
  0.2222222E+00  0.5555556E-01  0.0000000E+00  0.5144033E-03
   1       -4.1011
   2       -3.3916
   3       -3.3733
   4       -3.3688
   5       -3.3571
   6       -3.3104
   7       -3.2904
   8       -2.6557
   9       -2.4186
  10       -2.4146
  11       -1.9959
  12       -1.8401
  13       -1.7290
  14       -1.7124
  15       -1.5719
  16       -1.5525
  17       -1.5323
  18       -1.4471
  19       -1.4297
  20       -1.2751
  21       -1.2734
  22        1.2100
  23        3.8871
  24        4.2278
  25        6.6096
  26        6.9376
  27        8.8957
  28        9.4372
  29        9.5938
  30        9.7793
  31       10.4151
  32       11.5219
 
  0.2500000E+00  0.5555556E-01  0.0000000E+00  0.5144033E-03
   1       -3.9984
   2       -3.3589
   3       -3.3428
   4       -3.3347
   5       -3.3162
   6       -3.2670
   7       -3.2454
   8       -2.6846
   9       -2.3872
  10       -2.3851
  11       -2.0154