 running on    8 nodes
 distr:  one band on    1 nodes,    8 groups
 vasp.4.6.28 25Jul05 complex 
 POSCAR found :  1 types and    4 ions
 WARNING: PSMAXN for non-local potential too small
 LDA part: xc-table for Pade appr. of Perdew
 POSCAR, INCAR and KPOINTS ok, starting setup
 FFT: planning ...           1
 reading WAVECAR
 WARNING: random wavefunctions but no delay for mixing, default for NELMDL
 entering main loop
       N       E                     dE             d eps       ncg     rms          rms(c)
DAV:   1     0.508474712305E+03    0.50847E+03   -0.31152E+04 85120   0.227E+03
DAV:   2     0.321894527257E+01   -0.50526E+03   -0.46778E+03 85136   0.462E+02
DAV:   3    -0.112070329532E+02   -0.14426E+02   -0.14285E+02 99528   0.996E+01
DAV:   4    -0.112839811913E+02   -0.76948E-01   -0.76932E-01 90144   0.651E+00
DAV:   5    -0.112842498580E+02   -0.26867E-03   -0.26866E-03101312   0.332E-01    0.445E+00
DAV:   6    -0.106805610753E+02    0.60369E+00   -0.21257E+00 94256   0.141E+01    0.902E-01
DAV:   7    -0.106740768828E+02    0.64842E-02   -0.41970E-02 90328   0.144E+00    0.515E-01
DAV:   8    -0.106707920319E+02    0.32849E-02   -0.49440E-03 92624   0.674E-01    0.406E-02
DAV:   9    -0.106709238197E+02   -0.13179E-03   -0.23334E-04 97712   0.118E-01    0.260E-02
DAV:  10    -0.106709160216E+02    0.77981E-05   -0.20530E-05 94072   0.353E-02    0.374E-03
DAV:  11    -0.106709151156E+02    0.90599E-06   -0.11428E-06 97360   0.752E-03    0.572E-04
DAV:  12    -0.106709146234E+02    0.49219E-06   -0.45443E-08 87944   0.159E-03    0.183E-04
DAV:  13    -0.106709145991E+02    0.24299E-07   -0.10248E-09 55512   0.288E-04    0.107E-04
DAV:  14    -0.106709146276E+02   -0.28459E-07   -0.56599E-10 51248   0.194E-04    0.625E-06
DAV:  15    -0.106709146260E+02    0.15980E-08   -0.42571E-11 50616   0.513E-05
   1 F= -.10670915E+02 E0= -.10670885E+02  d E =-.584796E-04
