   32   32   60    1
  0.1202072E+02  0.7272595E-09  0.7272697E-09  0.7272697E-09  0.5000000E-15
  1.000000000000000E-004
  CAR 
 unknown system                          
  352  100  216
 
  0.0000000E+00  0.0000000E+00  0.0000000E+00  0.2915452E-02
   1       -5.5733
   2       -2.8415
   3       -2.8415
   4       -2.8415
   5       -2.8415
   6       -2.8414
   7       -2.8414
   8       -1.3528
   9       -1.3528
  10       -1.3528
  11       -1.3528
  12       -1.1510
  13       -1.1510
  14       -1.1510
  15       -0.9757
  16       -0.9757
  17       -0.9757
  18       -0.9757
  19       -0.9757
  20       -0.9757
  21       -0.9757
  22       -0.9757
  23       -0.9757
  24       -0.9757
  25       -0.9757
  26       -0.9757
  27       -0.7101
  28       -0.7101
  29       -0.7101
  30       -0.4282
  31       -0.4282
  32       -0.4282
  33       -0.4282
  34       -0.4281
  35       -0.4281
  36       -0.0509
  37       -0.0509
  38       -0.0509
  39       -0.0509
  40       -0.0508
  41       -0.0508
  42        0.1565
  43        0.1565
  44        0.1565
  45        0.1565
  46        0.1565
  47        0.1565
  48        0.1565
  49        0.1565
  50        0.1565
  51        0.1565
  52        0.1565
  53        0.1565
  54        0.1594
  55        0.1594
  56        0.1594
  57        0.1594
  58        0.1594
  59        0.1594
  60        0.1594
  61        0.1594
  62        0.1595
  63        0.1595
  64        0.1595
  65        0.1595
  66        0.3635
  67        0.3635
  68        0.3635
  69        0.3635
  70        0.3635
  71        0.3635
  72        0.3636
  73        0.3636
  74        0.3636
  75        0.3636
  76        0.3636
  77        0.3636
  78        0.6151
  79        0.6151
  80        0.6151
  81        0.6151
  82        0.6151
  83        0.6151
  84        0.6151
  85        0.6151
  86        0.6433
  87        0.6433
  88        0.6434
  89        1.0097
  90        1.0097
  91        1.0097
  92        1.0097
  93        1.0098
  94        1.0098
  95        1.1348
  96        1.1348
  97        1.1348
  98        1.1348
  99        1.1348
 100        1.1348
 101        1.1348
 102        1.1348
 103        1.1348
 104        1.1348
 105        1.1348
 106        1.1348
 107        1.2872
 108        1.2872
 109        1.2872
 110        1.2872
 111        1.2872
 112        1.2872
 113        1.2872
 114        1.2872
 115        1.2872
 116        1.2872
 117        1.2872
 118        1.2872
 119        1.4114
 120        1.4114
 121        1.4114
 122        1.4114
 123        1.4114
 124        1.4114
 125        1.4431
 126        1.4431
 127        1.4431
 128        1.4431
 129        1.4431
 130        1.4431
 131        1.4431
 132        1.4431
 133        1.4431
 134        1.4431
 135        1.4431
 136        1.4431
 137        1.4489
 138        1.4490
 139        1.7136
 140        1.7136
 141        1.7136
 142        1.7136
 143        1.7137
 144        1.7137
 145        1.9840
 146        1.9840
 147        1.9840
 148        1.9978
 149        1.9978
 150        1.9978
 151        1.9978
 152        1.9979
 153        1.9979
 154        1.9979
 155        1.9979
 156        2.1340
 157        2.1340
 158        2.1340
 159        2.1340
 160        2.1341
 161        2.1341
 162        2.1347
 163        2.1347
 164        2.1348
 165        2.1348
 166        2.1348
 167        2.1348
 168        2.6967
 169        2.6967
 170        2.6967
 171        2.6967
 172        3.3073
 173        3.3073
 174        3.3073
 175        3.3073
 176        3.3074
 177        3.3074
 178        3.3074
 179        3.3074
 180        3.3074
 181        3.3074
 182        3.3074
 183        3.3074
 184        5.1660
 185        5.1660
 186        5.1664
 187        7.3045
 188        7.3045
 189        7.3045
 190        7.3045
 191        9.7894
 192        9.7894
 193        9.7894
 194        9.7894
 195        9.7896
 196        9.7896
 197        9.7896
 198        9.7896
 199        9.7898
 200        9.7898
 201        9.7898
 202        9.7898
 203       10.6378
 204       10.6378
 205       10.6383
 206       11.8754
 207       11.8754
 208       11.8755
 209       11.8755
 210       11.8755
 211       11.8755
 212       12.3219
 213       12.3220
 214       12.3221
 215       12.3221
 216       12.3221
 
  0.1428571E+00  0.0000000E+00  0.0000000E+00  0.5830904E-02
   1       -5.5120
   2       -3.4935
   3       -2.7917
   4       -2.7917
   5       -2.7917
   6       -2.7917
   7       -2.2034
   8       -1.3410
   9       -1.3410
  10       -1.3410
  11       -1.3410
  12       -1.3390
  13       -1.3390
  14       -1.3390
  15       -1.3390
  16       -1.1515
  17       -1.1226
  18       -1.1226
  19       -1.0037
  20       -1.0037
  21       -1.0037
  22       -1.0037
  23       -0.6940
  24       -0.6931
  25       -0.6931
  26       -0.6654
  27       -0.6654
  28       -0.6654
  29       -0.6654
  30       -0.4758
  31       -0.4758
  32       -0.4062
  33       -0.4062
  34       -0.4062
  35       -0.4062
  36       -0.2005
  37       -0.0783
  38       -0.0783
  39       -0.0439
  40       -0.0439
  41       -0.0439
  42       -0.0439
  43        0.1005
  44        0.1290
  45        0.1290
  46        0.1290
  47        0.1290
  48        0.1330
  49        0.1330
  50        0.1330
  51        0.1330
  52        0.1588
  53        0.1588
  54        0.1588
  55        0.1588
  56        0.1778
  57        0.1778
  58        0.1778
  59        0.1778
  60        0.2255
  61        0.2255
  62        0.2255
  63        0.2255
  64        0.2368
  65        0.2368
  66        0.2368
  67        0.2368
  68        0.3778
  69        0.3778
  70        0.3778
  71        0.3778
  72        0.4288
  73        0.4288
  74        0.4551
  75        0.4551
  76        0.4551
  77        0.4551
  78        0.6038
  79        0.6038
  80        0.6038
  81        0.6038
  82        0.6256
  83        0.6307
  84        0.6307
  85        0.6307
  86        0.6307
  87        0.6577
  88        0.6577
  89        0.9355
  90        0.9355
  91        0.9355
  92        0.9355
  93        1.0379
  94        1.0748
  95        1.0748
  96        1.0748
  97        1.0748
  98        1.1027
  99        1.1298
 100        1.1298
 101        1.1462
 102        1.1462
 103        1.1462
 104        1.1462
 105        1.1866
 106        1.1866
 107        1.1866
 108        1.1866
 109        1.2871
 110        1.2871
 111        1.2871
 112        1.2871
 113        1.3470
 114        1.3470
 115        1.3470
 116        1.3470
 117        1.3726
 118        1.3726
 119        1.3726
 120        1.3726
 121        1.4114
 122        1.4114
 123        1.4114
 124        1.4114
 125        1.4328
 126        1.4517
 127        1.4517
 128        1.4542
 129        1.4542
 130        1.4555
 131        1.5048
 132        1.5048
 133        1.5048
 134        1.5048
 135        1.5403
 136        1.5403
 137        1.5403
 138        1.5403
 139        1.6542
 140        1.7339
 141        1.7339
 142        1.7339
 143        1.7339
 144        1.7733
 145        1.8030
 146        1.8030
 147        1.8030
 148        1.8030
 149        1.9631
 150        1.9631
 151        1.9772
 152        1.9805
 153        1.9805
 154        1.9805
 155        1.9805
 156        2.0277
 157        2.0277
 158        2.1081
 159        2.1081
 160        2.1081
 161        2.1081
 162        2.1093
 163        2.1093
 164        2.1340
 165        2.1341
 166        2.1347
 167        2.1347
 168        2.8228
 169        2.8228
 170        2.8228
 171        2.8228
 172        2.8715
 173        2.8715
 174        2.8715
 175        2.8715
 176        3.3003
 177        3.3003
 178        3.3003
 179        3.3003
 180        3.8773
 181        3.8773
 182        3.8773
 183        3.8773
 184        4.7718
 185        5.3273
 186        5.3273
 187        7.4806
 188        7.4806
 189        7.4806
 190        7.4806
 191        8.8248
 192        8.8248
 193        9.0322
 194        9.0322
 195        9.0323
 196        9.0323
 197        9.8720
 198        9.8720
 199        9.8720
 200        9.8720
 201       10.6609
 202       10.6609
 203       10.8139
 204       10.8139
 205       11.1553
 206       11.6100
 207       11.6100
 208       12.1215
 209       12.1215
 210       12.1215
 211       12.1215
 212       12.2653
 213       12.2653
 214       12.2653
 215       12.2653
 216       12.4201
 
  0.2857143E+00  0.0000000E+00  0.0000000E+00  0.5830904E-02
   1       -5.3290
   2       -4.0953
   3       -2.6444
   4       -2.6444
   5       -2.6444
   6       -2.6444
   7       -1.7273
   8       -1.7273
   9       -1.7273
  10       -1.7273
  11       -1.6811
  12       -1.2989
  13       -1.2989
  14       -1.2989
  15       -1.2989
  16       -1.1614
  17       -1.0728
  18       -1.0728
  19       -1.0728
  20       -1.0728
  21       -1.0401
  22       -1.0401
  23       -0.6463
  24       -0.6418
  25       -0.6418
  26       -0.5991
  27       -0.5991
  28       -0.4240
  29       -0.4240
  30       -0.4240
  31       -0.4240
  32       -0.3436
  33       -0.3436
  34       -0.3436
  35       -0.3436
  36       -0.3410
  37       -0.2749
  38       -0.2749
  39       -0.0236
  40       -0.0236
  41       -0.0236
  42       -0.0236
  43        0.0669
  44        0.0669
  45        0.0669
  46        0.0669
  47        0.0899
  48        0.0899
  49        0.0899
  50        0.0899
  51        0.0910
  52        0.0910
  53        0.0910
  54        0.0910
  55        0.1653
  56        0.1653
  57        0.1653
  58        0.1653
  59        0.1842
  60        0.1842
  61        0.1842
  62        0.1842
  63        0.2460
  64        0.3986
  65        0.3986
  66        0.3986
  67        0.3986
  68        0.4283
  69        0.4283
  70        0.4283
  71        0.4283
  72        0.5241
  73        0.5241
  74        0.5241
  75        0.5241
  76        0.5713
  77        0.5713
  78        0.5713
  79        0.5713
  80        0.5730
  81        0.6767
  82        0.6767
  83        0.6767
  84        0.6767
  85        0.7005
  86        0.7005
  87        0.7362
  88        0.7362
  89        0.8091
  90        0.8091
  91        0.8091
  92        0.8091
  93        0.9618
  94        0.9618
  95        0.9618
  96        0.9618
  97        0.9884
  98        0.9884
  99        1.1202
 100        1.2140
 101        1.2140
 102        1.2140
 103        1.2140
 104        1.2681
 105        1.2681
 106        1.2681
 107        1.2681
 108        1.2875
 109        1.2875
 110        1.2875
 111        1.2875
 112        1.3275
 113        1.3275
 114        1.3275
 115        1.3275
 116        1.3855
 117        1.4006
 118        1.4006
 119        1.4006
 120        1.4006
 121        1.4069
 122        1.4069
 123        1.4069
 124        1.4069
 125        1.4182
 126        1.4300
 127        1.4300
 128        1.4300
 129        1.4300
 130        1.4749
 131        1.5543
 132        1.5543
 133        1.5981
 134        1.6226
 135        1.6226
 136        1.6226
 137        1.6226
 138        1.6230
 139        1.6230
 140        1.6598
 141        1.6598
 142        1.6598
 143        1.6598
 144        1.7614
 145        1.7614
 146        1.8259
 147        1.8259
 148        1.8259
 149        1.8259
 150        1.8302
 151        1.9016
 152        1.9016
 153        1.9296
 154        1.9296
 155        1.9296
 156        1.9296
 157        1.9570
 158        2.0328
 159        2.0328
 160        2.0328
 161        2.0328
 162        2.0375
 163        2.0375
 164        2.1341
 165        2.1341
 166        2.1346
 167        2.1346
 168        2.5279
 169        2.5279
 170        2.5279
 171        2.5279
 172        3.0100
 173        3.0100
 174        3.0100
 175        3.0100
 176        3.2770
 177        3.2770
 178        3.2770
 179        3.2770
 180        3.8867
 181        4.6143
 182        4.6143
 183        4.6143
 184        4.6143
 185        5.7582
 186        5.7582
 187        7.7984
 188        7.7984
 189        7.7984
 190        7.7984
 191        7.9260
 192        7.9260
 193        7.9880
 194        7.9880
 195        7.9880
 196        7.9880
 197       10.1150
 198       10.1150
 199       10.1150
 200       10.1150
 201       10.7318
 202       10.7318
 203       10.9678
 204       10.9678
 205       10.9678
 206       10.9678
 207       11.2896
 208       11.2896
 209       11.6732
 210       11.6732
 211       11.6732
 212       11.6732
 213       11.8913
 214       11.8913
 215       12.2911
 216       12.2911
 
  0.4285714E+00  0.0000000E+00  0.0000000E+00  0.5830904E-02
   1       -5.0272
   2       -4.6126
   3       -2.4071
   4       -2.4071
   5       -2.4071
   6       -2.4071
   7       -2.0938
   8       -2.0938
   9       -2.0938
  10       -2.0938
  11       -1.3573
  12       -1.2359
  13       -1.2359
  14       -1.2359
  15       -1.2359
  16       -1.2103
  17       -1.1567
  18       -1.1567
  19       -1.1567
  20       -1.1567
  21       -0.9128
  22       -0.9128
  23       -0.7571
  24       -0.7571
  25       -0.5691
  26       -0.5556
  27       -0.5556
  28       -0.4658
  29       -0.4337
  30       -0.4337
  31       -0.2593
  32       -0.2593
  33       -0.2593
  34       -0.2593
  35       -0.2575
  36       -0.2575
  37       -0.2575
  38       -0.2575
  39       -0.0348
  40       -0.0348
  41       -0.0348
  42       -0.0348
  43       -0.0240
  44       -0.0240
  45       -0.0240
  46       -0.0240
  47        0.0080
  48        0.0080
  49        0.0080
  50        0.0080
  51        0.0475
  52        0.0475
  53        0.0475
  54        0.0475
  55        0.1739
  56        0.1739
  57        0.1739
  58        0.1739
  59        0.1816
  60        0.1816
  61        0.1816
  62        0.1816
  63        0.3778
  64        0.4663
  65        0.4663
  66        0.4663
  67        0.4663
  68        0.4889
  69        0.5228
  70        0.5228
  71        0.5228
  72        0.5228
  73        0.5977
  74        0.5977
  75        0.5977
  76        0.5977
  77        0.6922
  78        0.6922
  79        0.6922
  80        0.6922
  81        0.6926
  82        0.6926
  83        0.6926
  84        0.6926
  85        0.7508
  86        0.7508
  87        0.7508
  88        0.7508
  89        0.7710
  90        0.7710
  91        0.8483
  92        0.8483
  93        0.8483
  94        0.8483
  95        0.8677
  96        0.8677
  97        1.0410
  98        1.0410
  99        1.0410
 100        1.0410
 101        1.0724
 102        1.0724
 103        1.2186
 104        1.2912
 105        1.2912
 106        1.2912
 107        1.2912
 108        1.3019
 109        1.3019
 110        1.3019
 111        1.3019
 112        1.3026
 113        1.3026
 114        1.3026
 115        1.3026
 116        1.3115
 117        1.3408
 118        1.3408
 119        1.3408
 120        1.3408
 121        1.3754
 122        1.3754
 123        1.3754
 124        1.3754
 125        1.3868
 126        1.3868
 127        1.3868
 128        1.3868
 129        1.4238
 130        1.4238
 131        1.5062
 132        1.5479
 133        1.6824
 134        1.6824
 135        1.7432
 136        1.7432
 137        1.7432
 138        1.7432
 139        1.7838
 140        1.7838
 141        1.7917
 142        1.7917
 143        1.7917
 144        1.7917
 145        1.8046
 146        1.8046
 147        1.8485
 148        1.8485
 149        1.8485
 150        1.8485
 151        1.8815
 152        1.9218
 153        1.9218
 154        1.9218
 155        1.9218
 156        1.9245
 157        1.9256
 158        1.9256
 159        2.0066
 160        2.0066
 161        2.0066
 162        2.0066
 163        2.0320
 164        2.1343
 165        2.1343
 166        2.1344
 167        2.1344
 168        2.2443
 169        2.2443
 170        2.2443
 171        2.2443
 172        2.9008
 173        3.1461
 174        3.1461
 175        3.1461
 176        3.1461
 177        3.2299
 178        3.2299
 179        3.2299
 180        3.2299
 181        5.5271
 182        5.5271
 183        5.5271
 184        5.5271
 185        6.3695
 186        6.3695
 187        6.6001
 188        6.6001
 189        6.6001
 190        6.6001
 191        7.1023
 192        7.1023
 193        8.7755
 194        8.7755
 195        8.7755
 196        8.7755
 197        9.7855
 198        9.7855
 199        9.7855
 200        9.7855
 201       10.5065
 202       10.5065
 203       10.5065
 204       10.5065
 205       10.8552
 206       10.8553
 207       11.0310
 208       11.0310
 209       11.0310
 210       11.0310
 211       11.0384
 212       11.0384
 213       12.5273
 214       12.5273
 215       12.5273
 216       12.5273
 
  0.0000000E+00  0.1428571E+00  0.0000000E+00  0.5830904E-02
   1       -5.5120
   2       -3.4936
   3       -2.7917
   4       -2.7917
   5       -2.7916
   6       -2.7916
   7       -2.2035
   8       -1.3411
   9       -1.3411
  10       -1.3410
  11       -1.3410
  12       -1.3390
  13       -1.3390
  14       -1.3390
  15       -1.3390
  16       -1.1515
  17       -1.1226
  18       -1.1226
  19       -1.0036
  20       -1.0036
  21       -1.0036
  22       -1.0036
  23       -0.6940
  24       -0.6931
  25       -0.6931
  26       -0.6654
  27       -0.6654
  28       -0.6654
  29       -0.6654
  30       -0.4758
  31       -0.4758
  32       -0.4062
  33       -0.4062
  34       -0.4062
  35       -0.4062
  36       -0.2005
  37       -0.0783
  38       -0.0783
  39       -0.0439
  40       -0.0439
  41       -0.0439
  42       -0.0439
  43        0.1005
  44        0.1291
  45        0.1291
  46        0.1291
  47        0.1291
  48        0.1329
  49        0.1329
  50        0.1330
  51        0.1330
  52        0.1588
  53        0.1588
  54        0.1589
  55        0.1589
  56        0.1778
  57        0.1778
  58        0.1778
  59        0.1778
  60        0.2255
  61        0.2255
  62        0.2255
  63        0.2255
  64        0.2368
  65        0.2368
  66        0.2368
  67        0.2368
  68        0.3778
  69        0.3778
  70        0.3778
  71        0.3778
  72        0.4288
  73        0.4289
  74        0.4551
  75        0.4551
  76        0.4551
  77        0.4551
  78        0.6037
  79        0.6037
  80        0.6037
  81        0.6037
  82        0.6255
  83        0.6307
  84        0.6307
  85        0.6307
  86        0.6307
  87        0.6577
  88        0.6578
  89        0.9355
  90        0.9355
  91        0.9355
  92        0.9355
  93        1.0379
  94        1.0748
  95        1.0748
  96        1.0748
  97        1.0748
  98        1.1026
  99        1.1298
 100        1.1299
 101        1.1462
 102        1.1462
 103        1.1462
 104        1.1462
 105        1.1866
 106        1.1866
 107        1.1866
 108        1.1866
 109        1.2870
 110        1.2870
 111        1.2871
 112        1.2871
 113        1.3470
 114        1.3470
 115        1.3470
 116        1.3470
 117        1.3726
 118        1.3726
 119        1.3726
 120        1.3726
 121        1.4114
 122        1.4114
 123        1.4114
 124        1.4114
 125        1.4327
 126        1.4517
 127        1.4517
 128        1.4542
 129        1.4543
 130        1.4555
 131        1.5048
 132        1.5048
 133        1.5048
 134        1.5048
 135        1.5402
 136        1.5402
 137        1.5403
 138        1.5403
 139        1.6543
 140        1.7339
 141        1.7339
 142        1.7339
 143        1.7339
 144        1.7733
 145        1.8030
 146        1.8030
 147        1.8030
 148        1.8030
 149        1.9631
 150        1.9631
 151        1.9772
 152        1.9805
 153        1.9805
 154        1.9805
 155        1.9805
 156        2.0277
 157        2.0277
 158        2.1080
 159        2.1080
 160        2.1081
 161        2.1081
 162        2.1092
 163        2.1093
 164        2.1341
 165        2.1341
 166        2.1347
 167        2.1347
 168        2.8228
 169        2.8228
 170        2.8228
 171        2.8228
 172        2.8715
 173        2.8715
 174        2.8715
 175        2.8715
 176        3.3004
 177        3.3004
 178        3.3004
 179        3.3004
 180        3.8772
 181        3.8772
 182        3.8773
 183        3.8773
 184        4.7715
 185        5.3273
 186        5.3277
 187        7.4806
 188        7.4806
 189        7.4806
 190        7.4806
 191        8.8247
 192        8.8250
 193        9.0319
 194        9.0319
 195        9.0321
 196        9.0321
 197        9.8721
 198        9.8721
 199        9.8723
 200        9.8723
 201       10.6609
 202       10.6614
 203       10.8137
 204       10.8141
 205       11.1548
 206       11.6100
 207       11.6104
 208       12.1216
 209       12.1216
 210       12.1220
 211       12.1220
 212       12.2651
 213       12.2651
 214       12.2651
 215       12.2651
 216       12.4201
 
  0.1428571E+00  0.1428571E+00  0.0000000E+00  0.5830904E-02
   1       -5.4509
   2       -3.4402
   3       -3.4402
   4       -2.7428
   5       -2.7428
   6       -2.1578
   7       -2.1577
   8       -1.8029
   9       -1.3747
  10       -1.3747
  11       -1.3455
  12       -1.3455
  13       -1.3454
  14       -1.3454
  15       -1.2789
  16       -1.2789
  17       -1.1225
  18       -1.1225
  19       -1.0946
  20       -0.9229
  21       -0.9229
  22       -0.7146
  23       -0.7146
  24       -0.7146
  25       -0.7146
  26       -0.6772
  27       -0.6772
  28       -0.6765
  29       -0.4757
  30       -0.4584
  31       -0.4584
  32       -0.4526
  33       -0.4526
  34       -0.3839
  35       -0.3839
  36       -0.1912
  37       -0.1911
  38       -0.0902
  39       -0.0901
  40       -0.0717
  41       -0.0717
  42       -0.0363
  43       -0.0363
  44        0.0783
  45        0.0783
  46        0.0963
  47        0.0963
  48        0.1050
  49        0.1050
  50        0.1313
  51        0.1497
  52        0.1812
  53        0.1812
  54        0.1812
  55        0.1812
  56        0.1936
  57        0.1936
  58        0.2289
  59        0.2289
  60        0.2289
  61        0.2289
  62        0.2530
  63        0.2761
  64        0.2761
  65        0.2762
  66        0.2762
  67        0.3201
  68        0.3201
  69        0.3963
  70        0.3964
  71        0.4256
  72        0.4256
  73        0.4655
  74        0.4655
  75        0.4656
  76        0.4656
  77        0.5643
  78        0.5692
  79        0.5692
  80        0.6086
  81        0.6086
  82        0.6155
  83        0.6419
  84        0.6419
  85        0.6573
  86        0.6573
  87        0.6646
  88        0.6710
  89        0.8894
  90        0.8894
  91        0.9535
  92        0.9536
  93        0.9986
  94        0.9987
  95        1.0735
  96        1.0735
  97        1.0735
  98        1.0735
  99        1.1152
 100        1.1300
 101        1.1300
 102        1.1309
 103        1.1309
 104        1.1309
 105        1.1309
 106        1.2077
 107        1.2077
 108        1.2082
 109        1.2297
 110        1.2297
 111        1.2373
 112        1.2373
 113        1.2738
 114        1.4081
 115        1.4081
 116        1.4282
 117        1.4394
 118        1.4394
 119        1.4474
 120        1.4474
 121        1.4503
 122        1.4503
 123        1.4503
 124        1.4503
 125        1.4514
 126        1.4539
 127        1.4539
 128        1.4555
 129        1.4555
 130        1.4967
 131        1.4967
 132        1.5298
 133        1.5298
 134        1.5913
 135        1.5913
 136        1.5947
 137        1.5947
 138        1.5947
 139        1.5947
 140        1.6070
 141        1.6659
 142        1.6660
 143        1.7161
 144        1.7161
 145        1.7433
 146        1.7433
 147        1.8086
 148        1.8087
 149        1.9427
 150        1.9427
 151        1.9428
 152        1.9463
 153        1.9893
 154        1.9893
 155        1.9916
 156        1.9916
 157        2.0123
 158        2.0123
 159        2.0852
 160        2.0852
 161        2.1076
 162        2.1077
 163        2.1084
 164        2.1085
 165        2.1092
 166        2.1093
 167        2.1182
 168        2.5201
 169        2.5679
 170        2.5679
 171        2.8604
 172        2.8604
 173        2.8604
 174        2.8604
 175        3.2324
 176        3.2324
 177        3.3491
 178        3.3492
 179        3.8783
 180        3.8783
 181        3.8784
 182        3.8784
 183        4.5351
 184        4.9306
 185        4.9309
 186        5.4796
 187        7.3378
 188        7.3378
 189        7.9310
 190        7.9310
 191        8.1701
 192        8.1703
 193        8.9123
 194        8.9124
 195        8.9274
 196        8.9274
 197        9.3005
 198        9.3005
 199        9.9422
 200        9.9424
 201       10.6841
 202       10.8926
 203       10.8928
 204       11.1844
 205       11.1849
 206       11.4875
 207       11.4875
 208       11.4877
 209       11.4877
 210       11.5596
 211       11.7039
 212       11.7039
 213       12.3432
 214       12.3435
 215       12.7875
 216       12.7875
 
  0.2857143E+00  0.1428571E+00  0.0000000E+00  0.5830904E-02
   1       -5.2684
   2       -4.0392
   3       -3.2819
   4       -2.5987
   5       -2.5987
   6       -2.2619
   7       -2.0236
   8       -1.7116
   9       -1.7116
  10       -1.6399
  11       -1.3887
  12       -1.3887
  13       -1.3574
  14       -1.3574
  15       -1.2264
  16       -1.1938
  17       -1.1938
  18       -1.1309
  19       -1.0386
  20       -1.0137
  21       -0.8284
  22       -0.8284
  23       -0.6302
  24       -0.6266
  25       -0.6265
  26       -0.5919
  27       -0.5870
  28       -0.5770
  29       -0.4849
  30       -0.4849
  31       -0.4122
  32       -0.3851
  33       -0.3449
  34       -0.3295
  35       -0.3202
  36       -0.3202
  37       -0.2748
  38       -0.2651
  39       -0.1634
  40       -0.1242
  41       -0.0525
  42       -0.0138
  43       -0.0138
  44       -0.0098
  45       -0.0098
  46       -0.0013
  47        0.0158
  48        0.0564
  49        0.0958
  50        0.0958
  51        0.1172
  52        0.1258
  53        0.1258
  54        0.1558
  55        0.1937
  56        0.2253
  57        0.2253
  58        0.2479
  59        0.2698
  60        0.2698
  61        0.2916
  62        0.2916
  63        0.3083
  64        0.3159
  65        0.3369
  66        0.3369
  67        0.4067
  68        0.4153
  69        0.4478
  70        0.4478
  71        0.4944
  72        0.4944
  73        0.5134
  74        0.5134
  75        0.5310
  76        0.5310
  77        0.5678
  78        0.5951
  79        0.5951
  80        0.6368
  81        0.6806
  82        0.6806
  83        0.6967
  84        0.7033
  85        0.7105
  86        0.7134
  87        0.7134
  88        0.7256
  89        0.7900
  90        0.7900
  91        0.8233
  92        0.8482
  93        0.9409
  94        0.9541
  95        0.9541
  96        0.9890
  97        1.0193
  98        1.0193
  99        1.1110
 100        1.1110
 101        1.1320
 102        1.1486
 103        1.1674
 104        1.2033
 105        1.2033
 106        1.2040
 107        1.2115
 108        1.2167
 109        1.2167
 110        1.2737
 111        1.2747
 112        1.2986
 113        1.2986
 114        1.3188
 115        1.3270
 116        1.3546
 117        1.3546
 118        1.3867
 119        1.3939
 120        1.3939
 121        1.4319
 122        1.4399
 123        1.4399
 124        1.4534
 125        1.4592
 126        1.4684
 127        1.4714
 128        1.5203
 129        1.5203
 130        1.5459
 131        1.5600
 132        1.5632
 133        1.5841
 134        1.5841
 135        1.6033
 136        1.6226
 137        1.6374
 138        1.6982
 139        1.7022
 140        1.7022
 141        1.7044
 142        1.7044
 143        1.7071
 144        1.7121
 145        1.7211
 146        1.7425
 147        1.8158
 148        1.8158
 149        1.8696
 150        1.8833
 151        1.9099
 152        1.9259
 153        1.9377
 154        1.9377
 155        1.9651
 156        1.9651
 157        1.9738
 158        1.9782
 159        2.0213
 160        2.0213
 161        2.0328
 162        2.0335
 163        2.0373
 164        2.1073
 165        2.1087
 166        2.1092
 167        2.1096
 168        2.2478
 169        2.5158
 170        2.5158
 171        2.5871
 172        2.5871
 173        2.8263
 174        2.8263
 175        2.9183
 176        3.5735
 177        3.5735
 178        3.8763
 179        3.8763
 180        4.0000
 181        4.0523
 182        4.6257
 183        4.6257
 184        5.3443
 185        5.3475
 186        5.8923
 187        7.0120
 188        7.3595
 189        7.5650
 190        7.5650
 191        7.8192
 192        7.8192
 193        8.0206
 194        8.6282
 195        8.6282
 196        8.6524
 197        9.1692
 198        9.3966
 199        9.3966
 200       10.2222
 201       10.2222
 202       10.7552
 203       10.7917
 204       10.8035
 205       10.8035
 206       10.8672
 207       11.1257
 208       11.2749
 209       11.4115
 210       11.8130
 211       11.8130
 212       11.8375
 213       11.9680
 214       11.9790
 215       12.4531
 216       12.6354
 
  0.4285714E+00  0.1428571E+00  0.0000000E+00  0.5830904E-02
   1       -4.9677
   2       -4.5545
   3       -3.0244
   4       -2.6784
   5       -2.3673
   6       -2.3673
   7       -2.0636
   8       -2.0636
   9       -1.8102
  10       -1.5351
  11       -1.3860
  12       -1.3860
  13       -1.3731
  14       -1.3731
  15       -1.3203
  16       -1.1771
  17       -1.0859
  18       -1.0859
  19       -0.9603
  20       -0.9603
  21       -0.9087
  22       -0.8885
  23       -0.7495
  24       -0.7348
  25       -0.5542
  26       -0.5427
  27       -0.5417
  28       -0.4524
  29       -0.4253
  30       -0.4215