 vasp.4.6.28 25Jul05 complex 
 executed on             LinuxIFC date 2016.01.16  00:47:43
 running on    8 nodes
 distr:  one band on    1 nodes,    8 groups


--------------------------------------------------------------------------------------------------------


 INCAR:
 POTCAR:   PAW_PBE Cu 05Jan2001                   
 POTCAR:   PAW_PBE Cu 05Jan2001                   
   VRHFIN =Cu: d10 p1                                                           
   LEXCH  = PE                                                                  
   EATOM  =  1390.9800 eV,  102.2341 Ry                                         
                                                                                
   TITEL  = PAW_PBE Cu 05Jan2001                                                
   LULTRA =        F    use ultrasoft PP ?                                      
   IUNSCR =        1    unscreen: 0-lin 1-nonlin 2-no                           
   RPACOR =    2.000    partial core radius                                     
   POMASS =   63.546; ZVAL   =   11.000    mass and valenz                      
   RCORE  =    2.300    outmost cutoff radius                                   
   RWIGS  =    2.480; RWIGS  =    1.312    wigner-seitz radius (au A)           
   ENMAX  =  273.214; ENMIN  =  204.910 eV                                      
   RCLOC  =    1.712    cutoff for local pot                                    
   LCOR   =        T    correct aug charges                                     
   LPAW   =        T    paw PP                                                  
   EAUG   =  516.456                                                            
   DEXC   =    -.008                                                            
   RMAX   =    2.789    core radius for proj-oper                               
   RAUG   =    1.300    factor for augmentation sphere                          
   RDEP   =    2.302    radius for radial grids                                 
   QCUT   =   -4.481; QGAM   =    8.962    optimization parameters              
                                                                                
   Description                                                                  
     l     E      TYP  RCUT    TYP  RCUT                                        
     2   .000     23  2.300                                                     
     2   .000     23  2.300                                                     
     0   .000     23  2.300                                                     
     0   .000     23  2.300                                                     
     1  -.200     23  2.300                                                     
     1   .000     23  2.300                                                     
     3   .000      7   .000                                                     
  local pseudopotential read in
  partial core-charges read in
  atomic valenz-charges read in
  non local Contribution for L=           2  read in
    real space projection operators read in
  non local Contribution for L=           2  read in
    real space projection operators read in
  non local Contribution for L=           0  read in
    real space projection operators read in
  non local Contribution for L=           0  read in
    real space projection operators read in
  non local Contribution for L=           1  read in
    real space projection operators read in
  non local Contribution for L=           1  read in
    real space projection operators read in
    PAW grid and wavefunctions read in
 
   number of l-projection  operators is LMAX  =           6
   number of lm-projection operators is LMMAX =          18
 

 ----------------------------------------------------------------------------- 
|                                                                             |
|  ADVICE TO THIS USER RUNNING 'VASP/VAMP'   (HEAR YOUR MASTER'S VOICE ...):  |
|                                                                             |
|      You have a (more or less) 'large supercell' and for larger cells       |
|      it might be more efficient to use real space projection operators      |
|      So try LREAL= Auto  in the INCAR   file.                               |
|      Mind: If you want to do an extremely accurate calculations keep the    |
|      reciprocal projection scheme          (i.e. LREAL=.FALSE.)             |
|                                                                             |
 ----------------------------------------------------------------------------- 

 PAW_PBE Cu 05Jan2001                   :
 energy of atom  1       EATOM=-1390.9800
 kinetic energy error for atom=    0.0032 (will be added to EATOM!!)
 
 EXHCAR: internal setup
 exchange correlation table for  LEXCH =        8
   RHO(1)=    0.500       N(1)  =     2000
   RHO(2)=  100.500       N(2)  =     4000
 
 POSCAR: Cu                                      
  positions in direct lattice
  velocities in cartesian coordinates
 


--------------------------------------------------------------------------------------------------------


 ion  position               nearest neighbor table
   1  0.250  0.250  0.000-  18 2.57  22 2.57  26 2.57  28 2.57   9 2.57  11 2.57  13 2.57  15 2.57
                            25 2.57  21 2.57  27 2.57  17 2.57
   2  0.750  0.250  0.000-  18 2.57  22 2.57  26 2.57  28 2.57  10 2.57  12 2.57  14 2.57  16 2.57
                            25 2.57  21 2.57  27 2.57  17 2.57
   3  0.250  0.750  0.000-  19 2.57  23 2.57  25 2.57  27 2.57  26 2.57  28 2.57  13 2.57  15 2.57
                             9 2.57  11 2.57  20 2.57  24 2.57
   4  0.750  0.750  0.000-  19 2.57  23 2.57  26 2.57  28 2.57  27 2.57  25 2.57  14 2.57  16 2.57
                            10 2.57  12 2.57  20 2.57  24 2.57
   5  0.250  0.250  0.500-  29 2.57  31 2.57  17 2.57  21 2.57  18 2.57  22 2.57  13 2.57  15 2.57
                             9 2.57  11 2.57  30 2.57  32 2.57
   6  0.750  0.250  0.500-  29 2.57  31 2.57  18 2.57  22 2.57  21 2.57  17 2.57  14 2.57  16 2.57
                            10 2.57  12 2.57  30 2.57  32 2.57
   7  0.250  0.750  0.500-  20 2.57  24 2.57  30 2.57  32 2.57  29 2.57  23 2.57  31 2.57  19 2.57
                             9 2.57  11 2.57  13 2.57  15 2.57
   8  0.750  0.750  0.500-  20 2.57  24 2.57  30 2.57  32 2.57  10 2.57  12 2.57  14 2.57  16 2.57
                            29 2.57  23 2.57  31 2.57  19 2.57
   9  0.250  0.000  0.250-  20 2.57  30 2.57  25 2.57  17 2.57  26 2.57  18 2.57   1 2.57   3 2.57
                             5 2.57   7 2.57  29 2.57  19 2.57
  10  0.750  1.000  0.250-  19 2.57  29 2.57  26 2.57  18 2.57  17 2.57  25 2.57   8 2.57   6 2.57
                             4 2.57   2 2.57  20 2.57  30 2.57
  11  0.250  0.500  0.250-  20 2.57  32 2.57  27 2.57  17 2.57  28 2.57  18 2.57   1 2.57   3 2.57
                             5 2.57   7 2.57  31 2.57  19 2.57
  12  0.750  0.500  0.250-  19 2.57  31 2.57  28 2.57  18 2.57  17 2.57  27 2.57   8 2.57   6 2.57
                             4 2.57   2 2.57  20 2.57  32 2.57
  13  0.250  0.000  0.750-  24 2.57  30 2.57  25 2.57  21 2.57  26 2.57  22 2.57   1 2.57   3 2.57
                             5 2.57   7 2.57  29 2.57  23 2.57
  14  0.750  1.000  0.750-  23 2.57  29 2.57  26 2.57  22 2.57  21 2.57  25 2.57   8 2.57   6 2.57
                             4 2.57   2 2.57  24 2.57  30 2.57
  15  0.250  0.500  0.750-  24 2.57  32 2.57  27 2.57  21 2.57  28 2.57  22 2.57   1 2.57   3 2.57
                             5 2.57   7 2.57  31 2.57  23 2.57
  16  0.750  0.500  0.750-  23 2.57  31 2.57  28 2.57  22 2.57  21 2.57  27 2.57   8 2.57   6 2.57
                             4 2.57   2 2.57  24 2.57  32 2.57
  17  0.000  0.250  0.250-  25 2.57  27 2.57   5 2.57   9 2.57  11 2.57   6 2.57  10 2.57  12 2.57
                             1 2.57   2 2.57  29 2.57  31 2.57
  18  0.500  0.250  0.250-   2 2.57   1 2.57  10 2.57  12 2.57   6 2.57  30 2.57  32 2.57  11 2.57
                             9 2.57   5 2.57  26 2.57  28 2.57
  19  0.000  0.750  0.250-   4 2.57   3 2.57  10 2.57  12 2.57   7 2.57   8 2.57  11 2.57   9 2.57
                            25 2.57  27 2.57  29 2.57  31 2.57
  20  0.500  0.750  0.250-   9 2.57  11 2.57   8 2.57  30 2.57  32 2.57  26 2.57  28 2.57   7 2.57
                            10 2.57  12 2.57   3 2.57   4 2.57
  21  0.000  0.250  0.750-  25 2.57  27 2.57   5 2.57  13 2.57  15 2.57   6 2.57  14 2.57  16 2.57
                             1 2.57   2 2.57  29 2.57  31 2.57
  22  0.500  0.250  0.750-   2 2.57   1 2.57  14 2.57  16 2.57   6 2.57  30 2.57  32 2.57  15 2.57
                            13 2.57   5 2.57  26 2.57  28 2.57
  23  0.000  0.750  0.750-   4 2.57   3 2.57  14 2.57  16 2.57   7 2.57   8 2.57  15 2.57  13 2.57
                            25 2.57  27 2.57  29 2.57  31 2.57
  24  0.500  0.750  0.750-  13 2.57  15 2.57   8 2.57  30 2.57  32 2.57  26 2.57  28 2.57   7 2.57
                            14 2.57  16 2.57   3 2.57   4 2.57
  25  0.000  0.000  0.000-  17 2.57  21 2.57   3 2.57   9 2.57  13 2.57   4 2.57  10 2.57  14 2.57
                             1 2.57   2 2.57  19 2.57  23 2.57
  26  0.500  1.000  0.000-   2 2.57   1 2.57  10 2.57  14 2.57   4 2.57  20 2.57  24 2.57  13 2.57
                             9 2.57   3 2.57  22 2.57  18 2.57
  27  0.000  0.500  0.000-  17 2.57  21 2.57   3 2.57  11 2.57  15 2.57   4 2.57  12 2.57  16 2.57
                             1 2.57   2 2.57  19 2.57  23 2.57
  28  0.500  0.500  0.000-   2 2.57   1 2.57  12 2.57  16 2.57   4 2.57  20 2.57  24 2.57  15 2.57
                            11 2.57   3 2.57  22 2.57  18 2.57
  29  0.000  0.000  0.500-   6 2.57   5 2.57  10 2.57  14 2.57   7 2.57   8 2.57  13 2.57   9 2.57
                            17 2.57  21 2.57  19 2.57  23 2.57
  30  0.500  1.000  0.500-   9 2.57  13 2.57   8 2.57  20 2.57  24 2.57  22 2.57  18 2.57   7 2.57
                            10 2.57  14 2.57   5 2.57   6 2.57
  31  0.000  0.500  0.500-   6 2.57   5 2.57  12 2.57  16 2.57   7 2.57   8 2.57  15 2.57  11 2.57
                            17 2.57  21 2.57  19 2.57  23 2.57
  32  0.500  0.500  0.500-  11 2.57  15 2.57   8 2.57  20 2.57  24 2.57  22 2.57  18 2.57   7 2.57
                            12 2.57  16 2.57   5 2.57   6 2.57
 
  LATTYP: Found a simple tetragonal cell.
 ALAT       =     7.2726965831
 C/A-ratio  =     0.9999860433
  
  Lattice vectors:
  
 A1 = (   0.0000000000,   7.2726965831,   0.0000000000)
 A2 = (   0.0000000000,   0.0000000000,  -7.2726965831)
 A3 = (  -7.2725950804,   0.0000000000,   0.0000000000)
 Subroutine PRICEL returns:
 Original cell was already a primitive cell.
 

Analysis of symmetry for initial positions (statically):

 Routine SETGRP: Setting up the symmetry group for a 
 simple tetragonal supercell.


 Subroutine GETGRP returns: Found  2 space group operations
 (whereof  2 operations were pure point group operations)
 out of a pool of 16 trial point group operations.


The static configuration has the point symmetry C_1h.

Analysis of symmetry for dynamics (positions and initial velocities):

 Subroutine DYNSYM returns: Found  2 space group operations
 (whereof  2 operations were pure point group operations)
 out of a pool of  2 trial space group operations
 (whereof  2 operations were pure point group operations)
 and found also     1 'primitive' translations


The dynamic configuration has the point symmetry C_1h.
 
 
 KPOINTS: Automatic mesh                          

Automatic generation of k-mesh.
 generate k-points for:   7   7   7
 
 Subroutine IBZKPT returns following result:
 ===========================================
 
 Found    100 irreducible k-points:
 
 Following reciprocal coordinates:
            Coordinates               Weight
  0.000000  0.000000  0.000000      1.000000
  0.142857  0.000000  0.000000      2.000000
  0.285714  0.000000  0.000000      2.000000
  0.428571  0.000000  0.000000      2.000000
  0.000000  0.142857  0.000000      2.000000
  0.142857  0.142857  0.000000      2.000000
  0.285714  0.142857  0.000000      2.000000
  0.428571  0.142857  0.000000      2.000000
 -0.428571  0.142857  0.000000      2.000000
 -0.285714  0.142857  0.000000      2.000000
 -0.142857  0.142857  0.000000      2.000000
  0.000000  0.285714  0.000000      2.000000
  0.142857  0.285714  0.000000      2.000000
  0.285714  0.285714  0.000000      2.000000
  0.428571  0.285714  0.000000      2.000000
 -0.428571  0.285714  0.000000      2.000000
 -0.285714  0.285714  0.000000      2.000000
 -0.142857  0.285714  0.000000      2.000000
  0.000000  0.428571  0.000000      2.000000
  0.142857  0.428571  0.000000      2.000000
  0.285714  0.428571  0.000000      2.000000
  0.428571  0.428571  0.000000      2.000000
 -0.428571  0.428571  0.000000      2.000000
 -0.285714  0.428571  0.000000      2.000000
 -0.142857  0.428571  0.000000      2.000000
  0.000000  0.000000  0.142857      2.000000
  0.142857  0.000000  0.142857      4.000000
  0.285714  0.000000  0.142857      4.000000
  0.428571  0.000000  0.142857      4.000000
  0.000000  0.142857  0.142857      4.000000
  0.142857  0.142857  0.142857      4.000000
  0.285714  0.142857  0.142857      4.000000
  0.428571  0.142857  0.142857      4.000000
 -0.428571  0.142857  0.142857      4.000000
 -0.285714  0.142857  0.142857      4.000000
 -0.142857  0.142857  0.142857      4.000000
  0.000000  0.285714  0.142857      4.000000
  0.142857  0.285714  0.142857      4.000000
  0.285714  0.285714  0.142857      4.000000
  0.428571  0.285714  0.142857      4.000000
 -0.428571  0.285714  0.142857      4.000000
 -0.285714  0.285714  0.142857      4.000000
 -0.142857  0.285714  0.142857      4.000000
  0.000000  0.428571  0.142857      4.000000
  0.142857  0.428571  0.142857      4.000000
  0.285714  0.428571  0.142857      4.000000
  0.428571  0.428571  0.142857      4.000000
 -0.428571  0.428571  0.142857      4.000000
 -0.285714  0.428571  0.142857      4.000000
 -0.142857  0.428571  0.142857      4.000000
  0.000000  0.000000  0.285714      2.000000
  0.142857  0.000000  0.285714      4.000000
  0.285714  0.000000  0.285714      4.000000
  0.428571  0.000000  0.285714      4.000000
  0.000000  0.142857  0.285714      4.000000
  0.142857  0.142857  0.285714      4.000000
  0.285714  0.142857  0.285714      4.000000
  0.428571  0.142857  0.285714      4.000000
 -0.428571  0.142857  0.285714      4.000000
 -0.285714  0.142857  0.285714      4.000000
 -0.142857  0.142857  0.285714      4.000000
  0.000000  0.285714  0.285714      4.000000
  0.142857  0.285714  0.285714      4.000000
  0.285714  0.285714  0.285714      4.000000
  0.428571  0.285714  0.285714      4.000000
 -0.428571  0.285714  0.285714      4.000000
 -0.285714  0.285714  0.285714      4.000000
 -0.142857  0.285714  0.285714      4.000000
  0.000000  0.428571  0.285714      4.000000
  0.142857  0.428571  0.285714      4.000000
  0.285714  0.428571  0.285714      4.000000
  0.428571  0.428571  0.285714      4.000000
 -0.428571  0.428571  0.285714      4.000000
 -0.285714  0.428571  0.285714      4.000000
 -0.142857  0.428571  0.285714      4.000000
  0.000000  0.000000  0.428571      2.000000
  0.142857  0.000000  0.428571      4.000000
  0.285714  0.000000  0.428571      4.000000
  0.428571  0.000000  0.428571      4.000000
  0.000000  0.142857  0.428571      4.000000
  0.142857  0.142857  0.428571      4.000000
  0.285714  0.142857  0.428571      4.000000
  0.428571  0.142857  0.428571      4.000000
 -0.428571  0.142857  0.428571      4.000000
 -0.285714  0.142857  0.428571      4.000000
 -0.142857  0.142857  0.428571      4.000000
  0.000000  0.285714  0.428571      4.000000
  0.142857  0.285714  0.428571      4.000000
  0.285714  0.285714  0.428571      4.000000
  0.428571  0.285714  0.428571      4.000000
 -0.428571  0.285714  0.428571      4.000000
 -0.285714  0.285714  0.428571      4.000000
 -0.142857  0.285714  0.428571      4.000000
  0.000000  0.428571  0.428571      4.000000
  0.142857  0.428571  0.428571      4.000000
  0.285714  0.428571  0.428571      4.000000
  0.428571  0.428571  0.428571      4.000000
 -0.428571  0.428571  0.428571      4.000000
 -0.285714  0.428571  0.428571      4.000000
 -0.142857  0.428571  0.428571      4.000000
 
 Following cartesian coordinates:
            Coordinates               Weight
  0.000000  0.000000  0.000000      1.000000
  0.019643  0.000000  0.000000      2.000000
  0.039286  0.000000  0.000000      2.000000
  0.058930  0.000000  0.000000      2.000000
  0.000000  0.019643  0.000000      2.000000
  0.019643  0.019643  0.000000      2.000000
  0.039286  0.019643  0.000000      2.000000
  0.058930  0.019643  0.000000      2.000000
 -0.058930  0.019643  0.000000      2.000000
 -0.039286  0.019643  0.000000      2.000000
 -0.019643  0.019643  0.000000      2.000000
  0.000000  0.039286  0.000000      2.000000
  0.019643  0.039286  0.000000      2.000000
  0.039286  0.039286  0.000000      2.000000
  0.058930  0.039286  0.000000      2.000000
 -0.058930  0.039286  0.000000      2.000000
 -0.039286  0.039286  0.000000      2.000000
 -0.019643  0.039286  0.000000      2.000000
  0.000000  0.058929  0.000000      2.000000
  0.019643  0.058929  0.000000      2.000000
  0.039286  0.058929  0.000000      2.000000
  0.058930  0.058929  0.000000      2.000000
 -0.058930  0.058929  0.000000      2.000000
 -0.039286  0.058929  0.000000      2.000000
 -0.019643  0.058929  0.000000      2.000000
  0.000000  0.000000  0.019643      2.000000
  0.019643  0.000000  0.019643      4.000000
  0.039286  0.000000  0.019643      4.000000
  0.058930  0.000000  0.019643      4.000000
  0.000000  0.019643  0.019643      4.000000
  0.019643  0.019643  0.019643      4.000000
  0.039286  0.019643  0.019643      4.000000
  0.058930  0.019643  0.019643      4.000000
 -0.058930  0.019643  0.019643      4.000000
 -0.039286  0.019643  0.019643      4.000000
 -0.019643  0.019643  0.019643      4.000000
  0.000000  0.039286  0.019643      4.000000
  0.019643  0.039286  0.019643      4.000000
  0.039286  0.039286  0.019643      4.000000
  0.058930  0.039286  0.019643      4.000000
 -0.058930  0.039286  0.019643      4.000000
 -0.039286  0.039286  0.019643      4.000000
 -0.019643  0.039286  0.019643      4.000000
  0.000000  0.058929  0.019643      4.000000
  0.019643  0.058929  0.019643      4.000000
  0.039286  0.058929  0.019643      4.000000
  0.058930  0.058929  0.019643      4.000000
 -0.058930  0.058929  0.019643      4.000000
 -0.039286  0.058929  0.019643      4.000000
 -0.019643  0.058929  0.019643      4.000000
  0.000000  0.000000  0.039286      2.000000
  0.019643  0.000000  0.039286      4.000000
  0.039286  0.000000  0.039286      4.000000
  0.058930  0.000000  0.039286      4.000000
  0.000000  0.019643  0.039286      4.000000
  0.019643  0.019643  0.039286      4.000000
  0.039286  0.019643  0.039286      4.000000
  0.058930  0.019643  0.039286      4.000000
 -0.058930  0.019643  0.039286      4.000000
 -0.039286  0.019643  0.039286      4.000000
 -0.019643  0.019643  0.039286      4.000000
  0.000000  0.039286  0.039286      4.000000
  0.019643  0.039286  0.039286      4.000000
  0.039286  0.039286  0.039286      4.000000
  0.058930  0.039286  0.039286      4.000000
 -0.058930  0.039286  0.039286      4.000000
 -0.039286  0.039286  0.039286      4.000000
 -0.019643  0.039286  0.039286      4.000000
  0.000000  0.058929  0.039286      4.000000
  0.019643  0.058929  0.039286      4.000000
  0.039286  0.058929  0.039286      4.000000
  0.058930  0.058929  0.039286      4.000000
 -0.058930  0.058929  0.039286      4.000000
 -0.039286  0.058929  0.039286      4.000000
 -0.019643  0.058929  0.039286      4.000000
  0.000000  0.000000  0.058929      2.000000
  0.019643  0.000000  0.058929      4.000000
  0.039286  0.000000  0.058929      4.000000
  0.058930  0.000000  0.058929      4.000000
  0.000000  0.019643  0.058929      4.000000
  0.019643  0.019643  0.058929      4.000000
  0.039286  0.019643  0.058929      4.000000
  0.058930  0.019643  0.058929      4.000000
 -0.058930  0.019643  0.058929      4.000000
 -0.039286  0.019643  0.058929      4.000000
 -0.019643  0.019643  0.058929      4.000000
  0.000000  0.039286  0.058929      4.000000
  0.019643  0.039286  0.058929      4.000000
  0.039286  0.039286  0.058929      4.000000
  0.058930  0.039286  0.058929      4.000000
 -0.058930  0.039286  0.058929      4.000000
 -0.039286  0.039286  0.058929      4.000000
 -0.019643  0.039286  0.058929      4.000000
  0.000000  0.058929  0.058929      4.000000
  0.019643  0.058929  0.058929      4.000000
  0.039286  0.058929  0.058929      4.000000
  0.058930  0.058929  0.058929      4.000000
 -0.058930  0.058929  0.058929      4.000000
 -0.039286  0.058929  0.058929      4.000000
 -0.019643  0.058929  0.058929      4.000000
 


--------------------------------------------------------------------------------------------------------




 Dimension of arrays:
   k-Points           NKPTS =    100   number of bands    NBANDS=    216
   number of dos      NEDOS =    301   number of ions     NIONS =     32
   non local maximal  LDIM  =      6   non local SUM 2l+1 LMDIM =     18
   total plane-waves  NPLWV = 157464
   max r-space proj   IRMAX =      1   max aug-charges    IRDMAX= 115123
   dimension x,y,z NGX =    54 NGY =   54 NGZ =   54
   dimension x,y,z NGXF=   108 NGYF=  108 NGZF=  108
   support grid    NGXF=   216 NGYF=  216 NGZF=  216
   ions per type =              32
 NGX,Y,Z   is equivalent  to a cutoff of  12.34, 12.34, 12.34 a.u.
 NGXF,Y,Z  is equivalent  to a cutoff of  24.69, 24.69, 24.69 a.u.


 I would recommend the setting:
   dimension x,y,z NGX =    53 NGY =   53 NGZ =   53
 SYSTEM =  unknown system                          
 POSCAR =  Cu                                      

 Startparameter for this run:
   NWRITE =      2    write-flag & timer
   PREC   = accura    medium, high low
   ISTART =      0    job   : 0-new  1-cont  2-samecut
   ICHARG =      2    charge: 1-file 2-atom 10-const
   ISPIN  =      1    spin polarized calculation?
   LNONCOLLINEAR =      F non collinear calculations
   LSORBIT =      F    spin-orbit coupling
   INIWAV =      1    electr: 0-lowe 1-rand  2-diag
   LASPH  =      F    aspherical Exc in radial PAW
   METAGGA=      F    non-selfconsistent MetaGGA calc.

 Electronic Relaxation 1
   ENCUT  =  500.0 eV  36.75 Ry    6.06 a.u.  13.26 13.26 13.26*2*pi/ulx,y,z
   ENINI  =  500.0     initial cutoff
   ENAUG  =  516.5 eV  augmentation charge cutoff
   NELM   =     60;   NELMIN=  2; NELMDL=  0     # of ELM steps 
   EDIFF  = 0.1E-07   stopping-criterion for ELM
   LREAL  =      F    real-space projection
   LCOMPAT=      F    compatible to vasp.4.4
   LREAL_COMPAT= F    compatible to vasp.4.5.1-3
   GGA_COMPAT  = T    GGA compatible to vasp.4.4-vasp.4.6
   LMAXPAW     = -100 max onsite density
   LMAXMIX     =    2 max onsite mixed and CHGCAR
   VOSKOWN=      0    Vosko Wilk Nusair interpolation
   ROPT   =    0.00000
 Ionic relaxation
   EDIFFG = 0.1E-06   stopping-criterion for IOM
   NSW    =     60    number of steps for IOM
   NBLOCK =      1;   KBLOCK =     60    inner block; outer block 
   IBRION =      2    ionic relax: 0-MD 1-quasi-New 2-CG
   NFREE  =      1    steps in history (QN), initial steepest desc. (CG)
   ISIF   =      3    stress and relaxation
   IWAVPR =     11    prediction:  0-non 1-charg 2-wave 3-comb
   ISYM   =      2    0-nonsym 1-usesym 2-fastsym
   LCORR  =      T    Harris-Foulkes like correction to forces

   POTIM  =   0.50    time-step for ionic-motion
   TEIN   =    0.0    initial temperature
   TEBEG  =    0.0;   TEEND  =   0.0 temperature during run
   SMASS  =  -3.00    Nose mass-parameter (am)
   estimated Nose-frequenzy (Omega)   =  0.10E-29 period in steps =****** mass=  -0.121E-26a.u.
   NPACO  =    256;   APACO  = 16.0  distance and # of slots for P.C.
   PSTRESS=    0.0 pullay stress

  Mass of Ions in am
   POMASS =  63.55
  Ionic Valenz
   ZVAL   =  11.00
  Atomic Wigner-Seitz radii
   RWIGS  =  -1.00
   NELECT =     352.0000    total number of electrons
   NUPDOWN=      -1.0000    fix difference up-down

 DOS related values:
   EMIN   =  10.00;   EMAX   =-10.00  energy-range for DOS
   ISMEAR =     0;   SIGMA  =   0.01  broadening in eV -4-tet -1-fermi 0-gaus

 Electronic relaxation 2 (details)
   IALGO  =     38    algorithm
   LDIAG  =      T    sub-space diagonalisation
   IMIX   =      4    mixing-type and parameters
     AMIX     =   0.40;   BMIX     =  1.00
     AMIX_MAG =   1.60;   BMIX_MAG =  1.00
     AMIN     =   0.10
     WC   =   100.;   INIMIX=   1;  MIXPRE=   1

 Intra band minimization:
   WEIMIN = 0.0010     energy-eigenvalue tresh-hold
   EBREAK =  0.12E-10  absolut break condition
   DEPER  =   0.30     relativ break condition  

   TIME   =   0.10     timestep for ELM

  volume/ion in A,a.u.               =      12.02        81.12
  Fermi-wavevector in a.u.,eV,Ry     =   1.589384 34.370258  2.526143

 Second variation
   LSECVAR=     F    do a second variation
 
 Write flags
   LWAVE  =      F    write WAVECAR
   LCHARG =      F    write CHGCAR
   LVTOT  =      F    write LOCPOT, local potential
   LELF   =      F    write electronic localiz. function (ELF)
   LORBIT =      0    0 simple, 1 ext, 2 COOP (PROOUT)


 Dipole corrections
   IDIPOL =      0    1-x, 2-y, 3-z
   LDIPOL =      F    correct potential



--------------------------------------------------------------------------------------------------------


 conjugate gradient relaxation of ions
 charge density will be updated during run
 non-spin polarized calculation
 Variant of blocked Davidson
 Davidson routine will perform the subspace rotation
 performe sub-space diagonalisation
    after iterative eigenvector-optimisation
 modified Broyden-mixing scheme, WC =      100.0
 initial mixing is a Kerker type mixing with AMIX =  0.4000 and BMIX =      1.0000
 Hartree-type preconditioning will be used
 using additional bands           40
 reciprocal scheme for non local part
 use partial core corrections
 calculate Harris-corrections to forces 
   (improved forces if not selfconsistent)
 use gradient corrections 
 use of overlap-Matrix (Vanderbilt PP)
 Gauss-broadening in eV      SIGMA  =   0.01


--------------------------------------------------------------------------------------------------------


  energy-cutoff  :      500.00
  volume of cell :      384.66
      direct lattice vectors                 reciprocal lattice vectors
     7.272595080  0.000000000  0.000000000     0.137502499  0.000000000  0.000000000
     0.000000000  7.272696583  0.000000000     0.000000000  0.137500580  0.000000000
     0.000000000  0.000000000  7.272696583     0.000000000  0.000000000  0.137500580

  length of vectors
     7.272595080  7.272696583  7.272696583     0.137502499  0.137500580  0.137500580


 
 k-points in units of 2pi/SCALE and weight: Automatic mesh                          
   0.00000000  0.00000000  0.00000000       0.003
   0.01964321  0.00000000  0.00000000       0.006
   0.03928643  0.00000000  0.00000000       0.006
   0.05892964  0.00000000  0.00000000       0.006
   0.00000000  0.01964294  0.00000000       0.006
   0.01964321  0.01964294  0.00000000       0.006
   0.03928643  0.01964294  0.00000000       0.006
   0.05892964  0.01964294  0.00000000       0.006
  -0.05892964  0.01964294  0.00000000       0.006
  -0.03928643  0.01964294  0.00000000       0.006
  -0.01964321  0.01964294  0.00000000       0.006
   0.00000000  0.03928588  0.00000000       0.006
   0.01964321  0.03928588  0.00000000       0.006
   0.03928643  0.03928588  0.00000000       0.006
   0.05892964  0.03928588  0.00000000       0.006
  -0.05892964  0.03928588  0.00000000       0.006
  -0.03928643  0.03928588  0.00000000       0.006
  -0.01964321  0.03928588  0.00000000       0.006
   0.00000000  0.05892882  0.00000000       0.006
   0.01964321  0.05892882  0.00000000       0.006
   0.03928643  0.05892882  0.00000000       0.006
   0.05892964  0.05892882  0.00000000       0.006
  -0.05892964  0.05892882  0.00000000       0.006
  -0.03928643  0.05892882  0.00000000       0.006
  -0.01964321  0.05892882  0.00000000       0.006
   0.00000000  0.00000000  0.01964294       0.006
   0.01964321  0.00000000  0.01964294       0.012
   0.03928643  0.00000000  0.01964294       0.012
   0.05892964  0.00000000  0.01964294       0.012
   0.00000000  0.01964294  0.01964294       0.012
   0.01964321  0.01964294  0.01964294       0.012
   0.03928643  0.01964294  0.01964294       0.012
   0.05892964  0.01964294  0.01964294       0.012
  -0.05892964  0.01964294  0.01964294       0.012
  -0.03928643  0.01964294  0.01964294       0.012
  -0.01964321  0.01964294  0.01964294       0.012
   0.00000000  0.03928588  0.01964294       0.012
   0.01964321  0.03928588  0.01964294       0.012
   0.03928643  0.03928588  0.01964294       0.012
   0.05892964  0.03928588  0.01964294       0.012
  -0.05892964  0.03928588  0.01964294       0.012
  -0.03928643  0.03928588  0.01964294       0.012
  -0.01964321  0.03928588  0.01964294       0.012
   0.00000000  0.05892882  0.01964294       0.012
   0.01964321  0.05892882  0.01964294       0.012
   0.03928643  0.05892882  0.01964294       0.012
   0.05892964  0.05892882  0.01964294       0.012
  -0.05892964  0.05892882  0.01964294       0.012
  -0.03928643  0.05892882  0.01964294       0.012
  -0.01964321  0.05892882  0.01964294       0.012
   0.00000000  0.00000000  0.03928588       0.006
   0.01964321  0.00000000  0.03928588       0.012
   0.03928643  0.00000000  0.03928588       0.012
   0.05892964  0.00000000  0.03928588       0.012
   0.00000000  0.01964294  0.03928588       0.012
   0.01964321  0.01964294  0.03928588       0.012
   0.03928643  0.01964294  0.03928588       0.012
   0.05892964  0.01964294  0.03928588       0.012
  -0.05892964  0.01964294  0.03928588       0.012
  -0.03928643  0.01964294  0.03928588       0.012
  -0.01964321  0.01964294  0.03928588       0.012
   0.00000000  0.03928588  0.03928588       0.012
   0.01964321  0.03928588  0.03928588       0.012
   0.03928643  0.03928588  0.03928588       0.012
   0.05892964  0.03928588  0.03928588       0.012
  -0.05892964  0.03928588  0.03928588       0.012
  -0.03928643  0.03928588  0.03928588       0.012
  -0.01964321  0.03928588  0.03928588       0.012
   0.00000000  0.05892882  0.03928588       0.012
   0.01964321  0.05892882  0.03928588       0.012
   0.03928643  0.05892882  0.03928588       0.012
   0.05892964  0.05892882  0.03928588       0.012
  -0.05892964  0.05892882  0.03928588       0.012
  -0.03928643  0.05892882  0.03928588       0.012
  -0.01964321  0.05892882  0.03928588       0.012
   0.00000000  0.00000000  0.05892882       0.006
   0.01964321  0.00000000  0.05892882       0.012
   0.03928643  0.00000000  0.05892882       0.012
   0.05892964  0.00000000  0.05892882       0.012
   0.00000000  0.01964294  0.05892882       0.012
   0.01964321  0.01964294  0.05892882       0.012
   0.03928643  0.01964294  0.05892882       0.012
   0.05892964  0.01964294  0.05892882       0.012
  -0.05892964  0.01964294  0.05892882       0.012
  -0.03928643  0.01964294  0.05892882       0.012
  -0.01964321  0.01964294  0.05892882       0.012
   0.00000000  0.03928588  0.05892882       0.012
   0.01964321  0.03928588  0.05892882       0.012
   0.03928643  0.03928588  0.05892882       0.012
   0.05892964  0.03928588  0.05892882       0.012
  -0.05892964  0.03928588  0.05892882       0.012
  -0.03928643  0.03928588  0.05892882       0.012
  -0.01964321  0.03928588  0.05892882       0.012
   0.00000000  0.05892882  0.05892882       0.012
   0.01964321  0.05892882  0.05892882       0.012
   0.03928643  0.05892882  0.05892882       0.012
   0.05892964  0.05892882  0.05892882       0.012
  -0.05892964  0.05892882  0.05892882       0.012
  -0.03928643  0.05892882  0.05892882       0.012
  -0.01964321  0.05892882  0.05892882       0.012
 
 k-points in reciprocal lattice and weights: Automatic mesh                          
   0.00000000  0.00000000  0.00000000       0.003
   0.14285714  0.00000000  0.00000000       0.006
   0.28571429  0.00000000  0.00000000       0.006
   0.42857143  0.00000000  0.00000000       0.006
   0.00000000  0.14285714  0.00000000       0.006
   0.14285714  0.14285714  0.00000000       0.006
   0.28571429  0.14285714  0.00000000       0.006
   0.42857143  0.14285714  0.00000000       0.006
  -0.42857143  0.14285714  0.00000000       0.006
  -0.28571429  0.14285714  0.00000000       0.006
  -0.14285714  0.14285714  0.00000000       0.006
   0.00000000  0.28571429  0.00000000       0.006
   0.14285714  0.28571429  0.00000000       0.006
   0.28571429  0.28571429  0.00000000       0.006
   0.42857143  0.28571429  0.00000000       0.006
  -0.42857143  0.28571429  0.00000000       0.006
  -0.28571429  0.28571429  0.00000000       0.006
  -0.14285714  0.28571429  0.00000000       0.006
   0.00000000  0.42857143  0.00000000       0.006
   0.14285714  0.42857143  0.00000000       0.006
   0.28571429  0.42857143  0.00000000       0.006
   0.42857143  0.42857143  0.00000000       0.006
  -0.42857143  0.42857143  0.00000000       0.006
  -0.28571429  0.42857143  0.00000000       0.006
  -0.14285714  0.42857143  0.00000000       0.006
   0.00000000  0.00000000  0.14285714       0.006
   0.14285714  0.00000000  0.14285714       0.012
   0.28571429  0.00000000  0.14285714       0.012
   0.42857143  0.00000000  0.14285714       0.012
   0.00000000  0.14285714  0.14285714       0.012
   0.14285714  0.14285714  0.14285714       0.012
   0.28571429  0.14285714  0.14285714       0.012
   0.42857143  0.14285714  0.14285714       0.012
  -0.42857143  0.14285714  0.14285714       0.012
  -0.28571429  0.14285714  0.14285714       0.012
  -0.14285714  0.14285714  0.14285714       0.012
   0.00000000  0.28571429  0.14285714       0.012
   0.14285714  0.28571429  0.14285714       0.012
   0.28571429  0.28571429  0.14285714       0.012
   0.42857143  0.28571429  0.14285714       0.012
  -0.42857143  0.28571429  0.14285714       0.012
  -0.28571429  0.28571429  0.14285714       0.012
  -0.14285714  0.28571429  0.14285714       0.012
   0.00000000  0.42857143  0.14285714       0.012
   0.14285714  0.42857143  0.14285714       0.012
   0.28571429  0.42857143  0.14285714       0.012
   0.42857143  0.42857143  0.14285714       0.012
  -0.42857143  0.42857143  0.14285714       0.012
  -0.28571429  0.42857143  0.14285714       0.012
  -0.14285714  0.42857143  0.14285714       0.012
   0.00000000  0.00000000  0.28571429       0.006
   0.14285714  0.00000000  0.28571429       0.012
   0.28571429  0.00000000  0.28571429       0.012
   0.42857143  0.00000000  0.28571429       0.012
   0.00000000  0.14285714  0.28571429       0.012
   0.14285714  0.14285714  0.28571429       0.012
   0.28571429  0.14285714  0.28571429       0.012
   0.42857143  0.14285714  0.28571429       0.012
  -0.42857143  0.14285714  0.28571429       0.012
  -0.28571429  0.14285714  0.28571429       0.012
  -0.14285714  0.14285714  0.28571429       0.012
   0.00000000  0.28571429  0.28571429       0.012
   0.14285714  0.28571429  0.28571429       0.012
   0.28571429  0.28571429  0.28571429       0.012
   0.42857143  0.28571429  0.28571429       0.012
  -0.42857143  0.28571429  0.28571429       0.012
  -0.28571429  0.28571429  0.28571429       0.012
  -0.14285714  0.28571429  0.28571429       0.012
   0.00000000  0.42857143  0.28571429       0.012
   0.14285714  0.42857143  0.28571429       0.012
   0.28571429  0.42857143  0.28571429       0.012
   0.42857143  0.42857143  0.28571429       0.012
  -0.42857143  0.42857143  0.28571429       0.012
  -0.28571429  0.42857143  0.28571429       0.012
  -0.14285714  0.42857143  0.28571429       0.012
   0.00000000  0.00000000  0.42857143       0.006
   0.14285714  0.00000000  0.42857143       0.012
   0.28571429  0.00000000  0.42857143       0.012
   0.42857143  0.00000000  0.42857143       0.012
   0.00000000  0.14285714  0.42857143       0.012
   0.14285714  0.14285714  0.42857143       0.012
   0.28571429  0.14285714  0.42857143       0.012
   0.42857143  0.14285714  0.42857143       0.012
  -0.42857143  0.14285714  0.42857143       0.012
  -0.28571429  0.14285714  0.42857143       0.012
  -0.14285714  0.14285714  0.42857143       0.012
   0.00000000  0.28571429  0.42857143       0.012
   0.14285714  0.28571429  0.42857143       0.012
   0.28571429  0.28571429  0.42857143       0.012
   0.42857143  0.28571429  0.42857143       0.012
  -0.42857143  0.28571429  0.42857143       0.012
  -0.28571429  0.28571429  0.42857143       0.012
  -0.14285714  0.28571429  0.42857143       0.012
   0.00000000  0.42857143  0.42857143       0.012
   0.14285714  0.42857143  0.42857143       0.012
   0.28571429  0.42857143  0.42857143       0.012
   0.42857143  0.42857143  0.42857143       0.012
  -0.42857143  0.42857143  0.42857143       0.012
  -0.28571429  0.42857143  0.42857143       0.012
  -0.14285714  0.42857143  0.42857143       0.012
 
 position of ions in fractional coordinates (direct lattice) 
   0.25005583  0.25000000  0.00000000
   0.75002714  0.25000000  0.00000000
   0.25003117  0.75000000  0.00000000
   0.75004765  0.75000000  0.00000000
   0.25003117  0.25000000  0.50000000
   0.75004765  0.25000000  0.50000000
   0.25003226  0.75000000  0.50000000
   0.75003470  0.75000000  0.50000000
   0.25003967  0.00000006  0.24999994
   0.75003910  0.99999995  0.25000005
   0.25003967  0.49999994  0.24999994
   0.75003910  0.50000005  0.25000005
   0.25003967  0.00000006  0.75000006
   0.75003910  0.99999995  0.74999995
   0.25003967  0.49999994  0.75000006
   0.75003910  0.50000005  0.74999995
   0.00004182  0.25000000  0.24999177
   0.50004194  0.25000000  0.25000827
   0.00003511  0.75000000  0.24999644
   0.50003500  0.75000000  0.25000355
   0.00004182  0.25000000  0.75000823
   0.50004194  0.25000000  0.74999173
   0.00003511  0.75000000  0.75000356
   0.50003500  0.75000000  0.74999645
   0.00004182  0.00000823  0.00000000
   0.50004194  0.99999173  0.00000000
   0.00004182  0.49999177  0.00000000
   0.50004194  0.50000827  0.00000000
   0.00003511  0.00000356  0.50000000
   0.50003500  0.99999645  0.50000000
   0.00003511  0.49999644  0.50000000
   0.50003500  0.50000355  0.50000000
 
 position of ions in cartesian coordinates  (Angst):
   1.81855478  1.81817415  0.00000000
   5.45464368  1.81817415  0.00000000
   1.81837542  5.45452244  0.00000000
   5.45479288  5.45452244  0.00000000
   1.81837542  1.81817415  3.63634829
   5.45479288  1.81817415  3.63634829
   1.81838338  5.45452244  3.63634829
   5.45469867  5.45452244  3.63634829
   1.81843729  0.00000043  1.81817371
   5.45473066  7.27269619  1.81817454
   1.81843729  3.63634786  1.81817371
   5.45473066  3.63634869  1.81817454
   1.81843729  0.00000043  5.45452287
   5.45473066  7.27269619  5.45452204
   1.81843729  3.63634786  5.45452287
   5.45473066  3.63634869  5.45452204
   0.00030413  1.81817415  1.81811428
   3.63660258  1.81817415  1.81823426
   0.00025532  5.45452244  1.81814826
   3.63655210  5.45452244  1.81820000
   0.00030413  1.81817415  5.45458231
   3.63660258  1.81817415  5.45446232
   0.00025532  5.45452244  5.45454832
   3.63655210  5.45452244  5.45449659
   0.00030413  0.00005987  0.00000000
   3.63660258  7.27263647  0.00000000
   0.00030413  3.63628842  0.00000000
   3.63660258  3.63640841  0.00000000
   0.00025532  0.00002588  3.63634829
   3.63655210  7.27267073  3.63634829
   0.00025532  3.63632241  3.63634829
   3.63655210  3.63637414  3.63634829
 


--------------------------------------------------------------------------------------------------------


 k-point  1 :  0.00000.00000.0000  plane waves:   9771
 k-point  2 :  0.14290.00000.0000  plane waves:   9759
 k-point  3 :  0.28570.00000.0000  plane waves:   9758
 k-point  4 :  0.42860.00000.0000  plane waves:   9782
 k-point  5 :  0.00000.14290.0000  plane waves:   9759
 k-point  6 :  0.14290.14290.0000  plane waves:   9761
 k-point  7 :  0.28570.14290.0000  plane waves:   9762
 k-point  8 :  0.42860.14290.0000  plane waves:   9784
 k-point  9 :  -.42860.14290.0000  plane waves:   9784
 k-point 10 :  -.28570.14290.0000  plane waves:   9762
 k-point 11 :  -.14290.14290.0000  plane waves:   9761
 k-point 12 :  0.00000.28570.0000  plane waves:   9758
 k-point 13 :  0.14290.28570.0000  plane waves:   9762
 k-point 14 :  0.28570.28570.0000  plane waves:   9731
 k-point 15 :  0.42860.28570.0000  plane waves:   9769
 k-point 16 :  -.42860.28570.0000  plane waves:   9769
 k-point 17 :  -.28570.28570.0000  plane waves:   9731
 k-point 18 :  -.14290.28570.0000  plane waves:   9762
 k-point 19 :  0.00000.42860.0000  plane waves:   9782
 k-point 20 :  0.14290.42860.0000  plane waves:   9784
 k-point 21 :  0.28570.42860.0000  plane waves:   9769
 k-point 22 :  0.42860.42860.0000  plane waves:   9748
 k-point 23 :  -.42860.42860.0000  plane waves:   9748
 k-point 24 :  -.28570.42860.0000  plane waves:   9769
 k-point 25 :  -.14290.42860.0000  plane waves:   9784
 k-point 26 :  0.00000.00000.1429  plane waves:   9759
 k-point 27 :  0.14290.00000.1429  plane waves:   9761
 k-point 28 :  0.28570.00000.1429  plane waves:   9762
 k-point 29 :  0.42860.00000.1429  plane waves:   9784
 k-point 30 :  0.00000.14290.1429  plane waves:   9761
 k-point 31 :  0.14290.14290.1429  plane waves:   9777
 k-point 32 :  0.28570.14290.1429  plane waves:   9765
 k-point 33 :  0.42860.14290.1429  plane waves:   9767
 k-point 34 :  -.42860.14290.1429  plane waves:   9767
 k-point 35 :  -.28570.14290.1429  plane waves:   9765
 k-point 36 :  -.14290.14290.1429  plane waves:   9777
 k-point 37 :  0.00000.28570.1429  plane waves:   9762
 k-point 38 :  0.14290.28570.1429  plane waves:   9765
 k-point 39 :  0.28570.28570.1429  plane waves:   9760
 k-point 40 :  0.42860.28570.1429  plane waves:   9773
 k-point 41 :  -.42860.28570.1429  plane waves:   9773
 k-point 42 :  -.28570.28570.1429  plane waves:   9760
 k-point 43 :  -.14290.28570.1429  plane waves:   9765
 k-point 44 :  0.00000.42860.1429  plane waves:   9784
 k-point 45 :  0.14290.42860.1429  plane waves:   9767
 k-point 46 :  0.28570.42860.1429  plane waves:   9773
 k-point 47 :  0.42860.42860.1429  plane waves:   9767
 k-point 48 :  -.42860.42860.1429  plane waves:   9767
 k-point 49 :  -.28570.42860.1429  plane waves:   9773
 k-point 50 :  -.14290.42860.1429  plane waves:   9767
 k-point 51 :  0.00000.00000.2857  plane waves:   9758
 k-point 52 :  0.14290.00000.2857  plane waves:   9762
 k-point 53 :  0.28570.00000.2857  plane waves:   9731
 k-point 54 :  0.42860.00000.2857  plane waves:   9769
 k-point 55 :  0.00000.14290.2857  plane waves:   9762
 k-point 56 :  0.14290.14290.2857  plane waves:   9765
 k-point 57 :  0.28570.14290.2857  plane waves:   9760
 k-point 58 :  0.42860.14290.2857  plane waves:   9773
 k-point 59 :  -.42860.14290.2857  plane waves:   9773
 k-point 60 :  -.28570.14290.2857  plane waves:   9760
 k-point 61 :  -.14290.14290.2857  plane waves:   9765
 k-point 62 :  0.00000.28570.2857  plane waves:   9731
 k-point 63 :  0.14290.28570.2857  plane waves:   9760
 k-point 64 :  0.28570.28570.2857  plane waves:   9762
 k-point 65 :  0.42860.28570.2857  plane waves:   9775
 k-point 66 :  -.42860.28570.2857  plane waves:   9775
 k-point 67 :  -.28570.28570.2857  plane waves:   9762
 k-point 68 :  -.14290.28570.2857  plane waves:   9760
 k-point 69 :  0.00000.42860.2857  plane waves:   9769
 k-point 70 :  0.14290.42860.2857  plane waves:   9773
 k-point 71 :  0.28570.42860.2857  plane waves:   9775
 k-point 72 :  0.42860.42860.2857  plane waves:   9759
 k-point 73 :  -.42860.42860.2857  plane waves:   9759
 k-point 74 :  -.28570.42860.2857  plane waves:   9775
 k-point 75 :  -.14290.42860.2857  plane waves:   9773
 k-point 76 :  0.00000.00000.4286  plane waves:   9782
 k-point 77 :  0.14290.00000.4286  plane waves:   9784
 k-point 78 :  0.28570.00000.4286  plane waves:   9769
 k-point 79 :  0.42860.00000.4286  plane waves:   9748
 k-point 80 :  0.00000.14290.4286  plane waves:   9784
 k-point 81 :  0.14290.14290.4286  plane waves:   9767
 k-point 82 :  0.28570.14290.4286  plane waves:   9773
 k-point 83 :  0.42860.14290.4286  plane waves:   9767
 k-point 84 :  -.42860.14290.4286  plane waves:   9767
 k-point 85 :  -.28570.14290.4286  plane waves:   9773
 k-point 86 :  -.14290.14290.4286  plane waves:   9767
 k-point 87 :  0.00000.28570.4286  plane waves:   9769
 k-point 88 :  0.14290.28570.4286  plane waves:   9773
 k-point 89 :  0.28570.28570.4286  plane waves:   9775
 k-point 90 :  0.42860.28570.4286  plane waves:   9759
 k-point 91 :  -.42860.28570.4286  plane waves:   9759
 k-point 92 :  -.28570.28570.4286  plane waves:   9775
 k-point 93 :  -.14290.28570.4286  plane waves:   9773
 k-point 94 :  0.00000.42860.4286  plane waves:   9748
 k-point 95 :  0.14290.42860.4286  plane waves:   9767
 k-point 96 :  0.28570.42860.4286  plane waves:   9759
 k-point 97 :  0.42860.42860.4286  plane waves:   9787
 k-point 98 :  -.42860.42860.4286  plane waves:   9787
 k-point 99 :  -.28570.42860.4286  plane waves:   9759
 k-point ** :  -.14290.42860.4286  plane waves:   9767

 maximum and minimum number of plane-waves per node :   9787  9731

 maximum number of plane-waves:   9787
 maximal index in each direction: 
   IXMAX= 13   IYMAX= 13   IZMAX= 13
   IXMIN=-13   IYMIN=-13   IZMIN=-13

 NGX is ok and might be reduce to  54
 NGY is ok and might be reduce to  54
 NGZ is ok and might be reduce to  54

 parallel 3dFFT wavefunction:
    minimum data exchange during FFTs selected (reduces bandwidth)
 parallel 3dFFT charge:
    minimum data exchange during FFTs selected (reduces bandwidth)

 For storing wavefunctions 3375.25 MBYTES are necessary
 For predicting wavefunctions   73.63 MBYTES are necessary
Broyden mixing: mesh for mixing (old mesh)
   NGX = 27   NGY = 27   NGZ = 27
  (NGX  =108   NGY  =108   NGZ  =108)
 gives a total of  19683 points
 initial charge density was supplied:
 charge density of overlapping atoms calculated
 number of electron  352.0000000 magnetization 
 keeping initial charge density in first step


--------------------------------------------------------------------------------------------------------


 Maximum index for augmentation-charges        14000 (set IRDMAX)


--------------------------------------------------------------------------------------------------------


 First call to EWALD:  gamma=   0.244
 Maximum number of real-space cells 3x 3x 3
 Maximum number of reciprocal cells 3x 3x 3

    FEWALD:  VPU time    0.00: CPU time    0.01


----------------------------------------- Iteration    1(   1)  ---------------------------------------


    POTLOK:  VPU time    0.09: CPU time    0.09
    SETDIJ:  VPU time    0.13: CPU time    0.13
    EDDAV :  VPU time  141.28: CPU time  141.29
    DOS   :  VPU time    0.00: CPU time   -0.00
    ------------------------------------------
      LOOP:  VPU time  141.57: CPU time  141.58

 eigenvalue-minimisations  : 43208
 total energy-change (2. order) : 0.3263798E+04  (-0.1451050E+05)
 number of electron  352.0000000 magnetization 
 augmentation part   352.0000000 magnetization 

 Free energy of the ion-electron system (eV)
  ---------------------------------------------------
  alpha Z        PSCENC =      3401.12835402
  Ewald energy   TEWEN  =    -35149.91665580
  -1/2 Hartree   DENC   =    -10547.44669437
  -V(xc)+E(xc)   XCENC  =      1403.30214401
  PAW double counting   =     34625.67335558   -39234.46421604
  entropy T*S    EENTRO =        -0.00022316
  eigenvalues    EBANDS =      4254.26296091
  atomic energy  EATOM  =     44511.25856501
  ---------------------------------------------------
  free energy    TOTEN  =      3263.79759016 eV

  energy without entropy =     3263.79781332  energy(sigma->0) =     3263.79770174


--------------------------------------------------------------------------------------------------------




----------------------------------------- Iteration    1(   2)  ---------------------------------------


    EDDAV :  VPU time  141.07: CPU time  141.05
    DOS   :  VPU time    0.00: CPU time   -0.00
    ------------------------------------------
      LOOP:  VPU time  141.13: CPU time  141.12

 eigenvalue-minimisations  : 43200
 total energy-change (2. order) :-0.2949488E+04  (-0.2828399E+04)
 number of electron  352.0000000 magnetization 
 augmentation part   352.0000000 magnetization 

 Free energy of the ion-electron system (eV)
  ---------------------------------------------------
  alpha Z        PSCENC =      3401.12835402
  Ewald energy   TEWEN  =    -35149.91665580
  -1/2 Hartree   DENC   =    -10547.44669437
  -V(xc)+E(xc)   XCENC  =      1403.30214401
  PAW double counting   =     34625.67335558   -39234.46421604
  entropy T*S    EENTRO =        -0.00040122
  eigenvalues    EBANDS =      1304.77489155
  atomic energy  EATOM  =     44511.25856501
  ---------------------------------------------------
  free energy    TOTEN  =       314.30934274 eV

  energy without entropy =      314.30974397  energy(sigma->0) =      314.30954335


--------------------------------------------------------------------------------------------------------




----------------------------------------- Iteration    1(   3)  ---------------------------------------


    EDDAV :  VPU time  141.26: CPU time  141.24
    DOS   :  VPU time    0.00: CPU time   -0.00
    ------------------------------------------
      LOOP:  VPU time  141.33: CPU time  141.31

 eigenvalue-minimisations  : 43200
 total energy-change (2. order) :-0.4371072E+03  (-0.3950684E+03)
 number of electron  352.0000000 magnetization 
 augmentation part   352.0000000 magnetization 

 Free energy of the ion-electron system (eV)
  ---------------------------------------------------
  alpha Z        PSCENC =      3401.12835402
  Ewald energy   TEWEN  =    -35149.91665580
  -1/2 Hartree   DENC   =    -10547.44669437
  -V(xc)+E(xc)   XCENC  =      1403.30214401
  PAW double counting   =     34625.67335558   -39234.46421604
  entropy T*S    EENTRO =        -0.00095354
  eigenvalues    EBANDS =       867.66822331
  atomic energy  EATOM  =     44511.25856501
  ---------------------------------------------------
  free energy    TOTEN  =      -122.79787781 eV

  energy without entropy =     -122.79692428  energy(sigma->0) =     -122.79740104


--------------------------------------------------------------------------------------------------------




----------------------------------------- Iteration    1(   4)  ---------------------------------------


    EDDAV :  VPU time  147.64: CPU time  147.62
    DOS   :  VPU time    0.00: CPU time   -0.00
    ------------------------------------------
      LOOP:  VPU time  147.71: CPU time  147.69

 eigenvalue-minimisations  : 45928
 total energy-change (2. order) :-0.2371195E+02  (-0.2320438E+02)
 number of electron  352.0000000 magnetization 
 augmentation part   352.0000000 magnetization 

 Free energy of the ion-electron system (eV)
  ---------------------------------------------------
  alpha Z        PSCENC =      3401.12835402
  Ewald energy   TEWEN  =    -35149.91665580
  -1/2 Hartree   DENC   =    -10547.44669437
  -V(xc)+E(xc)   XCENC  =      1403.30214401
  PAW double counting   =     34625.67335558   -39234.46421604
  entropy T*S    EENTRO =        -0.00121169
  eigenvalues    EBANDS =       843.95653520
  atomic energy  EATOM  =     44511.25856501
  ---------------------------------------------------
  free energy    TOTEN  =      -146.50982408 eV

  energy without entropy =     -146.50861238  energy(sigma->0) =     -146.50921823


--------------------------------------------------------------------------------------------------------




----------------------------------------- Iteration    1(   5)  ---------------------------------------


    EDDAV :  VPU time  147.91: CPU time  147.96
    DOS   :  VPU time    0.00: CPU time   -0.00
    CHARGE:  VPU time    4.48: CPU time    4.47
    MIXING:  VPU time    0.00: CPU time    0.00
    ------------------------------------------
      LOOP:  VPU time  152.46: CPU time  152.50

 eigenvalue-minimisations  : 46120
 total energy-change (2. order) :-0.1896559E+00  (-0.1893524E+00)
 number of electron  351.9999998 magnetization 
 augmentation part   214.2801741 magnetization 

 Broyden mixing:
  rms(total) = 0.39377E+01    rms(broyden)= 0.39376E+01
  rms(prec ) = 0.58169E+01
  weight for this iteration     100.00

 Free energy of the ion-electron system (eV)
  ---------------------------------------------------
  alpha Z        PSCENC =      3401.12835402
  Ewald energy   TEWEN  =    -35149.91665580
  -1/2 Hartree   DENC   =    -10547.44669437
  -V(xc)+E(xc)   XCENC  =      1403.30214401
  PAW double counting   =     34625.67335558   -39234.46421604
  entropy T*S    EENTRO =        -0.00121483
  eigenvalues    EBANDS =       843.76688245
  atomic energy  EATOM  =     44511.25856501
  ---------------------------------------------------
  free energy    TOTEN  =      -146.69947997 eV

  energy without entropy =     -146.69826514  energy(sigma->0) =     -146.69887255


--------------------------------------------------------------------------------------------------------




----------------------------------------- Iteration    1(   6)  ---------------------------------------


    POTLOK:  VPU time    0.09: CPU time    0.10
    SETDIJ:  VPU time    0.12: CPU time    0.12
    EDDAV :  VPU time  148.88: CPU time  148.92
    DOS   :  VPU time    0.00: CPU time   -0.00
    CHARGE:  VPU time    4.41: CPU time    4.41
    MIXING:  VPU time    0.00: CPU time    0.00
    ------------------------------------------
      LOOP:  VPU time  153.57: CPU time  153.62

 eigenvalue-minimisations  : 46480
 total energy-change (2. order) : 0.1747254E+02  (-0.2642552E+02)
 number of electron  351.9999998 magnetization 
 augmentation part   238.6148830 magnetization 

 Broyden mixing:
  rms(total) = 0.17769E+01    rms(broyden)= 0.17768E+01
  rms(prec ) = 0.24676E+01
  weight for this iteration     100.00

 eigenvalues of (default mixing * dielectric matrix)
  average eigenvalue GAMMA=   0.6910
  0.6910

 Free energy of the ion-electron system (eV)
  ---------------------------------------------------
  alpha Z        PSCENC =      3401.12835402
  Ewald energy   TEWEN  =    -35149.91665580
  -1/2 Hartree   DENC   =     -9752.31061557
  -V(xc)+E(xc)   XCENC  =      1363.04497102
  PAW double counting   =     33842.57224175   -38193.22933216
  entropy T*S    EENTRO =        -0.00071864
  eigenvalues    EBANDS =      -151.77375224
  atomic energy  EATOM  =     44511.25856501
  ---------------------------------------------------
  free energy    TOTEN  =      -129.22694262 eV

  energy without entropy =     -129.22622398  energy(sigma->0) =     -129.22658330


--------------------------------------------------------------------------------------------------------




----------------------------------------- Iteration    1(   7)  ---------------------------------------


    POTLOK:  VPU time    0.11: CPU time    0.11
    SETDIJ:  VPU time    0.12: CPU time    0.12
    EDDAV :  VPU time  153.37: CPU time  153.34
    DOS   :  VPU time    0.00: CPU time   -0.00
    CHARGE:  VPU time    4.50: CPU time    4.50
    MIXING:  VPU time    0.00: CPU time    0.00
    ------------------------------------------
      LOOP:  VPU time  158.17: CPU time  158.15

 eigenvalue-minimisations  : 48232
 total energy-change (2. order) : 0.9854864E+01  (-0.4578519E+01)
 number of electron  351.9999998 magnetization 
 augmentation part   229.8157936 magnetization 

 Broyden mixing:
  rms(total) = 0.29206E+00    rms(broyden)= 0.29200E+00
  rms(prec ) = 0.44514E+00
  weight for this iteration     100.00

 eigenvalues of (default mixing * dielectric matrix)
  average eigenvalue GAMMA=   1.2891
  1.9233  0.6550

 Free energy of the ion-electron system (eV)
  ---------------------------------------------------
  alpha Z        PSCENC =      3401.12835402
  Ewald energy   TEWEN  =    -35149.91665580
  -1/2 Hartree   DENC   =     -9970.93823889
  -V(xc)+E(xc)   XCENC  =      1374.60280127
  PAW double counting   =     34503.11665185   -39043.44891210
  entropy T*S    EENTRO =        -0.00078201
  eigenvalues    EBANDS =       254.82613803
  atomic energy  EATOM  =     44511.25856501
  ---------------------------------------------------
  free energy    TOTEN  =      -119.37207861 eV

  energy without entropy =     -119.37129661  energy(sigma->0) =     -119.37168761


--------------------------------------------------------------------------------------------------------




----------------------------------------- Iteration    1(   8)  ---------------------------------------


    POTLOK:  VPU time    0.09: CPU time    0.09
    SETDIJ:  VPU time    0.13: CPU time    0.13
    EDDAV :  VPU time  144.92: CPU time  144.90
    DOS   :  VPU time    0.00: CPU time   -0.00
    CHARGE:  VPU time    4.44: CPU time    4.44
    MIXING:  VPU time    0.00: CPU time    0.00
    ------------------------------------------
      LOOP:  VPU time  149.65: CPU time  149.63

 eigenvalue-minimisations  : 44872
 total energy-change (2. order) : 0.2481945E+00  (-0.6044909E-01)
 number of electron  351.9999998 magnetization 
 augmentation part   229.4180158 magnetization 

 Broyden mixing:
  rms(total) = 0.20897E+00    rms(broyden)= 0.20896E+00
  rms(prec ) = 0.31208E+00
  weight for this iteration     100.00

 eigenvalues of (default mixing * dielectric matrix)
  average eigenvalue GAMMA=   1.3988
  0.6866  0.9761  2.5336

 Free energy of the ion-electron system (eV)
  ---------------------------------------------------
  alpha Z        PSCENC =      3401.12835402
  Ewald energy   TEWEN  =    -35149.91665580
  -1/2 Hartree   DENC   =     -9892.79761994
  -V(xc)+E(xc)   XCENC  =      1371.05387522
  PAW double counting   =     34936.37568855   -39555.14188227
  entropy T*S    EENTRO =        -0.00076559
  eigenvalues    EBANDS =       258.91655673
  atomic energy  EATOM  =     44511.25856501
  ---------------------------------------------------
  free energy    TOTEN  =      -119.12388407 eV

  energy without entropy =     -119.12311847  energy(sigma->0) =     -119.12350127


--------------------------------------------------------------------------------------------------------




----------------------------------------- Iteration    1(   9)  ---------------------------------------


    POTLOK:  VPU time    0.09: CPU time    0.09
    SETDIJ:  VPU time    0.13: CPU time    0.12
    EDDAV :  VPU time  150.62: CPU time  150.60
    DOS   :  VPU time   -0.00: CPU time   -0.00
    CHARGE:  VPU time    4.41: CPU time    4.40
    MIXING:  VPU time    0.00: CPU time    0.00
    ------------------------------------------
      LOOP:  VPU time  155.32: CPU time  155.29

 eigenvalue-minimisations  : 47008
 total energy-change (2. order) : 0.8608686E-01  (-0.2274142E-01)
 number of electron  351.9999998 magnetization 
 augmentation part   230.1833242 magnetization 

 Broyden mixing:
  rms(total) = 0.10855E-01    rms(broyden)= 0.10849E-01
  rms(prec ) = 0.15486E-01
  weight for this iteration     100.00

 eigenvalues of (default mixing * dielectric matrix)
  average eigenvalue GAMMA=   1.2283
  2.5875  1.0767  0.6675  0.5816

 Free energy of the ion-electron system (eV)
  ---------------------------------------------------
  alpha Z        PSCENC =      3401.12835402
  Ewald energy   TEWEN  =    -35149.91665580
  -1/2 Hartree   DENC   =     -9842.86757961
  -V(xc)+E(xc)   XCENC  =      1368.63877527
  PAW double counting   =     35042.06662877   -39673.12679931
  entropy T*S    EENTRO =        -0.00105493
  eigenvalues    EBANDS =       223.78196938
  atomic energy  EATOM  =     44511.25856501
  ---------------------------------------------------
  free energy    TOTEN  =      -119.03779720 eV

  energy without entropy =     -119.03674227  energy(sigma->0) =     -119.03726974


--------------------------------------------------------------------------------------------------------




----------------------------------------- Iteration    1(  10)  ---------------------------------------


    POTLOK:  VPU time    0.09: CPU time    0.09
    SETDIJ:  VPU time    0.12: CPU time    0.12
    EDDAV :  VPU time  153.01: CPU time  152.99
    DOS   :  VPU time    0.00: CPU time   -0.00
    CHARGE:  VPU time    4.40: CPU time    4.40
    MIXING:  VPU time    0.00: CPU time    0.00
    ------------------------------------------
      LOOP:  VPU time  157.70: CPU time  157.68

 eigenvalue-minimisations  : 48024
 total energy-change (2. order) :-0.9093042E-03  (-0.8728376E-03)
 number of electron  351.9999998 magnetization 
 augmentation part   230.1981172 magnetization 

 Broyden mixing:
  rms(total) = 0.12045E-01    rms(broyden)= 0.12045E-01
  rms(prec ) = 0.17664E-01
  weight for this iteration     100.00

 eigenvalues of (default mixing * dielectric matrix)
  average eigenvalue GAMMA=   1.3333
  2.7031  2.0521  0.8837  0.6946  0.3332

 Free energy of the ion-electron system (eV)
  ---------------------------------------------------
  alpha Z        PSCENC =      3401.12835402
  Ewald energy   TEWEN  =    -35149.91665580
  -1/2 Hartree   DENC   =     -9842.44036548
  -V(xc)+E(xc)   XCENC  =      1368.61851060
  PAW double counting   =     35047.70095983   -39678.87206421
  entropy T*S    EENTRO =        -0.00105782
  eigenvalues    EBANDS =       223.48504735
  atomic energy  EATOM  =     44511.25856501
  ---------------------------------------------------
  free energy    TOTEN  =      -119.03870651 eV

  energy without entropy =     -119.03764869  energy(sigma->0) =     -119.03817760


--------------------------------------------------------------------------------------------------------




----------------------------------------- Iteration    1(  11)  ---------------------------------------


    POTLOK:  VPU time    0.09: CPU time    0.09
    SETDIJ:  VPU time    0.12: CPU time    0.12
    EDDAV :  VPU time  146.76: CPU time  146.74
    DOS   :  VPU time    0.00: CPU time   -0.00
    CHARGE:  VPU time    4.43: CPU time    4.43
    MIXING:  VPU time    0.00: CPU time    0.00
    ------------------------------------------
      LOOP:  VPU time  151.48: CPU time  151.45

 eigenvalue-minimisations  : 45696
 total energy-change (2. order) : 0.9871391E-04  (-0.1045503E-03)
 number of electron  351.9999998 magnetization 
 augmentation part   230.1682974 magnetization 

 Broyden mixing:
  rms(total) = 0.23409E-02    rms(broyden)= 0.23407E-02
  rms(prec ) = 0.32491E-02
  weight for this iteration     100.00

 eigenvalues of (default mixing * dielectric matrix)
  average eigenvalue GAMMA=   1.2860
  2.6475  2.3347  0.6849  0.8564  0.8564  0.3361

 Free energy of the ion-electron system (eV)
  ---------------------------------------------------
  alpha Z        PSCENC =      3401.12835402
  Ewald energy   TEWEN  =    -35149.91665580
  -1/2 Hartree   DENC   =     -9844.64234166
  -V(xc)+E(xc)   XCENC  =      1368.72393710
  PAW double counting   =     35054.34658543   -39684.88160617
  entropy T*S    EENTRO =        -0.00104365
  eigenvalues    EBANDS =       224.94559794
  atomic energy  EATOM  =     44511.25856501
  ---------------------------------------------------
  free energy    TOTEN  =      -119.03860779 eV

  energy without entropy =     -119.03756414  energy(sigma->0) =     -119.03808597


--------------------------------------------------------------------------------------------------------




----------------------------------------- Iteration    1(  12)  ---------------------------------------


    POTLOK:  VPU time    0.09: CPU time    0.09
    SETDIJ:  VPU time    0.12: CPU time    0.12
    EDDAV :  VPU time  150.06: CPU time  150.04
    DOS   :  VPU time    0.00: CPU time   -0.00
    CHARGE:  VPU time    4.38: CPU time    4.37
    MIXING:  VPU time    0.00: CPU time    0.00
    ------------------------------------------
      LOOP:  VPU time  154.73: CPU time  154.70

 eigenvalue-minimisations  : 47392
 total energy-change (2. order) :-0.1162625E-06  (-0.2219370E-04)
 number of electron  351.9999998 magnetization 
 augmentation part   230.1582051 magnetization 

 Broyden mixing:
  rms(total) = 0.17836E-02    rms(broyden)= 0.17835E-02
  rms(prec ) = 0.27085E-02
  weight for this iteration     100.00

 eigenvalues of (default mixing * dielectric matrix)
  average eigenvalue GAMMA=   1.2071
  2.5667  2.5667  0.9754  0.9754  0.6897  0.3574  0.3181

 Free energy of the ion-electron system (eV)
  ---------------------------------------------------
  alpha Z        PSCENC =      3401.12835402
  Ewald energy   TEWEN  =    -35149.91665580
  -1/2 Hartree   DENC   =     -9844.99718438
  -V(xc)+E(xc)   XCENC  =      1368.74047685
  PAW double counting   =     35059.98960502   -39690.49775716
  entropy T*S    EENTRO =        -0.00104056
  eigenvalues    EBANDS =       225.25702910
  atomic energy  EATOM  =     44511.25856501
  ---------------------------------------------------
  free energy    TOTEN  =      -119.03860791 eV

  energy without entropy =     -119.03756735  energy(sigma->0) =     -119.03808763


--------------------------------------------------------------------------------------------------------




----------------------------------------- Iteration    1(  13)  ---------------------------------------


    POTLOK:  VPU time    0.31: CPU time    0.31
    SETDIJ:  VPU time    0.12: CPU time    0.12
    EDDAV :  VPU time  146.68: CPU time  146.66
    DOS   :  VPU time    0.00: CPU time   -0.00
    CHARGE:  VPU time    4.44: CPU time    4.43
    MIXING:  VPU time    0.00: CPU time    0.00
    ------------------------------------------
      LOOP:  VPU time  151.62: CPU time  151.60

 eigenvalue-minimisations  : 45872
 total energy-change (2. order) : 0.3454261E-06  (-0.6029993E-05)
 number of electron  351.9999998 magnetization 
 augmentation part   230.1573629 magnetization 

 Broyden mixing:
  rms(total) = 0.92181E-03    rms(broyden)= 0.92175E-03
  rms(prec ) = 0.12990E-02
  weight for this iteration     100.00

 eigenvalues of (default mixing * dielectric matrix)
  average eigenvalue GAMMA=   1.1641
  2.5675  2.5675  0.9976  0.9976  0.6900  0.8335  0.3293  0.3293

 Free energy of the ion-electron system (eV)
  ---------------------------------------------------
  alpha Z        PSCENC =      3401.12835402
  Ewald energy   TEWEN  =    -35149.91665580
  -1/2 Hartree   DENC   =     -9844.97559246
  -V(xc)+E(xc)   XCENC  =      1368.73915525
  PAW double counting   =     35061.33912558   -39691.84734017
  entropy T*S    EENTRO =        -0.00104100
  eigenvalues    EBANDS =       225.23682200
  atomic energy  EATOM  =     44511.25856501
  ---------------------------------------------------
  free energy    TOTEN  =      -119.03860757 eV

  energy without entropy =     -119.03756656  energy(sigma->0) =     -119.03808706


--------------------------------------------------------------------------------------------------------




----------------------------------------- Iteration    1(  14)  ---------------------------------------


    POTLOK:  VPU time    0.09: CPU time    0.09
    SETDIJ:  VPU time    0.13: CPU time    0.13
    EDDAV :  VPU time  146.88: CPU time  146.86
    DOS   :  VPU time    0.00: CPU time   -0.00
    CHARGE:  VPU time    4.51: CPU time    4.51
    MIXING:  VPU time    0.00: CPU time    0.00
    ------------------------------------------
      LOOP:  VPU time  151.68: CPU time  151.67

 eigenvalue-minimisations  : 45224
 total energy-change (2. order) :-0.3751273E-05  (-0.2830660E-06)
 number of electron  351.9999998 magnetization 
 augmentation part   230.1588436 magnetization 

 Broyden mixing:
  rms(total) = 0.48316E-03    rms(broyden)= 0.48315E-03
  rms(prec ) = 0.65572E-03
  weight for this iteration     100.00

 eigenvalues of (default mixing * dielectric matrix)
  average eigenvalue GAMMA=   1.0839
  2.5706  2.5706  0.9924  0.9924  0.6977  0.6977  0.5661  0.3543  0.3131

 Free energy of the ion-electron system (eV)
  ---------------------------------------------------
  alpha Z        PSCENC =      3401.12835402
  Ewald energy   TEWEN  =    -35149.91665580
  -1/2 Hartree   DENC   =     -9844.88683170
  -V(xc)+E(xc)   XCENC  =      1368.73461568
  PAW double counting   =     35061.44807011   -39691.94319979
  entropy T*S    EENTRO =        -0.00104213
  eigenvalues    EBANDS =       225.13951328
  atomic energy  EATOM  =     44511.25856501
  ---------------------------------------------------
  free energy    TOTEN  =      -119.03861132 eV

  energy without entropy =     -119.03756919  energy(sigma->0) =     -119.03809025


--------------------------------------------------------------------------------------------------------




----------------------------------------- Iteration    1(  15)  ---------------------------------------


    POTLOK:  VPU time    0.09: CPU time    0.09
    SETDIJ:  VPU time    0.12: CPU time    0.13
    EDDAV :  VPU time  152.02: CPU time  152.07
    DOS   :  VPU time    0.00: CPU time   -0.00
    CHARGE:  VPU time    4.49: CPU time    4.49
    MIXING:  VPU time    0.00: CPU time    0.00
    ------------------------------------------
      LOOP:  VPU time  156.80: CPU time  156.85

 eigenvalue-minimisations  : 47504
 total energy-change (2. order) :-0.9264622E-06  (-0.7178869E-07)
 number of electron  351.9999998 magnetization 
 augmentation part   230.1594618 magnetization 

 Broyden mixing:
  rms(total) = 0.34226E-03    rms(broyden)= 0.34226E-03
  rms(prec ) = 0.46324E-03
  weight for this iteration     100.00

 eigenvalues of (default mixing * dielectric matrix)
  average eigenvalue GAMMA=   1.1593
  2.5889  2.5889  1.3769  1.3769  0.9764  0.9764  0.6894  0.3297  0.3297  0.3601

 Free energy of the ion-electron system (eV)
  ---------------------------------------------------
  alpha Z        PSCENC =      3401.12835402
  Ewald energy   TEWEN  =    -35149.91665580
  -1/2 Hartree   DENC   =     -9844.87446198
  -V(xc)+E(xc)   XCENC  =      1368.73385420
  PAW double counting   =     35061.51481628   -39691.99286731
  entropy T*S    EENTRO =        -0.00104247
  eigenvalues    EBANDS =       225.11082581
  atomic energy  EATOM  =     44511.25856501
  ---------------------------------------------------
  free energy    TOTEN  =      -119.03861224 eV

  energy without entropy =     -119.03756977  energy(sigma->0) =     -119.03809101


--------------------------------------------------------------------------------------------------------




----------------------------------------- Iteration    1(  16)  ---------------------------------------


    POTLOK:  VPU time    0.09: CPU time    0.09
    SETDIJ:  VPU time    0.12: CPU time    0.12
    EDDAV :  VPU time  153.48: CPU time  153.46
    DOS   :  VPU time    0.00: CPU time   -0.00
    CHARGE:  VPU time    4.42: CPU time    4.42
    MIXING:  VPU time    0.00: CPU time    0.00
    ------------------------------------------
      LOOP:  VPU time  158.18: CPU time  158.17

 eigenvalue-minimisations  : 48512
 total energy-change (2. order) :-0.1678913E-05  (-0.5906125E-07)
 number of electron  351.9999998 magnetization 
 augmentation part   230.1600552 magnetization 

 Broyden mixing:
  rms(total) = 0.14326E-03    rms(broyden)= 0.14326E-03
  rms(prec ) = 0.20245E-03
  weight for this iteration     100.00

 eigenvalues of (default mixing * dielectric matrix)
  average eigenvalue GAMMA=   1.2100
  2.5822  2.5822  2.1868  1.4028  0.9933  0.9933  0.6897  0.8703  0.3273  0.3273
  0.3543

 Free energy of the ion-electron system (eV)
  ---------------------------------------------------
  alpha Z        PSCENC =      3401.12835402
  Ewald energy   TEWEN  =    -35149.91665580
  -1/2 Hartree   DENC   =     -9844.87713229
  -V(xc)+E(xc)   XCENC  =      1368.73371091
  PAW double counting   =     35061.69666950   -39692.14960557
  entropy T*S    EENTRO =        -0.00104275
  eigenvalues    EBANDS =       225.08852305
  atomic energy  EATOM  =     44511.25856501
  ---------------------------------------------------
  free energy    TOTEN  =      -119.03861392 eV

  energy without entropy =     -119.03757117  energy(sigma->0) =     -119.03809255


--------------------------------------------------------------------------------------------------------




----------------------------------------- Iteration    1(  17)  ---------------------------------------


    POTLOK:  VPU time    0.09: CPU time    0.09
    SETDIJ:  VPU time    0.13: CPU time    0.13
    EDDAV :  VPU time  146.52: CPU time  146.57
    DOS   :  VPU time    0.00: CPU time   -0.00
    CHARGE:  VPU time    4.51: CPU time    4.51
    MIXING:  VPU time    0.00: CPU time    0.00
    ------------------------------------------
      LOOP:  VPU time  151.32: CPU time  151.37

 eigenvalue-minimisations  : 45864
 total energy-change (2. order) :-0.3735375E-05  (-0.1777522E-07)
 number of electron  351.9999998 magnetization 
 augmentation part   230.1602694 magnetization 

 Broyden mixing:
  rms(total) = 0.64628E-04    rms(broyden)= 0.64626E-04
  rms(prec ) = 0.93731E-04
  weight for this iteration     100.00

 eigenvalues of (default mixing * dielectric matrix)
  average eigenvalue GAMMA=   1.1493
  2.5576  2.5576  2.3580  1.3079  1.0163  1.0163  0.8974  0.6897  0.3802  0.3162
  0.3472  0.3472

 Free energy of the ion-electron system (eV)
  ---------------------------------------------------
  alpha Z        PSCENC =      3401.12835402
  Ewald energy   TEWEN  =    -35149.91665580
  -1/2 Hartree   DENC   =     -9844.85242939
  -V(xc)+E(xc)   XCENC  =      1368.73246896
  PAW double counting   =     35061.88182532   -39692.35239363
  entropy T*S    EENTRO =        -0.00104281
  eigenvalues    EBANDS =       225.08269067
  atomic energy  EATOM  =     44511.25856501
  ---------------------------------------------------
  free energy    TOTEN  =      -119.03861766 eV

  energy without entropy =     -119.03757485  energy(sigma->0) =     -119.03809625


--------------------------------------------------------------------------------------------------------




----------------------------------------- Iteration    1(  18)  ---------------------------------------


    POTLOK:  VPU time    0.09: CPU time    0.09
    SETDIJ:  VPU time    0.13: CPU time    0.13
    EDDAV :  VPU time  137.34: CPU time  137.34
    DOS   :  VPU time    0.00: CPU time   -0.00
    CHARGE:  VPU time    4.38: CPU time    4.38
    MIXING:  VPU time    0.00: CPU time    0.00
    ------------------------------------------
      LOOP:  VPU time  142.02: CPU time  142.02

 eigenvalue-minimisations  : 41856
 total energy-change (2. order) :-0.8392744E-06  (-0.5016584E-08)
 number of electron  351.9999998 magnetization 
 augmentation part   230.1603244 magnetization 

 Broyden mixing:
  rms(total) = 0.33307E-04    rms(broyden)= 0.33305E-04
  rms(prec ) = 0.46703E-04
  weight for this iteration     100.00

 eigenvalues of (default mixing * dielectric matrix)
  average eigenvalue GAMMA=   1.1937
  2.6126  2.4867  2.4867  1.4762  1.4762  1.0005  1.0005  0.9463  0.6896  0.3548
  0.3395  0.3244  0.3244

 Free energy of the ion-electron system (eV)
  ---------------------------------------------------
  alpha Z        PSCENC =      3401.12835402
  Ewald energy   TEWEN  =    -35149.91665580
  -1/2 Hartree   DENC   =     -9844.84703692
  -V(xc)+E(xc)   XCENC  =      1368.73219360
  PAW double counting   =     35061.92023683   -39692.39438442
  entropy T*S    EENTRO =        -0.00104283
  eigenvalues    EBANDS =       225.08115201
  atomic energy  EATOM  =     44511.25856501
  ---------------------------------------------------
  free energy    TOTEN  =      -119.03861850 eV

  energy without entropy =     -119.03757567  energy(sigma->0) =     -119.03809708


--------------------------------------------------------------------------------------------------------




----------------------------------------- Iteration    1(  19)  ---------------------------------------


    POTLOK:  VPU time    0.09: CPU time    0.09
    SETDIJ:  VPU time    0.12: CPU time    0.12
    EDDAV :  VPU time   95.51: CPU time   95.49
    DOS   :  VPU time    0.00: CPU time   -0.00
    CHARGE:  VPU time    4.43: CPU time    4.43
    MIXING:  VPU time    0.00: CPU time    0.00
    ------------------------------------------
      LOOP:  VPU time  100.23: CPU time  100.21

 eigenvalue-minimisations  : 24024
 total energy-change (2. order) :-0.1215369E-05  (-0.1385977E-08)
 number of electron  351.9999998 magnetization 
 augmentation part   230.1604193 magnetization 

 Broyden mixing:
  rms(total) = 0.12350E-04    rms(broyden)= 0.12348E-04
  rms(prec ) = 0.18862E-04
  weight for this iteration     100.00

 eigenvalues of (default mixing * dielectric matrix)
  average eigenvalue GAMMA=   1.1892
  2.6463  2.5067  2.5067  1.6080  1.6080  1.0008  1.0008  0.9592  0.6897  0.7825
  0.3582  0.3349  0.3239  0.3239

 Free energy of the ion-electron system (eV)
  ---------------------------------------------------
  alpha Z        PSCENC =      3401.12835402
  Ewald energy   TEWEN  =    -35149.91665580
  -1/2 Hartree   DENC   =     -9844.84085160
  -V(xc)+E(xc)   XCENC  =      1368.73185321
  PAW double counting   =     35061.97614190   -39692.45322710
  entropy T*S    EENTRO =        -0.00104286
  eigenvalues    EBANDS =       225.07824352
  atomic energy  EATOM  =     44511.25856501
  ---------------------------------------------------
  free energy    TOTEN  =      -119.03861971 eV

  energy without entropy =     -119.03757685  energy(sigma->0) =     -119.03809828


--------------------------------------------------------------------------------------------------------




----------------------------------------- Iteration    1(  20)  ---------------------------------------


    POTLOK:  VPU time    0.09: CPU time    0.09
    SETDIJ:  VPU time    0.12: CPU time    0.13
    EDDAV :  VPU time   96.18: CPU time   96.21
    DOS   :  VPU time    0.00: CPU time   -0.00
    CHARGE:  VPU time    4.45: CPU time    4.45
    MIXING:  VPU time    0.00: CPU time    0.01
    ------------------------------------------
      LOOP:  VPU time  100.92: CPU time  100.95

 eigenvalue-minimisations  : 24024
 total energy-change (2. order) :-0.7468770E-07  (-0.2883381E-09)
 number of electron  351.9999998 magnetization 
 augmentation part   230.1604358 magnetization 

 Broyden mixing:
  rms(total) = 0.15082E-04    rms(broyden)= 0.15081E-04
  rms(prec ) = 0.21764E-04
  weight for this iteration     100.00

 eigenvalues of (default mixing * dielectric matrix)
  average eigenvalue GAMMA=   1.1688
  2.6416  2.5446  2.5446  1.7221  1.7221  1.0954  0.9821  0.9821  0.9230  0.6896
  0.3639  0.3417  0.3389  0.3200  0.3200

 Free energy of the ion-electron system (eV)
  ---------------------------------------------------
  alpha Z        PSCENC =      3401.12835402
  Ewald energy   TEWEN  =    -35149.91665580
  -1/2 Hartree   DENC   =     -9844.84111157
  -V(xc)+E(xc)   XCENC  =      1368.73185636
  PAW double counting   =     35061.97867525   -39692.45511275
  entropy T*S    EENTRO =        -0.00104287
  eigenvalues    EBANDS =       225.07785256
  atomic energy  EATOM  =     44511.25856501
  ---------------------------------------------------
  free energy    TOTEN  =      -119.03861979 eV

  energy without entropy =     -119.03757692  energy(sigma->0) =     -119.03809835


--------------------------------------------------------------------------------------------------------




----------------------------------------- Iteration    1(  21)  ---------------------------------------


    POTLOK:  VPU time    0.09: CPU time    0.09
[...]
     78       0.6909      2.00000
     79       0.6909      2.00000
     80       0.6953      2.00000
     81       0.6953      2.00000
     82       0.7159      2.00000
     83       0.7189      2.00000
     84       0.7387      2.00000
     85       0.7387      2.00000
     86       0.7870      2.00000
     87       0.8012      2.00000
     88       0.8028      2.00000
     89       0.8186      2.00000
     90       0.8186      2.00000
     91       0.8201      2.00000
     92       0.8450      2.00000
     93       0.8451      2.00000
     94       0.8512      2.00000
     95       0.8512      2.00000
     96       0.8530      2.00000
     97       0.8530      2.00000
     98       0.8823      2.00000
     99       0.8823      2.00000
    100       0.8998      2.00000
    101       0.9085      2.00000
    102       0.9204      2.00000
    103       0.9929      2.00000
    104       0.9929      2.00000
    105       1.0007      2.00000
    106       1.0007      2.00000
    107       1.0420      2.00000
    108       1.0420      2.00000
    109       1.0707      2.00000
    110       1.0714      2.00000
    111       1.1037      2.00000
    112       1.1037      2.00000
    113       1.1118      2.00000
    114       1.1118      2.00000
    115       1.2158      2.00000
    116       1.2158      2.00000
    117       1.2589      2.00000
    118       1.2803      2.00000
    119       1.2803      2.00000
    120       1.3147      2.00000
    121       1.4515      2.00000
    122       1.5204      2.00000
    123       1.5204      2.00000
    124       1.5301      2.00000
    125       1.5390      2.00000
    126       1.5390      2.00000
    127       1.5819      2.00000
    128       1.5819      2.00000
    129       1.6066      2.00000
    130       1.6066      2.00000
    131       1.6094      2.00000
    132       1.6094      2.00000
    133       1.6319      2.00000
    134       1.6594      2.00000
    135       1.6594      2.00000
    136       1.6628      2.00000
    137       1.6904      2.00000
    138       1.6904      2.00000
    139       1.7075      2.00000
    140       1.7761      2.00000
    141       1.8242      2.00000
    142       1.8368      2.00000
    143       1.8689      2.00000
    144       1.8689      2.00000
    145       1.9077      2.00000
    146       1.9077      2.00000
    147       1.9127      2.00000
    148       1.9127      2.00000
    149       1.9132      2.00000
    150       1.9273      2.00000
    151       1.9273      2.00000
    152       1.9385      2.00000
    153       1.9385      2.00000
    154       1.9424      2.00000
    155       1.9424      2.00000
    156       1.9463      2.00000
    157       1.9550      2.00000
    158       1.9550      2.00000
    159       1.9600      2.00000
    160       1.9600      2.00000
    161       1.9675      2.00000
    162       1.9675      2.00000
    163       1.9725      2.00000
    164       1.9725      2.00000
    165       1.9858      2.00000
    166       1.9876      2.00000
    167       1.9876      2.00000
    168       2.0082      2.00000
    169       2.3613      2.00000
    170       2.5994      2.00000
    171       2.5994      2.00000
    172       2.7262      2.00000
    173       3.2669      2.00000
    174       3.2669      2.00000
    175       3.7463      0.00000
    176       3.7463      0.00000
    177       4.1097      0.00000
    178       4.1097      0.00000
    179       4.6521      0.00000
    180       4.6521      0.00000
    181       5.0266      0.00000
    182       5.0266      0.00000
    183       5.0330      0.00000
    184       5.0330      0.00000
    185       5.8506      0.00000
    186       5.8506      0.00000
    187       6.0795      0.00000
    188       6.0795      0.00000
    189       6.8027      0.00000
    190       7.3677      0.00000
    191       7.3677      0.00000
    192       7.7314      0.00000
    193       7.8476      0.00000
    194       7.8476      0.00000
    195       7.9134      0.00000
    196       7.9134      0.00000
    197       8.3618      0.00000
    198       8.3618      0.00000
    199       8.5378      0.00000
    200       8.7286      0.00000
    201       8.7286      0.00000
    202       9.4864      0.00000
    203       9.4864      0.00000
    204      10.5787      0.00000
    205      10.6713      0.00000
    206      11.7881      0.00000
    207      11.7882      0.00000
    208      11.7934      0.00000
    209      12.0442      0.00000
    210      12.0442      0.00000
    211      12.2796      0.00000
    212      12.3272      0.00000
    213      12.6163      0.00000
    214      12.6164      0.00000
    215      12.9212      0.00000
    216      13.0892      0.00000


--------------------------------------------------------------------------------------------------------


 soft charge-density along one line, spin component           1
         0         1         2         3         4         5         6         7         8         9
 total charge-density along one line
 
 pseudopotential strength for first ion, spin component:           1
 -6.508   0.000   0.000   0.000  -0.000  -0.225  -0.000  -0.000
  0.000  -6.508  -0.000  -0.000  -0.000  -0.000  -0.225   0.000
  0.000  -0.000  -6.490  -0.000   0.000  -0.000   0.000  -0.233
  0.000  -0.000  -0.000  -6.508   0.000  -0.000   0.000   0.000
 -0.000  -0.000   0.000   0.000  -6.490   0.000   0.000  -0.000
 -0.225  -0.000  -0.000  -0.000   0.000   1.669   0.000   0.000
 -0.000  -0.225   0.000   0.000   0.000   0.000   1.669  -0.000
 -0.000   0.000  -0.233   0.000  -0.000   0.000  -0.000   1.672
 -0.000   0.000   0.000  -0.225  -0.000   0.000  -0.000  -0.000
  0.000   0.000  -0.000  -0.000  -0.233  -0.000  -0.000   0.000
  0.000  -0.000  -0.000  -0.000   0.000  -0.000  -0.000   0.000
 -0.000   0.000   0.000   0.000  -0.000   0.000  -0.000  -0.000
  0.000  -0.000   0.000  -0.000   0.000  -0.000   0.000  -0.000
 -0.000   0.000  -0.000   0.000  -0.000  -0.000   0.000   0.000
  0.000  -0.000  -0.000  -0.000   0.000   0.000  -0.000   0.000
 -0.000   0.000  -0.000   0.000  -0.000   0.000  -0.000   0.000
  0.000   0.000  -0.000  -0.000   0.000  -0.000  -0.000   0.000
 -0.000   0.000   0.000   0.000  -0.000  -0.000  -0.000  -0.000
 total augmentation occupancy for first ion, spin component:           1
  1.906  -0.000   0.000  -0.001  -0.000  -0.017  -0.000  -0.000   0.000   0.000   0.000  -0.000   0.000   0.000   0.000   0.000
 -0.000   1.906   0.001   0.000  -0.002  -0.000  -0.017  -0.000  -0.000   0.000   0.005   0.000  -0.000   0.000  -0.000  -0.000
  0.000   0.001   1.915   0.000   0.000  -0.000  -0.000  -0.058  -0.000   0.000   0.000  -0.000  -0.000   0.000   0.000   0.000
 -0.001   0.000   0.000   1.906   0.000   0.000  -0.000  -0.000  -0.017  -0.000   0.001  -0.000   0.000   0.000   0.000   0.000
 -0.000  -0.002   0.000   0.000   1.915   0.000   0.000   0.000  -0.000  -0.058  -0.000   0.000  -0.000   0.000  -0.000   0.000
 -0.017  -0.000  -0.000   0.000   0.000   0.077   0.000  -0.000  -0.000  -0.000   0.000  -0.000   0.000  -0.000   0.000  -0.000
 -0.000  -0.017  -0.000  -0.000   0.000   0.000   0.077  -0.001   0.000   0.001  -0.001   0.001   0.000   0.000   0.000   0.000
 -0.000  -0.000  -0.058  -0.000   0.000  -0.000  -0.001   0.073  -0.000   0.000  -0.000  -0.000  -0.000  -0.000   0.000   0.000
  0.000  -0.000  -0.000  -0.017  -0.000  -0.000   0.000  -0.000   0.077  -0.000   0.000   0.000  -0.000   0.000  -0.000   0.000
  0.000   0.000   0.000  -0.000  -0.058  -0.000   0.001   0.000  -0.000   0.073   0.000   0.000  -0.000  -0.000  -0.000   0.000
  0.000   0.005   0.000   0.001  -0.000   0.000  -0.001  -0.000   0.000   0.000   1.200  -0.352   0.000   0.000   0.000  -0.000
 -0.000   0.000  -0.000  -0.000   0.000  -0.000   0.001  -0.000   0.000   0.000  -0.352   0.149  -0.000   0.000  -0.000   0.000
  0.000  -0.000  -0.000   0.000  -0.000   0.000   0.000  -0.000  -0.000  -0.000   0.000  -0.000   0.188  -0.001   0.000  -0.013
  0.000   0.000   0.000   0.000   0.000  -0.000   0.000  -0.000   0.000  -0.000   0.000   0.000  -0.001   0.188  -0.000  -0.000
  0.000  -0.000   0.000   0.000  -0.000   0.000   0.000   0.000  -0.000  -0.000   0.000  -0.000   0.000  -0.000   0.188  -0.000
  0.000  -0.000   0.000   0.000   0.000  -0.000   0.000   0.000   0.000   0.000  -0.000   0.000  -0.013  -0.000  -0.000   0.001
  0.000  -0.000   0.000   0.000   0.000   0.000  -0.000  -0.000  -0.000   0.000  -0.000  -0.000  -0.000  -0.013  -0.000   0.000
 -0.000  -0.000  -0.000   0.000   0.000  -0.000  -0.000  -0.000  -0.000   0.000  -0.000  -0.000  -0.000  -0.000  -0.013   0.000


------------------------ aborting loop because EDIFF is reached ----------------------------------------




--------------------------------------------------------------------------------------------------------


    CHARGE:  VPU time    4.45: CPU time    4.45
    FORLOC:  VPU time    0.02: CPU time    0.02
    FORNL :  VPU time   75.47: CPU time   75.44
    STRESS:  VPU time  124.29: CPU time  124.25
    FORCOR:  VPU time    0.11: CPU time    0.11
    FORHAR:  VPU time    0.04: CPU time    0.04
    MIXING:  VPU time    0.00: CPU time    0.00
 d Force =-0.1078795E-07[-0.117E-07,-0.992E-08]  d Energy = 0.1776425E-06-0.188E-06
 d Force =-0.4396896E-06[-0.482E-06,-0.397E-06]  d Ewald  = 0.1638892E+00-0.164E+00


--------------------------------------------------------------------------------------------------------



  FREE ENERGIE OF THE ION-ELECTRON SYSTEM (eV)
  ---------------------------------------------------
  free  energy   TOTEN  =      -119.038621 eV

  energy  without entropy=     -119.037578  energy(sigma->0) =     -119.038100
 

  FORCE on cell =-STRESS in cart. coord.  units (eV/reduce length):
  Direction    X        Y        Z        XY       YZ       ZX
  --------------------------------------------------------------------------------------
  Alpha Z   3401.28   3401.28   3401.28
  Ewald   -11716.84 -11716.87 -11716.87      0.00      0.00     -0.00
  Hartree   3281.52   3281.52   3281.52      0.00     -0.00     -0.00
  E(xc)    -2004.38  -2004.38  -2004.38      0.00      0.00     -0.00
  Local     3887.07   3887.10   3887.11     -0.00      0.00      0.00
  n-local  -1171.73  -1171.73  -1171.73      0.00      1.01      0.06
  augment   1809.19   1809.19   1809.19     -0.00     -0.00     -0.00
  Kinetic   2513.88   2513.89   2513.89     -0.00     -1.10     -0.18
  -------------------------------------------------------------------------------------
  Total       -0.00     -0.00     -0.00     -0.00      0.00      0.00
  in kB       -0.02     -0.01     -0.01     -0.00      0.00      0.00
  external pressure =       -0.01 kB  Pullay stress =        0.00 kB


 VOLUME and BASIS-vectors are now :
 -----------------------------------------------------------------------------
  energy-cutoff  :      500.00
  volume of cell :      384.65
      direct lattice vectors                 reciprocal lattice vectors
     7.272463015 -0.000001171  0.000000000     0.137504996  0.000000022  0.000000000
    -0.000001147  7.272596513  0.000000000     0.000000022  0.137502472  0.000000000
     0.000000000  0.000000000  7.272601914     0.000000000  0.000000000  0.137502370

  length of vectors
     7.272463015  7.272596513  7.272601914     0.137504996  0.137502472  0.137502370


 FORCES acting on ions
    electron-ion (+dipol)            ewald-force                    non-local-force                 convergence-correction
 -----------------------------------------------------------------------------------------------
   0.242E-03 0.267E-04 0.465E-07   -.545E-03 -.270E-04 -.759E-13   0.439E-04 -.781E-07 0.000E+00   -.510E-05 0.147E-06 -.594E-12
   -.127E-02 -.273E-04 -.469E-07   0.147E-02 0.275E-04 0.877E-13   -.209E-04 0.104E-07 0.000E+00   0.256E-05 -.580E-07 0.336E-12
   -.615E-02 -.280E-04 -.231E-07   0.631E-02 0.283E-04 0.111E-12   -.391E-04 0.825E-07 0.000E+00   0.421E-05 -.139E-06 -.799E-12
   0.925E-02 0.275E-04 0.225E-07   -.940E-02 -.278E-04 -.131E-14   -.360E-04 -.403E-08 0.000E+00   -.364E-05 0.617E-07 0.612E-14
   -.622E-02 0.720E-05 -.229E-07   0.639E-02 -.702E-05 -.641E-14   -.386E-04 -.186E-07 0.000E+00   0.995E-06 -.239E-06 0.349E-12
   0.933E-02 -.468E-04 0.227E-07   -.948E-02 0.475E-04 0.503E-13   -.365E-04 0.499E-07 0.000E+00   -.471E-06 -.436E-06 -.342E-12
   0.184E-02 -.711E-05 -.854E-08   -.179E-02 0.694E-05 0.454E-13   0.305E-04 0.249E-07 0.000E+00   0.684E-05 0.249E-06 0.621E-12
   -.784E-02 0.483E-04 0.848E-08   0.791E-02 -.490E-04 -.856E-13   0.152E-04 -.775E-07 0.000E+00   -.497E-05 0.444E-06 0.167E-12
   0.366E-03 0.532E-05 0.313E-04   -.374E-03 -.723E-05 -.295E-04   -.301E-04 -.247E-06 0.140E-06   0.197E-05 0.105E-05 -.125E-05
   0.165E-02 -.883E-04 -.451E-05   -.166E-02 0.890E-04 0.561E-05   -.423E-05 -.180E-06 0.308E-06   -.156E-05 0.621E-06 -.205E-05
   0.314E-03 -.527E-05 0.110E-04   -.322E-03 0.719E-05 -.873E-05   -.301E-04 0.260E-06 0.183E-06   0.220E-05 -.106E-05 -.164E-05
   0.170E-02 0.874E-04 -.248E-04   -.172E-02 -.882E-04 0.264E-04   -.424E-05 0.189E-06 0.376E-06   -.179E-05 -.630E-06 -.243E-05
   0.366E-03 0.532E-05 -.313E-04   -.374E-03 -.723E-05 0.295E-04   -.301E-04 -.247E-06 -.140E-06   0.197E-05 0.105E-05 0.125E-05
   0.165E-02 -.883E-04 0.451E-05   -.166E-02 0.890E-04 -.561E-05   -.423E-05 -.180E-06 -.308E-06   -.156E-05 0.621E-06 0.205E-05
   0.314E-03 -.527E-05 -.110E-04   -.322E-03 0.719E-05 0.873E-05   -.301E-04 0.260E-06 -.183E-06   0.220E-05 -.106E-05 0.164E-05
   0.170E-02 0.874E-04 0.248E-04   -.172E-02 -.882E-04 -.264E-04   -.424E-05 0.189E-06 -.376E-06   -.179E-05 -.630E-06 0.243E-05
   0.308E-02 0.158E-04 -.476E-02   -.311E-02 -.157E-04 0.492E-02   -.439E-04 -.176E-07 -.740E-05   0.520E-06 -.260E-06 -.536E-06
   0.316E-02 -.363E-04 0.487E-02   -.319E-02 0.366E-04 -.503E-02   -.437E-04 0.194E-08 0.732E-05   -.367E-06 -.347E-07 -.109E-05
   -.405E-02 -.154E-04 -.647E-02   0.409E-02 0.153E-04 0.654E-02   0.252E-04 0.132E-07 0.118E-04   -.354E-06 0.268E-06 -.387E-05
   -.400E-02 0.367E-04 0.644E-02   0.404E-02 -.370E-04 -.650E-02   0.251E-04 -.115E-07 -.115E-04   -.361E-06 0.396E-07 -.175E-05
   0.308E-02 0.158E-04 0.476E-02   -.311E-02 -.157E-04 -.492E-02   -.439E-04 -.176E-07 0.740E-05   0.520E-06 -.260E-06 0.536E-06
   0.316E-02 -.363E-04 -.487E-02   -.319E-02 0.366E-04 0.503E-02   -.437E-04 0.194E-08 -.732E-05   -.367E-06 -.347E-07 0.109E-05
   -.405E-02 -.154E-04 0.647E-02   0.409E-02 0.153E-04 -.654E-02   0.252E-04 0.132E-07 -.118E-04   -.354E-06 0.268E-06 0.387E-05
   -.400E-02 0.367E-04 -.644E-02   0.404E-02 -.370E-04 0.650E-02   0.251E-04 -.115E-07 0.115E-04   -.361E-06 0.396E-07 0.175E-05
   0.299E-02 0.476E-02 0.254E-07   -.302E-02 -.492E-02 0.484E-13   -.438E-04 0.713E-05 0.000E+00   -.166E-06 0.127E-05 -.290E-12
   0.325E-02 -.495E-02 -.260E-07   -.329E-02 0.511E-02 0.431E-13   -.439E-04 -.702E-05 0.000E+00   0.362E-06 -.158E-05 -.934E-12
   0.304E-02 -.476E-02 -.263E-07   -.308E-02 0.492E-02 -.682E-13   -.439E-04 -.716E-05 0.000E+00   0.346E-07 -.127E-05 0.611E-13
   0.320E-02 0.495E-02 0.259E-07   -.323E-02 -.511E-02 0.988E-14   -.438E-04 0.703E-05 0.000E+00   0.160E-06 0.158E-05 0.850E-13
   -.401E-02 0.647E-02 0.738E-08   0.405E-02 -.654E-02 0.459E-13   0.252E-04 -.121E-04 0.000E+00   0.193E-06 0.448E-05 0.299E-12
   -.403E-02 -.651E-02 -.746E-08   0.408E-02 0.658E-02 -.366E-13   0.254E-04 0.119E-04 0.000E+00   -.852E-06 -.850E-06 0.898E-12
   -.396E-02 -.647E-02 -.704E-08   0.399E-02 0.654E-02 -.159E-12   0.252E-04 0.122E-04 0.000E+00   0.389E-06 -.448E-05 -.772E-13
   -.409E-02 0.651E-02 0.703E-08   0.413E-02 -.658E-02 0.121E-12   0.255E-04 -.120E-04 0.000E+00   -.105E-05 0.842E-06 -.981E-13
 -----------------------------------------------------------------------------------------------
   0.227E-04 -.516E-09 -.445E-08   0.108E-12 0.146E-12 -.279E-12   -.368E-03 -.752E-08 0.000E+00   0.132E-07 0.620E-08 -.240E-11
 
 
 POSITION                                       TOTAL-FORCE (eV/Angst)
 -----------------------------------------------------------------------------------
      1.81850      1.81815      0.00000        -0.000253     -0.000000      0.000000
      5.45456      1.81815      0.00000         0.000196      0.000000      0.000000
      1.81836      5.45445      0.00000         0.000137      0.000000      0.000000
      5.45467      5.45445      0.00000        -0.000173     -0.000000      0.000000
      1.81836      1.81815      3.63630         0.000137     -0.000000      0.000000
      5.45467      1.81815      3.63630        -0.000174      0.000000      0.000000
      1.81835      5.45445      3.63630         0.000101      0.000000      0.000000
      5.45461      5.45445      3.63630         0.000091     -0.000000      0.000000
      1.81840      0.00000      1.81815        -0.000025     -0.000001      0.000001
      5.45463      7.27260      1.81815        -0.000010      0.000001     -0.000001
      1.81840      3.63630      1.81815        -0.000025      0.000001      0.000001
      5.45463      3.63630      1.81815        -0.000011     -0.000001     -0.000000
      1.81840      0.00000      5.45445        -0.000025     -0.000001     -0.000001
      5.45463      7.27260      5.45445        -0.000010      0.000001      0.000001
      1.81840      3.63630      5.45445        -0.000025      0.000001     -0.000001
      5.45463      3.63630      5.45445        -0.000011     -0.000001      0.000000
      0.00030      1.81815      1.81810        -0.000065     -0.000000      0.000150
      3.63653      1.81815      1.81820        -0.000067      0.000000     -0.000151
      0.00026      5.45445      1.81814         0.000075      0.000000      0.000076
      3.63649      5.45445      1.81816         0.000077     -0.000000     -0.000076
      0.00030      1.81815      5.45450        -0.000065     -0.000000     -0.000150
      3.63653      1.81815      5.45440        -0.000067      0.000000      0.000151
      0.00026      5.45445      5.45446         0.000075      0.000000     -0.000076
      3.63649      5.45445      5.45444         0.000077     -0.000000      0.000076
      0.00030      0.00005      0.00000        -0.000064     -0.000150      0.000000
      3.63653      7.27255      0.00000        -0.000068      0.000151      0.000000
      0.00030      3.63625      0.00000        -0.000065      0.000150      0.000000
      3.63653      3.63635      0.00000        -0.000067     -0.000151      0.000000
      0.00026      0.00001      3.63630         0.000075     -0.000077      0.000000
      3.63649      7.27258      3.63630         0.000077      0.000077      0.000000
      0.00026      3.63628      3.63630         0.000075      0.000077      0.000000
      3.63649      3.63631      3.63630         0.000078     -0.000077      0.000000
 -----------------------------------------------------------------------------------
    total drift:                               -0.000345     -0.000000     -0.000000


--------------------------------------------------------------------------------------------------------




--------------------------------------------------------------------------------------------------------


  
 reached required accuracy - stopping structural energy minimisation
     LOOP+:  VPU time 1244.69: CPU time 1244.55
  
  
 General timing and accounting informations for this job:
 ========================================================
  
                  Total CPU time used (sec):     8484.661
                            User time (sec):     8027.108
                          System time (sec):      457.553
                         Elapsed time (sec):     8483.991
  
                   Maximum memory used (kb):     8458600.
                   Average memory used (kb):           0.
  
                          Minor page faults:      1581286
                          Major page faults:            0
                 Voluntary context switches:         1608
