   4   4   0   0
  0.1063590E+02  0.3490959E-09  0.3490959E-09  0.3490959E-09  0.5000000E-15
  1.000000000000000E-004
  CAR 
 unknown system                          
     16.21884801     -6.46271485  301      4.78782007      1.00000000
     -6.463  0.0000E+00  0.0000E+00
     -6.387  0.0000E+00  0.0000E+00
     -6.312  0.0000E+00  0.0000E+00
     -6.236  0.0000E+00  0.0000E+00
     -6.160  0.0000E+00  0.0000E+00
     -6.085  0.0000E+00  0.0000E+00
     -6.009  0.0000E+00  0.0000E+00
     -5.933  0.0000E+00  0.0000E+00
     -5.858  0.0000E+00  0.0000E+00
     -5.782  0.0000E+00  0.0000E+00
     -5.707  0.0000E+00  0.0000E+00
     -5.631  0.0000E+00  0.0000E+00
     -5.555  0.0000E+00  0.0000E+00
     -5.480  0.7782E-13  0.5884E-14
     -5.404  0.1531E-01  0.1157E-02
     -5.329  0.8764E-01  0.7784E-02
     -5.253  0.5980E-01  0.1262E-01
     -5.177  0.1246E+00  0.2204E-01
     -5.102  0.1218E+00  0.3125E-01
     -5.026  0.9185E-01  0.3819E-01
     -4.951  0.3674E+00  0.6597E-01
     -4.875  0.3630E+00  0.9342E-01
     -4.799  0.0000E+00  0.9375E-01
     -4.724  0.1501E-01  0.9488E-01
     -4.648  0.1692E+00  0.1077E+00
     -4.573  0.4587E+00  0.1424E+00
     -4.497  0.3674E+00  0.1701E+00
     -4.421  0.3674E+00  0.1979E+00
     -4.346  0.1224E+00  0.2072E+00
     -4.270  0.3308E+00  0.2322E+00
     -4.195  0.3948E+00  0.2648E+00
     -4.119  0.3401E+00  0.2905E+00
     -4.043  0.2019E-03  0.2905E+00
     -3.968  0.9207E-01  0.2975E+00
     -3.892  0.7344E+00  0.3530E+00
     -3.817  0.5511E+00  0.3947E+00
     -3.741  0.3674E+00  0.4225E+00
     -3.665  0.3674E+00  0.4502E+00
     -3.590  0.7342E+00  0.5057E+00
     -3.514  0.3674E+00  0.5336E+00
     -3.439  0.0000E+00  0.5336E+00
     -3.363  0.3609E+00  0.5609E+00
     -3.287  0.2736E+00  0.5820E+00
     -3.212  0.8767E+00  0.6501E+00
     -3.136  0.6762E+00  0.7013E+00
     -3.060  0.2008E+00  0.7164E+00
     -2.985  0.8049E+00  0.7773E+00
     -2.909  0.5556E+00  0.8200E+00
     -2.834  0.4671E+00  0.8553E+00
     -2.758  0.2281E-01  0.8570E+00
     -2.682  0.7797E+00  0.9160E+00
     -2.607  0.5896E+00  0.9619E+00
     -2.531  0.9119E+00  0.1031E+01
     -2.456  0.4592E+00  0.1071E+01
     -2.380  0.3680E+00  0.1098E+01
     -2.304  0.1102E+01  0.1182E+01
     -2.229  0.4581E-01  0.1185E+01
     -2.153  0.6973E+00  0.1238E+01
     -2.078  0.1237E+01  0.1331E+01
     -2.002  0.9591E+00  0.1404E+01
     -1.926  0.7564E+00  0.1461E+01
     -1.851  0.8090E+00  0.1522E+01
     -1.775  0.7348E+00  0.1580E+01
     -1.700  0.8267E+00  0.1642E+01
     -1.624  0.1102E+01  0.1726E+01
     -1.548  0.3823E+00  0.1755E+01
     -1.473  0.1053E+01  0.1834E+01
     -1.397  0.2579E+01  0.2029E+01
     -1.322  0.1230E+01  0.2123E+01
     -1.246  0.6775E+00  0.2180E+01
     -1.170  0.8389E+00  0.2250E+01
     -1.095  0.1904E+01  0.2394E+01
     -1.019  0.1206E+01  0.2486E+01
     -0.944  0.3899E+01  0.2781E+01
     -0.868  0.1885E+01  0.2936E+01
     -0.792  0.3567E+01  0.3206E+01
     -0.717  0.4397E+01  0.3558E+01
     -0.641  0.3713E+01  0.3843E+01
     -0.566  0.4023E+01  0.4177E+01
     -0.490  0.3518E+01  0.4444E+01
     -0.414  0.4961E+01  0.4827E+01
     -0.339  0.6514E+01  0.5325E+01
     -0.263  0.2892E+01  0.5559E+01
     -0.187  0.4749E+01  0.5918E+01
     -0.112  0.9518E+01  0.6641E+01
     -0.036  0.5896E+01  0.7100E+01
      0.039  0.6997E+01  0.7635E+01
      0.115  0.9521E+01  0.8357E+01
      0.191  0.8127E+01  0.8976E+01
      0.266  0.8662E+01  0.9632E+01
      0.342  0.5985E+01  0.1012E+02
      0.417  0.6372E+01  0.1062E+02
      0.493  0.8868E+01  0.1129E+02
      0.569  0.6387E+01  0.1178E+02
      0.644  0.7475E+01  0.1235E+02
      0.720  0.5434E+01  0.1276E+02
      0.795  0.1013E+02  0.1354E+02
      0.871  0.7664E+01  0.1414E+02
      0.947  0.1148E+02  0.1502E+02
      1.022  0.7512E+01  0.1561E+02
      1.098  0.1314E+02  0.1660E+02
      1.173  0.1190E+02  0.1752E+02
      1.249  0.8576E+01  0.1818E+02
      1.325  0.1277E+02  0.1916E+02
      1.400  0.1378E+02  0.2021E+02
      1.476  0.1258E+02  0.2119E+02
      1.551  0.1771E+02  0.2254E+02
      1.627  0.1440E+02  0.2364E+02
      1.703  0.1150E+02  0.2452E+02
      1.778  0.7896E+01  0.2513E+02
      1.854  0.9217E+01  0.2584E+02
      1.929  0.8968E+01  0.2653E+02
      2.005  0.9536E+01  0.2729E+02
      2.081  0.9726E+01  0.2803E+02
      2.156  0.1121E+02  0.2889E+02
      2.232  0.1319E+02  0.2990E+02
      2.307  0.1078E+02  0.3075E+02
      2.383  0.1252E+02  0.3171E+02
      2.459  0.1205E+02  0.3265E+02
      2.534  0.9301E+01  0.3337E+02
      2.610  0.1118E+02  0.3422E+02
      2.686  0.1050E+02  0.3504E+02
      2.761  0.1084E+02  0.3587E+02
      2.837  0.1358E+02  0.3691E+02
      2.912  0.1711E+02  0.3821E+02
      2.988  0.1905E+02  0.3967E+02
      3.064  0.1673E+02  0.4098E+02
      3.139  0.1142E+02  0.4185E+02
      3.215  0.2134E+01  0.4202E+02
      3.290  0.3706E+00  0.4205E+02
      3.366  0.1151E+01  0.4213E+02
      3.442  0.1223E+01  0.4223E+02
      3.517  0.3045E+01  0.4246E+02
      3.593  0.1834E+01  0.4260E+02
      3.668  0.7350E+00  0.4266E+02
      3.744  0.1536E+01  0.4277E+02
      3.820  0.2489E+00  0.4280E+02
      3.895  0.1070E+01  0.4288E+02
      3.971  0.1386E+01  0.4298E+02
      4.046  0.2678E+01  0.4318E+02
      4.122  0.7121E+00  0.4324E+02
      4.198  0.1102E+01  0.4332E+02
      4.273  0.4412E-01  0.4333E+02
      4.349  0.1834E+01  0.4346E+02
      4.424  0.1359E+01  0.4357E+02
      4.500  0.1956E+01  0.4372E+02
      4.576  0.1911E+01  0.4387E+02
      4.651  0.3674E+00  0.4390E+02
      4.727  0.3158E+00  0.4392E+02
      4.802  0.1428E+01  0.4404E+02
      4.878  0.1466E+01  0.4415E+02
      4.954  0.0000E+00  0.4415E+02
      5.029  0.9783E+00  0.4422E+02
      5.105  0.1132E+01  0.4432E+02
      5.180  0.1079E+01  0.4440E+02
      5.256  0.2197E+01  0.4457E+02
      5.332  0.5013E-13  0.4457E+02
      5.407  0.9861E+00  0.4464E+02
      5.483  0.2614E+01  0.4484E+02
      5.559  0.1101E+01  0.4493E+02
      5.634  0.7340E+00  0.4498E+02
      5.710  0.9185E-01  0.4499E+02
      5.785  0.9221E+00  0.4506E+02
      5.861  0.8936E+00  0.4513E+02
      5.937  0.3340E+00  0.4515E+02
      6.012  0.7373E+00  0.4521E+02
      6.088  0.1899E+01  0.4536E+02
      6.163  0.2525E+00  0.4538E+02
      6.239  0.2366E+01  0.4556E+02
      6.315  0.1056E+01  0.4564E+02
      6.390  0.4134E+00  0.4567E+02
      6.466  0.9387E+00  0.4574E+02
      6.541  0.5420E+00  0.4579E+02
      6.617  0.1274E+01  0.4588E+02
      6.693  0.1261E+01  0.4598E+02
      6.768  0.1818E+01  0.4612E+02
      6.844  0.0000E+00  0.4612E+02
      6.919  0.5988E-06  0.4612E+02
      6.995  0.5775E+00  0.4616E+02
      7.071  0.8921E+00  0.4623E+02
      7.146  0.1701E+01  0.4636E+02
      7.222  0.5224E+00  0.4641E+02
      7.297  0.3882E+00  0.4644E+02
      7.373  0.1031E+01  0.4652E+02
      7.449  0.1887E+01  0.4666E+02
      7.524  0.3317E+00  0.4669E+02
      7.600  0.7022E+00  0.4674E+02
      7.675  0.1039E+01  0.4682E+02
      7.751  0.0000E+00  0.4683E+02
      7.827  0.1105E-04  0.4683E+02
      7.902  0.1175E+01  0.4692E+02
      7.978  0.1555E+01  0.4703E+02
      8.053  0.1822E+00  0.4705E+02
      8.129  0.7348E+00  0.4710E+02
      8.205  0.5218E+00  0.4714E+02
      8.280  0.2754E+00  0.4716E+02
      8.356  0.4887E+00  0.4720E+02
      8.432  0.8327E+00  0.4726E+02
      8.507  0.1005E+01  0.4734E+02
      8.583  0.7344E+00  0.4740E+02
      8.658  0.3634E+00  0.4742E+02
      8.734  0.1067E-07  0.4742E+02
      8.810  0.7348E+00  0.4748E+02
      8.885  0.1087E+01  0.4756E+02
      8.961  0.0000E+00  0.4756E+02
      9.036  0.8309E+00  0.4763E+02
      9.112  0.3592E+00  0.4766E+02
      9.188  0.4058E+00  0.4769E+02
      9.263  0.6844E+00  0.4775E+02
      9.339  0.5580E+00  0.4779E+02
      9.414  0.1740E+01  0.4792E+02
      9.490  0.1612E+01  0.4804E+02
      9.566  0.1102E+01  0.4812E+02
      9.641  0.1102E+01  0.4821E+02
      9.717  0.1016E+01  0.4829E+02
      9.792  0.2574E-01  0.4829E+02
      9.868  0.1076E+01  0.4837E+02
      9.944  0.1101E+01  0.4846E+02
     10.019  0.9185E+00  0.4853E+02
     10.095  0.7348E+00  0.4858E+02
     10.170  0.9016E+00  0.4865E+02
     10.246  0.1677E+01  0.4878E+02
     10.322  0.8987E+00  0.4886E+02
     10.397  0.1285E+01  0.4896E+02
     10.473  0.1620E+01  0.4909E+02
     10.548  0.6913E+00  0.4914E+02
     10.624  0.5955E+00  0.4919E+02
     10.700  0.6906E+00  0.4925E+02
     10.775  0.7348E+00  0.4931E+02
     10.851  0.1068E+01  0.4939E+02
     10.926  0.1814E+00  0.4941E+02
     11.002  0.7332E+00  0.4946E+02
     11.078  0.4549E+00  0.4950E+02
     11.153  0.1638E+01  0.4962E+02
     11.229  0.8441E+00  0.4969E+02
     11.305  0.4030E+00  0.4972E+02
     11.380  0.6583E+00  0.4977E+02
     11.456  0.2531E+00  0.4979E+02
     11.531  0.2550E+01  0.4998E+02
     11.607  0.2610E+00  0.5000E+02
     11.683  0.2378E+00  0.5002E+02
     11.758  0.1967E+01  0.5017E+02
     11.834  0.1725E-09  0.5017E+02
     11.909  0.3674E+00  0.5020E+02
     11.985  0.1069E-07  0.5020E+02
     12.061  0.1092E+01  0.5028E+02
     12.136  0.5814E+00  0.5033E+02
     12.212  0.1436E+01  0.5044E+02
     12.287  0.2016E+00  0.5046E+02
     12.363  0.1658E+00  0.5047E+02
     12.439  0.1877E+00  0.5048E+02
     12.514  0.6778E+00  0.5053E+02
     12.590  0.1462E+01  0.5065E+02
     12.665  0.5216E+00  0.5069E+02
     12.741  0.4476E+00  0.5072E+02
     12.817  0.9780E+00  0.5080E+02
     12.892  0.1500E+01  0.5091E+02
     12.968  0.7559E+00  0.5097E+02
     13.043  0.7801E+00  0.5104E+02
     13.119  0.1453E+00  0.5105E+02
     13.195  0.5427E+00  0.5109E+02
     13.270  0.1814E+01  0.5123E+02
     13.346  0.3206E+00  0.5126E+02
     13.421  0.4371E+00  0.5129E+02
     13.497  0.1363E+01  0.5140E+02
     13.573  0.1353E+01  0.5150E+02
     13.648  0.3894E+00  0.5153E+02
     13.724  0.1178E+01  0.5162E+02
     13.799  0.9802E+00  0.5170E+02
     13.875  0.0000E+00  0.5170E+02
     13.951  0.1108E+00  0.5171E+02
     14.026  0.8100E-01  0.5171E+02
     14.102  0.1379E+01  0.5182E+02
     14.178  0.4487E+00  0.5185E+02
     14.253  0.4098E-04  0.5185E+02
     14.329  0.7348E+00  0.5191E+02
     14.404  0.2449E+00  0.5192E+02
     14.480  0.7324E+00  0.5198E+02
     14.556  0.0000E+00  0.5198E+02
     14.631  0.0000E+00  0.5198E+02
     14.707  0.0000E+00  0.5198E+02
     14.782  0.0000E+00  0.5198E+02
     14.858  0.0000E+00  0.5198E+02
     14.934  0.0000E+00  0.5198E+02
     15.009  0.0000E+00  0.5198E+02
     15.085  0.2104E-10  0.5198E+02
     15.160  0.1837E+00  0.5199E+02
     15.236  0.9185E-01  0.5200E+02
     15.312  0.0000E+00  0.5200E+02
     15.387  0.0000E+00  0.5200E+02
     15.463  0.0000E+00  0.5200E+02
     15.538  0.0000E+00  0.5200E+02
     15.614  0.0000E+00  0.5200E+02
     15.690  0.0000E+00  0.5200E+02
     15.765  0.0000E+00  0.5200E+02
     15.841  0.0000E+00  0.5200E+02
     15.916  0.0000E+00  0.5200E+02
     15.992  0.0000E+00  0.5200E+02
     16.068  0.0000E+00  0.5200E+02
     16.143  0.0000E+00  0.5200E+02
     16.219  0.0000E+00  0.5200E+02
