    4    4    1    1
  0.1063590E+02  0.3490959E-09  0.3490959E-09  0.3490959E-09  0.5000000E-15
  1.000000000000000E-004
  CAR 
 unknown system                          
   44   84   26
 
  0.0000000E+00  0.0000000E+00  0.0000000E+00  0.5787037E-03
   1       -5.4317
   2       -0.8084
   3       -0.8084
   4       -0.8084
   5       -0.2830
   6       -0.2830
   7       -0.2830
   8        1.3550
   9        1.3550
  10        1.3550
  11        2.3296
  12        2.3296
  13        2.9755
  14        2.9755
  15        2.9755
  16        3.1573
  17        3.1573
  18        3.1573
  19        3.1573
  20        3.1573
  21        3.1573
  22        6.1845
  23        6.1845
  24        6.1845
  25       12.6340
  26       12.6340
 
  0.8333333E-01  0.0000000E+00  0.0000000E+00  0.3472222E-02
   1       -5.3406
   2       -0.8061
   3       -0.7635
   4       -0.7635
   5       -0.2568
   6       -0.2552
   7       -0.2552
   8        1.3253
   9        1.3785
  10        1.3785
  11        2.3025
  12        2.3403
  13        2.9405
  14        2.9405
  15        2.9642
  16        2.9734
  17        2.9734
  18        3.1162
  19        3.1162
  20        3.1573
  21        3.1573
  22        5.6656
  23        6.4475
  24        6.4475
  25       12.6622
  26       12.6622
 
  0.1666667E+00  0.0000000E+00  0.0000000E+00  0.3472222E-02
   1       -5.0693
   2       -0.8165
   3       -0.6352
   4       -0.6352
   5       -0.1797
   6       -0.1712
   7       -0.1712
   8        1.2385
   9        1.4482
  10        1.4482
  11        2.2246
  12        2.3719
  13        2.5499
  14        2.5499
  15        2.8389
  16        2.8389
  17        2.9312
  18        2.9986
  19        2.9986
  20        3.1575
  21        3.1575
  22        4.5443
  23        7.1080
  24        7.1080
  25       12.7497
  26       12.7497
 
  0.2500000E+00  0.0000000E+00  0.0000000E+00  0.3472222E-02
   1       -4.6252
   2       -0.8997
   3       -0.4434
   4       -0.4434
   5       -0.0561
   6       -0.0299
   7       -0.0299
   8        1.1016
   9        1.5625
  10        1.5625
  11        2.0565
  12        2.0565
  13        2.1057
  14        2.4222
  15        2.6831
  16        2.6831
  17        2.8203
  18        2.8203
  19        2.8789
  20        3.1577
  21        3.1577
  22        3.3669
  23        7.9948
  24        7.9948
  25       12.9035
  26       12.9035
 
  0.3333333E+00  0.0000000E+00  0.0000000E+00  0.3472222E-02
   1       -4.0232
   2       -1.1705
   3       -0.2256
   4       -0.2256
   5        0.1070
   6        0.1703
   7        0.1703
   8        0.9253
   9        1.5744
  10        1.5744
  11        1.7182
  12        1.7182
  13        1.9657
  14        2.4437
  15        2.4882
  16        2.5006
  17        2.5006
  18        2.6019
  19        2.6019
  20        2.8111
  21        3.1580
  22        3.1580
  23        9.0243
  24        9.0243
  25       13.1308
  26       13.1308
 
  0.4166667E+00  0.0000000E+00  0.0000000E+00  0.3472222E-02
   1       -3.2918
   2       -1.7252
   3       -0.0420
   4       -0.0420
   5        0.2995
   6        0.4309
   7        0.4309
   8        0.7230
   9        1.1357
  10        1.1357
  11        1.8392
  12        1.9098
  13        1.9098
  14        1.9367
  15        2.3424
  16        2.3424
  17        2.3651
  18        2.3651
  19        2.5653
  20        2.7325
  21        3.1582
  22        3.1582
  23       10.1611
  24       10.1611
  25       12.6942
  26       12.6942
 
  0.5000000E+00  0.0000000E+00  0.0000000E+00  0.1736111E-02
   1       -2.4881
   2       -2.4881
   3        0.0324
   4        0.0324
   5        0.5095
   6        0.5095
   7        0.7530
   8        0.7530
   9        0.7530
  10        0.7530
  11        1.7901
  12        1.7901
  13        2.1293
  14        2.1293
  15        2.1293
  16        2.1293
  17        2.2772
  18        2.2772
  19        2.6486
  20        2.6486
  21        3.1582
  22        3.1582
  23       11.3880
  24       11.3880
  25       11.3880
  26       11.3880
 
  0.8333333E-01  0.8333333E-01  0.0000000E+00  0.6944444E-02
   1       -5.2498
   2       -0.7603
   3       -0.7603
   4       -0.7197
   5       -0.2295
   6       -0.2295
   7       -0.2283
   8        1.3084
   9        1.3896
  10        1.3995
  11        2.2950
  12        2.3339
  13        2.8391
  14        2.8809
  15        2.8809
  16        2.9070
  17        2.9711
  18        2.9711
  19        3.1161
  20        3.1161
  21        3.1311
  22        5.9271
  23        5.9271
  24        6.6874
  25       12.6896
  26       13.3652
 
  0.1666667E+00  0.8333333E-01  0.0000000E+00  0.1388889E-01
   1       -4.9798
   2       -0.7677
   3       -0.6291
   4       -0.5942
   5       -0.1539
   6       -0.1473
   7       -0.1471
   8        1.2302
   9        1.4527
  10        1.4616
  11        2.2275
  12        2.3627
  13        2.4697
  14        2.4718
  15        2.7263
  16        2.8097
  17        2.8473
  18        2.9378
  19        2.9984
  20        3.1160
  21        3.1169
  22        4.8297
  23        6.5613
  24        7.3086
  25       12.7710
  26       13.4871
 
  0.2500000E+00  0.8333333E-01  0.0000000E+00  0.1388889E-01
   1       -4.5381
   2       -0.8459
   3       -0.4323
   4       -0.4060
   5       -0.0327
   6       -0.0122
   7       -0.0085
   8        1.0982
   9        1.5599
  10        1.5649
  11        1.9824
  12        2.0112
  13        2.1189
  14        2.4191
  15        2.4620
  16        2.6599
  17        2.6912
  18        2.8197
  19        2.8702
  20        3.1136
  21        3.1157
  22        3.7467
  23        7.3849
  24        8.1648
  25       12.8862
  26       13.6990
 
  0.3333333E+00  0.8333333E-01  0.0000000E+00  0.1388889E-01
   1       -3.9395
   2       -1.1105
   3       -0.2074
   4       -0.1898
   5        0.1269
   6        0.1756
   7        0.1876
   8        0.9267
   9        1.5095
  10        1.5519
  11        1.6724
  12        1.7194
  13        2.0127
  14        2.0793
  15        2.4844
  16        2.4942
  17        2.5088
  18        2.6013
  19        2.7393
  20        3.0478
  21        3.1130
  22        3.1153
  23        8.3169
  24        9.1733
  25       12.6156
  26       13.4414
 
  0.4166667E+00  0.8333333E-01  0.0000000E+00  0.1388889E-01
   1       -3.2128
   2       -1.6587
   3       -0.0147
   4       -0.0044
   5        0.3154
   6        0.4159
   7        0.4426
   8        0.7294
   9        1.0833
  10        1.1287
  11        1.7069
  12        1.7675
  13        1.9103
  14        2.0315
  15        2.3337
  16        2.3481
  17        2.3646
  18        2.4740
  19        2.5834
  20        2.8015
  21        3.1134
  22        3.1147
  23        9.3248
  24       10.2958
  25       11.5218
  26       12.8125
 
  0.5000000E+00  0.8333333E-01  0.0000000E+00  0.6944444E-02
   1       -2.4149
   2       -2.4149
   3        0.0680
   4        0.0680
   5        0.5208
   6        0.5208
   7        0.7168
   8        0.7168
   9        0.7569
  10        0.7569
  11        1.6767
  12        1.6767
  13        2.1292
  14        2.1292
  15        2.2160
  16        2.2160
  17        2.2766
  18        2.2766
  19        2.6835
  20        2.6835
  21        3.1141
  22        3.1141
  23       10.3958
  24       10.3958
  25       11.5129
  26       11.5129
 
  0.1666667E+00  0.1666667E+00  0.0000000E+00  0.6944444E-02
   1       -4.7139
   2       -0.6275
   3       -0.6275
   4       -0.4769
   5       -0.0762
   6       -0.0762
   7       -0.0758
   8        1.1826
   9        1.4904
  10        1.5005
  11        2.2030
  12        2.2269
  13        2.2708
  14        2.2708
  15        2.3719
  16        2.7240
  17        2.8389
  18        2.8389
  19        2.9975
  20        2.9975
  21        3.0534
  22        5.4457
  23        5.4457
  24        7.8539
  25       12.7965
  26       14.1009
 
  0.2500000E+00  0.1666667E+00  0.0000000E+00  0.1388889E-01
   1       -4.2792
   2       -0.6907
   3       -0.4155
   4       -0.3000
   5        0.0374
   6        0.0416
   7        0.0543
   8        1.0767
   9        1.5569
  10        1.5850
  11        1.7896
  12        1.8719
  13        1.9838
  14        2.1263
  15        2.4383
  16        2.5909
  17        2.6901
  18        2.7829
  19        2.8183
  20        2.9962
  21        3.0167
  22        4.3543
  23        6.1905
  24        8.6421
  25       12.2865
  26       13.3378
 
  0.3333333E+00  0.1666667E+00  0.0000000E+00  0.1388889E-01
   1       -3.6913
   2       -0.9369
   3       -0.1687
   4       -0.0900
   5        0.1867
   6        0.1950
   7        0.2384
   8        0.9253
   9        1.3423
  10        1.4821
  11        1.5988
  12        1.6816
  13        1.7301
  14        2.0617
  15        2.4342
  16        2.5122
  17        2.5430
  18        2.5998
  19        2.6637
  20        2.9946
  21        3.0005
  22        3.5554
  23        7.0109
  24        9.5998
  25       11.0864
  26       13.4946
 
  0.4166667E+00  0.1666667E+00  0.0000000E+00  0.1388889E-01
   1       -2.9793
   2       -1.4655
   3        0.0533
   4        0.1032
   5        0.3625
   6        0.3741
   7        0.4763
   8        0.7456
   9        0.9477
  10        1.1059
  11        1.5057
  12        1.5679
  13        1.9154
  14        2.1038
  15        2.3030
  16        2.3490
  17        2.3641
  18        2.4745
  19        2.6757
  20        2.9932
  21        2.9942
  22        3.0941
  23        7.8986
  24        9.9226
  25       10.6858
  26       13.1593
 
  0.5000000E+00  0.1666667E+00  0.0000000E+00  0.6944444E-02
   1       -2.2006
   2       -2.2006
   3        0.1671
   4        0.1671
   5        0.5532
   6        0.5532
   7        0.6183
   8        0.6183
   9        0.7670
  10        0.7670
  11        1.4984
  12        1.4984
  13        2.1307
  14        2.1307
  15        2.2623
  16        2.2623
  17        2.2647
  18        2.2647
  19        2.8435
  20        2.8435
  21        2.9926
  22        2.9926
  23        8.8634
  24        8.8634
  25       11.8770
  26       11.8770
 
  0.2500000E+00  0.2500000E+00  0.0000000E+00  0.6944444E-02
   1       -3.8571
   2       -0.4540
   3       -0.4540
   4       -0.1422
   5        0.1309
   6        0.1545
   7        0.1545
   8        1.0148
   9        1.5388
  10        1.5388
  11        1.5571
  12        1.6444
  13        1.6487
  14        2.0838
  15        2.4811
  16        2.5274
  17        2.6441
  18        2.6441
  19        2.8163
  20        2.8163
  21        2.9267
  22        5.0235
  23        5.0235
  24        9.3597
  25       10.9106
  26       13.4329
 
  0.3333333E+00  0.2500000E+00  0.0000000E+00  0.1388889E-01
   1       -3.2884
   2       -0.6708
   3       -0.1722
   4        0.0470
   5        0.2402
   6        0.2856
   7        0.3186
   8        0.9062
   9        1.1436
  10        1.3298
  11        1.3611
  12        1.5388
  13        1.7678
  14        2.0354
  15        2.3491
  16        2.4749
  17        2.5348
  18        2.5988
  19        2.6777
  20        2.8150
  21        2.8682
  22        4.1110
  23        5.7475
  24        9.6011
  25       10.2581
  26       13.7270
 
  0.4166667E+00  0.2500000E+00  0.0000000E+00  0.1388889E-01
   1       -2.6039
   2       -1.1658
   3        0.0966
   4        0.2576
   5        0.3196
   6        0.4386
   7        0.5281
   8        0.7631
   9        0.8015
  10        1.0626
  11        1.2700
  12        1.4612
  13        1.9357
  14        2.0654
  15        2.2407
  16        2.3141
  17        2.3666
  18        2.3690
  19        2.8157
  20        2.8364
  21        2.8734
  22        3.5053
  23        6.5408
  24        8.4416
  25       11.2980
  26       13.7129
 
  0.5000000E+00  0.2500000E+00  0.0000000E+00  0.6944444E-02
   1       -1.8612
   2       -1.8612
   3        0.2758
   4        0.2758
   5        0.5111
   6        0.5111
   7        0.6021
   8        0.6021
   9        0.7791
  10        0.7791
  11        1.3442
  12        1.3442
  13        2.1400
  14        2.1400
  15        2.1918
  16        2.1918
  17        2.2209
  18        2.2209
  19        2.8214
  20        2.8214
  21        3.1289
  22        3.1289
  23        7.4291
  24        7.4291
  25       12.4548
  26       12.4548
 
  0.3333333E+00  0.3333333E+00  0.0000000E+00  0.6944444E-02
   1       -2.7499
   2       -0.3521
   3       -0.3521
   4        0.1638
   5        0.3364
   6        0.4219
   7        0.4219
   8        0.8551
   9        1.0316
  10        1.0316
  11        1.1928
  12        1.4801
  13        1.8511
  14        1.9770
  15        2.2400
  16        2.3761
  17        2.3761
  18        2.6011
  19        2.6011
  20        2.7560
  21        2.8835
  22        4.7192
  23        4.7192
  24        8.2832
  25       11.1017
  26       14.0840
 
  0.4166667E+00  0.3333333E+00  0.0000000E+00  0.1388889E-01
   1       -2.1101
   2       -0.7986
   3       -0.0456
   4        0.2163
   5        0.4688
   6        0.5394
   7        0.5915
   8        0.7697
   9        0.7912
  10        0.9937
  11        1.0810
  12        1.3785
  13        1.9758
  14        1.9863
  15        2.1463
  16        2.2235
  17        2.2255
  18        2.3777
  19        2.6106
  20        2.6790
  21        3.1457
  22        3.9816
  23        5.4042
  24        7.1527
  25       12.0955
  26       14.4472
 
  0.5000000E+00  0.3333333E+00  0.0000000E+00  0.6944444E-02
   1       -1.4278
   2       -1.4278
   3        0.1618
   4        0.1618
   5        0.6093
   6        0.6093
   7        0.6598
   8        0.6598
   9        0.7866
  10        0.7866
  11        1.2262
  12        1.2262
  13        2.0709
  14        2.0709
  15        2.1324
  16        2.1324
  17        2.1666
  18        2.1666
  19        2.6337
  20        2.6337
  21        3.4886
  22        3.4886
  23        6.2023
  24        6.2023
  25       13.2159
  26       13.2159
 
  0.4166667E+00  0.4166667E+00  0.0000000E+00  0.6944444E-02
   1       -1.5385
   2       -0.4252
   3       -0.4252
   4        0.0893
   5        0.6576
   6        0.6576
   7        0.6581
   8        0.7548
   9        0.8980
  10        0.9373
  11        0.9373
  12        1.2803
  13        1.9202
  14        2.0501
  15        2.0807
  16        2.0888
  17        2.0888
  18        2.4052
  19        2.4052
  20        2.5496
  21        3.4843
  22        4.5394
  23        4.5394
  24        6.0811
  25       13.0480
  26       15.1296
 
  0.5000000E+00  0.4166667E+00  0.0000000E+00  0.6944444E-02
   1       -0.9508
   2       -0.9508
   3       -0.1171
   4       -0.1171
   5        0.7155
   6        0.7155
   7        0.7817
   8        0.7817
   9        0.8113
  10        0.8113
  11        1.1255
  12        1.1255
  13        1.9642
  14        1.9642
  15        2.0178
  16        2.0178
  17        2.2229
  18        2.2229
  19        2.4593
  20        2.4593
  21        3.9246
  22        3.9246
  23        5.2220
  24        5.2220
  25       14.1336
  26       14.1336
 
  0.5000000E+00  0.5000000E+00  0.0000000E+00  0.1736111E-02
   1       -0.4952
   2       -0.4952
   3       -0.4952
   4       -0.4952
   5        0.7583
   6        0.7583
   7        0.7583
   8        0.7583
   9        0.9953
  10        0.9953
  11        0.9953
  12        0.9953
  13        1.9408
  14        1.9408
  15        1.9408
  16        1.9408
  17        2.3194
  18        2.3194
  19        2.3194
  20        2.3194
  21        4.4804
  22        4.4804
  23        4.4804
  24        4.4804
  25       15.1879
  26       15.1879
 
  0.8333333E-01  0.8333333E-01  0.8333333E-01  0.4629630E-02
   1       -5.1596
   2       -0.7156
   3       -0.7156
   4       -0.7156
   5       -0.2031
   6       -0.2031
   7       -0.2031
   8        1.2928
   9        1.4092
  10        1.4092
  11        2.3088
  12        2.3088
  13        2.7811
  14        2.7811
  15        2.7811
  16        2.8767
  17        2.8767
  18        2.8767
  19        3.1119
  20        3.1119
  21        3.1119
  22        6.1599
  23        6.1599
  24        6.1599
  25       13.4039
  26       13.4039
 
  0.1666667E+00  0.8333333E-01  0.8333333E-01  0.1388889E-01
   1       -4.8910
   2       -0.7206
   3       -0.5877
   4       -0.5877
   5       -0.1288
   6       -0.1236
   7       -0.1236
   8        1.2217
   9        1.4628
  10        1.4677
  11        2.2377
  12        2.3489
  13        2.3997
  14        2.3997
  15        2.6052
  16        2.7857
  17        2.7876
  18        2.7876
  19        3.0604
  20        3.0992
  21        3.0992
  22        5.0617
  23        6.7481
  24        6.7481
  25       13.5184
  26       13.5184
 
  0.2500000E+00  0.8333333E-01  0.8333333E-01  0.1388889E-01
   1       -4.4517
   2       -0.7946
   3       -0.3955
   4       -0.3955
   5       -0.0097
   6        0.0089
   7        0.0089
   8        1.0956
   9        1.5578
  10        1.5642
  11        1.9426
  12        1.9426
  13        2.1379
  14        2.3077
  15        2.4126
  16        2.6400
  17        2.6500
  18        2.6500
  19        2.9871
  20        3.0885
  21        3.0885
  22        3.9781
  23        7.5363
  24        7.5363
  25       13.6477
  26       13.6477
 
  0.3333333E+00  0.8333333E-01  0.8333333E-01  0.1388889E-01
   1       -3.8568
   2       -1.0537
   3       -0.1730
   4       -0.1730
   5        0.1472
   6        0.1916
   7        0.1916
   8        0.9294
   9        1.4933
  10        1.4933
  11        1.6530
  12        1.6965
  13        1.9358
  14        2.0622
  15        2.4555
  16        2.4813
  17        2.4813
  18        2.4955
  19        2.8986
  20        3.0824
  21        3.0824
  22        3.1892
  23        8.4408
  24        8.4408
  25       12.8770
  26       12.8770
 
  0.4166667E+00  0.8333333E-01  0.8333333E-01  0.1388889E-01
   1       -3.1353
   2       -1.5953
   3        0.0222
   4        0.0222
   5        0.3323
   6        0.4190
   7        0.4190
   8        0.7372
   9        1.0887
  10        1.0887
  11        1.6564
  12        1.6732
  13        1.8604
  14        2.1314
  15        2.2524
  16        2.3311
  17        2.3311
  18        2.5918
  19        2.6924
  20        2.7996
  21        3.0795
  22        3.0795
  23        9.4154
  24        9.4154
  25       11.7065
  26       11.7065
 
  0.5000000E+00  0.8333333E-01  0.8333333E-01  0.6944444E-02
   1       -2.3441
   2       -2.3441
   3        0.1044
   4        0.1044
   5        0.5334
   6        0.5334
   7        0.6307
   8        0.6307
   9        0.8132
  10        0.8132
  11        1.6122
  12        1.6122
  13        2.0492
  14        2.0492
  15        2.2684
  16        2.2684
  17        2.3571
  18        2.3571
  19        2.6953
  20        2.6953
  21        3.0787
  22        3.0787
  23       10.2120
  24       10.2120
  25       10.8412
  26       10.8412
 
  0.1666667E+00  0.1666667E+00  0.8333333E-01  0.1388889E-01
   1       -4.6268
   2       -0.5854
   3       -0.5854
   4       -0.4696
   5       -0.0534
   6       -0.0534
   7       -0.0531
   8        1.1771
   9        1.4964
  10        1.5020
  11        2.1653
  12        2.2067
  13        2.2067
  14        2.2277
  15        2.3515
  16        2.6725
  17        2.7064
  18        2.7064
  19        3.0529
  20        3.0529
  21        3.0632
  22        5.6124
  23        5.6124
  24        7.2485
  25       13.5193
  26       14.2814
 
  0.2500000E+00  0.1666667E+00  0.8333333E-01  0.2777778E-01
   1       -4.1952
   2       -0.6475
   3       -0.3814
   4       -0.2919
   5        0.0597
   6        0.0622
   7        0.0719
   8        1.0773
   9        1.5551
  10        1.5754
  11        1.7606
  12        1.8165
  13        1.9237
  14        2.1614
  15        2.4236
  16        2.5459
  17        2.5620
  18        2.5990
  19        2.9825
  20        3.0232
  21        3.0266
  22        4.4914
  23        6.3157
  24        7.9541
  25       12.5573
  26       14.0425
 
  0.3333333E+00  0.1666667E+00  0.8333333E-01  0.2777778E-01
   1       -3.6120
   2       -0.8908
   3       -0.1418
   4       -0.0798
   5        0.2086
   6        0.2090
   7        0.2414
   8        0.9324
   9        1.3425
  10        1.4413
  11        1.5921
  12        1.6328
  13        1.6894
  14        2.1270
  15        2.3782
  16        2.4032
  17        2.4528
  18        2.5321
  19        2.8780
  20        2.9998
  21        3.0005
  22        3.6294
  23        7.1067
  24        8.7732
  25       11.3122
  26       13.2566
 
  0.4166667E+00  0.1666667E+00  0.8333333E-01  0.2777778E-01
   1       -2.9068
   2       -1.4121
   3        0.0827
   4        0.1259
   5        0.3584
   6        0.3831
   7        0.4293
   8        0.7585
   9        0.9921
  10        1.0976
  11        1.4731
  12        1.5525
  13        1.8296
  14        2.1826
  15        2.2245
  16        2.2783
  17        2.3092
  18        2.6631
  19        2.7069
  20        2.9866
  21        2.9868
  22        3.0899
  23        7.9652
  24        9.4521
  25       10.4159
  26       12.0567
 
  0.5000000E+00  0.1666667E+00  0.8333333E-01  0.1388889E-01
   1       -2.1371
   2       -2.1371
   3        0.2055
   4        0.2055
   5        0.4983
   6        0.4983
   7        0.5708
   8        0.5708
   9        0.8639
  10        0.8639
  11        1.4763
  12        1.4763
  13        1.9956
  14        1.9956
  15        2.2362
  16        2.2362
  17        2.4491
  18        2.4491
  19        2.8233
  20        2.8233
  21        2.9826
  22        2.9826
  23        8.8707
  24        8.8707
  25       10.9819
  26       10.9819
 
  0.2500000E+00  0.2500000E+00  0.8333333E-01  0.1388889E-01
   1       -3.7773
   2       -0.4256
   3       -0.4256
   4       -0.1405
   5        0.1516
   6        0.1753
   7        0.1753
   8        1.0220
   9        1.5223
  10        1.5223
  11        1.5547
  12        1.6062
  13        1.6211
  14        2.1378
  15        2.4184
  16        2.4825
  17        2.4825
  18        2.5098
  19        2.9316
  20        2.9316
  21        2.9584
  22        5.1172
  23        5.1172
  24        8.5480
  25       11.1495
  26       14.2798
 
  0.3333333E+00  0.2500000E+00  0.8333333E-01  0.2777778E-01
   1       -3.2153
   2       -0.6456
   3       -0.1654
   4        0.0358
   5        0.2608
   6        0.3120
   7        0.3305
   8        0.9217
   9        1.1652
  10        1.3249
  11        1.3478
  12        1.5364
  13        1.7027
  14        2.1250
  15        2.2908
  16        2.3139
  17        2.3683
  18        2.6594
  19        2.8062
  20        2.8831
  21        2.9008
  22        4.1590
  23        5.8150
  24        9.0276
  25       10.1449
  26       13.7796
 
  0.4166667E+00  0.2500000E+00  0.8333333E-01  0.2777778E-01
   1       -2.5407
   2       -1.1318
   3        0.0840
   4        0.2209
   5        0.3353
   6        0.4686
   7        0.4783
   8        0.7864
   9        0.9016
  10        1.0947
  11        1.2697
  12        1.4587
  13        1.8123
  14        2.1278
  15        2.1890
  16        2.2166
  17        2.2422
  18        2.6281
  19        2.8521
  20        2.8548
  21        2.8634
  22        3.5055
  23        6.5867
  24        8.3874
  25       10.5374
  26       12.5733
 
  0.5000000E+00  0.2500000E+00  0.8333333E-01  0.1388889E-01
   1       -1.8117
   2       -1.8117
   3        0.2616
   4        0.2616
   5        0.4326
   6        0.4326
   7        0.6310
   8        0.6310
   9        0.8990
  10        0.8990
  11        1.3430
  12        1.3430
  13        1.9547
  14        1.9547
  15        2.1658
  16        2.1658
  17        2.4088
  18        2.4088
  19        2.8484
  20        2.8484
  21        3.1078
  22        3.1078
  23        7.4470
  24        7.4470
  25       11.4821
  26       11.4821
 
  0.3333333E+00  0.3333333E+00  0.8333333E-01  0.1388889E-01
   1       -2.6868
   2       -0.3621
   3       -0.3621
   4        0.1131
   5        0.3730
   6        0.4550
   7        0.4550
   8        0.8825
   9        1.0630
  10        1.0630
  11        1.2170
  12        1.4814
  13        1.7350
  14        2.1134
  15        2.1704
  16        2.2263
  17        2.2263
  18        2.7368
  19        2.7368
  20        2.8064
  21        2.8618
  22        4.7513
  23        4.7513
  24        8.2061
  25       10.3878
  26       14.4624
 
  0.4166667E+00  0.3333333E+00  0.8333333E-01  0.2777778E-01
   1       -2.0622
   2       -0.7969
   3       -0.1025
   4        0.1328
   5        0.5050
   6        0.5882
   7        0.6065
   8        0.8097
   9        0.8853
  10        1.0673
  11        1.1020
  12        1.3833
  13        1.7942
  14        2.0580
  15        2.0761
  16        2.1230
  17        2.1869
  18        2.5539
  19        2.6970
  20        2.7341
  21        3.1213
  22        3.9787
  23        5.4244
  24        7.1409
  25       11.1934
  26       13.2517
 
  0.5000000E+00  0.3333333E+00  0.8333333E-01  0.1388889E-01
   1       -1.4015
   2       -1.4015
   3        0.0710
   4        0.0710
   5        0.6108
   6        0.6108
   7        0.7090
   8        0.7090
   9        0.9181
  10        0.9181
  11        1.2365
  12        1.2365
  13        1.9037
  14        1.9037
  15        2.0556
  16        2.0556
  17        2.3524
  18        2.3524
  19        2.6961
  20        2.6961
  21        3.4670
  22        3.4670
  23        6.2107
  24        6.2107
  25       12.1608
  26       12.1608
 
  0.4166667E+00  0.4166667E+00  0.8333333E-01  0.1388889E-01
   1       -1.5141
   2       -0.4673
   3       -0.4673
   4       -0.0055
   5        0.6879
   6        0.7315
   7        0.7315
   8        0.8152
   9        0.9761
  10        0.9761
  11        1.0071
  12        1.2911
  13        1.7892
  14        1.9727
  15        1.9765
  16        1.9765
  17        2.2243
  18        2.5197
  19        2.5197
  20        2.6195
  21        3.4582
  22        4.5336
  23        4.5336
  24        6.0753
  25       12.0233
  26       14.0775
 
  0.5000000E+00  0.4166667E+00  0.8333333E-01  0.1388889E-01
   1       -0.9584
   2       -0.9584
   3       -0.1986
   4       -0.1986
   5        0.7931
   6        0.7931
   7        0.8137
   8        0.8137
   9        0.9220
  10        0.9220
  11        1.1432
  12        1.1432
  13        1.8495
  14        1.8495
  15        1.9318
  16        1.9318
  17        2.3470
  18        2.3470
  19        2.5425
  20        2.5425
  21        3.9027
  22        3.9027
  23        5.2156
  24        5.2156
  25       12.9875
  26       12.9875
 
  0.5000000E+00  0.5000000E+00  0.8333333E-01  0.3472222E-02
   1       -0.5433
   2       -0.5433
   3       -0.5433
   4       -0.5433
   5        0.8594
   6        0.8594
   7        0.8594
   8        0.8594
   9        1.0217
  10        1.0217
  11        1.0217
  12        1.0217
  13        1.8482
  14        1.8482
  15        1.8482
  16        1.8482
  17        2.4152
  18        2.4152
  19        2.4152
  20        2.4152
  21        4.4627
  22        4.4627
  23        4.4627
  24        4.4627
  25       13.9488
  26       13.9488
 
  0.1666667E+00  0.1666667E+00  0.1666667E+00  0.4629630E-02
   1       -4.3681
   2       -0.4658
   3       -0.4658
   4       -0.4658
   5        0.0152
   6        0.0152
   7        0.0152
   8        1.1468
   9        1.5175
  10        1.5175
  11        1.9893
  12        1.9893
  13        1.9893
  14        2.2973
  15        2.2973
  16        2.5459
  17        2.5459
  18        2.5459
  19        3.0691
  20        3.0691
  21        3.0691
  22        6.0514
  23        6.0514
  24        6.0514
  25       14.3728
  26       14.3728
 
  0.2500000E+00  0.1666667E+00  0.1666667E+00  0.1388889E-01
   1       -3.9461
   2       -0.5263
   3       -0.2883
   4       -0.2883
   5        0.1276
   6        0.1276
   7        0.1278
   8        1.0711
   9        1.5537
  10        1.5609
  11        1.6660
  12        1.6660
  13        1.7344
  14        2.2382
  15        2.3815
  16        2.4008
  17        2.4286
  18        2.4286
  19        3.0383
  20        3.0383
  21        3.0461
  22        4.8618
  23        6.6594
  24        6.6594
  25       12.9621
  26       12.9621
 
  0.3333333E+00  0.1666667E+00  0.1666667E+00  0.1388889E-01
   1       -3.3778
   2       -0.7625
   3       -0.0798
   4       -0.0798
   5        0.2655
   6        0.2655
   7        0.2770
   8        0.9502
   9        1.3377
  10        1.3377
  11        1.4930
  12        1.5673
  13        1.6327
  14        2.2034
  15        2.2435
  16        2.3128
  17        2.3128
  18        2.5249
  19        2.9883
  20        2.9952
  21        2.9952
  22        3.8925
  23        7.3637
  24        7.3637
  25       11.6858
  26       11.6858
 
  0.4166667E+00  0.1666667E+00  0.1666667E+00  0.1388889E-01
   1       -2.6943
   2       -1.2611
   3        0.1338
   4        0.1338
   5        0.3627
   6        0.3627
   7        0.4482
   8        0.7973
   9        1.0825
  10        1.0825
  11        1.3832
  12        1.5074
  13        1.7360
  14        2.0284
  15        2.2037
  16        2.2037
  17        2.3941
  18        2.6570
  19        2.8988
  20        2.9635
  21        2.9635
  22        3.1885
  23        8.0912
  24        8.0912
  25       10.6190
  26       10.6190
 
  0.5000000E+00  0.1666667E+00  0.1666667E+00  0.6944444E-02
   1       -1.9537
   2       -1.9537
   3        0.3084
   4        0.3084
   5        0.3164
   6        0.3164
   7        0.6259
   8        0.6259
   9        0.9858
  10        0.9858
  11        1.4156
  12        1.4156