 vasp.4.6.28 25Jul05 complex 
 executed on             LinuxIFC date 2016.12.21  11:35:40
 running on    2 nodes
 distr:  one band on    1 nodes,    2 groups


--------------------------------------------------------------------------------------------------------


 INCAR:
 POTCAR:   PAW_PBE Cu 05Jan2001                   
 POTCAR:   PAW_PBE Cu 05Jan2001                   
   VRHFIN =Cu: d10 p1                                                           
   LEXCH  = PE                                                                  
   EATOM  =  1390.9800 eV,  102.2341 Ry                                         
                                                                                
   TITEL  = PAW_PBE Cu 05Jan2001                                                
   LULTRA =        F    use ultrasoft PP ?                                      
   IUNSCR =        1    unscreen: 0-lin 1-nonlin 2-no                           
   RPACOR =    2.000    partial core radius                                     
   POMASS =   63.546; ZVAL   =   11.000    mass and valenz                      
   RCORE  =    2.300    outmost cutoff radius                                   
   RWIGS  =    2.480; RWIGS  =    1.312    wigner-seitz radius (au A)           
   ENMAX  =  273.214; ENMIN  =  204.910 eV                                      
   RCLOC  =    1.712    cutoff for local pot                                    
   LCOR   =        T    correct aug charges                                     
   LPAW   =        T    paw PP                                                  
   EAUG   =  516.456                                                            
   DEXC   =    -.008                                                            
   RMAX   =    2.789    core radius for proj-oper                               
   RAUG   =    1.300    factor for augmentation sphere                          
   RDEP   =    2.302    radius for radial grids                                 
   QCUT   =   -4.481; QGAM   =    8.962    optimization parameters              
                                                                                
   Description                                                                  
     l     E      TYP  RCUT    TYP  RCUT                                        
     2   .000     23  2.300                                                     
     2   .000     23  2.300                                                     
     0   .000     23  2.300                                                     
     0   .000     23  2.300                                                     
     1  -.200     23  2.300                                                     
     1   .000     23  2.300                                                     
     3   .000      7   .000                                                     
  local pseudopotential read in
  partial core-charges read in
  atomic valenz-charges read in
  non local Contribution for L=           2  read in
    real space projection operators read in
  non local Contribution for L=           2  read in
    real space projection operators read in
  non local Contribution for L=           0  read in
    real space projection operators read in
  non local Contribution for L=           0  read in
    real space projection operators read in
  non local Contribution for L=           1  read in
    real space projection operators read in
  non local Contribution for L=           1  read in
    real space projection operators read in
    PAW grid and wavefunctions read in
 
   number of l-projection  operators is LMAX  =           6
   number of lm-projection operators is LMMAX =          18
 
 PAW_PBE Cu 05Jan2001                   :
 energy of atom  1       EATOM=-1390.9800
 kinetic energy error for atom=    0.0006 (will be added to EATOM!!)
 
 EXHCAR: internal setup
 exchange correlation table for  LEXCH =        8
   RHO(1)=    0.500       N(1)  =     2000
   RHO(2)=  100.500       N(2)  =     4000
 
 POSCAR: Cu                                      
  positions in direct lattice
  velocities in cartesian coordinates
 


--------------------------------------------------------------------------------------------------------


 ion  position               nearest neighbor table
   1  0.000  0.000  0.000-   2 2.47   3 2.47   4 2.47   3 2.47   4 2.47   2 2.47   4 2.47   4 2.47
                             2 2.47   3 2.47   3 2.47   2 2.47
   2  0.500  0.500  0.000-   1 2.47   3 2.47   4 2.47   3 2.47   4 2.47   1 2.47   3 2.47   3 2.47
                             1 2.47   4 2.47   4 2.47   1 2.47
   3  0.500  0.000  0.500-   1 2.47   2 2.47   4 2.47   1 2.47   2 2.47   2 2.47   4 2.47   2 2.47
                             1 2.47   4 2.47   1 2.47   4 2.47
   4  0.000  0.500  0.500-   1 2.47   2 2.47   3 2.47   1 2.47   2 2.47   1 2.47   3 2.47   1 2.47
                             2 2.47   3 2.47   2 2.47   3 2.47
 
  LATTYP: Found a simple cubic cell.
 ALAT       =     3.4909591793
  
  Lattice vectors:
  
 A1 = (   3.4909591793,   0.0000000000,   0.0000000000)
 A2 = (   0.0000000000,   3.4909591793,   0.0000000000)
 A3 = (   0.0000000000,   0.0000000000,   3.4909591793)
 Subroutine PRICEL returns following result:
 
  LATTYP: Found a face centered cubic cell.
 ALAT       =     3.4909591793
  
  Lattice vectors:
  
 A1 = (   1.7454795896,   1.7454795896,  -0.0000000000)
 A2 = (   1.7454795896,   0.0000000000,  -1.7454795896)
 A3 = (   0.0000000000,   1.7454795896,  -1.7454795896)
 
   4 primitive cells build up your supercell.
 

Analysis of symmetry for initial positions (statically):

 Routine SETGRP: Setting up the symmetry group for a 
 simple cubic supercell.


 Subroutine GETGRP returns: Found 48 space group operations
 (whereof 48 operations were pure point group operations)
 out of a pool of 48 trial point group operations.


The static configuration has the point symmetry O_h .

Analysis of symmetry for dynamics (positions and initial velocities):

 Subroutine DYNSYM returns: Found 48 space group operations
 (whereof 48 operations were pure point group operations)
 out of a pool of 48 trial space group operations
 (whereof 48 operations were pure point group operations)
 and found also     4 'primitive' translations


The dynamic configuration has the point symmetry O_h .
 
 
 KPOINTS: Automatic mesh                          

Automatic generation of k-mesh.
 
 Subroutine IBZKPT returns following result:
 ===========================================
 
 Found     84 irreducible k-points:
 
 Following reciprocal coordinates:
            Coordinates               Weight
  0.000000  0.000000  0.000000      1.000000
  0.083333  0.000000  0.000000      6.000000
  0.166667  0.000000  0.000000      6.000000
  0.250000  0.000000  0.000000      6.000000
  0.333333  0.000000  0.000000      6.000000
  0.416667  0.000000  0.000000      6.000000
  0.500000  0.000000  0.000000      3.000000
  0.083333  0.083333  0.000000     12.000000
  0.166667  0.083333  0.000000     24.000000
  0.250000  0.083333  0.000000     24.000000
  0.333333  0.083333  0.000000     24.000000
  0.416667  0.083333  0.000000     24.000000
  0.500000  0.083333  0.000000     12.000000
  0.166667  0.166667  0.000000     12.000000
  0.250000  0.166667  0.000000     24.000000
  0.333333  0.166667  0.000000     24.000000
  0.416667  0.166667  0.000000     24.000000
  0.500000  0.166667  0.000000     12.000000
  0.250000  0.250000  0.000000     12.000000
  0.333333  0.250000  0.000000     24.000000
  0.416667  0.250000  0.000000     24.000000
  0.500000  0.250000  0.000000     12.000000
  0.333333  0.333333  0.000000     12.000000
  0.416667  0.333333  0.000000     24.000000
  0.500000  0.333333  0.000000     12.000000
  0.416667  0.416667  0.000000     12.000000
  0.500000  0.416667  0.000000     12.000000
  0.500000  0.500000  0.000000      3.000000
  0.083333  0.083333  0.083333      8.000000
  0.166667  0.083333  0.083333     24.000000
  0.250000  0.083333  0.083333     24.000000
  0.333333  0.083333  0.083333     24.000000
  0.416667  0.083333  0.083333     24.000000
  0.500000  0.083333  0.083333     12.000000
  0.166667  0.166667  0.083333     24.000000
  0.250000  0.166667  0.083333     48.000000
  0.333333  0.166667  0.083333     48.000000
  0.416667  0.166667  0.083333     48.000000
  0.500000  0.166667  0.083333     24.000000
  0.250000  0.250000  0.083333     24.000000
  0.333333  0.250000  0.083333     48.000000
  0.416667  0.250000  0.083333     48.000000
  0.500000  0.250000  0.083333     24.000000
  0.333333  0.333333  0.083333     24.000000
  0.416667  0.333333  0.083333     48.000000
  0.500000  0.333333  0.083333     24.000000
  0.416667  0.416667  0.083333     24.000000
  0.500000  0.416667  0.083333     24.000000
  0.500000  0.500000  0.083333      6.000000
  0.166667  0.166667  0.166667      8.000000
  0.250000  0.166667  0.166667     24.000000
  0.333333  0.166667  0.166667     24.000000
  0.416667  0.166667  0.166667     24.000000
  0.500000  0.166667  0.166667     12.000000
  0.250000  0.250000  0.166667     24.000000
  0.333333  0.250000  0.166667     48.000000
  0.416667  0.250000  0.166667     48.000000
  0.500000  0.250000  0.166667     24.000000
  0.333333  0.333333  0.166667     24.000000
  0.416667  0.333333  0.166667     48.000000
  0.500000  0.333333  0.166667     24.000000
  0.416667  0.416667  0.166667     24.000000
  0.500000  0.416667  0.166667     24.000000
  0.500000  0.500000  0.166667      6.000000
  0.250000  0.250000  0.250000      8.000000
  0.333333  0.250000  0.250000     24.000000
  0.416667  0.250000  0.250000     24.000000
  0.500000  0.250000  0.250000     12.000000
  0.333333  0.333333  0.250000     24.000000
  0.416667  0.333333  0.250000     48.000000
  0.500000  0.333333  0.250000     24.000000
  0.416667  0.416667  0.250000     24.000000
  0.500000  0.416667  0.250000     24.000000
  0.500000  0.500000  0.250000      6.000000
  0.333333  0.333333  0.333333      8.000000
  0.416667  0.333333  0.333333     24.000000
  0.500000  0.333333  0.333333     12.000000
  0.416667  0.416667  0.333333     24.000000
  0.500000  0.416667  0.333333     24.000000
  0.500000  0.500000  0.333333      6.000000
  0.416667  0.416667  0.416667      8.000000
  0.500000  0.416667  0.416667     12.000000
  0.500000  0.500000  0.416667      6.000000
  0.500000  0.500000  0.500000      1.000000
 
 Following cartesian coordinates:
            Coordinates               Weight
  0.000000  0.000000  0.000000      1.000000
  0.022916  0.000000  0.000000      6.000000
  0.045833  0.000000  0.000000      6.000000
  0.068749  0.000000  0.000000      6.000000
  0.091665  0.000000  0.000000      6.000000
  0.114582  0.000000  0.000000      6.000000
  0.137498  0.000000  0.000000      3.000000
  0.022916  0.022916  0.000000     12.000000
  0.045833  0.022916  0.000000     24.000000
  0.068749  0.022916  0.000000     24.000000
  0.091665  0.022916  0.000000     24.000000
  0.114582  0.022916  0.000000     24.000000
  0.137498  0.022916  0.000000     12.000000
  0.045833  0.045833  0.000000     12.000000
  0.068749  0.045833  0.000000     24.000000
  0.091665  0.045833  0.000000     24.000000
  0.114582  0.045833  0.000000     24.000000
  0.137498  0.045833  0.000000     12.000000
  0.068749  0.068749  0.000000     12.000000
  0.091665  0.068749  0.000000     24.000000
  0.114582  0.068749  0.000000     24.000000
  0.137498  0.068749  0.000000     12.000000
  0.091665  0.091665  0.000000     12.000000
  0.114582  0.091665  0.000000     24.000000
  0.137498  0.091665  0.000000     12.000000
  0.114582  0.114582  0.000000     12.000000
  0.137498  0.114582  0.000000     12.000000
  0.137498  0.137498  0.000000      3.000000
  0.022916  0.022916  0.022916      8.000000
  0.045833  0.022916  0.022916     24.000000
  0.068749  0.022916  0.022916     24.000000
  0.091665  0.022916  0.022916     24.000000
  0.114582  0.022916  0.022916     24.000000
  0.137498  0.022916  0.022916     12.000000
  0.045833  0.045833  0.022916     24.000000
  0.068749  0.045833  0.022916     48.000000
  0.091665  0.045833  0.022916     48.000000
  0.114582  0.045833  0.022916     48.000000
  0.137498  0.045833  0.022916     24.000000
  0.068749  0.068749  0.022916     24.000000
  0.091665  0.068749  0.022916     48.000000
  0.114582  0.068749  0.022916     48.000000
  0.137498  0.068749  0.022916     24.000000
  0.091665  0.091665  0.022916     24.000000
  0.114582  0.091665  0.022916     48.000000
  0.137498  0.091665  0.022916     24.000000
  0.114582  0.114582  0.022916     24.000000
  0.137498  0.114582  0.022916     24.000000
  0.137498  0.137498  0.022916      6.000000
  0.045833  0.045833  0.045833      8.000000
  0.068749  0.045833  0.045833     24.000000
  0.091665  0.045833  0.045833     24.000000
  0.114582  0.045833  0.045833     24.000000
  0.137498  0.045833  0.045833     12.000000
  0.068749  0.068749  0.045833     24.000000
  0.091665  0.068749  0.045833     48.000000
  0.114582  0.068749  0.045833     48.000000
  0.137498  0.068749  0.045833     24.000000
  0.091665  0.091665  0.045833     24.000000
  0.114582  0.091665  0.045833     48.000000
  0.137498  0.091665  0.045833     24.000000
  0.114582  0.114582  0.045833     24.000000
  0.137498  0.114582  0.045833     24.000000
  0.137498  0.137498  0.045833      6.000000
  0.068749  0.068749  0.068749      8.000000
  0.091665  0.068749  0.068749     24.000000
  0.114582  0.068749  0.068749     24.000000
  0.137498  0.068749  0.068749     12.000000
  0.091665  0.091665  0.068749     24.000000
  0.114582  0.091665  0.068749     48.000000
  0.137498  0.091665  0.068749     24.000000
  0.114582  0.114582  0.068749     24.000000
  0.137498  0.114582  0.068749     24.000000
  0.137498  0.137498  0.068749      6.000000
  0.091665  0.091665  0.091665      8.000000
  0.114582  0.091665  0.091665     24.000000
  0.137498  0.091665  0.091665     12.000000
  0.114582  0.114582  0.091665     24.000000
  0.137498  0.114582  0.091665     24.000000
  0.137498  0.137498  0.091665      6.000000
  0.114582  0.114582  0.114582      8.000000
  0.137498  0.114582  0.114582     12.000000
  0.137498  0.137498  0.114582      6.000000
  0.137498  0.137498  0.137498      1.000000
 


--------------------------------------------------------------------------------------------------------




 Dimension of arrays:
   k-Points           NKPTS =     84   number of bands    NBANDS=     26
   number of dos      NEDOS =    301   number of ions     NIONS =      4
   non local maximal  LDIM  =      6   non local SUM 2l+1 LMDIM =     18
   total plane-waves  NPLWV =  32768
   max r-space proj   IRMAX =      1   max aug-charges    IRDMAX= 216433
   dimension x,y,z NGX =    32 NGY =   32 NGZ =   32
   dimension x,y,z NGXF=    64 NGYF=   64 NGZF=   64
   support grid    NGXF=   128 NGYF=  128 NGZF=  128
   ions per type =               4
 NGX,Y,Z   is equivalent  to a cutoff of  15.24, 15.24, 15.24 a.u.
 NGXF,Y,Z  is equivalent  to a cutoff of  30.48, 30.48, 30.48 a.u.


 I would recommend the setting:
   dimension x,y,z NGX =    31 NGY =   31 NGZ =   31
 SYSTEM =  unknown system                          
 POSCAR =  Cu                                      

 Startparameter for this run:
   NWRITE =      2    write-flag & timer
   PREC   = accura    medium, high low
   ISTART =      0    job   : 0-new  1-cont  2-samecut
   ICHARG =      2    charge: 1-file 2-atom 10-const
   ISPIN  =      1    spin polarized calculation?
   LNONCOLLINEAR =      F non collinear calculations
   LSORBIT =      F    spin-orbit coupling
   INIWAV =      1    electr: 0-lowe 1-rand  2-diag
   LASPH  =      F    aspherical Exc in radial PAW
   METAGGA=      F    non-selfconsistent MetaGGA calc.

 Electronic Relaxation 1
   ENCUT  =  750.0 eV  55.12 Ry    7.42 a.u.   7.80  7.80  7.80*2*pi/ulx,y,z
   ENINI  =  750.0     initial cutoff
   ENAUG  =  516.5 eV  augmentation charge cutoff
   NELM   =     60;   NELMIN=  2; NELMDL=  0     # of ELM steps 
   EDIFF  = 0.1E-07   stopping-criterion for ELM
   LREAL  =      F    real-space projection
   LCOMPAT=      F    compatible to vasp.4.4
   LREAL_COMPAT= F    compatible to vasp.4.5.1-3
   GGA_COMPAT  = T    GGA compatible to vasp.4.4-vasp.4.6
   LMAXPAW     = -100 max onsite density
   LMAXMIX     =    2 max onsite mixed and CHGCAR
   VOSKOWN=      0    Vosko Wilk Nusair interpolation
   ROPT   =    0.00000
 Ionic relaxation
   EDIFFG = 0.1E-06   stopping-criterion for IOM
   NSW    =      0    number of steps for IOM
   NBLOCK =      1;   KBLOCK =      1    inner block; outer block 
   IBRION =     -1    ionic relax: 0-MD 1-quasi-New 2-CG
   NFREE  =      0    steps in history (QN), initial steepest desc. (CG)
   ISIF   =      2    stress and relaxation
   IWAVPR =     10    prediction:  0-non 1-charg 2-wave 3-comb
   ISYM   =      2    0-nonsym 1-usesym 2-fastsym
   LCORR  =      T    Harris-Foulkes like correction to forces

   POTIM  =   0.50    time-step for ionic-motion
   TEIN   =    0.0    initial temperature
   TEBEG  =    0.0;   TEEND  =   0.0 temperature during run
   SMASS  =  -3.00    Nose mass-parameter (am)
   estimated Nose-frequenzy (Omega)   =  0.10E-29 period in steps =****** mass=  -0.278E-27a.u.
   NPACO  =    256;   APACO  = 16.0  distance and # of slots for P.C.
   PSTRESS=    0.0 pullay stress

  Mass of Ions in am
   POMASS =  63.55
  Ionic Valenz
   ZVAL   =  11.00
  Atomic Wigner-Seitz radii
   RWIGS  =  -1.00
   NELECT =      44.0000    total number of electrons
   NUPDOWN=      -1.0000    fix difference up-down

 DOS related values:
   EMIN   =  10.00;   EMAX   =-10.00  energy-range for DOS
   ISMEAR =     0;   SIGMA  =   0.01  broadening in eV -4-tet -1-fermi 0-gaus

 Electronic relaxation 2 (details)
   IALGO  =     38    algorithm
   LDIAG  =      T    sub-space diagonalisation
   IMIX   =      4    mixing-type and parameters
     AMIX     =   0.40;   BMIX     =  1.00
     AMIX_MAG =   1.60;   BMIX_MAG =  1.00
     AMIN     =   0.10
     WC   =   100.;   INIMIX=   1;  MIXPRE=   1

 Intra band minimization:
   WEIMIN = 0.0000     energy-eigenvalue tresh-hold
   EBREAK =  0.96E-10  absolut break condition
   DEPER  =   0.30     relativ break condition  

   TIME   =   0.10     timestep for ELM

  volume/ion in A,a.u.               =      10.64        71.77
  Fermi-wavevector in a.u.,eV,Ry     =   1.655570 37.292384  2.740913

 Second variation
   LSECVAR=     F    do a second variation
 
 Write flags
   LWAVE  =      F    write WAVECAR
   LCHARG =      F    write CHGCAR
   LVTOT  =      F    write LOCPOT, local potential
   LELF   =      F    write electronic localiz. function (ELF)
   LORBIT =      0    0 simple, 1 ext, 2 COOP (PROOUT)


 Dipole corrections
   IDIPOL =      0    1-x, 2-y, 3-z
   LDIPOL =      F    correct potential



--------------------------------------------------------------------------------------------------------


 Static calculation
 charge density will be updated during run
 non-spin polarized calculation
 Variant of blocked Davidson
 Davidson routine will perform the subspace rotation
 performe sub-space diagonalisation
    after iterative eigenvector-optimisation
 modified Broyden-mixing scheme, WC =      100.0
 initial mixing is a Kerker type mixing with AMIX =  0.4000 and BMIX =      1.0000
 Hartree-type preconditioning will be used
 using additional bands            4
 reciprocal scheme for non local part
 use partial core corrections
 calculate Harris-corrections to forces 
   (improved forces if not selfconsistent)
 use gradient corrections 
 use of overlap-Matrix (Vanderbilt PP)
 Gauss-broadening in eV      SIGMA  =   0.01


--------------------------------------------------------------------------------------------------------


  energy-cutoff  :      750.00
  volume of cell :       42.54
      direct lattice vectors                 reciprocal lattice vectors
     3.490959179  0.000000000  0.000000000     0.286454223  0.000000000  0.000000000
     0.000000000  3.490959179  0.000000000     0.000000000  0.286454223  0.000000000
     0.000000000  0.000000000  3.490959179     0.000000000  0.000000000  0.286454223

  length of vectors
     3.490959179  3.490959179  3.490959179     0.286454223  0.286454223  0.286454223


 
 k-points in units of 2pi/SCALE and weight: Automatic mesh                          
   0.00000000  0.00000000  0.00000000       0.001
   0.02291634  0.00000000  0.00000000       0.003
   0.04583268  0.00000000  0.00000000       0.003
   0.06874901  0.00000000  0.00000000       0.003
   0.09166535  0.00000000  0.00000000       0.003
   0.11458169  0.00000000  0.00000000       0.003
   0.13749803  0.00000000  0.00000000       0.002
   0.02291634  0.02291634  0.00000000       0.007
   0.04583268  0.02291634  0.00000000       0.014
   0.06874901  0.02291634  0.00000000       0.014
   0.09166535  0.02291634  0.00000000       0.014
   0.11458169  0.02291634  0.00000000       0.014
   0.13749803  0.02291634  0.00000000       0.007
   0.04583268  0.04583268  0.00000000       0.007
   0.06874901  0.04583268  0.00000000       0.014
   0.09166535  0.04583268  0.00000000       0.014
   0.11458169  0.04583268  0.00000000       0.014
   0.13749803  0.04583268  0.00000000       0.007
   0.06874901  0.06874901  0.00000000       0.007
   0.09166535  0.06874901  0.00000000       0.014
   0.11458169  0.06874901  0.00000000       0.014
   0.13749803  0.06874901  0.00000000       0.007
   0.09166535  0.09166535  0.00000000       0.007
   0.11458169  0.09166535  0.00000000       0.014
   0.13749803  0.09166535  0.00000000       0.007
   0.11458169  0.11458169  0.00000000       0.007
   0.13749803  0.11458169  0.00000000       0.007
   0.13749803  0.13749803  0.00000000       0.002
   0.02291634  0.02291634  0.02291634       0.005
   0.04583268  0.02291634  0.02291634       0.014
   0.06874901  0.02291634  0.02291634       0.014
   0.09166535  0.02291634  0.02291634       0.014
   0.11458169  0.02291634  0.02291634       0.014
   0.13749803  0.02291634  0.02291634       0.007
   0.04583268  0.04583268  0.02291634       0.014
   0.06874901  0.04583268  0.02291634       0.028
   0.09166535  0.04583268  0.02291634       0.028
   0.11458169  0.04583268  0.02291634       0.028
   0.13749803  0.04583268  0.02291634       0.014
   0.06874901  0.06874901  0.02291634       0.014
   0.09166535  0.06874901  0.02291634       0.028
   0.11458169  0.06874901  0.02291634       0.028
   0.13749803  0.06874901  0.02291634       0.014
   0.09166535  0.09166535  0.02291634       0.014
   0.11458169  0.09166535  0.02291634       0.028
   0.13749803  0.09166535  0.02291634       0.014
   0.11458169  0.11458169  0.02291634       0.014
   0.13749803  0.11458169  0.02291634       0.014
   0.13749803  0.13749803  0.02291634       0.003
   0.04583268  0.04583268  0.04583268       0.005
   0.06874901  0.04583268  0.04583268       0.014
   0.09166535  0.04583268  0.04583268       0.014
   0.11458169  0.04583268  0.04583268       0.014
   0.13749803  0.04583268  0.04583268       0.007
   0.06874901  0.06874901  0.04583268       0.014
   0.09166535  0.06874901  0.04583268       0.028
   0.11458169  0.06874901  0.04583268       0.028
   0.13749803  0.06874901  0.04583268       0.014
   0.09166535  0.09166535  0.04583268       0.014
   0.11458169  0.09166535  0.04583268       0.028
   0.13749803  0.09166535  0.04583268       0.014
   0.11458169  0.11458169  0.04583268       0.014
   0.13749803  0.11458169  0.04583268       0.014
   0.13749803  0.13749803  0.04583268       0.003
   0.06874901  0.06874901  0.06874901       0.005
   0.09166535  0.06874901  0.06874901       0.014
   0.11458169  0.06874901  0.06874901       0.014
   0.13749803  0.06874901  0.06874901       0.007
   0.09166535  0.09166535  0.06874901       0.014
   0.11458169  0.09166535  0.06874901       0.028
   0.13749803  0.09166535  0.06874901       0.014
   0.11458169  0.11458169  0.06874901       0.014
   0.13749803  0.11458169  0.06874901       0.014
   0.13749803  0.13749803  0.06874901       0.003
   0.09166535  0.09166535  0.09166535       0.005
   0.11458169  0.09166535  0.09166535       0.014
   0.13749803  0.09166535  0.09166535       0.007
   0.11458169  0.11458169  0.09166535       0.014
   0.13749803  0.11458169  0.09166535       0.014
   0.13749803  0.13749803  0.09166535       0.003
   0.11458169  0.11458169  0.11458169       0.005
   0.13749803  0.11458169  0.11458169       0.007
   0.13749803  0.13749803  0.11458169       0.003
   0.13749803  0.13749803  0.13749803       0.001
 
 k-points in reciprocal lattice and weights: Automatic mesh                          
   0.00000000  0.00000000  0.00000000       0.001
   0.08333333  0.00000000  0.00000000       0.003
   0.16666667  0.00000000  0.00000000       0.003
   0.25000000  0.00000000  0.00000000       0.003
   0.33333333  0.00000000  0.00000000       0.003
   0.41666667  0.00000000  0.00000000       0.003
   0.50000000  0.00000000  0.00000000       0.002
   0.08333333  0.08333333  0.00000000       0.007
   0.16666667  0.08333333  0.00000000       0.014
   0.25000000  0.08333333  0.00000000       0.014
   0.33333333  0.08333333  0.00000000       0.014
   0.41666667  0.08333333  0.00000000       0.014
   0.50000000  0.08333333  0.00000000       0.007
   0.16666667  0.16666667  0.00000000       0.007
   0.25000000  0.16666667  0.00000000       0.014
   0.33333333  0.16666667  0.00000000       0.014
   0.41666667  0.16666667  0.00000000       0.014
   0.50000000  0.16666667  0.00000000       0.007
   0.25000000  0.25000000  0.00000000       0.007
   0.33333333  0.25000000  0.00000000       0.014
   0.41666667  0.25000000  0.00000000       0.014
   0.50000000  0.25000000  0.00000000       0.007
   0.33333333  0.33333333  0.00000000       0.007
   0.41666667  0.33333333  0.00000000       0.014
   0.50000000  0.33333333  0.00000000       0.007
   0.41666667  0.41666667  0.00000000       0.007
   0.50000000  0.41666667  0.00000000       0.007
   0.50000000  0.50000000  0.00000000       0.002
   0.08333333  0.08333333  0.08333333       0.005
   0.16666667  0.08333333  0.08333333       0.014
   0.25000000  0.08333333  0.08333333       0.014
   0.33333333  0.08333333  0.08333333       0.014
   0.41666667  0.08333333  0.08333333       0.014
   0.50000000  0.08333333  0.08333333       0.007
   0.16666667  0.16666667  0.08333333       0.014
   0.25000000  0.16666667  0.08333333       0.028
   0.33333333  0.16666667  0.08333333       0.028
   0.41666667  0.16666667  0.08333333       0.028
   0.50000000  0.16666667  0.08333333       0.014
   0.25000000  0.25000000  0.08333333       0.014
   0.33333333  0.25000000  0.08333333       0.028
   0.41666667  0.25000000  0.08333333       0.028
   0.50000000  0.25000000  0.08333333       0.014
   0.33333333  0.33333333  0.08333333       0.014
   0.41666667  0.33333333  0.08333333       0.028
   0.50000000  0.33333333  0.08333333       0.014
   0.41666667  0.41666667  0.08333333       0.014
   0.50000000  0.41666667  0.08333333       0.014
   0.50000000  0.50000000  0.08333333       0.003
   0.16666667  0.16666667  0.16666667       0.005
   0.25000000  0.16666667  0.16666667       0.014
   0.33333333  0.16666667  0.16666667       0.014
   0.41666667  0.16666667  0.16666667       0.014
   0.50000000  0.16666667  0.16666667       0.007
   0.25000000  0.25000000  0.16666667       0.014
   0.33333333  0.25000000  0.16666667       0.028
   0.41666667  0.25000000  0.16666667       0.028
   0.50000000  0.25000000  0.16666667       0.014
   0.33333333  0.33333333  0.16666667       0.014
   0.41666667  0.33333333  0.16666667       0.028
   0.50000000  0.33333333  0.16666667       0.014
   0.41666667  0.41666667  0.16666667       0.014
   0.50000000  0.41666667  0.16666667       0.014
   0.50000000  0.50000000  0.16666667       0.003
   0.25000000  0.25000000  0.25000000       0.005
   0.33333333  0.25000000  0.25000000       0.014
   0.41666667  0.25000000  0.25000000       0.014
   0.50000000  0.25000000  0.25000000       0.007
   0.33333333  0.33333333  0.25000000       0.014
   0.41666667  0.33333333  0.25000000       0.028
   0.50000000  0.33333333  0.25000000       0.014
   0.41666667  0.41666667  0.25000000       0.014
   0.50000000  0.41666667  0.25000000       0.014
   0.50000000  0.50000000  0.25000000       0.003
   0.33333333  0.33333333  0.33333333       0.005
   0.41666667  0.33333333  0.33333333       0.014
   0.50000000  0.33333333  0.33333333       0.007
   0.41666667  0.41666667  0.33333333       0.014
   0.50000000  0.41666667  0.33333333       0.014
   0.50000000  0.50000000  0.33333333       0.003
   0.41666667  0.41666667  0.41666667       0.005
   0.50000000  0.41666667  0.41666667       0.007
   0.50000000  0.50000000  0.41666667       0.003
   0.50000000  0.50000000  0.50000000       0.001
 
 position of ions in fractional coordinates (direct lattice) 
   0.00000000  0.00000000  0.00000000
   0.50000000  0.50000000  0.00000000
   0.50000000  0.00000000  0.50000000
   0.00000000  0.50000000  0.50000000
 
 position of ions in cartesian coordinates  (Angst):
   0.00000000  0.00000000  0.00000000
   1.74547959  1.74547959  0.00000000
   1.74547959  0.00000000  1.74547959
   0.00000000  1.74547959  1.74547959
 


--------------------------------------------------------------------------------------------------------


 k-point  1 :  0.00000.00000.0000  plane waves:   1935
 k-point  2 :  0.08330.00000.0000  plane waves:   1967
 k-point  3 :  0.16670.00000.0000  plane waves:   1983
 k-point  4 :  0.25000.00000.0000  plane waves:   1980
 k-point  5 :  0.33330.00000.0000  plane waves:   1972
 k-point  6 :  0.41670.00000.0000  plane waves:   1988
 k-point  7 :  0.50000.00000.0000  plane waves:   1984
 k-point  8 :  0.08330.08330.0000  plane waves:   1977
 k-point  9 :  0.16670.08330.0000  plane waves:   1980
 k-point 10 :  0.25000.08330.0000  plane waves:   1984
 k-point 11 :  0.33330.08330.0000  plane waves:   1982
 k-point 12 :  0.41670.08330.0000  plane waves:   1990
 k-point 13 :  0.50000.08330.0000  plane waves:   1994
 k-point 14 :  0.16670.16670.0000  plane waves:   1991
 k-point 15 :  0.25000.16670.0000  plane waves:   1983
 k-point 16 :  0.33330.16670.0000  plane waves:   1969
 k-point 17 :  0.41670.16670.0000  plane waves:   1994
 k-point 18 :  0.50000.16670.0000  plane waves:   1984
 k-point 19 :  0.25000.25000.0000  plane waves:   1979
 k-point 20 :  0.33330.25000.0000  plane waves:   1982
 k-point 21 :  0.41670.25000.0000  plane waves:   1990
 k-point 22 :  0.50000.25000.0000  plane waves:   1986
 k-point 23 :  0.33330.33330.0000  plane waves:   2003
 k-point 24 :  0.41670.33330.0000  plane waves:   1989
 k-point 25 :  0.50000.33330.0000  plane waves:   1996
 k-point 26 :  0.41670.41670.0000  plane waves:   1983
 k-point 27 :  0.50000.41670.0000  plane waves:   1994
 k-point 28 :  0.50000.50000.0000  plane waves:   2000
 k-point 29 :  0.08330.08330.0833  plane waves:   1974
 k-point 30 :  0.16670.08330.0833  plane waves:   1978
 k-point 31 :  0.25000.08330.0833  plane waves:   1977
 k-point 32 :  0.33330.08330.0833  plane waves:   1977
 k-point 33 :  0.41670.08330.0833  plane waves:   1989
 k-point 34 :  0.50000.08330.0833  plane waves:   1984
 k-point 35 :  0.16670.16670.0833  plane waves:   1975
 k-point 36 :  0.25000.16670.0833  plane waves:   1977
 k-point 37 :  0.33330.16670.0833  plane waves:   1983
 k-point 38 :  0.41670.16670.0833  plane waves:   1989
 k-point 39 :  0.50000.16670.0833  plane waves:   1986
 k-point 40 :  0.25000.25000.0833  plane waves:   1975
 k-point 41 :  0.33330.25000.0833  plane waves:   1983
 k-point 42 :  0.41670.25000.0833  plane waves:   1984
 k-point 43 :  0.50000.25000.0833  plane waves:   1992
 k-point 44 :  0.33330.33330.0833  plane waves:   1989
 k-point 45 :  0.41670.33330.0833  plane waves:   1987
 k-point 46 :  0.50000.33330.0833  plane waves:   1994
 k-point 47 :  0.41670.41670.0833  plane waves:   1995
 k-point 48 :  0.50000.41670.0833  plane waves:   1996
 k-point 49 :  0.50000.50000.0833  plane waves:   2000
 k-point 50 :  0.16670.16670.1667  plane waves:   1980
 k-point 51 :  0.25000.16670.1667  plane waves:   1972
 k-point 52 :  0.33330.16670.1667  plane waves:   1980
 k-point 53 :  0.41670.16670.1667  plane waves:   1980
 k-point 54 :  0.50000.16670.1667  plane waves:   1974
 k-point 55 :  0.25000.25000.1667  plane waves:   1974
 k-point 56 :  0.33330.25000.1667  plane waves:   1986
 k-point 57 :  0.41670.25000.1667  plane waves:   1988
 k-point 58 :  0.50000.25000.1667  plane waves:   1982
 k-point 59 :  0.33330.33330.1667  plane waves:   1990
 k-point 60 :  0.41670.33330.1667  plane waves:   1986
 k-point 61 :  0.50000.33330.1667  plane waves:   1996
 k-point 62 :  0.41670.41670.1667  plane waves:   1993
 k-point 63 :  0.50000.41670.1667  plane waves:   1992
 k-point 64 :  0.50000.50000.1667  plane waves:   2008
 k-point 65 :  0.25000.25000.2500  plane waves:   1998
 k-point 66 :  0.33330.25000.2500  plane waves:   1989
 k-point 67 :  0.41670.25000.2500  plane waves:   1986
 k-point 68 :  0.50000.25000.2500  plane waves:   1976
 k-point 69 :  0.33330.33330.2500  plane waves:   1979
 k-point 70 :  0.41670.33330.2500  plane waves:   1985
 k-point 71 :  0.50000.33330.2500  plane waves:   1992
 k-point 72 :  0.41670.41670.2500  plane waves:   1993
 k-point 73 :  0.50000.41670.2500  plane waves:   1992
 k-point 74 :  0.50000.50000.2500  plane waves:   1996
 k-point 75 :  0.33330.33330.3333  plane waves:   1980
 k-point 76 :  0.41670.33330.3333  plane waves:   1982
 k-point 77 :  0.50000.33330.3333  plane waves:   1972
 k-point 78 :  0.41670.41670.3333  plane waves:   1974
 k-point 79 :  0.50000.41670.3333  plane waves:   1980
 k-point 80 :  0.50000.50000.3333  plane waves:   1964
 k-point 81 :  0.41670.41670.4167  plane waves:   1965
 k-point 82 :  0.50000.41670.4167  plane waves:   1962
 k-point 83 :  0.50000.50000.4167  plane waves:   1956
 k-point 84 :  0.50000.50000.5000  plane waves:   2008

 maximum and minimum number of plane-waves per node :   2008  1935

 maximum number of plane-waves:   2008
 maximal index in each direction: 
   IXMAX=  7   IYMAX=  7   IZMAX=  7
   IXMIN= -8   IYMIN= -8   IZMIN= -8

 NGX is ok and might be reduce to  32
 NGY is ok and might be reduce to  32
 NGZ is ok and might be reduce to  32

 parallel 3dFFT wavefunction:
    minimum data exchange during FFTs selected (reduces bandwidth)
 parallel 3dFFT charge:
    minimum data exchange during FFTs selected (reduces bandwidth)

 For storing wavefunctions   69.32 MBYTES are necessary
 For predicting wavefunctions    2.95 MBYTES are necessary
Broyden mixing: mesh for mixing (old mesh)
   NGX = 15   NGY = 15   NGZ = 15
  (NGX  = 64   NGY  = 64   NGZ  = 64)
 gives a total of   3375 points
 initial charge density was supplied:
 charge density of overlapping atoms calculated
 number of electron   44.0000000 magnetization 
 keeping initial charge density in first step


--------------------------------------------------------------------------------------------------------


 Maximum index for augmentation-charges       104813 (set IRDMAX)


--------------------------------------------------------------------------------------------------------


 First call to EWALD:  gamma=   0.508
 Maximum number of real-space cells 3x 3x 3
 Maximum number of reciprocal cells 3x 3x 3

    FEWALD:  VPU time    0.00: CPU time    0.01


----------------------------------------- Iteration    1(   1)  ---------------------------------------


    POTLOK:  VPU time    1.02: CPU time    2.03
    SETDIJ:  VPU time    0.41: CPU time    0.82
    EDDAV :  VPU time   30.03: CPU time   83.81
    DOS   :  VPU time    0.00: CPU time   -0.00
    ------------------------------------------
      LOOP:  VPU time   31.47: CPU time   86.69

 eigenvalue-minimisations  :  4480
 total energy-change (2. order) : 0.3196416E+03  (-0.2762907E+04)
 number of electron   44.0000000 magnetization 
 augmentation part    44.0000000 magnetization 

 Free energy of the ion-electron system (eV)
  ---------------------------------------------------
  alpha Z        PSCENC =       480.49523212
  Ewald energy   TEWEN  =     -4576.70530040
  -1/2 Hartree   DENC   =     -1224.09438641
  -V(xc)+E(xc)   XCENC  =       176.86105252
  PAW double counting   =      4328.20916945    -4904.30802700
  entropy T*S    EENTRO =        -0.00022514
  eigenvalues    EBANDS =       475.26656045
  atomic energy  EATOM  =      5563.91755062
  ---------------------------------------------------
  free energy    TOTEN  =       319.64162619 eV

  energy without entropy =      319.64185134  energy(sigma->0) =      319.64173877


--------------------------------------------------------------------------------------------------------




----------------------------------------- Iteration    1(   2)  ---------------------------------------


    EDDAV :  VPU time   30.08: CPU time  135.18
    DOS   :  VPU time    0.00: CPU time   -0.00
    ------------------------------------------
      LOOP:  VPU time   30.08: CPU time  135.22

 eigenvalue-minimisations  :  4368
 total energy-change (2. order) :-0.3185655E+03  (-0.3119337E+03)
 number of electron   44.0000000 magnetization 
 augmentation part    44.0000000 magnetization 

 Free energy of the ion-electron system (eV)
  ---------------------------------------------------
  alpha Z        PSCENC =       480.49523212
  Ewald energy   TEWEN  =     -4576.70530040
  -1/2 Hartree   DENC   =     -1224.09438641
  -V(xc)+E(xc)   XCENC  =       176.86105252
  PAW double counting   =      4328.20916945    -4904.30802700
  entropy T*S    EENTRO =        -0.00036972
  eigenvalues    EBANDS =       156.70124455
  atomic energy  EATOM  =      5563.91755062
  ---------------------------------------------------
  free energy    TOTEN  =         1.07616572 eV

  energy without entropy =        1.07653544  energy(sigma->0) =        1.07635058


--------------------------------------------------------------------------------------------------------




----------------------------------------- Iteration    1(   3)  ---------------------------------------


    EDDAV :  VPU time   28.25: CPU time  272.24
    DOS   :  VPU time    0.00: CPU time   -0.00
    ------------------------------------------
      LOOP:  VPU time   28.25: CPU time  272.33

 eigenvalue-minimisations  :  4482
 total energy-change (2. order) :-0.1897608E+02  (-0.1850377E+02)
 number of electron   44.0000000 magnetization 
 augmentation part    44.0000000 magnetization 

 Free energy of the ion-electron system (eV)
  ---------------------------------------------------
  alpha Z        PSCENC =       480.49523212
  Ewald energy   TEWEN  =     -4576.70530040
  -1/2 Hartree   DENC   =     -1224.09438641
  -V(xc)+E(xc)   XCENC  =       176.86105252
  PAW double counting   =      4328.20916945    -4904.30802700
  entropy T*S    EENTRO =        -0.00018693
  eigenvalues    EBANDS =       137.72498037
  atomic energy  EATOM  =      5563.91755062
  ---------------------------------------------------
  free energy    TOTEN  =       -17.89991568 eV

  energy without entropy =      -17.89972875  energy(sigma->0) =      -17.89982221


--------------------------------------------------------------------------------------------------------




----------------------------------------- Iteration    1(   4)  ---------------------------------------


    EDDAV :  VPU time   25.72: CPU time  257.11
    DOS   :  VPU time    0.00: CPU time   -0.00
    ------------------------------------------
      LOOP:  VPU time   25.74: CPU time  257.38

 eigenvalue-minimisations  :  4588
 total energy-change (2. order) :-0.1993121E+00  (-0.1990559E+00)
 number of electron   44.0000000 magnetization 
 augmentation part    44.0000000 magnetization 

 Free energy of the ion-electron system (eV)
  ---------------------------------------------------
  alpha Z        PSCENC =       480.49523212
  Ewald energy   TEWEN  =     -4576.70530040
  -1/2 Hartree   DENC   =     -1224.09438641
  -V(xc)+E(xc)   XCENC  =       176.86105252
  PAW double counting   =      4328.20916945    -4904.30802700
  entropy T*S    EENTRO =        -0.00020354
  eigenvalues    EBANDS =       137.52568485
  atomic energy  EATOM  =      5563.91755062
  ---------------------------------------------------
  free energy    TOTEN  =       -18.09922781 eV

  energy without entropy =      -18.09902426  energy(sigma->0) =      -18.09912604


--------------------------------------------------------------------------------------------------------




----------------------------------------- Iteration    1(   5)  ---------------------------------------


    EDDAV :  VPU time   25.78: CPU time  257.76
    DOS   :  VPU time    0.00: CPU time   -0.00
    CHARGE:  VPU time    0.51: CPU time    5.09
    MIXING:  VPU time    0.01: CPU time    0.14
    ------------------------------------------
      LOOP:  VPU time   26.38: CPU time  263.81

 eigenvalue-minimisations  :  4546
 total energy-change (2. order) :-0.5866581E-03  (-0.5866405E-03)
 number of electron   44.0000001 magnetization 
 augmentation part    26.7496068 magnetization 

 Broyden mixing:
  rms(total) = 0.14119E+01    rms(broyden)= 0.14119E+01
  rms(prec ) = 0.34201E+01
  weight for this iteration     100.00

 Free energy of the ion-electron system (eV)
  ---------------------------------------------------
  alpha Z        PSCENC =       480.49523212
  Ewald energy   TEWEN  =     -4576.70530040
  -1/2 Hartree   DENC   =     -1224.09438641
  -V(xc)+E(xc)   XCENC  =       176.86105252
  PAW double counting   =      4328.20916945    -4904.30802700
  entropy T*S    EENTRO =        -0.00020354
  eigenvalues    EBANDS =       137.52509819
  atomic energy  EATOM  =      5563.91755062
  ---------------------------------------------------
  free energy    TOTEN  =       -18.09981447 eV

  energy without entropy =      -18.09961092  energy(sigma->0) =      -18.09971269


--------------------------------------------------------------------------------------------------------




----------------------------------------- Iteration    1(   6)  ---------------------------------------


    POTLOK:  VPU time    0.39: CPU time    3.83
    SETDIJ:  VPU time    0.17: CPU time    1.69
    EDDAV :  VPU time   27.47: CPU time  274.66
    DOS   :  VPU time    0.00: CPU time   -0.00
    CHARGE:  VPU time    0.65: CPU time    6.54
    MIXING:  VPU time    0.03: CPU time    0.27
    ------------------------------------------
      LOOP:  VPU time   28.72: CPU time  287.14

 eigenvalue-minimisations  :  4474
 total energy-change (2. order) : 0.2613109E+01  (-0.3248815E+01)
 number of electron   44.0000001 magnetization 
 augmentation part    29.5213171 magnetization 

 Broyden mixing:
  rms(total) = 0.49132E+00    rms(broyden)= 0.49131E+00
  rms(prec ) = 0.10739E+01
  weight for this iteration     100.00

 eigenvalues of (default mixing * dielectric matrix)
  average eigenvalue GAMMA=   0.7453
  0.7453

 Free energy of the ion-electron system (eV)
  ---------------------------------------------------
  alpha Z        PSCENC =       480.49523212
  Ewald energy   TEWEN  =     -4576.70530040
  -1/2 Hartree   DENC   =     -1129.02248971
  -V(xc)+E(xc)   XCENC  =       171.96364237
  PAW double counting   =      4278.37731917    -4824.67596953
  entropy T*S    EENTRO =        -0.00015479
  eigenvalues    EBANDS =        20.16346453
  atomic energy  EATOM  =      5563.91755062
  ---------------------------------------------------
  free energy    TOTEN  =       -15.48670563 eV

  energy without entropy =      -15.48655084  energy(sigma->0) =      -15.48662823


--------------------------------------------------------------------------------------------------------




----------------------------------------- Iteration    1(   7)  ---------------------------------------


    POTLOK:  VPU time    0.32: CPU time    3.11
    SETDIJ:  VPU time    0.12: CPU time    1.27
    EDDAV :  VPU time   27.45: CPU time  274.47
    DOS   :  VPU time    0.00: CPU time   -0.00
    CHARGE:  VPU time    0.52: CPU time    5.21
    MIXING:  VPU time    0.02: CPU time    0.25
    ------------------------------------------
      LOOP:  VPU time   28.45: CPU time  284.45

 eigenvalue-minimisations  :  4638
 total energy-change (2. order) : 0.9003779E+00  (-0.4839976E+00)
 number of electron   44.0000001 magnetization 
 augmentation part    28.5794437 magnetization 

 Broyden mixing:
  rms(total) = 0.13323E+00    rms(broyden)= 0.13323E+00
  rms(prec ) = 0.33527E+00
  weight for this iteration     100.00

 eigenvalues of (default mixing * dielectric matrix)
  average eigenvalue GAMMA=   1.3422
  0.6836  2.0008

 Free energy of the ion-electron system (eV)
  ---------------------------------------------------
  alpha Z        PSCENC =       480.49523212
  Ewald energy   TEWEN  =     -4576.70530040
  -1/2 Hartree   DENC   =     -1150.65927141
  -V(xc)+E(xc)   XCENC  =       173.12550873
  PAW double counting   =      4368.18152406    -4937.54662757
  entropy T*S    EENTRO =        -0.00025145
  eigenvalues    EBANDS =        64.60530756
  atomic energy  EATOM  =      5563.91755062
  ---------------------------------------------------
  free energy    TOTEN  =       -14.58632775 eV

  energy without entropy =      -14.58607630  energy(sigma->0) =      -14.58620202


--------------------------------------------------------------------------------------------------------




----------------------------------------- Iteration    1(   8)  ---------------------------------------


    POTLOK:  VPU time    0.43: CPU time    4.28
    SETDIJ:  VPU time    0.17: CPU time    1.69
    EDDAV :  VPU time   28.40: CPU time  283.96
    DOS   :  VPU time    0.00: CPU time   -0.00
    CHARGE:  VPU time    0.45: CPU time    4.55
    MIXING:  VPU time    0.02: CPU time    0.20
    ------------------------------------------
      LOOP:  VPU time   29.48: CPU time  294.78

 eigenvalue-minimisations  :  4578
 total energy-change (2. order) : 0.5255986E-01  (-0.4068843E-02)
 number of electron   44.0000001 magnetization 
 augmentation part    28.5854396 magnetization 

 Broyden mixing:
  rms(total) = 0.61453E-01    rms(broyden)= 0.61453E-01
  rms(prec ) = 0.15123E+00
  weight for this iteration     100.00

 eigenvalues of (default mixing * dielectric matrix)
  average eigenvalue GAMMA=   1.4185
  0.7116  1.0085  2.5354

 Free energy of the ion-electron system (eV)
  ---------------------------------------------------
  alpha Z        PSCENC =       480.49523212
  Ewald energy   TEWEN  =     -4576.70530040
  -1/2 Hartree   DENC   =     -1138.15685800
  -V(xc)+E(xc)   XCENC  =       172.52100419
  PAW double counting   =      4446.46447120    -5026.36005285
  entropy T*S    EENTRO =        -0.00015622
  eigenvalues    EBANDS =        63.29034146
  atomic energy  EATOM  =      5563.91755062
  ---------------------------------------------------
  free energy    TOTEN  =       -14.53376789 eV

  energy without entropy =      -14.53361167  energy(sigma->0) =      -14.53368978


--------------------------------------------------------------------------------------------------------




----------------------------------------- Iteration    1(   9)  ---------------------------------------


    POTLOK:  VPU time    0.22: CPU time    2.11
    SETDIJ:  VPU time    0.14: CPU time    1.46
    EDDAV :  VPU time   29.57: CPU time  295.71
    DOS   :  VPU time    0.00: CPU time   -0.00
    CHARGE:  VPU time    0.47: CPU time    4.74
    MIXING:  VPU time    0.02: CPU time    0.16
    ------------------------------------------
      LOOP:  VPU time   30.44: CPU time  304.47

 eigenvalue-minimisations  :  4848
 total energy-change (2. order) : 0.7920444E-02  (-0.1631320E-02)
 number of electron   44.0000001 magnetization 
 augmentation part    28.6537102 magnetization 

 Broyden mixing:
  rms(total) = 0.22159E-02    rms(broyden)= 0.22156E-02
  rms(prec ) = 0.36207E-02
  weight for this iteration     100.00

 eigenvalues of (default mixing * dielectric matrix)
  average eigenvalue GAMMA=   1.6259
  0.7169  0.9110  2.7147  2.1611

 Free energy of the ion-electron system (eV)
  ---------------------------------------------------
  alpha Z        PSCENC =       480.49523212
  Ewald energy   TEWEN  =     -4576.70530040
  -1/2 Hartree   DENC   =     -1132.73141017
  -V(xc)+E(xc)   XCENC  =       172.25123821
  PAW double counting   =      4466.15041699    -5047.87722874
  entropy T*S    EENTRO =        -0.00013907
  eigenvalues    EBANDS =        59.97379301
  atomic energy  EATOM  =      5563.91755062
  ---------------------------------------------------
  free energy    TOTEN  =       -14.52584744 eV

  energy without entropy =      -14.52570837  energy(sigma->0) =      -14.52577791


--------------------------------------------------------------------------------------------------------




----------------------------------------- Iteration    1(  10)  ---------------------------------------


    POTLOK:  VPU time    0.37: CPU time    3.62
    SETDIJ:  VPU time    0.20: CPU time    2.00
    EDDAV :  VPU time   26.01: CPU time  260.14
    DOS   :  VPU time    0.00: CPU time   -0.00
    CHARGE:  VPU time    0.50: CPU time    4.97
    MIXING:  VPU time    0.06: CPU time    0.57
    ------------------------------------------
      LOOP:  VPU time   27.19: CPU time  271.94

 eigenvalue-minimisations  :  4410
 total energy-change (2. order) :-0.1098795E-03  (-0.7851845E-04)
 number of electron   44.0000001 magnetization 
 augmentation part    28.6564709 magnetization 

 Broyden mixing:
  rms(total) = 0.13436E-02    rms(broyden)= 0.13436E-02
  rms(prec ) = 0.30620E-02
  weight for this iteration     100.00

 eigenvalues of (default mixing * dielectric matrix)
  average eigenvalue GAMMA=   1.5744
  0.7123  0.9866  0.9866  2.5933  2.5933

 Free energy of the ion-electron system (eV)
  ---------------------------------------------------
  alpha Z        PSCENC =       480.49523212
  Ewald energy   TEWEN  =     -4576.70530040
  -1/2 Hartree   DENC   =     -1132.83843079
  -V(xc)+E(xc)   XCENC  =       172.25584394
  PAW double counting   =      4466.80278736    -5048.32771712
  entropy T*S    EENTRO =        -0.00013907
  eigenvalues    EBANDS =        59.87421602
  atomic energy  EATOM  =      5563.91755062
  ---------------------------------------------------
  free energy    TOTEN  =       -14.52595732 eV

  energy without entropy =      -14.52581825  energy(sigma->0) =      -14.52588778


--------------------------------------------------------------------------------------------------------




----------------------------------------- Iteration    1(  11)  ---------------------------------------


    POTLOK:  VPU time    0.20: CPU time    1.94
    SETDIJ:  VPU time    0.13: CPU time    1.33
    EDDAV :  VPU time   28.89: CPU time  288.90
    DOS   :  VPU time    0.00: CPU time   -0.00
    CHARGE:  VPU time    0.49: CPU time    4.92
    MIXING:  VPU time    0.06: CPU time    0.62
    ------------------------------------------
      LOOP:  VPU time   29.82: CPU time  298.18

 eigenvalue-minimisations  :  4508
 total energy-change (2. order) : 0.8254106E-05  (-0.3972296E-05)
 number of electron   44.0000001 magnetization 
 augmentation part    28.6541646 magnetization 

 Broyden mixing:
  rms(total) = 0.56267E-03    rms(broyden)= 0.56266E-03
  rms(prec ) = 0.13534E-02
  weight for this iteration     100.00

 eigenvalues of (default mixing * dielectric matrix)
  average eigenvalue GAMMA=   1.5433
  2.5453  2.5453  0.7127  0.9808  0.9808  1.4946

 Free energy of the ion-electron system (eV)
  ---------------------------------------------------
  alpha Z        PSCENC =       480.49523212
  Ewald energy   TEWEN  =     -4576.70530040
  -1/2 Hartree   DENC   =     -1132.95012638
  -V(xc)+E(xc)   XCENC  =       172.26113992
  PAW double counting   =      4467.90239314    -5049.41389158
  entropy T*S    EENTRO =        -0.00013907
  eigenvalues    EBANDS =        59.96719257
  atomic energy  EATOM  =      5563.91755062
  ---------------------------------------------------
  free energy    TOTEN  =       -14.52594907 eV

  energy without entropy =      -14.52580999  energy(sigma->0) =      -14.52587953


--------------------------------------------------------------------------------------------------------




----------------------------------------- Iteration    1(  12)  ---------------------------------------


    POTLOK:  VPU time    0.43: CPU time    4.31
    SETDIJ:  VPU time    0.15: CPU time    1.47
    EDDAV :  VPU time   29.70: CPU time  296.92
    DOS   :  VPU time    0.00: CPU time   -0.00
    CHARGE:  VPU time    0.52: CPU time    5.26
    MIXING:  VPU time    0.01: CPU time    0.14
    ------------------------------------------
      LOOP:  VPU time   30.82: CPU time  308.25

 eigenvalue-minimisations  :  4894
 total energy-change (2. order) :-0.6955750E-05  (-0.1465437E-06)
 number of electron   44.0000001 magnetization 
 augmentation part    28.6547151 magnetization 

 Broyden mixing:
  rms(total) = 0.13096E-03    rms(broyden)= 0.13096E-03
  rms(prec ) = 0.32610E-03
  weight for this iteration     100.00

 eigenvalues of (default mixing * dielectric matrix)
  average eigenvalue GAMMA=   1.6186
  2.5701  2.5509  2.5509  0.7127  0.9864  0.9864  0.9729

 Free energy of the ion-electron system (eV)
  ---------------------------------------------------
  alpha Z        PSCENC =       480.49523212
  Ewald energy   TEWEN  =     -4576.70530040
  -1/2 Hartree   DENC   =     -1132.87397684
  -V(xc)+E(xc)   XCENC  =       172.25736989
  PAW double counting   =      4468.26893473    -5049.82624725
  entropy T*S    EENTRO =        -0.00013907
  eigenvalues    EBANDS =        59.94062020
  atomic energy  EATOM  =      5563.91755062
  ---------------------------------------------------
  free energy    TOTEN  =       -14.52595602 eV

  energy without entropy =      -14.52581695  energy(sigma->0) =      -14.52588649


--------------------------------------------------------------------------------------------------------




----------------------------------------- Iteration    1(  13)  ---------------------------------------


    POTLOK:  VPU time    0.19: CPU time    1.91
    SETDIJ:  VPU time    0.21: CPU time    2.10
    EDDAV :  VPU time   25.71: CPU time  238.76
    DOS   :  VPU time    0.00: CPU time   -0.00
    CHARGE:  VPU time    0.70: CPU time    6.29
    MIXING:  VPU time    0.01: CPU time    0.10
    ------------------------------------------
      LOOP:  VPU time   26.82: CPU time  249.25

 eigenvalue-minimisations  :  4056
 total energy-change (2. order) :-0.1757580E-06  (-0.4358787E-08)
 number of electron   44.0000001 magnetization 
 augmentation part    28.6546293 magnetization 

 Broyden mixing:
  rms(total) = 0.46721E-04    rms(broyden)= 0.46721E-04
  rms(prec ) = 0.11651E-03
  weight for this iteration     100.00

 eigenvalues of (default mixing * dielectric matrix)
  average eigenvalue GAMMA=   1.5565
  2.5849  2.5293  2.5293  0.7127  1.1029  0.9747  1.0093  1.0093

 Free energy of the ion-electron system (eV)
  ---------------------------------------------------
  alpha Z        PSCENC =       480.49523212
  Ewald energy   TEWEN  =     -4576.70530040
  -1/2 Hartree   DENC   =     -1132.88181962
  -V(xc)+E(xc)   XCENC  =       172.25771814
  PAW double counting   =      4468.31770423    -5049.87216182
  entropy T*S    EENTRO =        -0.00013907
  eigenvalues    EBANDS =        59.94525961
  atomic energy  EATOM  =      5563.91755062
  ---------------------------------------------------
  free energy    TOTEN  =       -14.52595620 eV

  energy without entropy =      -14.52581713  energy(sigma->0) =      -14.52588666


--------------------------------------------------------------------------------------------------------




----------------------------------------- Iteration    1(  14)  ---------------------------------------


    POTLOK:  VPU time    0.18: CPU time    1.62
    SETDIJ:  VPU time    0.13: CPU time    1.23
    EDDAV :  VPU time   15.91: CPU time  143.13
    DOS   :  VPU time    0.00: CPU time   -0.00
    CHARGE:  VPU time    0.51: CPU time    4.58
    MIXING:  VPU time    0.00: CPU time    0.03
    ------------------------------------------
      LOOP:  VPU time   16.75: CPU time  150.74

 eigenvalue-minimisations  :  2260
 total energy-change (2. order) :-0.1842636E-07  (-0.7727418E-09)
 number of electron   44.0000001 magnetization 
 augmentation part    28.6545865 magnetization 

 Broyden mixing:
  rms(total) = 0.32226E-05    rms(broyden)= 0.32220E-05
  rms(prec ) = 0.81249E-05
  weight for this iteration     100.00

 eigenvalues of (default mixing * dielectric matrix)
  average eigenvalue GAMMA=   1.5888
  2.5987  2.5987  2.4679  1.9488  0.7126  1.0271  1.0271  0.9592  0.9592

 Free energy of the ion-electron system (eV)
  ---------------------------------------------------
  alpha Z        PSCENC =       480.49523212
  Ewald energy   TEWEN  =     -4576.70530040
  -1/2 Hartree   DENC   =     -1132.88603223
  -V(xc)+E(xc)   XCENC  =       172.25790537
  PAW double counting   =      4468.34012409    -5049.89269148
  entropy T*S    EENTRO =        -0.00013907
  eigenvalues    EBANDS =        59.94739478
  atomic energy  EATOM  =      5563.91755062
  ---------------------------------------------------
  free energy    TOTEN  =       -14.52595622 eV

  energy without entropy =      -14.52581714  energy(sigma->0) =      -14.52588668


--------------------------------------------------------------------------------------------------------




----------------------------------------- Iteration    1(  15)  ---------------------------------------


    POTLOK:  VPU time    0.23: CPU time    2.00
    SETDIJ:  VPU time    0.12: CPU time    1.10
    EDDAV :  VPU time   15.97: CPU time  143.74
    DOS   :  VPU time    0.00: CPU time   -0.00
    CHARGE:  VPU time    0.54: CPU time    4.85
    MIXING:  VPU time    0.00: CPU time    0.05
    ------------------------------------------
      LOOP:  VPU time   16.88: CPU time  151.92

 eigenvalue-minimisations  :  2226
 total energy-change (2. order) : 0.1971966E-07  (-0.1468634E-09)
 number of electron   44.0000001 magnetization 
 augmentation part    28.6545879 magnetization 

 Broyden mixing:
  rms(total) = 0.31230E-05    rms(broyden)= 0.31230E-05
  rms(prec ) = 0.72556E-05
  weight for this iteration     100.00

 eigenvalues of (default mixing * dielectric matrix)
  average eigenvalue GAMMA=   1.5922
  2.7263  2.7263  2.6343  2.4838  1.0118  1.0118  0.9492  0.9492  0.7132  0.7157

 Free energy of the ion-electron system (eV)
  ---------------------------------------------------
  alpha Z        PSCENC =       480.49523212
  Ewald energy   TEWEN  =     -4576.70530040
  -1/2 Hartree   DENC   =     -1132.88615862
  -V(xc)+E(xc)   XCENC  =       172.25791131
  PAW double counting   =      4468.33792568    -5049.89039546
  entropy T*S    EENTRO =        -0.00013907
  eigenvalues    EBANDS =        59.94741764
  atomic energy  EATOM  =      5563.91755062
  ---------------------------------------------------
  free energy    TOTEN  =       -14.52595620 eV

  energy without entropy =      -14.52581712  energy(sigma->0) =      -14.52588666


--------------------------------------------------------------------------------------------------------




----------------------------------------- Iteration    1(  16)  ---------------------------------------


    POTLOK:  VPU time    0.33: CPU time    2.94
    SETDIJ:  VPU time    0.13: CPU time    1.18
    EDDAV :  VPU time   17.55: CPU time  157.90
    DOS   :  VPU time    0.00: CPU time   -0.00
    ------------------------------------------
      LOOP:  VPU time   18.07: CPU time  162.56

 eigenvalue-minimisations  :  2208
 total energy-change (2. order) :-0.7516974E-08  (-0.3720725E-10)
 number of electron   44.0000001 magnetization 
 augmentation part    28.6545879 magnetization 

 Free energy of the ion-electron system (eV)
  ---------------------------------------------------
  alpha Z        PSCENC =       480.49523212
  Ewald energy   TEWEN  =     -4576.70530040
  -1/2 Hartree   DENC   =     -1132.88599663
  -V(xc)+E(xc)   XCENC  =       172.25790390
  PAW double counting   =      4468.33760113    -5049.89043199
  entropy T*S    EENTRO =        -0.00013907
  eigenvalues    EBANDS =        59.94762412
  atomic energy  EATOM  =      5563.91755062
  ---------------------------------------------------
  free energy    TOTEN  =       -14.52595621 eV

  energy without entropy =      -14.52581713  energy(sigma->0) =      -14.52588667


--------------------------------------------------------------------------------------------------------




 average (electrostatic) potential at core
  the test charge radii are     1.0053
  (the norm of the test charge is              1.0000)
       1 -39.2297       2 -39.2297       3 -39.2297       4 -39.2297
 
 
 
 E-fermi :   4.7878     XC(G=0): -13.4261     alpha+bet :-10.6942
   add alpha+bet to get absolut eigen values

 k-point   1 :       0.0000    0.0000    0.0000
  band No.  band energies     occupation 
      1      -5.4317      2.00000
      2      -0.8084      2.00000
      3      -0.8084      2.00000
      4      -0.8084      2.00000
      5      -0.2830      2.00000
      6      -0.2830      2.00000
      7      -0.2830      2.00000
      8       1.3550      2.00000
      9       1.3550      2.00000
     10       1.3550      2.00000
     11       2.3296      2.00000
     12       2.3296      2.00000
     13       2.9755      2.00000
     14       2.9755      2.00000
     15       2.9755      2.00000
     16       3.1573      2.00000
     17       3.1573      2.00000
     18       3.1573      2.00000
     19       3.1573      2.00000
     20       3.1573      2.00000
     21       3.1573      2.00000
     22       6.1845      0.00000
     23       6.1845      0.00000
     24       6.1845      0.00000
     25      12.6340      0.00000
     26      12.6340      0.00000

 k-point   2 :       0.0833    0.0000    0.0000
  band No.  band energies     occupation 
      1      -5.3406      2.00000
      2      -0.8061      2.00000
      3      -0.7635      2.00000
      4      -0.7635      2.00000
      5      -0.2568      2.00000
      6      -0.2552      2.00000
      7      -0.2552      2.00000
      8       1.3253      2.00000
      9       1.3785      2.00000
     10       1.3785      2.00000
     11       2.3025      2.00000
     12       2.3403      2.00000
     13       2.9405      2.00000
     14       2.9405      2.00000
     15       2.9642      2.00000
     16       2.9734      2.00000
     17       2.9734      2.00000
     18       3.1162      2.00000
     19       3.1162      2.00000
     20       3.1573      2.00000
     21       3.1573      2.00000
     22       5.6656      0.00000
     23       6.4475      0.00000
     24       6.4475      0.00000
     25      12.6622      0.00000
     26      12.6622      0.00000

 k-point   3 :       0.1667    0.0000    0.0000
  band No.  band energies     occupation 
      1      -5.0693      2.00000
      2      -0.8165      2.00000
      3      -0.6352      2.00000
      4      -0.6352      2.00000
      5      -0.1797      2.00000
      6      -0.1712      2.00000
      7      -0.1712      2.00000
      8       1.2385      2.00000
      9       1.4482      2.00000
     10       1.4482      2.00000
     11       2.2246      2.00000
     12       2.3719      2.00000
     13       2.5499      2.00000
     14       2.5499      2.00000
     15       2.8389      2.00000
     16       2.8389      2.00000
     17       2.9312      2.00000
     18       2.9986      2.00000
     19       2.9986      2.00000
     20       3.1575      2.00000
     21       3.1575      2.00000
     22       4.5443      2.00000
     23       7.1080      0.00000
     24       7.1080      0.00000
     25      12.7497      0.00000
     26      12.7497      0.00000

 k-point   4 :       0.2500    0.0000    0.0000
  band No.  band energies     occupation 
      1      -4.6252      2.00000
      2      -0.8997      2.00000
      3      -0.4434      2.00000
      4      -0.4434      2.00000
      5      -0.0561      2.00000
      6      -0.0299      2.00000
      7      -0.0299      2.00000
      8       1.1016      2.00000
      9       1.5625      2.00000
     10       1.5625      2.00000
     11       2.0565      2.00000
     12       2.0565      2.00000
     13       2.1057      2.00000
     14       2.4222      2.00000
     15       2.6831      2.00000
     16       2.6831      2.00000
     17       2.8203      2.00000
     18       2.8203      2.00000
     19       2.8789      2.00000
     20       3.1577      2.00000
     21       3.1577      2.00000
     22       3.3669      2.00000
     23       7.9948      0.00000
     24       7.9948      0.00000
     25      12.9035      0.00000
     26      12.9035      0.00000

 k-point   5 :       0.3333    0.0000    0.0000
  band No.  band energies     occupation 
      1      -4.0232      2.00000
      2      -1.1705      2.00000
      3      -0.2256      2.00000
      4      -0.2256      2.00000
      5       0.1070      2.00000
      6       0.1703      2.00000
      7       0.1703      2.00000
      8       0.9253      2.00000
      9       1.5744      2.00000
     10       1.5744      2.00000
     11       1.7182      2.00000
     12       1.7182      2.00000
     13       1.9657      2.00000
     14       2.4437      2.00000
     15       2.4882      2.00000
     16       2.5006      2.00000
     17       2.5006      2.00000
     18       2.6019      2.00000
     19       2.6019      2.00000
     20       2.8111      2.00000
     21       3.1580      2.00000
     22       3.1580      2.00000
     23       9.0243      0.00000
     24       9.0243      0.00000
     25      13.1308      0.00000
     26      13.1308      0.00000

 k-point   6 :       0.4167    0.0000    0.0000
  band No.  band energies     occupation 
      1      -3.2918      2.00000
      2      -1.7252      2.00000
      3      -0.0420      2.00000
      4      -0.0420      2.00000
      5       0.2995      2.00000
      6       0.4309      2.00000
      7       0.4309      2.00000
      8       0.7230      2.00000
      9       1.1357      2.00000
     10       1.1357      2.00000
     11       1.8392      2.00000
     12       1.9098      2.00000
     13       1.9098      2.00000
     14       1.9367      2.00000
     15       2.3424      2.00000
     16       2.3424      2.00000
     17       2.3651      2.00000
     18       2.3651      2.00000
     19       2.5653      2.00000
     20       2.7325      2.00000
     21       3.1582      2.00000
     22       3.1582      2.00000
     23      10.1611      0.00000
     24      10.1611      0.00000
     25      12.6942      0.00000
     26      12.6942      0.00000

 k-point   7 :       0.5000    0.0000    0.0000
  band No.  band energies     occupation 
      1      -2.4881      2.00000
      2      -2.4881      2.00000
      3       0.0324      2.00000
      4       0.0324      2.00000
      5       0.5095      2.00000
      6       0.5095      2.00000
      7       0.7530      2.00000
      8       0.7530      2.00000
      9       0.7530      2.00000
     10       0.7530      2.00000
     11       1.7901      2.00000
     12       1.7901      2.00000
     13       2.1293      2.00000
     14       2.1293      2.00000
     15       2.1293      2.00000
     16       2.1293      2.00000
     17       2.2772      2.00000
     18       2.2772      2.00000
     19       2.6486      2.00000
     20       2.6486      2.00000
     21       3.1582      2.00000
     22       3.1582      2.00000
     23      11.3880      0.00000
     24      11.3880      0.00000
     25      11.3880      0.00000
     26      11.3880      0.00000

 k-point   8 :       0.0833    0.0833    0.0000
  band No.  band energies     occupation 
      1      -5.2498      2.00000
      2      -0.7603      2.00000
      3      -0.7603      2.00000
      4      -0.7197      2.00000
      5      -0.2295      2.00000
      6      -0.2295      2.00000
      7      -0.2283      2.00000
      8       1.3084      2.00000
      9       1.3896      2.00000
     10       1.3995      2.00000
     11       2.2950      2.00000
     12       2.3339      2.00000
     13       2.8391      2.00000
     14       2.8809      2.00000
     15       2.8809      2.00000
     16       2.9070      2.00000
     17       2.9711      2.00000
     18       2.9711      2.00000
     19       3.1161      2.00000
     20       3.1161      2.00000
     21       3.1311      2.00000
     22       5.9271      0.00000
     23       5.9271      0.00000
     24       6.6874      0.00000
     25      12.6896      0.00000
     26      13.3652      0.00000

 k-point   9 :       0.1667    0.0833    0.0000
  band No.  band energies     occupation 
      1      -4.9798      2.00000
      2      -0.7677      2.00000
      3      -0.6291      2.00000
      4      -0.5942      2.00000
      5      -0.1539      2.00000
      6      -0.1473      2.00000
      7      -0.1471      2.00000
      8       1.2302      2.00000
      9       1.4527      2.00000
     10       1.4616      2.00000
     11       2.2275      2.00000
     12       2.3627      2.00000
     13       2.4697      2.00000
     14       2.4718      2.00000
     15       2.7263      2.00000
     16       2.8097      2.00000
     17       2.8473      2.00000
     18       2.9378      2.00000
     19       2.9984      2.00000
     20       3.1160      2.00000
     21       3.1169      2.00000
     22       4.8297      0.00000
     23       6.5613      0.00000
     24       7.3086      0.00000
     25      12.7710      0.00000
     26      13.4871      0.00000

 k-point  10 :       0.2500    0.0833    0.0000
  band No.  band energies     occupation 
      1      -4.5381      2.00000
      2      -0.8459      2.00000
      3      -0.4323      2.00000
      4      -0.4060      2.00000
      5      -0.0327      2.00000
      6      -0.0122      2.00000
      7      -0.0085      2.00000
      8       1.0982      2.00000
      9       1.5599      2.00000
     10       1.5649      2.00000
     11       1.9824      2.00000
     12       2.0112      2.00000
     13       2.1189      2.00000
     14       2.4191      2.00000
     15       2.4620      2.00000
     16       2.6599      2.00000
     17       2.6912      2.00000
     18       2.8197      2.00000
     19       2.8702      2.00000
     20       3.1136      2.00000
     21       3.1157      2.00000
     22       3.7467      2.00000
     23       7.3849      0.00000
     24       8.1648      0.00000
     25      12.8862      0.00000
     26      13.6990      0.00000

 k-point  11 :       0.3333    0.0833    0.0000
  band No.  band energies     occupation 
      1      -3.9395      2.00000
      2      -1.1105      2.00000
      3      -0.2074      2.00000
      4      -0.1898      2.00000
      5       0.1269      2.00000
      6       0.1756      2.00000
      7       0.1876      2.00000
      8       0.9267      2.00000
      9       1.5095      2.00000
     10       1.5519      2.00000
     11       1.6724      2.00000
     12       1.7194      2.00000
     13       2.0127      2.00000
     14       2.0793      2.00000
     15       2.4844      2.00000
     16       2.4942      2.00000
     17       2.5088      2.00000
     18       2.6013      2.00000
     19       2.7393      2.00000
     20       3.0478      2.00000
     21       3.1130      2.00000
     22       3.1153      2.00000
     23       8.3169      0.00000
     24       9.1733      0.00000
     25      12.6156      0.00000
     26      13.4414      0.00000

 k-point  12 :       0.4167    0.0833    0.0000
  band No.  band energies     occupation 
      1      -3.2128      2.00000
      2      -1.6587      2.00000
      3      -0.0147      2.00000
      4      -0.0044      2.00000
      5       0.3154      2.00000
      6       0.4159      2.00000
      7       0.4426      2.00000
      8       0.7294      2.00000
      9       1.0833      2.00000
     10       1.1287      2.00000
     11       1.7069      2.00000
     12       1.7675      2.00000
     13       1.9103      2.00000
     14       2.0315      2.00000
     15       2.3337      2.00000
     16       2.3481      2.00000
     17       2.3646      2.00000
     18       2.4740      2.00000
     19       2.5834      2.00000
     20       2.8015      2.00000
     21       3.1134      2.00000
     22       3.1147      2.00000
     23       9.3248      0.00000
     24      10.2958      0.00000
     25      11.5218      0.00000
     26      12.8125      0.00000

 k-point  13 :       0.5000    0.0833    0.0000
  band No.  band energies     occupation 
      1      -2.4149      2.00000
      2      -2.4149      2.00000
      3       0.0680      2.00000
      4       0.0680      2.00000
      5       0.5208      2.00000
      6       0.5208      2.00000
      7       0.7168      2.00000
      8       0.7168      2.00000
      9       0.7569      2.00000
     10       0.7569      2.00000
     11       1.6767      2.00000
     12       1.6767      2.00000
     13       2.1292      2.00000
     14       2.1292      2.00000
     15       2.2160      2.00000
     16       2.2160      2.00000
     17       2.2766      2.00000
     18       2.2766      2.00000
     19       2.6835      2.00000
     20       2.6835      2.00000
     21       3.1141      2.00000
     22       3.1141      2.00000
     23      10.3958      0.00000
     24      10.3958      0.00000
     25      11.5129      0.00000
     26      11.5129      0.00000

 k-point  14 :       0.1667    0.1667    0.0000
  band No.  band energies     occupation 
      1      -4.7139      2.00000
      2      -0.6275      2.00000
      3      -0.6275      2.00000
      4      -0.4769      2.00000
      5      -0.0762      2.00000
      6      -0.0762      2.00000
      7      -0.0758      2.00000
      8       1.1826      2.00000
      9       1.4904      2.00000
     10       1.5005      2.00000
     11       2.2030      2.00000
     12       2.2269      2.00000
     13       2.2708      2.00000
     14       2.2708      2.00000
     15       2.3719      2.00000
     16       2.7240      2.00000
     17       2.8389      2.00000
     18       2.8389      2.00000
     19       2.9975      2.00000
     20       2.9975      2.00000
     21       3.0534      2.00000
     22       5.4457      0.00000
     23       5.4457      0.00000
     24       7.8539      0.00000
     25      12.7965      0.00000
     26      14.1009      0.00000

 k-point  15 :       0.2500    0.1667    0.0000
  band No.  band energies     occupation 
      1      -4.2792      2.00000
      2      -0.6907      2.00000
      3      -0.4155      2.00000
      4      -0.3000      2.00000
      5       0.0374      2.00000
      6       0.0416      2.00000
      7       0.0543      2.00000
      8       1.0767      2.00000
      9       1.5569      2.00000
     10       1.5850      2.00000
     11       1.7896      2.00000
     12       1.8719      2.00000
     13       1.9838      2.00000
     14       2.1263      2.00000
     15       2.4383      2.00000
     16       2.5909      2.00000
     17       2.6901      2.00000
     18       2.7829      2.00000
     19       2.8183      2.00000
     20       2.9962      2.00000
     21       3.0167      2.00000
     22       4.3543      2.00000
     23       6.1905      0.00000
     24       8.6421      0.00000
     25      12.2865      0.00000
     26      13.3378      0.00000

 k-point  16 :       0.3333    0.1667    0.0000
  band No.  band energies     occupation 
      1      -3.6913      2.00000
      2      -0.9369      2.00000
      3      -0.1687      2.00000
      4      -0.0900      2.00000
      5       0.1867      2.00000
      6       0.1950      2.00000
      7       0.2384      2.00000
      8       0.9253      2.00000
      9       1.3423      2.00000
     10       1.4821      2.00000
     11       1.5988      2.00000
     12       1.6816      2.00000
     13       1.7301      2.00000
     14       2.0617      2.00000
     15       2.4342      2.00000
     16       2.5122      2.00000
     17       2.5430      2.00000
     18       2.5998      2.00000
     19       2.6637      2.00000
     20       2.9946      2.00000
     21       3.0005      2.00000
     22       3.5554      2.00000
     23       7.0109      0.00000
     24       9.5998      0.00000
     25      11.0864      0.00000
     26      13.4946      0.00000

 k-point  17 :       0.4167    0.1667    0.0000
  band No.  band energies     occupation 
      1      -2.9793      2.00000
      2      -1.4655      2.00000
      3       0.0533      2.00000
      4       0.1032      2.00000
      5       0.3625      2.00000
      6       0.3741      2.00000
      7       0.4763      2.00000
      8       0.7456      2.00000
      9       0.9477      2.00000
     10       1.1059      2.00000
     11       1.5057      2.00000
     12       1.5679      2.00000
     13       1.9154      2.00000
     14       2.1038      2.00000
     15       2.3030      2.00000
     16       2.3490      2.00000
     17       2.3641      2.00000
     18       2.4745      2.00000
     19       2.6757      2.00000
     20       2.9932      2.00000
     21       2.9942      2.00000
     22       3.0941      2.00000
     23       7.8986      0.00000
     24       9.9226      0.00000
     25      10.6858      0.00000
     26      13.1593      0.00000

 k-point  18 :       0.5000    0.1667    0.0000
  band No.  band energies     occupation 
      1      -2.2006      2.00000
      2      -2.2006      2.00000
      3       0.1671      2.00000
      4       0.1671      2.00000
      5       0.5532      2.00000
      6       0.5532      2.00000
      7       0.6183      2.00000
      8       0.6183      2.00000
      9       0.7670      2.00000
     10       0.7670      2.00000
     11       1.4984      2.00000
     12       1.4984      2.00000
     13       2.1307      2.00000
     14       2.1307      2.00000
     15       2.2623      2.00000
     16       2.2623      2.00000
     17       2.2647      2.00000
     18       2.2647      2.00000
     19       2.8435      2.00000
     20       2.8435      2.00000
     21       2.9926      2.00000
     22       2.9926      2.00000
     23       8.8634      0.00000
     24       8.8634      0.00000
     25      11.8770      0.00000
     26      11.8770      0.00000

 k-point  19 :       0.2500    0.2500    0.0000
  band No.  band energies     occupation 
      1      -3.8571      2.00000
      2      -0.4540      2.00000
      3      -0.4540      2.00000
      4      -0.1422      2.00000
      5       0.1309      2.00000
      6       0.1545      2.00000
      7       0.1545      2.00000
      8       1.0148      2.00000
      9       1.5388      2.00000
     10       1.5388      2.00000
     11       1.5571      2.00000
     12       1.6444      2.00000
     13       1.6487      2.00000
     14       2.0838      2.00000
     15       2.4811      2.00000
     16       2.5274      2.00000
     17       2.6441      2.00000
     18       2.6441      2.00000
     19       2.8163      2.00000
     20       2.8163      2.00000
     21       2.9267      2.00000
     22       5.0235      0.00000
     23       5.0235      0.00000
     24       9.3597      0.00000
     25      10.9106      0.00000
     26      13.4329      0.00000

 k-point  20 :       0.3333    0.2500    0.0000
  band No.  band energies     occupation 
      1      -3.2884      2.00000
      2      -0.6708      2.00000
      3      -0.1722      2.00000
      4       0.0470      2.00000
[...]
     21       3.7182      2.00000
     22       3.7182      2.00000
     23       5.0685      0.00000
     24       5.0685      0.00000
     25      10.2410      0.00000
     26      10.2410      0.00000

 k-point  74 :       0.5000    0.5000    0.2500
  band No.  band energies     occupation 
      1      -0.7774      2.00000
      2      -0.7774      2.00000
      3      -0.7774      2.00000
      4      -0.7774      2.00000
      5       1.1604      2.00000
      6       1.1604      2.00000
      7       1.1604      2.00000
      8       1.1604      2.00000
      9       1.5350      2.00000
     10       1.5350      2.00000
     11       1.5350      2.00000
     12       1.5350      2.00000
     13       1.5601      2.00000
     14       1.5601      2.00000
     15       1.5601      2.00000
     16       1.5601      2.00000
     17       2.7492      2.00000
     18       2.7492      2.00000
     19       2.7492      2.00000
     20       2.7492      2.00000
     21       4.2815      2.00000
     22       4.2815      2.00000
     23       4.2815      2.00000
     24       4.2815      2.00000
     25      11.0332      0.00000
     26      11.0332      0.00000

 k-point  75 :       0.3333    0.3333    0.3333
  band No.  band energies     occupation 
      1      -1.8700      2.00000
      2      -0.4963      2.00000
      3      -0.4963      2.00000
      4      -0.4963      2.00000
      5       0.8680      2.00000
      6       0.8680      2.00000
      7       0.8680      2.00000
      8       1.3339      2.00000
      9       1.4352      2.00000
     10       1.4352      2.00000
     11       1.4352      2.00000
     12       1.4498      2.00000
     13       1.4498      2.00000
     14       1.6963      2.00000
     15       1.6963      2.00000
     16       1.6963      2.00000
     17       2.6755      2.00000
     18       2.6755      2.00000
     19       3.0149      2.00000
     20       3.0149      2.00000
     21       3.0149      2.00000
     22       5.2370      0.00000
     23       5.2370      0.00000
     24       5.2370      0.00000
     25      10.3172      0.00000
     26      10.3172      0.00000

 k-point  76 :       0.4167    0.3333    0.3333
  band No.  band energies     occupation 
      1      -1.4931      2.00000
      2      -0.7930      2.00000
      3      -0.5341      2.00000
      4      -0.5341      2.00000
      5       0.9661      2.00000
      6       0.9661      2.00000
      7       1.0860      2.00000
      8       1.3880      2.00000
      9       1.4428      2.00000
     10       1.5101      2.00000
     11       1.5175      2.00000
     12       1.5703      2.00000
     13       1.5860      2.00000
     14       1.5860      2.00000
     15       1.6282      2.00000
     16       1.6282      2.00000
     17       2.8117      2.00000
     18       2.8252      2.00000
     19       2.9798      2.00000
     20       2.9798      2.00000
     21       3.0012      2.00000
     22       4.1476      2.00000
     23       5.4461      0.00000
     24       5.4461      0.00000
     25       9.5346      0.00000
     26       9.5346      0.00000

 k-point  77 :       0.5000    0.3333    0.3333
  band No.  band energies     occupation 
      1      -1.1271      2.00000
      2      -1.1271      2.00000
      3      -0.5478      2.00000
      4      -0.5478      2.00000
      5       0.9970      2.00000
      6       0.9970      2.00000
      7       1.2689      2.00000
      8       1.2689      2.00000
      9       1.4838      2.00000
     10       1.4838      2.00000
     11       1.5604      2.00000
     12       1.5604      2.00000
     13       1.5845      2.00000
     14       1.5845      2.00000
     15       1.6783      2.00000
     16       1.6783      2.00000
     17       2.9365      2.00000
     18       2.9365      2.00000
     19       2.9541      2.00000
     20       2.9541      2.00000
     21       3.3072      2.00000
     22       3.3072      2.00000
     23       5.5388      0.00000
     24       5.5388      0.00000
     25       9.2470      0.00000
     26       9.2470      0.00000

 k-point  78 :       0.4167    0.4167    0.3333
  band No.  band energies     occupation 
      1      -1.2509      2.00000
      2      -0.7738      2.00000
      3      -0.7738      2.00000
      4      -0.6479      2.00000
      5       1.0788      2.00000
      6       1.1436      2.00000
      7       1.1436      2.00000
      8       1.3654      2.00000
      9       1.3989      2.00000
     10       1.4960      2.00000
     11       1.4960      2.00000
     12       1.5166      2.00000
     13       1.7870      2.00000
     14       1.7870      2.00000
     15       1.8286      2.00000
     16       1.8564      2.00000
     17       2.7789      2.00000
     18       2.9627      2.00000
     19       2.9706      2.00000
     20       2.9706      2.00000
     21       3.0638      2.00000
     22       4.4121      2.00000
     23       4.4121      2.00000
     24       5.1889      0.00000
     25       9.1957      0.00000
     26      10.0542      0.00000

 k-point  79 :       0.5000    0.4167    0.3333
  band No.  band energies     occupation 
      1      -1.0114      2.00000
      2      -1.0114      2.00000
      3      -0.7276      2.00000
      4      -0.7276      2.00000
      5       1.1402      2.00000
      6       1.1402      2.00000
      7       1.2805      2.00000
      8       1.2805      2.00000
      9       1.4228      2.00000
     10       1.4228      2.00000
     11       1.4758      2.00000
     12       1.4758      2.00000
     13       1.9225      2.00000
     14       1.9225      2.00000
     15       1.9250      2.00000
     16       1.9250      2.00000
     17       2.8901      2.00000
     18       2.8901      2.00000
     19       2.9381      2.00000
     20       2.9381      2.00000
     21       3.5591      2.00000
     22       3.5591      2.00000
     23       4.7913      0.62500
     24       4.7913      0.62500
     25       9.4109      0.00000
     26       9.4109      0.00000

 k-point  80 :       0.5000    0.5000    0.3333
  band No.  band energies     occupation 
      1      -0.8808      2.00000
      2      -0.8808      2.00000
      3      -0.8808      2.00000
      4      -0.8808      2.00000
      5       1.2406      2.00000
      6       1.2406      2.00000
      7       1.2406      2.00000
      8       1.2406      2.00000
      9       1.4165      2.00000
     10       1.4165      2.00000
     11       1.4165      2.00000
     12       1.4165      2.00000
     13       2.0634      2.00000
     14       2.0634      2.00000
     15       2.0634      2.00000
     16       2.0634      2.00000
     17       2.8797      2.00000
     18       2.8797      2.00000
     19       2.8797      2.00000
     20       2.8797      2.00000
     21       4.0672      2.00000
     22       4.0672      2.00000
     23       4.0672      2.00000
     24       4.0672      2.00000
     25       9.9744      0.00000
     26       9.9744      0.00000

 k-point  81 :       0.4167    0.4167    0.4167
  band No.  band energies     occupation 
      1      -1.1332      2.00000
      2      -0.8366      2.00000
      3      -0.8366      2.00000
      4      -0.8366      2.00000
      5       1.2110      2.00000
      6       1.2110      2.00000
      7       1.2110      2.00000
      8       1.3543      2.00000
      9       1.3543      2.00000
     10       1.4155      2.00000
     11       1.4155      2.00000
     12       1.4155      2.00000
     13       2.1449      2.00000
     14       2.1449      2.00000
     15       2.1449      2.00000
     16       2.4555      2.00000
     17       2.9030      2.00000
     18       2.9030      2.00000
     19       2.9981      2.00000
     20       2.9981      2.00000
     21       2.9981      2.00000
     22       4.3400      2.00000
     23       4.3400      2.00000
     24       4.3400      2.00000
     25       9.3496      0.00000
     26       9.3496      0.00000

 k-point  82 :       0.5000    0.4167    0.4167
  band No.  band energies     occupation 
      1      -0.9974      2.00000
      2      -0.9974      2.00000
      3      -0.8584      2.00000
      4      -0.8584      2.00000
      5       1.2366      2.00000
      6       1.2366      2.00000
      7       1.3044      2.00000
      8       1.3044      2.00000
      9       1.3600      2.00000
     10       1.3600      2.00000
     11       1.3851      2.00000
     12       1.3851      2.00000
     13       2.3143      2.00000
     14       2.3143      2.00000
     15       2.4423      2.00000
     16       2.4423      2.00000
     17       2.9779      2.00000
     18       2.9779      2.00000
     19       2.9818      2.00000
     20       2.9818      2.00000
     21       3.4523      2.00000
     22       3.4523      2.00000
     23       4.3048      2.00000
     24       4.3048      2.00000
     25       9.1031      0.00000
     26       9.1031      0.00000

 k-point  83 :       0.5000    0.5000    0.4167
  band No.  band energies     occupation 
      1      -0.9482      2.00000
      2      -0.9482      2.00000
      3      -0.9482      2.00000
      4      -0.9482      2.00000
      5       1.2963      2.00000
      6       1.2963      2.00000
      7       1.2963      2.00000
      8       1.2963      2.00000
      9       1.3417      2.00000
     10       1.3417      2.00000
     11       1.3417      2.00000
     12       1.3417      2.00000
     13       2.6086      2.00000
     14       2.6086      2.00000
     15       2.6086      2.00000
     16       2.6086      2.00000
     17       2.9633      2.00000
     18       2.9633      2.00000
     19       2.9633      2.00000
     20       2.9633      2.00000
     21       3.7373      2.00000
     22       3.7373      2.00000
     23       3.7373      2.00000
     24       3.7373      2.00000
     25       9.2952      0.00000
     26       9.2952      0.00000

 k-point  84 :       0.5000    0.5000    0.5000
  band No.  band energies     occupation 
      1      -0.9715      2.00000
      2      -0.9715      2.00000
      3      -0.9715      2.00000
      4      -0.9715      2.00000
      5       1.3162      2.00000
      6       1.3162      2.00000
      7       1.3162      2.00000
      8       1.3162      2.00000
      9       1.3162      2.00000
     10       1.3162      2.00000
     11       1.3162      2.00000
     12       1.3162      2.00000
     13       2.9920      2.00000
     14       2.9920      2.00000
     15       2.9920      2.00000
     16       2.9920      2.00000
     17       2.9920      2.00000
     18       2.9920      2.00000
     19       2.9920      2.00000
     20       2.9920      2.00000
     21       3.4332      2.00000
     22       3.4332      2.00000
     23       3.4332      2.00000
     24       3.4332      2.00000
     25       9.0608      0.00000
     26       9.0608      0.00000


--------------------------------------------------------------------------------------------------------


 soft charge-density along one line, spin component           1
         0         1         2         3         4         5         6         7         8         9
 total charge-density along one line
 
 pseudopotential strength for first ion, spin component:           1
 -5.904   0.000  -0.000   0.000   0.000  -0.499  -0.000   0.000
  0.000  -5.904  -0.000   0.000  -0.000  -0.000  -0.499   0.000
 -0.000  -0.000  -5.883  -0.000   0.000   0.000   0.000  -0.508
  0.000   0.000  -0.000  -5.904   0.000  -0.000  -0.000   0.000
  0.000  -0.000   0.000   0.000  -5.883  -0.000   0.000  -0.000
 -0.499  -0.000   0.000  -0.000  -0.000   1.792   0.000  -0.000
 -0.000  -0.499   0.000  -0.000   0.000   0.000   1.792  -0.000
  0.000   0.000  -0.508   0.000  -0.000  -0.000  -0.000   1.796
 -0.000  -0.000   0.000  -0.499  -0.000   0.000   0.000  -0.000
 -0.000   0.000  -0.000  -0.000  -0.508   0.000  -0.000   0.000
 -0.000  -0.000  -0.000  -0.000   0.000  -0.000  -0.000  -0.000
  0.000   0.000   0.000   0.000  -0.000  -0.000  -0.000  -0.000
  0.000  -0.000   0.000   0.000   0.000  -0.000   0.000  -0.000
  0.000  -0.000  -0.000   0.000  -0.000   0.000   0.000   0.000
 -0.000   0.000  -0.000  -0.000   0.000   0.000   0.000   0.000
 -0.000   0.000  -0.000  -0.000  -0.000   0.000  -0.000   0.000
 -0.000   0.000   0.000  -0.000   0.000   0.000  -0.000  -0.000
  0.000  -0.000   0.000   0.000  -0.000  -0.000   0.000  -0.000
 total augmentation occupancy for first ion, spin component:           1
  1.881  -0.009  -0.014  -0.007  -0.008   0.052   0.008  -0.001   0.004   0.011   0.039  -0.002   0.000  -0.000  -0.000   0.000
 -0.009   1.948  -0.000  -0.007  -0.005   0.008  -0.026   0.002   0.011  -0.002   0.048   0.010  -0.000  -0.000  -0.000   0.000
 -0.014  -0.000   1.914   0.003  -0.012  -0.001   0.002   0.011  -0.004   0.035  -0.003  -0.067   0.000   0.000  -0.000   0.000
 -0.007  -0.007   0.003   1.938   0.003   0.004   0.011  -0.004   0.012   0.004   0.026   0.003   0.000   0.000   0.000   0.000
 -0.008  -0.005  -0.012   0.003   1.940   0.011  -0.002   0.035   0.004  -0.082   0.054   0.046   0.000   0.000   0.000  -0.000
  0.052   0.008  -0.001   0.004   0.011   0.133  -0.005   0.025  -0.002  -0.009   0.020   0.022  -0.000   0.000   0.000  -0.000
  0.008  -0.026   0.002   0.011  -0.002  -0.005   0.109  -0.006  -0.008   0.013  -0.017   0.015   0.000  -0.000   0.000  -0.000
 -0.001   0.002   0.011  -0.004   0.035   0.025  -0.006   0.116  -0.000  -0.002   0.139  -0.019   0.000   0.000  -0.000  -0.000
  0.004   0.011  -0.004   0.012   0.004  -0.002  -0.008  -0.000   0.085  -0.013  -0.000   0.011  -0.000   0.000   0.000   0.000
  0.011  -0.002   0.035   0.004  -0.082  -0.009   0.013  -0.002  -0.013   0.087  -0.097   0.023   0.000   0.000   0.000   0.000
  0.039   0.048  -0.003   0.026   0.054   0.020  -0.017   0.139  -0.000  -0.097   1.308  -0.422  -0.000  -0.000   0.000  -0.000
 -0.002   0.010  -0.067   0.003   0.046   0.022   0.015  -0.019   0.011   0.023  -0.422   0.196  -0.000  -0.000   0.000   0.000
  0.000  -0.000   0.000   0.000   0.000  -0.000   0.000   0.000  -0.000   0.000  -0.000  -0.000   0.220   0.019  -0.016  -0.015
 -0.000  -0.000   0.000   0.000   0.000   0.000  -0.000   0.000   0.000   0.000  -0.000  -0.000   0.019   0.160  -0.002  -0.002
 -0.000  -0.000  -0.000   0.000   0.000   0.000   0.000  -0.000   0.000   0.000   0.000   0.000  -0.016  -0.002   0.322  -0.001
  0.000   0.000   0.000   0.000  -0.000  -0.000  -0.000  -0.000   0.000   0.000  -0.000   0.000  -0.015  -0.002  -0.001   0.001
  0.000  -0.000  -0.000   0.000   0.000  -0.000  -0.000   0.000   0.000  -0.000   0.000   0.000  -0.002  -0.010  -0.001   0.000
 -0.000  -0.000  -0.000  -0.000  -0.000   0.000   0.000   0.000   0.000   0.000   0.000  -0.000  -0.001  -0.001  -0.024   0.000


------------------------ aborting loop because EDIFF is reached ----------------------------------------




--------------------------------------------------------------------------------------------------------


    CHARGE:  VPU time    0.53: CPU time    4.75
    FORLOC:  VPU time    0.00: CPU time    0.04
    FORNL :  VPU time    2.11: CPU time   19.06
    STRESS:  VPU time    3.67: CPU time   33.05
    FORCOR:  VPU time    0.25: CPU time    2.21
    FORHAR:  VPU time    0.08: CPU time    0.72
    MIXING:  VPU time    0.03: CPU time    0.30


--------------------------------------------------------------------------------------------------------



  FREE ENERGIE OF THE ION-ELECTRON SYSTEM (eV)
  ---------------------------------------------------
  free  energy   TOTEN  =       -14.525956 eV

  energy  without entropy=      -14.525817  energy(sigma->0) =      -14.525887
 

  FORCE on cell =-STRESS in cart. coord.  units (eV/reduce length):
  Direction    X        Y        Z        XY       YZ       ZX
  --------------------------------------------------------------------------------------
  Alpha Z    480.50    480.50    480.50
  Ewald    -1525.57  -1525.57  -1525.57     -0.00     -0.00      0.00
  Hartree    377.63    377.63    377.63     -0.00     -0.00     -0.00
  E(xc)     -251.69   -251.69   -251.69     -0.00     -0.00      0.00
  Local      521.65    521.65    521.65      0.00      0.00     -0.00
  n-local   -136.52   -142.55   -144.11      0.37      1.78      0.66
  augment    226.32    226.32    226.32      0.00     -0.00      0.00
  Kinetic    326.17    317.64    311.22     -3.28     -0.31     -1.42
  -------------------------------------------------------------------------------------
  Total        6.13      6.13      6.13     -0.00      0.00     -0.00
  in kB      230.69    230.69    230.69     -0.00      0.00     -0.00
  external pressure =      230.69 kB  Pullay stress =        0.00 kB


 VOLUME and BASIS-vectors are now :
 -----------------------------------------------------------------------------
  energy-cutoff  :      750.00
  volume of cell :       42.54
      direct lattice vectors                 reciprocal lattice vectors
     3.490959179  0.000000000  0.000000000     0.286454223  0.000000000  0.000000000
     0.000000000  3.490959179  0.000000000     0.000000000  0.286454223  0.000000000
     0.000000000  0.000000000  3.490959179     0.000000000  0.000000000  0.286454223

  length of vectors
     3.490959179  3.490959179  3.490959179     0.286454223  0.286454223  0.286454223


 FORCES acting on ions
    electron-ion (+dipol)            ewald-force                    non-local-force                 convergence-correction
 -----------------------------------------------------------------------------------------------
   -.523E-16 0.322E-13 -.527E-13   0.346E-14 -.263E-15 -.277E-14   0.620E-24 -.207E-24 -.207E-24   -.665E-13 -.677E-14 -.104E-13
   0.181E-12 -.276E-11 -.363E-11   -.164E-13 0.141E-13 -.258E-14   -.646E-26 -.103E-23 0.000E+00   -.215E-13 -.136E-13 0.409E-14
   0.181E-12 0.325E-13 -.458E-11   0.289E-13 -.149E-13 0.277E-14   -.207E-24 0.000E+00 0.414E-24   -.243E-13 -.186E-13 -.160E-13
   -.221E-15 0.215E-12 0.138E-12   -.151E-13 -.490E-15 0.296E-14   0.207E-24 0.000E+00 -.155E-24   -.591E-13 -.600E-14 -.150E-13
 -----------------------------------------------------------------------------------------------
   0.362E-12 -.248E-11 -.812E-11   0.813E-15 -.151E-14 0.373E-15   0.614E-24 -.124E-23 0.517E-25   -.171E-12 -.450E-13 -.373E-13
 
 
 POSITION                                       TOTAL-FORCE (eV/Angst)
 -----------------------------------------------------------------------------------
      0.00000      0.00000      0.00000        -0.000000      0.000000      0.000000
      1.74548      1.74548      0.00000         0.000000      0.000000      0.000000
      1.74548      0.00000      1.74548        -0.000000      0.000000     -0.000000
      0.00000      1.74548      1.74548        -0.000000      0.000000     -0.000000
 -----------------------------------------------------------------------------------
    total drift:                                0.000000     -0.000000     -0.000000


--------------------------------------------------------------------------------------------------------



 mean value of Nose-termostat <S>:     1.000 mean value of <T> :     0.000
 mean temperature <T/S>/<1/S>  :     0.000

     LOOP+:  VPU time  432.09: CPU time 3839.71
  
  
 General timing and accounting informations for this job:
 ========================================================
  
                  Total CPU time used (sec):      433.421
                            User time (sec):      253.784
                          System time (sec):      179.637
                         Elapsed time (sec):     3842.378
  
                   Maximum memory used (kb):      296732.
                   Average memory used (kb):           0.
  
                          Minor page faults:       176354
                          Major page faults:            0
                 Voluntary context switches:         1001
