<?xml version="1.0" encoding="ISO-8859-1"?>
<modeling>
 <generator>
  <i name="program" type="string">vasp</i>
  <i name="version" type="string">4.6.28 </i>
  <i name="subversion" type="string">25Jul05 complex  parallel</i>
  <i name="platform" type="string">LinuxIFC</i>
  <i name="date" type="string">2016 12 21</i>
  <i name="time" type="string">11:35:40</i>
 </generator>
 <incar>
  <i type="string" name="PREC">accurate</i>
  <i type="int" name="IALGO">    38</i>
  <i type="logical" name="ADDGRID"> T  </i>
  <i name="EDIFF">      0.00000001</i>
  <i type="int" name="IBRION">    -1</i>
  <i name="ENCUT">    750.00000000</i>
  <i type="logical" name="LREAL"> F  </i>
  <i type="int" name="ISMEAR">     0</i>
  <i name="SIGMA">      0.01000000</i>
  <i type="logical" name="LWAVE"> F  </i>
  <i type="logical" name="LCHARG"> F  </i>
 </incar>
 <kpoints>
  <generation param="Gamma">
   <v type="int" name="divisions">      12      12      12</v>
   <v name="usershift">      0.00000000      0.00000000      0.00000000</v>
   <v name="genvec1">      0.08333333      0.00000000      0.00000000</v>
   <v name="genvec2">      0.00000000      0.08333333      0.00000000</v>
   <v name="genvec3">      0.00000000      0.00000000      0.08333333</v>
   <v name="shift">      0.00000000      0.00000000      0.00000000</v>
  </generation>
  <varray name="kpointlist" >
   <v>       0.00000000      0.00000000      0.00000000</v>
   <v>       0.08333333      0.00000000      0.00000000</v>
   <v>       0.16666667      0.00000000      0.00000000</v>
   <v>       0.25000000      0.00000000      0.00000000</v>
   <v>       0.33333333      0.00000000      0.00000000</v>
   <v>       0.41666667      0.00000000      0.00000000</v>
   <v>       0.50000000      0.00000000      0.00000000</v>
   <v>       0.08333333      0.08333333      0.00000000</v>
   <v>       0.16666667      0.08333333      0.00000000</v>
   <v>       0.25000000      0.08333333      0.00000000</v>
   <v>       0.33333333      0.08333333      0.00000000</v>
   <v>       0.41666667      0.08333333      0.00000000</v>
   <v>       0.50000000      0.08333333      0.00000000</v>
   <v>       0.16666667      0.16666667      0.00000000</v>
   <v>       0.25000000      0.16666667      0.00000000</v>
   <v>       0.33333333      0.16666667      0.00000000</v>
   <v>       0.41666667      0.16666667      0.00000000</v>
   <v>       0.50000000      0.16666667      0.00000000</v>
   <v>       0.25000000      0.25000000      0.00000000</v>
   <v>       0.33333333      0.25000000      0.00000000</v>
   <v>       0.41666667      0.25000000      0.00000000</v>
   <v>       0.50000000      0.25000000      0.00000000</v>
   <v>       0.33333333      0.33333333      0.00000000</v>
   <v>       0.41666667      0.33333333      0.00000000</v>
   <v>       0.50000000      0.33333333      0.00000000</v>
   <v>       0.41666667      0.41666667      0.00000000</v>
   <v>       0.50000000      0.41666667      0.00000000</v>
   <v>       0.50000000      0.50000000      0.00000000</v>
   <v>       0.08333333      0.08333333      0.08333333</v>
   <v>       0.16666667      0.08333333      0.08333333</v>
   <v>       0.25000000      0.08333333      0.08333333</v>
   <v>       0.33333333      0.08333333      0.08333333</v>
   <v>       0.41666667      0.08333333      0.08333333</v>
   <v>       0.50000000      0.08333333      0.08333333</v>
   <v>       0.16666667      0.16666667      0.08333333</v>
   <v>       0.25000000      0.16666667      0.08333333</v>
   <v>       0.33333333      0.16666667      0.08333333</v>
   <v>       0.41666667      0.16666667      0.08333333</v>
   <v>       0.50000000      0.16666667      0.08333333</v>
   <v>       0.25000000      0.25000000      0.08333333</v>
   <v>       0.33333333      0.25000000      0.08333333</v>
   <v>       0.41666667      0.25000000      0.08333333</v>
   <v>       0.50000000      0.25000000      0.08333333</v>
   <v>       0.33333333      0.33333333      0.08333333</v>
   <v>       0.41666667      0.33333333      0.08333333</v>
   <v>       0.50000000      0.33333333      0.08333333</v>
   <v>       0.41666667      0.41666667      0.08333333</v>
   <v>       0.50000000      0.41666667      0.08333333</v>
   <v>       0.50000000      0.50000000      0.08333333</v>
   <v>       0.16666667      0.16666667      0.16666667</v>
   <v>       0.25000000      0.16666667      0.16666667</v>
   <v>       0.33333333      0.16666667      0.16666667</v>
   <v>       0.41666667      0.16666667      0.16666667</v>
   <v>       0.50000000      0.16666667      0.16666667</v>
   <v>       0.25000000      0.25000000      0.16666667</v>
   <v>       0.33333333      0.25000000      0.16666667</v>
   <v>       0.41666667      0.25000000      0.16666667</v>
   <v>       0.50000000      0.25000000      0.16666667</v>
   <v>       0.33333333      0.33333333      0.16666667</v>
   <v>       0.41666667      0.33333333      0.16666667</v>
   <v>       0.50000000      0.33333333      0.16666667</v>
   <v>       0.41666667      0.41666667      0.16666667</v>
   <v>       0.50000000      0.41666667      0.16666667</v>
   <v>       0.50000000      0.50000000      0.16666667</v>
   <v>       0.25000000      0.25000000      0.25000000</v>
   <v>       0.33333333      0.25000000      0.25000000</v>
   <v>       0.41666667      0.25000000      0.25000000</v>
   <v>       0.50000000      0.25000000      0.25000000</v>
   <v>       0.33333333      0.33333333      0.25000000</v>
   <v>       0.41666667      0.33333333      0.25000000</v>
   <v>       0.50000000      0.33333333      0.25000000</v>
   <v>       0.41666667      0.41666667      0.25000000</v>
   <v>       0.50000000      0.41666667      0.25000000</v>
   <v>       0.50000000      0.50000000      0.25000000</v>
   <v>       0.33333333      0.33333333      0.33333333</v>
   <v>       0.41666667      0.33333333      0.33333333</v>
   <v>       0.50000000      0.33333333      0.33333333</v>
   <v>       0.41666667      0.41666667      0.33333333</v>
   <v>       0.50000000      0.41666667      0.33333333</v>
   <v>       0.50000000      0.50000000      0.33333333</v>
   <v>       0.41666667      0.41666667      0.41666667</v>
   <v>       0.50000000      0.41666667      0.41666667</v>
   <v>       0.50000000      0.50000000      0.41666667</v>
   <v>       0.50000000      0.50000000      0.50000000</v>
  </varray>
  <varray name="weights" >
   <v>       0.00057870</v>
   <v>       0.00347222</v>
   <v>       0.00347222</v>
   <v>       0.00347222</v>
   <v>       0.00347222</v>
   <v>       0.00347222</v>
   <v>       0.00173611</v>
   <v>       0.00694444</v>
   <v>       0.01388889</v>
   <v>       0.01388889</v>
   <v>       0.01388889</v>
   <v>       0.01388889</v>
   <v>       0.00694444</v>
   <v>       0.00694444</v>
   <v>       0.01388889</v>
   <v>       0.01388889</v>
   <v>       0.01388889</v>
   <v>       0.00694444</v>
   <v>       0.00694444</v>
   <v>       0.01388889</v>
   <v>       0.01388889</v>
   <v>       0.00694444</v>
   <v>       0.00694444</v>
   <v>       0.01388889</v>
   <v>       0.00694444</v>
   <v>       0.00694444</v>
   <v>       0.00694444</v>
   <v>       0.00173611</v>
   <v>       0.00462963</v>
   <v>       0.01388889</v>
   <v>       0.01388889</v>
   <v>       0.01388889</v>
   <v>       0.01388889</v>
   <v>       0.00694444</v>
   <v>       0.01388889</v>
   <v>       0.02777778</v>
   <v>       0.02777778</v>
   <v>       0.02777778</v>
   <v>       0.01388889</v>
   <v>       0.01388889</v>
   <v>       0.02777778</v>
   <v>       0.02777778</v>
   <v>       0.01388889</v>
   <v>       0.01388889</v>
   <v>       0.02777778</v>
   <v>       0.01388889</v>
   <v>       0.01388889</v>
   <v>       0.01388889</v>
   <v>       0.00347222</v>
   <v>       0.00462963</v>
   <v>       0.01388889</v>
   <v>       0.01388889</v>
   <v>       0.01388889</v>
   <v>       0.00694444</v>
   <v>       0.01388889</v>
   <v>       0.02777778</v>
   <v>       0.02777778</v>
   <v>       0.01388889</v>
   <v>       0.01388889</v>
   <v>       0.02777778</v>
   <v>       0.01388889</v>
   <v>       0.01388889</v>
   <v>       0.01388889</v>
   <v>       0.00347222</v>
   <v>       0.00462963</v>
   <v>       0.01388889</v>
   <v>       0.01388889</v>
   <v>       0.00694444</v>
   <v>       0.01388889</v>
   <v>       0.02777778</v>
   <v>       0.01388889</v>
   <v>       0.01388889</v>
   <v>       0.01388889</v>
   <v>       0.00347222</v>
   <v>       0.00462963</v>
   <v>       0.01388889</v>
   <v>       0.00694444</v>
   <v>       0.01388889</v>
   <v>       0.01388889</v>
   <v>       0.00347222</v>
   <v>       0.00462963</v>
   <v>       0.00694444</v>
   <v>       0.00347222</v>
   <v>       0.00057870</v>
  </varray>
 </kpoints>
 <parameters>
  <separator name="general" >
   <i type="string" name="SYSTEM">unknown system</i>
   <i type="logical" name="LCOMPAT"> F  </i>
  </separator>
  <separator name="electronic" >
   <i type="string" name="PREC">accura</i>
   <i name="ENMAX">    750.00000000</i>
   <i name="ENAUG">    516.45600000</i>
   <i name="EDIFF">      0.00000001</i>
   <i type="int" name="IALGO">    38</i>
   <i type="int" name="IWAVPR">    10</i>
   <i type="int" name="NBANDS">    26</i>
   <i name="NELECT">     44.00000000</i>
   <separator name="electronic smearing" >
    <i type="int" name="ISMEAR">     0</i>
    <i name="SIGMA">      0.01000000</i>
   </separator>
   <separator name="electronic projectors" >
    <i type="logical" name="LREAL"> F  </i>
    <v name="ROPT">      0.00000000</v>
    <i type="int" name="LMAXPAW">  -100</i>
    <i type="int" name="LMAXMIX">     2</i>
   </separator>
   <separator name="electronic startup" >
    <i type="int" name="ISTART">     0</i>
    <i type="int" name="ICHARG">     2</i>
    <i type="int" name="INIWAV">     1</i>
   </separator>
   <separator name="electronic spin" >
    <i type="int" name="ISPIN">     1</i>
    <i type="logical" name="LNONCOLLINEAR"> F  </i>
    <v name="MAGMOM">      1.00000000      1.00000000      1.00000000      1.00000000</v>
    <i name="NUPDOWN">     -1.00000000</i>
    <i type="logical" name="LSORBIT"> F  </i>
    <v name="SAXIS">      0.00000000      0.00000000      1.00000000</v>
    <i type="logical" name="LSPIRAL"> F  </i>
    <v name="QSPIRAL">      0.00000000      0.00000000      0.00000000</v>
    <i type="logical" name="LZEROZ"> F  </i>
   </separator>
   <separator name="electronic exchange-correlation" >
    <i type="string" name="GGA">--</i>
    <i type="int" name="VOSKOWN">     0</i>
    <i type="logical" name="LASPH"> F  </i>
    <i type="logical" name="LMETAGGA"> F  </i>
    <i type="string" name="GGA2">--</i>
   </separator>
   <separator name="electronic convergence" >
    <i type="int" name="NELM">    60</i>
    <i type="int" name="NELMDL">     0</i>
    <i type="int" name="NELMIN">     2</i>
    <i name="ENINI">    750.00000000</i>
    <separator name="electronic convergence detail" >
     <i type="logical" name="LDIAG"> T  </i>
     <i name="WEIMIN">      0.00000000</i>
     <i name="EBREAK">      0.00000000</i>
     <i name="DEPER">      0.30000000</i>
     <i type="int" name="NRMM">     4</i>
     <i name="TIME">      0.10000000</i>
    </separator>
   </separator>
   <separator name="electronic mixer" >
    <i name="AMIX">      0.40000000</i>
    <i name="BMIX">      1.00000000</i>
    <i name="AMIN">      0.10000000</i>
    <i name="AMIX_MAG">      1.60000000</i>
    <i name="BMIX_MAG">      1.00000000</i>
    <separator name="electronic mixer details" >
     <i type="int" name="IMIX">     4</i>
     <i type="int" name="MAXMIX">   -45</i>
     <i name="WC">    100.00000000</i>
     <i type="int" name="INIMIX">     1</i>
     <i type="int" name="MIXPRE">     1</i>
     <i type="int" name="MREMOVE">     5</i>
    </separator>
   </separator>
   <separator name="electronic dipolcorrection" >
    <i type="int" name="IDIPOL">     0</i>
    <i type="logical" name="LDIPOL"> F  </i>
    <v name="DIPOL">   -100.00000000</v>
    <i name="EFIELD">      0.00000000</i>
   </separator>
  </separator>
  <separator name="grids" >
   <i type="int" name="NGX">    32</i>
   <i type="int" name="NGY">    32</i>
   <i type="int" name="NGZ">    32</i>
   <i type="int" name="NGXF">    64</i>
   <i type="int" name="NGYF">    64</i>
   <i type="int" name="NGZF">    64</i>
   <i type="logical" name="ADDGRID"> T  </i>
  </separator>
  <separator name="ionic" >
   <i type="int" name="NSW">     0</i>
   <i type="int" name="IBRION">    -1</i>
   <i type="int" name="ISIF">     2</i>
   <i name="PSTRESS">      0.00000000</i>
   <i name="EDIFFG">      0.00000010</i>
   <i type="int" name="NFREE">     0</i>
   <i name="POTIM">      0.50000000</i>
   <i name="SMASS">     -3.00000000</i>
  </separator>
  <separator name="ionic md" >
   <i name="TEBEG">      0.00010000</i>
   <i name="TEEND">      0.00010000</i>
   <i type="int" name="NBLOCK">     1</i>
   <i type="int" name="KBLOCK">     1</i>
   <i type="int" name="NPACO">   256</i>
   <i name="APACO">     16.00000000</i>
  </separator>
  <separator name="symmetry" >
   <i type="int" name="ISYM">     2</i>
   <i name="SYMPREC">      0.00001000</i>
  </separator>
  <separator name="dos" >
   <i type="logical" name="LORBIT"> F  </i>
   <v name="RWIGS">     -1.00000000</v>
   <i type="int" name="NEDOS">   301</i>
   <i name="EMIN">     10.00000000</i>
   <i name="EMAX">    -10.00000000</i>
  </separator>
  <separator name="writing" >
   <i type="int" name="NWRITE">     2</i>
   <i type="logical" name="LWAVE"> F  </i>
   <i type="logical" name="LCHARG"> F  </i>
   <i type="logical" name="LPARD"> F  </i>
   <i type="logical" name="LVTOT"> F  </i>
   <i type="logical" name="LELF"> F  </i>
   <i type="logical" name="LOPTICS"> F  </i>
   <i name="STM">      0.00000000</i>
  </separator>
  <separator name="performance" >
   <i type="int" name="NPAR">     2</i>
   <i type="int" name="NSIM">     4</i>
   <i type="int" name="NBLK">   192</i>
   <i type="logical" name="LPLANE"> T  </i>
   <i type="logical" name="LCRITICAL_MEM"> F  </i>
   <i type="logical" name="LSCALAPACK"> F  </i>
   <i type="logical" name="LSCALU"> F  </i>
   <i type="logical" name="LASYNC"> F  </i>
  </separator>
  <separator name="miscellaneous" >
   <i type="int" name="IDIOT">     3</i>
   <i type="logical" name="LMUSIC"> F  </i>
   <v name="POMASS">     63.54600000</v>
   <i type="logical" name="LCORR"> T  </i>
  </separator>
  <i type="logical" name="LREAL_COMPAT"> F  </i>
  <i type="logical" name="GGA_COMPAT"> T  </i>
  <i type="logical" name="LBERRY"> F  </i>
  <i type="int" name="ICORELEVEL">     0</i>
  <i type="logical" name="LDAU"> F  </i>
  <i type="int" name="I_CONSTRAINED_M">     0</i>
 </parameters>
 <atominfo>
  <atoms>       4</atoms>
  <types>       1</types>
  <array name="atoms" >
   <dimension dim="1">ion</dimension>
   <field type="string">element</field>
   <field type="int">atomtype</field>
   <set>
    <rc><c>Cu</c><c>   1</c></rc>
    <rc><c>Cu</c><c>   1</c></rc>
    <rc><c>Cu</c><c>   1</c></rc>
    <rc><c>Cu</c><c>   1</c></rc>
   </set>
  </array>
  <array name="atomtypes" >
   <dimension dim="1">type</dimension>
   <field type="int">atomspertype</field>
   <field type="string">element</field>
   <field>mass</field>
   <field>valence</field>
   <field type="string">pseudopotential</field>
   <set>
    <rc><c>   4</c><c>Cu</c><c>     63.54600000</c><c>     11.00000000</c><c> PAW_PBE Cu 05Jan2001                   </c></rc>
   </set>
  </array>
 </atominfo>
 <structure name="initialpos" >
  <crystal>
   <varray name="basis" >
    <v>       3.49095918      0.00000000      0.00000000</v>
    <v>       0.00000000      3.49095918      0.00000000</v>
    <v>       0.00000000      0.00000000      3.49095918</v>
   </varray>
   <i name="volume">     42.54360733</i>
   <varray name="rec_basis" >
    <v>       0.28645422      0.00000000      0.00000000</v>
    <v>       0.00000000      0.28645422      0.00000000</v>
    <v>       0.00000000      0.00000000      0.28645422</v>
   </varray>
  </crystal>
  <varray name="positions" >
   <v>       0.00000000      0.00000000      0.00000000</v>
   <v>       0.50000000      0.50000000      0.00000000</v>
   <v>       0.50000000      0.00000000      0.50000000</v>
   <v>       0.00000000      0.50000000      0.50000000</v>
  </varray>
 </structure>
 <calculation>
  <scstep>
   <time name="dav">   30.03   83.81</time>
   <time name="total">   31.47   86.69</time>
   <energy>
    <i name="alphaZ">    480.49523212</i>
    <i name="ewald">  -4576.70530040</i>
    <i name="hartreedc">  -1224.09438641</i>
    <i name="XCdc">    176.86105252</i>
    <i name="pawpsdc">   4328.20916945</i>
    <i name="pawaedc">  -4904.30802700</i>
    <i name="eentropy">     -0.00022514</i>
    <i name="bandstr">    475.26656045</i>
    <i name="atom">   5563.91755062</i>
    <i name="e_fr_energy">    319.64162619</i>
    <i name="e_wo_entrp">    319.64185134</i>
    <i name="e_0_energy">    319.64173877</i>
   </energy>
  </scstep>
  <scstep>
   <time name="dav">   30.08  135.18</time>
   <time name="total">   30.08  135.22</time>
   <energy>
    <i name="e_fr_energy">      1.07616572</i>
    <i name="e_wo_entrp">      1.07653544</i>
    <i name="e_0_energy">      1.07635058</i>
   </energy>
  </scstep>
  <scstep>
   <time name="dav">   28.25  272.24</time>
   <time name="total">   28.25  272.33</time>
   <energy>
    <i name="e_fr_energy">    -17.89991568</i>
    <i name="e_wo_entrp">    -17.89972875</i>
    <i name="e_0_energy">    -17.89982221</i>
   </energy>
  </scstep>
  <scstep>
   <time name="dav">   25.72  257.11</time>
   <time name="total">   25.74  257.38</time>
   <energy>
    <i name="e_fr_energy">    -18.09922781</i>
    <i name="e_wo_entrp">    -18.09902426</i>
    <i name="e_0_energy">    -18.09912604</i>
   </energy>
  </scstep>
  <scstep>
   <time name="dav">   25.78  257.76</time>
   <time name="total">   26.38  263.81</time>
   <energy>
    <i name="e_fr_energy">    -18.09981447</i>
    <i name="e_wo_entrp">    -18.09961092</i>
    <i name="e_0_energy">    -18.09971269</i>
   </energy>
  </scstep>
  <scstep>
   <time name="dav">   27.47  274.66</time>
   <time name="total">   28.72  287.14</time>
   <energy>
    <i name="e_fr_energy">    -15.48670563</i>
    <i name="e_wo_entrp">    -15.48655084</i>
    <i name="e_0_energy">    -15.48662823</i>
   </energy>
  </scstep>
  <scstep>
   <time name="dav">   27.45  274.47</time>
   <time name="total">   28.45  284.45</time>
   <energy>
    <i name="e_fr_energy">    -14.58632775</i>
    <i name="e_wo_entrp">    -14.58607630</i>
    <i name="e_0_energy">    -14.58620202</i>
   </energy>
  </scstep>
  <scstep>
   <time name="dav">   28.40  283.96</time>
   <time name="total">   29.48  294.78</time>
   <energy>
    <i name="e_fr_energy">    -14.53376789</i>
    <i name="e_wo_entrp">    -14.53361167</i>
    <i name="e_0_energy">    -14.53368978</i>
   </energy>
  </scstep>
  <scstep>
   <time name="dav">   29.57  295.71</time>
   <time name="total">   30.44  304.47</time>
   <energy>
    <i name="e_fr_energy">    -14.52584744</i>
    <i name="e_wo_entrp">    -14.52570837</i>
    <i name="e_0_energy">    -14.52577791</i>
   </energy>
  </scstep>
  <scstep>
   <time name="dav">   26.01  260.14</time>
   <time name="total">   27.19  271.94</time>
   <energy>
    <i name="e_fr_energy">    -14.52595732</i>
    <i name="e_wo_entrp">    -14.52581825</i>
    <i name="e_0_energy">    -14.52588778</i>
   </energy>
  </scstep>
  <scstep>
   <time name="dav">   28.89  288.90</time>
   <time name="total">   29.82  298.18</time>
   <energy>
    <i name="e_fr_energy">    -14.52594907</i>
    <i name="e_wo_entrp">    -14.52580999</i>
    <i name="e_0_energy">    -14.52587953</i>
   </energy>
  </scstep>
  <scstep>
   <time name="dav">   29.70  296.92</time>
   <time name="total">   30.82  308.25</time>
   <energy>
    <i name="e_fr_energy">    -14.52595602</i>
    <i name="e_wo_entrp">    -14.52581695</i>
    <i name="e_0_energy">    -14.52588649</i>
   </energy>
  </scstep>
  <scstep>
   <time name="dav">   25.71  238.76</time>
   <time name="total">   26.82  249.25</time>
   <energy>
    <i name="e_fr_energy">    -14.52595620</i>
    <i name="e_wo_entrp">    -14.52581713</i>
    <i name="e_0_energy">    -14.52588666</i>
   </energy>
  </scstep>
  <scstep>
   <time name="dav">   15.91  143.13</time>
   <time name="total">   16.75  150.74</time>
   <energy>
    <i name="e_fr_energy">    -14.52595622</i>
    <i name="e_wo_entrp">    -14.52581714</i>
    <i name="e_0_energy">    -14.52588668</i>
   </energy>
  </scstep>
  <scstep>
   <time name="dav">   15.97  143.74</time>
   <time name="total">   16.88  151.92</time>
   <energy>
    <i name="e_fr_energy">    -14.52595620</i>
    <i name="e_wo_entrp">    -14.52581712</i>
    <i name="e_0_energy">    -14.52588666</i>
   </energy>
  </scstep>
  <scstep>
   <time name="dav">   17.55  157.90</time>
   <time name="total">   18.07  162.56</time>
   <energy>
    <i name="alphaZ">    480.49523212</i>
    <i name="ewald">  -4576.70530040</i>
    <i name="hartreedc">  -1132.88599663</i>
    <i name="XCdc">    172.25790390</i>
    <i name="pawpsdc">   4468.33760113</i>
    <i name="pawaedc">  -5049.89043199</i>
    <i name="eentropy">     -0.00013907</i>
    <i name="bandstr">     59.94762412</i>
    <i name="atom">   5563.91755062</i>
    <i name="e_fr_energy">    -14.52595621</i>
    <i name="e_wo_entrp">    -14.52581713</i>
    <i name="e_0_energy">    -14.52588667</i>
   </energy>
  </scstep>
  <structure>
   <crystal>
    <varray name="basis" >
     <v>       3.49095918      0.00000000      0.00000000</v>
     <v>       0.00000000      3.49095918      0.00000000</v>
     <v>       0.00000000      0.00000000      3.49095918</v>
    </varray>
    <i name="volume">     42.54360733</i>
    <varray name="rec_basis" >
     <v>       0.28645422      0.00000000      0.00000000</v>
     <v>       0.00000000      0.28645422      0.00000000</v>
     <v>       0.00000000      0.00000000      0.28645422</v>
    </varray>
   </crystal>
   <varray name="positions" >
    <v>       0.00000000      0.00000000      0.00000000</v>
    <v>       0.50000000      0.50000000      0.00000000</v>
    <v>       0.50000000      0.00000000      0.50000000</v>
    <v>       0.00000000      0.50000000      0.50000000</v>
   </varray>
  </structure>
  <varray name="forces" >
   <v>      -0.00000000      0.00000000      0.00000000</v>
   <v>       0.00000000      0.00000000      0.00000000</v>
   <v>      -0.00000000      0.00000000     -0.00000000</v>
   <v>      -0.00000000      0.00000000     -0.00000000</v>
  </varray>
  <varray name="stress" >
   <v>     230.68734954      0.00000000     -0.00000000</v>
   <v>      -0.00000000    230.68734954      0.00000000</v>
   <v>      -0.00000000      0.00000000    230.68734954</v>
  </varray>
  <energy>
   <i name="e_fr_energy">    -14.52595621</i>
   <i name="e_wo_entrp">    -14.52588667</i>
   <i name="e_0_energy">     -0.00013907</i>
  </energy>
  <eigenvalues>
   <array>
    <dimension dim="1">band</dimension>
    <dimension dim="2">kpoint</dimension>
    <dimension dim="3">spin</dimension>
    <field>eigene</field>
    <field>occ</field>
    <set>
     <set comment="spin 1">
      <set comment="kpoint 1">
       <r>  -5.4317  1.0000</r>
       <r>  -0.8084  1.0000</r>
       <r>  -0.8084  1.0000</r>
       <r>  -0.8084  1.0000</r>
       <r>  -0.2830  1.0000</r>
       <r>  -0.2830  1.0000</r>
       <r>  -0.2830  1.0000</r>
       <r>   1.3550  1.0000</r>
       <r>   1.3550  1.0000</r>
       <r>   1.3550  1.0000</r>
       <r>   2.3296  1.0000</r>
       <r>   2.3296  1.0000</r>
       <r>   2.9755  1.0000</r>
       <r>   2.9755  1.0000</r>
       <r>   2.9755  1.0000</r>
       <r>   3.1573  1.0000</r>
       <r>   3.1573  1.0000</r>
       <r>   3.1573  1.0000</r>
       <r>   3.1573  1.0000</r>
       <r>   3.1573  1.0000</r>
       <r>   3.1573  1.0000</r>
       <r>   6.1845  0.0000</r>
       <r>   6.1845  0.0000</r>
       <r>   6.1845  0.0000</r>
       <r>  12.6340  0.0000</r>
       <r>  12.6340  0.0000</r>
      </set>
      <set comment="kpoint 2">
       <r>  -5.3406  1.0000</r>
       <r>  -0.8061  1.0000</r>
       <r>  -0.7635  1.0000</r>
       <r>  -0.7635  1.0000</r>
       <r>  -0.2568  1.0000</r>
       <r>  -0.2552  1.0000</r>
       <r>  -0.2552  1.0000</r>
       <r>   1.3253  1.0000</r>
       <r>   1.3785  1.0000</r>
       <r>   1.3785  1.0000</r>
       <r>   2.3025  1.0000</r>
       <r>   2.3403  1.0000</r>
       <r>   2.9405  1.0000</r>
       <r>   2.9405  1.0000</r>
       <r>   2.9642  1.0000</r>
       <r>   2.9734  1.0000</r>
       <r>   2.9734  1.0000</r>
       <r>   3.1162  1.0000</r>
       <r>   3.1162  1.0000</r>
       <r>   3.1573  1.0000</r>
       <r>   3.1573  1.0000</r>
       <r>   5.6656  0.0000</r>
       <r>   6.4475  0.0000</r>
       <r>   6.4475  0.0000</r>
       <r>  12.6622  0.0000</r>
       <r>  12.6622  0.0000</r>
      </set>
      <set comment="kpoint 3">
       <r>  -5.0693  1.0000</r>
       <r>  -0.8165  1.0000</r>
       <r>  -0.6352  1.0000</r>
       <r>  -0.6352  1.0000</r>
       <r>  -0.1797  1.0000</r>
       <r>  -0.1712  1.0000</r>
       <r>  -0.1712  1.0000</r>
       <r>   1.2385  1.0000</r>
       <r>   1.4482  1.0000</r>
       <r>   1.4482  1.0000</r>
       <r>   2.2246  1.0000</r>
       <r>   2.3719  1.0000</r>
       <r>   2.5499  1.0000</r>
       <r>   2.5499  1.0000</r>
       <r>   2.8389  1.0000</r>
       <r>   2.8389  1.0000</r>
       <r>   2.9312  1.0000</r>
       <r>   2.9986  1.0000</r>
       <r>   2.9986  1.0000</r>
       <r>   3.1575  1.0000</r>
       <r>   3.1575  1.0000</r>
       <r>   4.5443  1.0000</r>
       <r>   7.1080  0.0000</r>
       <r>   7.1080  0.0000</r>
       <r>  12.7497  0.0000</r>
       <r>  12.7497  0.0000</r>
      </set>
      <set comment="kpoint 4">
       <r>  -4.6252  1.0000</r>
       <r>  -0.8997  1.0000</r>
       <r>  -0.4434  1.0000</r>
       <r>  -0.4434  1.0000</r>
       <r>  -0.0561  1.0000</r>
       <r>  -0.0299  1.0000</r>
       <r>  -0.0299  1.0000</r>
       <r>   1.1016  1.0000</r>
       <r>   1.5625  1.0000</r>
       <r>   1.5625  1.0000</r>
       <r>   2.0565  1.0000</r>
       <r>   2.0565  1.0000</r>
       <r>   2.1057  1.0000</r>
       <r>   2.4222  1.0000</r>
       <r>   2.6831  1.0000</r>
       <r>   2.6831  1.0000</r>
       <r>   2.8203  1.0000</r>
       <r>   2.8203  1.0000</r>
       <r>   2.8789  1.0000</r>
       <r>   3.1577  1.0000</r>
       <r>   3.1577  1.0000</r>
       <r>   3.3669  1.0000</r>
       <r>   7.9948  0.0000</r>
       <r>   7.9948  0.0000</r>
       <r>  12.9035  0.0000</r>
       <r>  12.9035  0.0000</r>
      </set>
      <set comment="kpoint 5">
       <r>  -4.0232  1.0000</r>
       <r>  -1.1705  1.0000</r>
       <r>  -0.2256  1.0000</r>
       <r>  -0.2256  1.0000</r>
       <r>   0.1070  1.0000</r>
       <r>   0.1703  1.0000</r>
       <r>   0.1703  1.0000</r>
       <r>   0.9253  1.0000</r>
       <r>   1.5744  1.0000</r>
       <r>   1.5744  1.0000</r>
       <r>   1.7182  1.0000</r>
       <r>   1.7182  1.0000</r>
       <r>   1.9657  1.0000</r>
       <r>   2.4437  1.0000</r>
       <r>   2.4882  1.0000</r>
       <r>   2.5006  1.0000</r>
       <r>   2.5006  1.0000</r>
       <r>   2.6019  1.0000</r>
       <r>   2.6019  1.0000</r>
       <r>   2.8111  1.0000</r>
       <r>   3.1580  1.0000</r>
       <r>   3.1580  1.0000</r>
       <r>   9.0243  0.0000</r>
       <r>   9.0243  0.0000</r>
       <r>  13.1308  0.0000</r>
       <r>  13.1308  0.0000</r>
      </set>
      <set comment="kpoint 6">
       <r>  -3.2918  1.0000</r>
       <r>  -1.7252  1.0000</r>
       <r>  -0.0420  1.0000</r>
       <r>  -0.0420  1.0000</r>
       <r>   0.2995  1.0000</r>
       <r>   0.4309  1.0000</r>
       <r>   0.4309  1.0000</r>
       <r>   0.7230  1.0000</r>
       <r>   1.1357  1.0000</r>
       <r>   1.1357  1.0000</r>
       <r>   1.8392  1.0000</r>
       <r>   1.9098  1.0000</r>
       <r>   1.9098  1.0000</r>
       <r>   1.9367  1.0000</r>
       <r>   2.3424  1.0000</r>
       <r>   2.3424  1.0000</r>
       <r>   2.3651  1.0000</r>
       <r>   2.3651  1.0000</r>
       <r>   2.5653  1.0000</r>
       <r>   2.7325  1.0000</r>
       <r>   3.1582  1.0000</r>
       <r>   3.1582  1.0000</r>
       <r>  10.1611  0.0000</r>
       <r>  10.1611  0.0000</r>
       <r>  12.6942  0.0000</r>
       <r>  12.6942  0.0000</r>
      </set>
      <set comment="kpoint 7">
       <r>  -2.4881  1.0000</r>
       <r>  -2.4881  1.0000</r>
       <r>   0.0324  1.0000</r>
       <r>   0.0324  1.0000</r>
       <r>   0.5095  1.0000</r>
       <r>   0.5095  1.0000</r>
       <r>   0.7530  1.0000</r>
       <r>   0.7530  1.0000</r>
       <r>   0.7530  1.0000</r>
       <r>   0.7530  1.0000</r>
       <r>   1.7901  1.0000</r>
       <r>   1.7901  1.0000</r>
       <r>   2.1293  1.0000</r>
       <r>   2.1293  1.0000</r>
       <r>   2.1293  1.0000</r>
       <r>   2.1293  1.0000</r>
       <r>   2.2772  1.0000</r>
       <r>   2.2772  1.0000</r>
       <r>   2.6486  1.0000</r>
       <r>   2.6486  1.0000</r>
       <r>   3.1582  1.0000</r>
       <r>   3.1582  1.0000</r>
       <r>  11.3880  0.0000</r>
       <r>  11.3880  0.0000</r>
       <r>  11.3880  0.0000</r>
       <r>  11.3880  0.0000</r>
      </set>
      <set comment="kpoint 8">
       <r>  -5.2498  1.0000</r>
       <r>  -0.7603  1.0000</r>
       <r>  -0.7603  1.0000</r>
       <r>  -0.7197  1.0000</r>
       <r>  -0.2295  1.0000</r>
       <r>  -0.2295  1.0000</r>
       <r>  -0.2283  1.0000</r>
       <r>   1.3084  1.0000</r>
       <r>   1.3896  1.0000</r>
       <r>   1.3995  1.0000</r>
       <r>   2.2950  1.0000</r>
       <r>   2.3339  1.0000</r>
       <r>   2.8391  1.0000</r>
       <r>   2.8809  1.0000</r>
       <r>   2.8809  1.0000</r>
       <r>   2.9070  1.0000</r>
       <r>   2.9711  1.0000</r>
       <r>   2.9711  1.0000</r>
       <r>   3.1161  1.0000</r>
       <r>   3.1161  1.0000</r>
       <r>   3.1311  1.0000</r>
       <r>   5.9271  0.0000</r>
       <r>   5.9271  0.0000</r>
       <r>   6.6874  0.0000</r>
       <r>  12.6896  0.0000</r>
       <r>  13.3652  0.0000</r>
      </set>
      <set comment="kpoint 9">
       <r>  -4.9798  1.0000</r>
       <r>  -0.7677  1.0000</r>
       <r>  -0.6291  1.0000</r>
       <r>  -0.5942  1.0000</r>
       <r>  -0.1539  1.0000</r>
       <r>  -0.1473  1.0000</r>
       <r>  -0.1471  1.0000</r>
       <r>   1.2302  1.0000</r>
       <r>   1.4527  1.0000</r>
       <r>   1.4616  1.0000</r>
       <r>   2.2275  1.0000</r>
       <r>   2.3627  1.0000</r>
       <r>   2.4697  1.0000</r>
       <r>   2.4718  1.0000</r>
       <r>   2.7263  1.0000</r>
       <r>   2.8097  1.0000</r>
       <r>   2.8473  1.0000</r>
       <r>   2.9378  1.0000</r>
       <r>   2.9984  1.0000</r>
       <r>   3.1160  1.0000</r>
       <r>   3.1169  1.0000</r>
       <r>   4.8297  0.0000</r>
       <r>   6.5613  0.0000</r>
       <r>   7.3086  0.0000</r>
       <r>  12.7710  0.0000</r>
       <r>  13.4871  0.0000</r>
      </set>
      <set comment="kpoint 10">
       <r>  -4.5381  1.0000</r>
       <r>  -0.8459  1.0000</r>
       <r>  -0.4323  1.0000</r>
       <r>  -0.4060  1.0000</r>
       <r>  -0.0327  1.0000</r>
       <r>  -0.0122  1.0000</r>
       <r>  -0.0085  1.0000</r>
       <r>   1.0982  1.0000</r>
       <r>   1.5599  1.0000</r>
       <r>   1.5649  1.0000</r>
       <r>   1.9824  1.0000</r>
       <r>   2.0112  1.0000</r>
       <r>   2.1189  1.0000</r>
       <r>   2.4191  1.0000</r>
       <r>   2.4620  1.0000</r>
       <r>   2.6599  1.0000</r>
       <r>   2.6912  1.0000</r>
       <r>   2.8197  1.0000</r>
       <r>   2.8702  1.0000</r>
       <r>   3.1136  1.0000</r>
       <r>   3.1157  1.0000</r>
       <r>   3.7467  1.0000</r>
       <r>   7.3849  0.0000</r>
       <r>   8.1648  0.0000</r>
       <r>  12.8862  0.0000</r>
       <r>  13.6990  0.0000</r>
      </set>
      <set comment="kpoint 11">
       <r>  -3.9395  1.0000</r>
       <r>  -1.1105  1.0000</r>
       <r>  -0.2074  1.0000</r>
       <r>  -0.1898  1.0000</r>
       <r>   0.1269  1.0000</r>
       <r>   0.1756  1.0000</r>
       <r>   0.1876  1.0000</r>
       <r>   0.9267  1.0000</r>
       <r>   1.5095  1.0000</r>
       <r>   1.5519  1.0000</r>
       <r>   1.6724  1.0000</r>
       <r>   1.7194  1.0000</r>
       <r>   2.0127  1.0000</r>
       <r>   2.0793  1.0000</r>
       <r>   2.4844  1.0000</r>
       <r>   2.4942  1.0000</r>
       <r>   2.5088  1.0000</r>
       <r>   2.6013  1.0000</r>
       <r>   2.7393  1.0000</r>
       <r>   3.0478  1.0000</r>
       <r>   3.1130  1.0000</r>
       <r>   3.1153  1.0000</r>
       <r>   8.3169  0.0000</r>
       <r>   9.1733  0.0000</r>
       <r>  12.6156  0.0000</r>
       <r>  13.4414  0.0000</r>
      </set>
      <set comment="kpoint 12">
       <r>  -3.2128  1.0000</r>
       <r>  -1.6587  1.0000</r>
       <r>  -0.0147  1.0000</r>
       <r>  -0.0044  1.0000</r>
       <r>   0.3154  1.0000</r>
       <r>   0.4159  1.0000</r>
       <r>   0.4426  1.0000</r>
       <r>   0.7294  1.0000</r>
       <r>   1.0833  1.0000</r>
       <r>   1.1287  1.0000</r>
       <r>   1.7069  1.0000</r>
       <r>   1.7675  1.0000</r>
       <r>   1.9103  1.0000</r>
       <r>   2.0315  1.0000</r>
       <r>   2.3337  1.0000</r>
       <r>   2.3481  1.0000</r>
       <r>   2.3646  1.0000</r>
       <r>   2.4740  1.0000</r>
       <r>   2.5834  1.0000</r>
       <r>   2.8015  1.0000</r>
       <r>   3.1134  1.0000</r>
       <r>   3.1147  1.0000</r>
       <r>   9.3248  0.0000</r>
       <r>  10.2958  0.0000</r>
       <r>  11.5218  0.0000</r>
       <r>  12.8125  0.0000</r>
      </set>
      <set comment="kpoint 13">
       <r>  -2.4149  1.0000</r>
       <r>  -2.4149  1.0000</r>
       <r>   0.0680  1.0000</r>
       <r>   0.0680  1.0000</r>
       <r>   0.5208  1.0000</r>
       <r>   0.5208  1.0000</r>
       <r>   0.7168  1.0000</r>
       <r>   0.7168  1.0000</r>
       <r>   0.7569  1.0000</r>
       <r>   0.7569  1.0000</r>
       <r>   1.6767  1.0000</r>
       <r>   1.6767  1.0000</r>
       <r>   2.1292  1.0000</r>
       <r>   2.1292  1.0000</r>
       <r>   2.2160  1.0000</r>
       <r>   2.2160  1.0000</r>
       <r>   2.2766  1.0000</r>
       <r>   2.2766  1.0000</r>
       <r>   2.6835  1.0000</r>
       <r>   2.6835  1.0000</r>
       <r>   3.1141  1.0000</r>
       <r>   3.1141  1.0000</r>
       <r>  10.3958  0.0000</r>
       <r>  10.3958  0.0000</r>
       <r>  11.5129  0.0000</r>
       <r>  11.5129  0.0000</r>
      </set>
      <set comment="kpoint 14">
       <r>  -4.7139  1.0000</r>
       <r>  -0.6275  1.0000</r>
       <r>  -0.6275  1.0000</r>
       <r>  -0.4769  1.0000</r>
       <r>  -0.0762  1.0000</r>
       <r>  -0.0762  1.0000</r>
       <r>  -0.0758  1.0000</r>
       <r>   1.1826  1.0000</r>
       <r>   1.4904  1.0000</r>
       <r>   1.5005  1.0000</r>
       <r>   2.2030  1.0000</r>
       <r>   2.2269  1.0000</r>
       <r>   2.2708  1.0000</r>
       <r>   2.2708  1.0000</r>
       <r>   2.3719  1.0000</r>
       <r>   2.7240  1.0000</r>
       <r>   2.8389  1.0000</r>
       <r>   2.8389  1.0000</r>
       <r>   2.9975  1.0000</r>
       <r>   2.9975  1.0000</r>
       <r>   3.0534  1.0000</r>
       <r>   5.4457  0.0000</r>
       <r>   5.4457  0.0000</r>
       <r>   7.8539  0.0000</r>
       <r>  12.7965  0.0000</r>
       <r>  14.1009  0.0000</r>
      </set>
      <set comment="kpoint 15">
       <r>  -4.2792  1.0000</r>
       <r>  -0.6907  1.0000</r>
       <r>  -0.4155  1.0000</r>
       <r>  -0.3000  1.0000</r>
       <r>   0.0374  1.0000</r>
       <r>   0.0416  1.0000</r>
       <r>   0.0543  1.0000</r>
       <r>   1.0767  1.0000</r>
       <r>   1.5569  1.0000</r>
       <r>   1.5850  1.0000</r>
       <r>   1.7896  1.0000</r>
       <r>   1.8719  1.0000</r>
       <r>   1.9838  1.0000</r>
       <r>   2.1263  1.0000</r>
       <r>   2.4383  1.0000</r>
       <r>   2.5909  1.0000</r>
       <r>   2.6901  1.0000</r>
       <r>   2.7829  1.0000</r>
       <r>   2.8183  1.0000</r>
       <r>   2.9962  1.0000</r>
       <r>   3.0167  1.0000</r>
       <r>   4.3543  1.0000</r>
       <r>   6.1905  0.0000</r>
       <r>   8.6421  0.0000</r>
       <r>  12.2865  0.0000</r>
       <r>  13.3378  0.0000</r>
      </set>
      <set comment="kpoint 16">
       <r>  -3.6913  1.0000</r>
       <r>  -0.9369  1.0000</r>
       <r>  -0.1687  1.0000</r>
       <r>  -0.0900  1.0000</r>
       <r>   0.1867  1.0000</r>
       <r>   0.1950  1.0000</r>
       <r>   0.2384  1.0000</r>
       <r>   0.9253  1.0000</r>
       <r>   1.3423  1.0000</r>
       <r>   1.4821  1.0000</r>
       <r>   1.5988  1.0000</r>
       <r>   1.6816  1.0000</r>
       <r>   1.7301  1.0000</r>
       <r>   2.0617  1.0000</r>
       <r>   2.4342  1.0000</r>
       <r>   2.5122  1.0000</r>
       <r>   2.5430  1.0000</r>
       <r>   2.5998  1.0000</r>
       <r>   2.6637  1.0000</r>
       <r>   2.9946  1.0000</r>
       <r>   3.0005  1.0000</r>
       <r>   3.5554  1.0000</r>
       <r>   7.0109  0.0000</r>
       <r>   9.5998  0.0000</r>
       <r>  11.0864  0.0000</r>
       <r>  13.4946  0.0000</r>
      </set>
      <set comment="kpoint 17">
       <r>  -2.9793  1.0000</r>
       <r>  -1.4655  1.0000</r>
       <r>   0.0533  1.0000</r>
       <r>   0.1032  1.0000</r>
       <r>   0.3625  1.0000</r>
       <r>   0.3741  1.0000</r>
       <r>   0.4763  1.0000</r>
       <r>   0.7456  1.0000</r>
       <r>   0.9477  1.0000</r>
       <r>   1.1059  1.0000</r>
       <r>   1.5057  1.0000</r>
       <r>   1.5679  1.0000</r>
       <r>   1.9154  1.0000</r>
       <r>   2.1038  1.0000</r>
       <r>   2.3030  1.0000</r>
       <r>   2.3490  1.0000</r>
       <r>   2.3641  1.0000</r>
       <r>   2.4745  1.0000</r>
       <r>   2.6757  1.0000</r>
       <r>   2.9932  1.0000</r>
       <r>   2.9942  1.0000</r>
       <r>   3.0941  1.0000</r>
       <r>   7.8986  0.0000</r>
       <r>   9.9226  0.0000</r>
       <r>  10.6858  0.0000</r>
       <r>  13.1593  0.0000</r>
      </set>
      <set comment="kpoint 18">
       <r>  -2.2006  1.0000</r>
       <r>  -2.2006  1.0000</r>
       <r>   0.1671  1.0000</r>
       <r>   0.1671  1.0000</r>
       <r>   0.5532  1.0000</r>
       <r>   0.5532  1.0000</r>
       <r>   0.6183  1.0000</r>
       <r>   0.6183  1.0000</r>
       <r>   0.7670  1.0000</r>
       <r>   0.7670  1.0000</r>
       <r>   1.4984  1.0000</r>
       <r>   1.4984  1.0000</r>
       <r>   2.1307  1.0000</r>
       <r>   2.1307  1.0000</r>
       <r>   2.2623  1.0000</r>
       <r>   2.2623  1.0000</r>
       <r>   2.2647  1.0000</r>
       <r>   2.2647  1.0000</r>
       <r>   2.8435  1.0000</r>
       <r>   2.8435  1.0000</r>
       <r>   2.9926  1.0000</r>
       <r>   2.9926  1.0000</r>
       <r>   8.8634  0.0000</r>
       <r>   8.8634  0.0000</r>
       <r>  11.8770  0.0000</r>
       <r>  11.8770  0.0000</r>
      </set>
      <set comment="kpoint 19">
       <r>  -3.8571  1.0000</r>
       <r>  -0.4540  1.0000</r>
       <r>  -0.4540  1.0000</r>
       <r>  -0.1422  1.0000</r>
       <r>   0.1309  1.0000</r>
       <r>   0.1545  1.0000</r>
       <r>   0.1545  1.0000</r>
       <r>   1.0148  1.0000</r>
       <r>   1.5388  1.0000</r>
       <r>   1.5388  1.0000</r>
       <r>   1.5571  1.0000</r>
       <r>   1.6444  1.0000</r>
       <r>   1.6487  1.0000</r>
       <r>   2.0838  1.0000</r>
       <r>   2.4811  1.0000</r>
       <r>   2.5274  1.0000</r>
       <r>   2.6441  1.0000</r>
       <r>   2.6441  1.0000</r>
       <r>   2.8163  1.0000</r>
       <r>   2.8163  1.0000</r>
       <r>   2.9267  1.0000</r>
       <r>   5.0235  0.0000</r>
       <r>   5.0235  0.0000</r>
       <r>   9.3597  0.0000</r>
       <r>  10.9106  0.0000</r>
       <r>  13.4329  0.0000</r>
      </set>
      <set comment="kpoint 20">
       <r>  -3.2884  1.0000</r>
       <r>  -0.6708  1.0000</r>
       <r>  -0.1722  1.0000</r>
       <r>   0.0470  1.0000</r>
       <r>   0.2402  1.0000</r>
       <r>   0.2856  1.0000</r>
       <r>   0.3186  1.0000</r>
       <r>   0.9062  1.0000</r>
       <r>   1.1436  1.0000</r>
       <r>   1.3298  1.0000</r>
       <r>   1.3611  1.0000</r>
       <r>   1.5388  1.0000</r>
       <r>   1.7678  1.0000</r>
       <r>   2.0354  1.0000</r>
       <r>   2.3491  1.0000</r>
       <r>   2.4749  1.0000</r>
       <r>   2.5348  1.0000</r>
       <r>   2.5988  1.0000</r>
       <r>   2.6777  1.0000</r>
       <r>   2.8150  1.0000</r>
       <r>   2.8682  1.0000</r>
       <r>   4.1110  1.0000</r>
       <r>   5.7475  0.0000</r>
       <r>   9.6011  0.0000</r>
       <r>  10.2581  0.0000</r>
       <r>  13.7270  0.0000</r>
      </set>
      <set comment="kpoint 21">
       <r>  -2.6039  1.0000</r>
       <r>  -1.1658  1.0000</r>
       <r>   0.0966  1.0000</r>
       <r>   0.2576  1.0000</r>
       <r>   0.3196  1.0000</r>
       <r>   0.4386  1.0000</r>
       <r>   0.5281  1.0000</r>
       <r>   0.7631  1.0000</r>
       <r>   0.8015  1.0000</r>
       <r>   1.0626  1.0000</r>
       <r>   1.2700  1.0000</r>
       <r>   1.4612  1.0000</r>
       <r>   1.9357  1.0000</r>
       <r>   2.0654  1.0000</r>
       <r>   2.2407  1.0000</r>
       <r>   2.3141  1.0000</r>
       <r>   2.3666  1.0000</r>
       <r>   2.3690  1.0000</r>
       <r>   2.8157  1.0000</r>
       <r>   2.8364  1.0000</r>
       <r>   2.8734  1.0000</r>
       <r>   3.5053  1.0000</r>
       <r>   6.5408  0.0000</r>
       <r>   8.4416  0.0000</r>
       <r>  11.2980  0.0000</r>
       <r>  13.7129  0.0000</r>
      </set>
      <set comment="kpoint 22">
       <r>  -1.8612  1.0000</r>
       <r>  -1.8612  1.0000</r>
       <r>   0.2758  1.0000</r>
       <r>   0.2758  1.0000</r>
       <r>   0.5111  1.0000</r>
       <r>   0.5111  1.0000</r>
       <r>   0.6021  1.0000</r>
       <r>   0.6021  1.0000</r>
       <r>   0.7791  1.0000</r>
       <r>   0.7791  1.0000</r>
       <r>   1.3442  1.0000</r>
       <r>   1.3442  1.0000</r>
       <r>   2.1400  1.0000</r>
       <r>   2.1400  1.0000</r>
       <r>   2.1918  1.0000</r>
       <r>   2.1918  1.0000</r>
       <r>   2.2209  1.0000</r>
       <r>   2.2209  1.0000</r>
       <r>   2.8214  1.0000</r>
       <r>   2.8214  1.0000</r>
       <r>   3.1289  1.0000</r>
       <r>   3.1289  1.0000</r>
       <r>   7.4291  0.0000</r>
       <r>   7.4291  0.0000</r>
       <r>  12.4548  0.0000</r>
       <r>  12.4548  0.0000</r>
      </set>
      <set comment="kpoint 23">
       <r>  -2.7499  1.0000</r>
       <r>  -0.3521  1.0000</r>
       <r>  -0.3521  1.0000</r>
       <r>   0.1638  1.0000</r>
       <r>   0.3364  1.0000</r>
       <r>   0.4219  1.0000</r>
       <r>   0.4219  1.0000</r>
       <r>   0.8551  1.0000</r>
       <r>   1.0316  1.0000</r>
       <r>   1.0316  1.0000</r>
       <r>   1.1928  1.0000</r>
       <r>   1.4801  1.0000</r>
       <r>   1.8511  1.0000</r>
       <r>   1.9770  1.0000</r>
       <r>   2.2400  1.0000</r>
       <r>   2.3761  1.0000</r>
       <r>   2.3761  1.0000</r>
       <r>   2.6011  1.0000</r>
       <r>   2.6011  1.0000</r>
       <r>   2.7560  1.0000</r>
       <r>   2.8835  1.0000</r>
       <r>   4.7192  1.0000</r>
       <r>   4.7192  1.0000</r>
       <r>   8.2832  0.0000</r>
       <r>  11.1017  0.0000</r>
       <r>  14.0840  0.0000</r>
      </set>
      <set comment="kpoint 24">
       <r>  -2.1101  1.0000</r>
       <r>  -0.7986  1.0000</r>
       <r>  -0.0456  1.0000</r>
       <r>   0.2163  1.0000</r>
       <r>   0.4688  1.0000</r>
       <r>   0.5394  1.0000</r>
       <r>   0.5915  1.0000</r>
       <r>   0.7697  1.0000</r>
       <r>   0.7912  1.0000</r>
       <r>   0.9937  1.0000</r>
       <r>   1.0810  1.0000</r>
       <r>   1.3785  1.0000</r>
       <r>   1.9758  1.0000</r>
       <r>   1.9863  1.0000</r>
       <r>   2.1463  1.0000</r>
       <r>   2.2235  1.0000</r>
       <r>   2.2255  1.0000</r>
       <r>   2.3777  1.0000</r>
       <r>   2.6106  1.0000</r>
       <r>   2.6790  1.0000</r>
       <r>   3.1457  1.0000</r>
       <r>   3.9816  1.0000</r>
       <r>   5.4042  0.0000</r>
       <r>   7.1527  0.0000</r>
       <r>  12.0955  0.0000</r>
       <r>  14.4472  0.0000</r>
      </set>
      <set comment="kpoint 25">
       <r>  -1.4278  1.0000</r>
       <r>  -1.4278  1.0000</r>
       <r>   0.1618  1.0000</r>
       <r>   0.1618  1.0000</r>
       <r>   0.6093  1.0000</r>
       <r>   0.6093  1.0000</r>
       <r>   0.6598  1.0000</r>
       <r>   0.6598  1.0000</r>
       <r>   0.7866  1.0000</r>
       <r>   0.7866  1.0000</r>
       <r>   1.2262  1.0000</r>
       <r>   1.2262  1.0000</r>
       <r>   2.0709  1.0000</r>
       <r>   2.0709  1.0000</r>
       <r>   2.1324  1.0000</r>
       <r>   2.1324  1.0000</r>
       <r>   2.1666  1.0000</r>
       <r>   2.1666  1.0000</r>
       <r>   2.6337  1.0000</r>
       <r>   2.6337  1.0000</r>
       <r>   3.4886  1.0000</r>
       <r>   3.4886  1.0000</r>
       <r>   6.2023  0.0000</r>
       <r>   6.2023  0.0000</r>
       <r>  13.2159  0.0000</r>
       <r>  13.2159  0.0000</r>
      </set>
      <set comment="kpoint 26">
       <r>  -1.5385  1.0000</r>
       <r>  -0.4252  1.0000</r>
       <r>  -0.4252  1.0000</r>
       <r>   0.0893  1.0000</r>
       <r>   0.6576  1.0000</r>
       <r>   0.6576  1.0000</r>
       <r>   0.6581  1.0000</r>
       <r>   0.7548  1.0000</r>
       <r>   0.8980  1.0000</r>
       <r>   0.9373  1.0000</r>
       <r>   0.9373  1.0000</r>
       <r>   1.2803  1.0000</r>
       <r>   1.9202  1.0000</r>
       <r>   2.0501  1.0000</r>
       <r>   2.0807  1.0000</r>
       <r>   2.0888  1.0000</r>
       <r>   2.0888  1.0000</r>
       <r>   2.4052  1.0000</r>
       <r>   2.4052  1.0000</r>
       <r>   2.5496  1.0000</r>
       <r>   3.4843  1.0000</r>
       <r>   4.5394  1.0000</r>
       <r>   4.5394  1.0000</r>
       <r>   6.0811  0.0000</r>
       <r>  13.0480  0.0000</r>
       <r>  15.1296  0.0000</r>
      </set>
      <set comment="kpoint 27">
       <r>  -0.9508  1.0000</r>
       <r>  -0.9508  1.0000</r>
       <r>  -0.1171  1.0000</r>
       <r>  -0.1171  1.0000</r>
       <r>   0.7155  1.0000</r>
       <r>   0.7155  1.0000</r>
       <r>   0.7817  1.0000</r>
       <r>   0.7817  1.0000</r>
       <r>   0.8113  1.0000</r>
       <r>   0.8113  1.0000</r>
       <r>   1.1255  1.0000</r>
       <r>   1.1255  1.0000</r>
       <r>   1.9642  1.0000</r>
       <r>   1.9642  1.0000</r>
       <r>   2.0178  1.0000</r>
       <r>   2.0178  1.0000</r>
       <r>   2.2229  1.0000</r>
       <r>   2.2229  1.0000</r>
       <r>   2.4593  1.0000</r>
       <r>   2.4593  1.0000</r>
       <r>   3.9246  1.0000</r>
       <r>   3.9246  1.0000</r>
       <r>   5.2220  0.0000</r>
       <r>   5.2220  0.0000</r>
       <r>  14.1336  0.0000</r>
       <r>  14.1336  0.0000</r>
      </set>
      <set comment="kpoint 28">
       <r>  -0.4952  1.0000</r>
       <r>  -0.4952  1.0000</r>
       <r>  -0.4952  1.0000</r>
       <r>  -0.4952  1.0000</r>
       <r>   0.7583  1.0000</r>
       <r>   0.7583  1.0000</r>
       <r>   0.7583  1.0000</r>
       <r>   0.7583  1.0000</r>
       <r>   0.9953  1.0000</r>
       <r>   0.9953  1.0000</r>
       <r>   0.9953  1.0000</r>
       <r>   0.9953  1.0000</r>
       <r>   1.9408  1.0000</r>
       <r>   1.9408  1.0000</r>
       <r>   1.9408  1.0000</r>
       <r>   1.9408  1.0000</r>
       <r>   2.3194  1.0000</r>
       <r>   2.3194  1.0000</r>
       <r>   2.3194  1.0000</r>
       <r>   2.3194  1.0000</r>
       <r>   4.4804  1.0000</r>
       <r>   4.4804  1.0000</r>
       <r>   4.4804  1.0000</r>
       <r>   4.4804  1.0000</r>
       <r>  15.1879  0.0000</r>
       <r>  15.1879  0.0000</r>
      </set>
      <set comment="kpoint 29">
       <r>  -5.1596  1.0000</r>
       <r>  -0.7156  1.0000</r>
       <r>  -0.7156  1.0000</r>
       <r>  -0.7156  1.0000</r>
       <r>  -0.2031  1.0000</r>
       <r>  -0.2031  1.0000</r>
       <r>  -0.2031  1.0000</r>
       <r>   1.2928  1.0000</r>
       <r>   1.4092  1.0000</r>
       <r>   1.4092  1.0000</r>
       <r>   2.3088  1.0000</r>
       <r>   2.3088  1.0000</r>
       <r>   2.7811  1.0000</r>
       <r>   2.7811  1.0000</r>
       <r>   2.7811  1.0000</r>
       <r>   2.8767  1.0000</r>
       <r>   2.8767  1.0000</r>
       <r>   2.8767  1.0000</r>
       <r>   3.1119  1.0000</r>
       <r>   3.1119  1.0000</r>
       <r>   3.1119  1.0000</r>
       <r>   6.1599  0.0000</r>
       <r>   6.1599  0.0000</r>
       <r>   6.1599  0.0000</r>
       <r>  13.4039  0.0000</r>
       <r>  13.4039  0.0000</r>
      </set>
      <set comment="kpoint 30">
       <r>  -4.8910  1.0000</r>
       <r>  -0.7206  1.0000</r>
       <r>  -0.5877  1.0000</r>
       <r>  -0.5877  1.0000</r>
       <r>  -0.1288  1.0000</r>
       <r>  -0.1236  1.0000</r>
       <r>  -0.1236  1.0000</r>
       <r>   1.2217  1.0000</r>
       <r>   1.4628  1.0000</r>
       <r>   1.4677  1.0000</r>
       <r>   2.2377  1.0000</r>
       <r>   2.3489  1.0000</r>
       <r>   2.3997  1.0000</r>
       <r>   2.3997  1.0000</r>
       <r>   2.6052  1.0000</r>
       <r>   2.7857  1.0000</r>
       <r>   2.7876  1.0000</r>
       <r>   2.7876  1.0000</r>
       <r>   3.0604  1.0000</r>
       <r>   3.0992  1.0000</r>
       <r>   3.0992  1.0000</r>
       <r>   5.0617  0.0000</r>
       <r>   6.7481  0.0000</r>
       <r>   6.7481  0.0000</r>
       <r>  13.5184  0.0000</r>
       <r>  13.5184  0.0000</r>
      </set>
      <set comment="kpoint 31">
       <r>  -4.4517  1.0000</r>
       <r>  -0.7946  1.0000</r>
       <r>  -0.3955  1.0000</r>
       <r>  -0.3955  1.0000</r>
       <r>  -0.0097  1.0000</r>
       <r>   0.0089  1.0000</r>
       <r>   0.0089  1.0000</r>
       <r>   1.0956  1.0000</r>
       <r>   1.5578  1.0000</r>
       <r>   1.5642  1.0000</r>
       <r>   1.9426  1.0000</r>
       <r>   1.9426  1.0000</r>
       <r>   2.1379  1.0000</r>
       <r>   2.3077  1.0000</r>
       <r>   2.4126  1.0000</r>
       <r>   2.6400  1.0000</r>
       <r>   2.6500  1.0000</r>
       <r>   2.6500  1.0000</r>
       <r>   2.9871  1.0000</r>
       <r>   3.0885  1.0000</r>
       <r>   3.0885  1.0000</r>
       <r>   3.9781  1.0000</r>
       <r>   7.5363  0.0000</r>
       <r>   7.5363  0.0000</r>
       <r>  13.6477  0.0000</r>
       <r>  13.6477  0.0000</r>
      </set>
      <set comment="kpoint 32">
       <r>  -3.8568  1.0000</r>
       <r>  -1.0537  1.0000</r>
       <r>  -0.1730  1.0000</r>
       <r>  -0.1730  1.0000</r>
       <r>   0.1472  1.0000</r>
       <r>   0.1916  1.0000</r>
       <r>   0.1916  1.0000</r>
       <r>   0.9294  1.0000</r>
       <r>   1.4933  1.0000</r>
       <r>   1.4933  1.0000</r>
       <r>   1.6530  1.0000</r>
       <r>   1.6965  1.0000</r>
       <r>   1.9358  1.0000</r>
       <r>   2.0622  1.0000</r>
       <r>   2.4555  1.0000</r>
       <r>   2.4813  1.0000</r>
       <r>   2.4813  1.0000</r>
       <r>   2.4955  1.0000</r>
       <r>   2.8986  1.0000</r>
       <r>   3.0824  1.0000</r>
       <r>   3.0824  1.0000</r>
       <r>   3.1892  1.0000</r>
       <r>   8.4408  0.0000</r>
       <r>   8.4408  0.0000</r>
       <r>  12.8770  0.0000</r>
       <r>  12.8770  0.0000</r>
      </set>
      <set comment="kpoint 33">
       <r>  -3.1353  1.0000</r>
       <r>  -1.5953  1.0000</r>
       <r>   0.0222  1.0000</r>
       <r>   0.0222  1.0000</r>
       <r>   0.3323  1.0000</r>
       <r>   0.4190  1.0000</r>
       <r>   0.4190  1.0000</r>
       <r>   0.7372  1.0000</r>
       <r>   1.0887  1.0000</r>
       <r>   1.0887  1.0000</r>
       <r>   1.6564  1.0000</r>
       <r>   1.6732  1.0000</r>
       <r>   1.8604  1.0000</r>
       <r>   2.1314  1.0000</r>
       <r>   2.2524  1.0000</r>
       <r>   2.3311  1.0000</r>
       <r>   2.3311  1.0000</r>
       <r>   2.5918  1.0000</r>
       <r>   2.6924  1.0000</r>
       <r>   2.7996  1.0000</r>
       <r>   3.0795  1.0000</r>
       <r>   3.0795  1.0000</r>
       <r>   9.4154  0.0000</r>
       <r>   9.4154  0.0000</r>
       <r>  11.7065  0.0000</r>
       <r>  11.7065  0.0000</r>
      </set>
      <set comment="kpoint 34">
       <r>  -2.3441  1.0000</r>
       <r>  -2.3441  1.0000</r>
       <r>   0.1044  1.0000</r>
       <r>   0.1044  1.0000</r>
       <r>   0.5334  1.0000</r>
       <r>   0.5334  1.0000</r>
       <r>   0.6307  1.0000</r>
       <r>   0.6307  1.0000</r>
       <r>   0.8132  1.0000</r>
       <r>   0.8132  1.0000</r>
       <r>   1.6122  1.0000</r>
       <r>   1.6122  1.0000</r>
       <r>   2.0492  1.0000</r>
       <r>   2.0492  1.0000</r>
       <r>   2.2684  1.0000</r>
       <r>   2.2684  1.0000</r>
       <r>   2.3571  1.0000</r>
       <r>   2.3571  1.0000</r>
       <r>   2.6953  1.0000</r>
       <r>   2.6953  1.0000</r>
       <r>   3.0787  1.0000</r>
       <r>   3.0787  1.0000</r>
       <r>  10.2120  0.0000</r>
       <r>  10.2120  0.0000</r>
       <r>  10.8412  0.0000</r>
       <r>  10.8412  0.0000</r>
      </set>
      <set comment="kpoint 35">
       <r>  -4.6268  1.0000</r>
       <r>  -0.5854  1.0000</r>
       <r>  -0.5854  1.0000</r>
       <r>  -0.4696  1.0000</r>
       <r>  -0.0534  1.0000</r>
       <r>  -0.0534  1.0000</r>
       <r>  -0.0531  1.0000</r>
       <r>   1.1771  1.0000</r>
       <r>   1.4964  1.0000</r>
       <r>   1.5020  1.0000</r>
       <r>   2.1653  1.0000</r>
       <r>   2.2067  1.0000</r>
       <r>   2.2067  1.0000</r>
       <r>   2.2277  1.0000</r>
       <r>   2.3515  1.0000</r>
       <r>   2.6725  1.0000</r>
       <r>   2.7064  1.0000</r>
       <r>   2.7064  1.0000</r>
       <r>   3.0529  1.0000</r>
       <r>   3.0529  1.0000</r>
       <r>   3.0632  1.0000</r>
       <r>   5.6124  0.0000</r>
       <r>   5.6124  0.0000</r>
       <r>   7.2485  0.0000</r>
       <r>  13.5193  0.0000</r>
       <r>  14.2814  0.0000</r>
      </set>
      <set comment="kpoint 36">
       <r>  -4.1952  1.0000</r>
       <r>  -0.6475  1.0000</r>
       <r>  -0.3814  1.0000</r>
       <r>  -0.2919  1.0000</r>
       <r>   0.0597  1.0000</r>
       <r>   0.0622  1.0000</r>
       <r>   0.0719  1.0000</r>
       <r>   1.0773  1.0000</r>
       <r>   1.5551  1.0000</r>
       <r>   1.5754  1.0000</r>
       <r>   1.7606  1.0000</r>
       <r>   1.8165  1.0000</r>
       <r>   1.9237  1.0000</r>
       <r>   2.1614  1.0000</r>
       <r>   2.4236  1.0000</r>
       <r>   2.5459  1.0000</r>
       <r>   2.5620  1.0000</r>
       <r>   2.5990  1.0000</r>
       <r>   2.9825  1.0000</r>
       <r>   3.0232  1.0000</r>
       <r>   3.0266  1.0000</r>
       <r>   4.4914  1.0000</r>
       <r>   6.3157  0.0000</r>
       <r>   7.9541  0.0000</r>
       <r>  12.5573  0.0000</r>
       <r>  14.0425  0.0000</r>
      </set>
      <set comment="kpoint 37">
       <r>  -3.6120  1.0000</r>
       <r>  -0.8908  1.0000</r>
       <r>  -0.1418  1.0000</r>
       <r>  -0.0798  1.0000</r>
       <r>   0.2086  1.0000</r>
       <r>   0.2090  1.0000</r>
       <r>   0.2414  1.0000</r>
       <r>   0.9324  1.0000</r>
       <r>   1.3425  1.0000</r>
       <r>   1.4413  1.0000</r>
       <r>   1.5921  1.0000</r>
       <r>   1.6328  1.0000</r>
       <r>   1.6894  1.0000</r>
       <r>   2.1270  1.0000</r>
       <r>   2.3782  1.0000</r>
       <r>   2.4032  1.0000</r>
       <r>   2.4528  1.0000</r>
       <r>   2.5321  1.0000</r>
       <r>   2.8780  1.0000</r>
       <r>   2.9998  1.0000</r>
       <r>   3.0005  1.0000</r>
       <r>   3.6294  1.0000</r>
       <r>   7.1067  0.0000</r>
       <r>   8.7732  0.0000</r>
       <r>  11.3122  0.0000</r>
       <r>  13.2566  0.0000</r>
      </set>
      <set comment="kpoint 38">
       <r>  -2.9068  1.0000</r>
       <r>  -1.4121  1.0000</r>
       <r>   0.0827  1.0000</r>
       <r>   0.1259  1.0000</r>
       <r>   0.3584  1.0000</r>
       <r>   0.3831  1.0000</r>
       <r>   0.4293  1.0000</r>
       <r>   0.7585  1.0000</r>
       <r>   0.9921  1.0000</r>
       <r>   1.0976  1.0000</r>
       <r>   1.4731  1.0000</r>
       <r>   1.5525  1.0000</r>
       <r>   1.8296  1.0000</r>
       <r>   2.1826  1.0000</r>
       <r>   2.2245  1.0000</r>
       <r>   2.2783  1.0000</r>
       <r>   2.3092  1.0000</r>
       <r>   2.6631  1.0000</r>
       <r>   2.7069  1.0000</r>
       <r>   2.9866  1.0000</r>
       <r>   2.9868  1.0000</r>
       <r>   3.0899  1.0000</r>
       <r>   7.9652  0.0000</r>
       <r>   9.4521  0.0000</r>
       <r>  10.4159  0.0000</r>
       <r>  12.0567  0.0000</r>
      </set>
      <set comment="kpoint 39">
       <r>  -2.1371  1.0000</r>
       <r>  -2.1371  1.0000</r>
       <r>   0.2055  1.0000</r>
       <r>   0.2055  1.0000</r>
       <r>   0.4983  1.0000</r>
       <r>   0.4983  1.0000</r>
       <r>   0.5708  1.0000</r>
       <r>   0.5708  1.0000</r>
       <r>   0.8639  1.0000</r>
       <r>   0.8639  1.0000</r>
       <r>   1.4763  1.0000</r>
       <r>   1.4763  1.0000</r>
       <r>   1.9956  1.0000</r>
       <r>   1.9956  1.0000</r>
       <r>   2.2362  1.0000</r>
       <r>   2.2362  1.0000</r>
       <r>   2.4491  1.0000</r>
       <r>   2.4491  1.0000</r>
       <r>   2.8233  1.0000</r>
       <r>   2.8233  1.0000</r>
       <r>   2.9826  1.0000</r>
       <r>   2.9826  1.0000</r>
       <r>   8.8707  0.0000</r>
       <r>   8.8707  0.0000</r>
       <r>  10.9819  0.0000</r>
       <r>  10.9819  0.0000</r>
      </set>
      <set comment="kpoint 40">
       <r>  -3.7773  1.0000</r>
       <r>  -0.4256  1.0000</r>
       <r>  -0.4256  1.0000</r>
       <r>  -0.1405  1.0000</r>
       <r>   0.1516  1.0000</r>
       <r>   0.1753  1.0000</r>
       <r>   0.1753  1.0000</r>
       <r>   1.0220  1.0000</r>
       <r>   1.5223  1.0000</r>
       <r>   1.5223  1.0000</r>
       <r>   1.5547  1.0000</r>
       <r>   1.6062  1.0000</r>
       <r>   1.6211  1.0000</r>
       <r>   2.1378  1.0000</r>
       <r>   2.4184  1.0000</r>
       <r>   2.4825  1.0000</r>
       <r>   2.4825  1.0000</r>
       <r>   2.5098  1.0000</r>
       <r>   2.9316  1.0000</r>
       <r>   2.9316  1.0000</r>
       <r>   2.9584  1.0000</r>
       <r>   5.1172  0.0000</r>
       <r>   5.1172  0.0000</r>
       <r>   8.5480  0.0000</r>
       <r>  11.1495  0.0000</r>
       <r>  14.2798  0.0000</r>
      </set>
      <set comment="kpoint 41">
       <r>  -3.2153  1.0000</r>
       <r>  -0.6456  1.0000</r>
       <r>  -0.1654  1.0000</r>
       <r>   0.0358  1.0000</r>
       <r>   0.2608  1.0000</r>
       <r>   0.3120  1.0000</r>
       <r>   0.3305  1.0000</r>
       <r>   0.9217  1.0000</r>
       <r>   1.1652  1.0000</r>
       <r>   1.3249  1.0000</r>
       <r>   1.3478  1.0000</r>
       <r>   1.5364  1.0000</r>
       <r>   1.7027  1.0000</r>
       <r>   2.1250  1.0000</r>
       <r>   2.2908  1.0000</r>
       <r>   2.3139  1.0000</r>
       <r>   2.3683  1.0000</r>
       <r>   2.6594  1.0000</r>
       <r>   2.8062  1.0000</r>
       <r>   2.8831  1.0000</r>
       <r>   2.9008  1.0000</r>
       <r>   4.1590  1.0000</r>
       <r>   5.8150  0.0000</r>
       <r>   9.0276  0.0000</r>
       <r>  10.1449  0.0000</r>
       <r>  13.7796  0.0000</r>
      </set>
      <set comment="kpoint 42">
       <r>  -2.5407  1.0000</r>
       <r>  -1.1318  1.0000</r>
       <r>   0.0840  1.0000</r>
       <r>   0.2209  1.0000</r>
       <r>   0.3353  1.0000</r>
       <r>   0.4686  1.0000</r>
       <r>   0.4783  1.0000</r>
       <r>   0.7864  1.0000</r>
       <r>   0.9016  1.0000</r>
       <r>   1.0947  1.0000</r>
       <r>   1.2697  1.0000</r>
       <r>   1.4587  1.0000</r>
       <r>   1.8123  1.0000</r>
       <r>   2.1278  1.0000</r>
       <r>   2.1890  1.0000</r>
       <r>   2.2166  1.0000</r>
       <r>   2.2422  1.0000</r>
       <r>   2.6281  1.0000</r>
       <r>   2.8521  1.0000</r>
       <r>   2.8548  1.0000</r>
       <r>   2.8634  1.0000</r>
       <r>   3.5055  1.0000</r>
       <r>   6.5867  0.0000</r>
       <r>   8.3874  0.0000</r>
       <r>  10.5374  0.0000</r>
       <r>  12.5733  0.0000</r>
      </set>
      <set comment="kpoint 43">
       <r>  -1.8117  1.0000</r>
       <r>  -1.8117  1.0000</r>
       <r>   0.2616  1.0000</r>
       <r>   0.2616  1.0000</r>
       <r>   0.4326  1.0000</r>
       <r>   0.4326  1.0000</r>
       <r>   0.6310  1.0000</r>
       <r>   0.6310  1.0000</r>
       <r>   0.8990  1.0000</r>
       <r>   0.8990  1.0000</r>
       <r>   1.3430  1.0000</r>
       <r>   1.3430  1.0000</r>
       <r>   1.9547  1.0000</r>
       <r>   1.9547  1.0000</r>
       <r>   2.1658  1.0000</r>
       <r>   2.1658  1.0000</r>
       <r>   2.4088  1.0000</r>
       <r>   2.4088  1.0000</r>
       <r>   2.8484  1.0000</r>
       <r>   2.8484  1.0000</r>
       <r>   3.1078  1.0000</r>
       <r>   3.1078  1.0000</r>
       <r>   7.4470  0.0000</r>
       <r>   7.4470  0.0000</r>
       <r>  11.4821  0.0000</r>
       <r>  11.4821  0.0000</r>
      </set>
      <set comment="kpoint 44">
       <r>  -2.6868  1.0000</r>
       <r>  -0.3621  1.0000</r>
       <r>  -0.3621  1.0000</r>
       <r>   0.1131  1.0000</r>
       <r>   0.3730  1.0000</r>
       <r>   0.4550  1.0000</r>
       <r>   0.4550  1.0000</r>
       <r>   0.8825  1.0000</r>
       <r>   1.0630  1.0000</r>
       <r>   1.0630  1.0000</r>
       <r>   1.2170  1.0000</r>
       <r>   1.4814  1.0000</r>
       <r>   1.7350  1.0000</r>
       <r>   2.1134  1.0000</r>
       <r>   2.1704  1.0000</r>
       <r>   2.2263  1.0000</r>
       <r>   2.2263  1.0000</r>
       <r>   2.7368  1.0000</r>
       <r>   2.7368  1.0000</r>
       <r>   2.8064  1.0000</r>
       <r>   2.8618  1.0000</r>
       <r>   4.7513  1.0000</r>
       <r>   4.7513  1.0000</r>
       <r>   8.2061  0.0000</r>
       <r>  10.3878  0.0000</r>
       <r>  14.4624  0.0000</r>
      </set>
      <set comment="kpoint 45">
       <r>  -2.0622  1.0000</r>
       <r>  -0.7969  1.0000</r>
       <r>  -0.1025  1.0000</r>
       <r>   0.1328  1.0000</r>
       <r>   0.5050  1.0000</r>
       <r>   0.5882  1.0000</r>
       <r>   0.6065  1.0000</r>
       <r>   0.8097  1.0000</r>
       <r>   0.8853  1.0000</r>
       <r>   1.0673  1.0000</r>
       <r>   1.1020  1.0000</r>
       <r>   1.3833  1.0000</r>
       <r>   1.7942  1.0000</r>
       <r>   2.0580  1.0000</r>
       <r>   2.0761  1.0000</r>
       <r>   2.1230  1.0000</r>
       <r>   2.1869  1.0000</r>
       <r>   2.5539  1.0000</r>
       <r>   2.6970  1.0000</r>
       <r>   2.7341  1.0000</r>
       <r>   3.1213  1.0000</r>
       <r>   3.9787  1.0000</r>
       <r>   5.4244  0.0000</r>
       <r>   7.1409  0.0000</r>
       <r>  11.1934  0.0000</r>
       <r>  13.2517  0.0000</r>
      </set>
      <set comment="kpoint 46">
       <r>  -1.4015  1.0000</r>
       <r>  -1.4015  1.0000</r>
       <r>   0.0710  1.0000</r>
       <r>   0.0710  1.0000</r>
       <r>   0.6108  1.0000</r>
       <r>   0.6108  1.0000</r>
       <r>   0.7090  1.0000</r>
       <r>   0.7090  1.0000</r>
       <r>   0.9181  1.0000</r>
       <r>   0.9181  1.0000</r>
       <r>   1.2365  1.0000</r>
       <r>   1.2365  1.0000</r>
       <r>   1.9037  1.0000</r>
       <r>   1.9037  1.0000</r>
       <r>   2.0556  1.0000</r>
       <r>   2.0556  1.0000</r>
       <r>   2.3524  1.0000</r>
       <r>   2.3524  1.0000</r>
       <r>   2.6961  1.0000</r>
       <r>   2.6961  1.0000</r>
       <r>   3.4670  1.0000</r>
       <r>   3.4670  1.0000</r>
       <r>   6.2107  0.0000</r>
       <r>   6.2107  0.0000</r>
       <r>  12.1608  0.0000</r>
       <r>  12.1608  0.0000</r>
      </set>
      <set comment="kpoint 47">
       <r>  -1.5141  1.0000</r>
       <r>  -0.4673  1.0000</r>
       <r>  -0.4673  1.0000</r>
       <r>  -0.0055  1.0000</r>
       <r>   0.6879  1.0000</r>
       <r>   0.7315  1.0000</r>
       <r>   0.7315  1.0000</r>
       <r>   0.8152  1.0000</r>
       <r>   0.9761  1.0000</r>
       <r>   0.9761  1.0000</r>
       <r>   1.0071  1.0000</r>
       <r>   1.2911  1.0000</r>
       <r>   1.7892  1.0000</r>
       <r>   1.9727  1.0000</r>
       <r>   1.9765  1.0000</r>
       <r>   1.9765  1.0000</r>
       <r>   2.2243  1.0000</r>
       <r>   2.5197  1.0000</r>
       <r>   2.5197  1.0000</r>
       <r>   2.6195  1.0000</r>
       <r>   3.4582  1.0000</r>
       <r>   4.5336  1.0000</r>
       <r>   4.5336  1.0000</r>
       <r>   6.0753  0.0000</r>
       <r>  12.0233  0.0000</r>
       <r>  14.0775  0.0000</r>
      </set>
      <set comment="kpoint 48">
       <r>  -0.9584  1.0000</r>
       <r>  -0.9584  1.0000</r>
       <r>  -0.1986  1.0000</r>
       <r>  -0.1986  1.0000</r>
       <r>   0.7931  1.0000</r>
       <r>   0.7931  1.0000</r>
       <r>   0.8137  1.0000</r>
       <r>   0.8137  1.0000</r>
       <r>   0.9220  1.0000</r>
       <r>   0.9220  1.0000</r>
       <r>   1.1432  1.0000</r>
       <r>   1.1432  1.0000</r>
       <r>   1.8495  1.0000</r>
       <r>   1.8495  1.0000</r>
       <r>   1.9318  1.0000</r>
       <r>   1.9318  1.0000</r>
       <r>   2.3470  1.0000</r>
       <r>   2.3470  1.0000</r>
       <r>   2.5425  1.0000</r>
       <r>   2.5425  1.0000</r>
       <r>   3.9027  1.0000</r>
       <r>   3.9027  1.0000</r>
       <r>   5.2156  0.0000</r>
       <r>   5.2156  0.0000</r>
       <r>  12.9875  0.0000</r>
       <r>  12.9875  0.0000</r>
      </set>
      <set comment="kpoint 49">
       <r>  -0.5433  1.0000</r>
       <r>  -0.5433  1.0000</r>
       <r>  -0.5433  1.0000</r>
       <r>  -0.5433  1.0000</r>
       <r>   0.8594  1.0000</r>
       <r>   0.8594  1.0000</r>
       <r>   0.8594  1.0000</r>
       <r>   0.8594  1.0000</r>
       <r>   1.0217  1.0000</r>
       <r>   1.0217  1.0000</r>
       <r>   1.0217  1.0000</r>
       <r>   1.0217  1.0000</r>
       <r>   1.8482  1.0000</r>
       <r>   1.8482  1.0000</r>
       <r>   1.8482  1.0000</r>
       <r>   1.8482  1.0000</r>
       <r>   2.4152  1.0000</r>
       <r>   2.4152  1.0000</r>
       <r>   2.4152  1.0000</r>
       <r>   2.4152  1.0000</r>
       <r>   4.4627  1.0000</r>
       <r>   4.4627  1.0000</r>
       <r>   4.4627  1.0000</r>
       <r>   4.4627  1.0000</r>
       <r>  13.9488  0.0000</r>
       <r>  13.9488  0.0000</r>
      </set>
      <set comment="kpoint 50">
       <r>  -4.3681  1.0000</r>
       <r>  -0.4658  1.0000</r>
       <r>  -0.4658  1.0000</r>
       <r>  -0.4658  1.0000</r>
       <r>   0.0152  1.0000</r>
       <r>   0.0152  1.0000</r>
       <r>   0.0152  1.0000</r>
       <r>   1.1468  1.0000</r>
       <r>   1.5175  1.0000</r>
       <r>   1.5175  1.0000</r>
       <r>   1.9893  1.0000</r>
       <r>   1.9893  1.0000</r>
       <r>   1.9893  1.0000</r>
       <r>   2.2973  1.0000</r>
       <r>   2.2973  1.0000</r>
       <r>   2.5459  1.0000</r>
       <r>   2.5459  1.0000</r>
       <r>   2.5459  1.0000</r>
       <r>   3.0691  1.0000</r>
       <r>   3.0691  1.0000</r>
       <r>   3.0691  1.0000</r>
       <r>   6.0514  0.0000</r>
       <r>   6.0514  0.0000</r>
       <r>   6.0514  0.0000</r>
       <r>  14.3728  0.0000</r>
       <r>  14.3728  0.0000</r>
      </set>
      <set comment="kpoint 51">
       <r>  -3.9461  1.0000</r>
       <r>  -0.5263  1.0000</r>
       <r>  -0.2883  1.0000</r>
       <r>  -0.2883  1.0000</r>
       <r>   0.1276  1.0000</r>
       <r>   0.1276  1.0000</r>
       <r>   0.1278  1.0000</r>
       <r>   1.0711  1.0000</r>
       <r>   1.5537  1.0000</r>
       <r>   1.5609  1.0000</r>
       <r>   1.6660  1.0000</r>
       <r>   1.6660  1.0000</r>
       <r>   1.7344  1.0000</r>
       <r>   2.2382  1.0000</r>
       <r>   2.3815  1.0000</r>
       <r>   2.4008  1.0000</r>
       <r>   2.4286  1.0000</r>
       <r>   2.4286  1.0000</r>
       <r>   3.0383  1.0000</r>
       <r>   3.0383  1.0000</r>
       <r>   3.0461  1.0000</r>
       <r>   4.8618  0.0000</r>
       <r>   6.6594  0.0000</r>
       <r>   6.6594  0.0000</r>
       <r>  12.9621  0.0000</r>
       <r>  12.9621  0.0000</r>
      </set>
      <set comment="kpoint 52">
       <r>  -3.3778  1.0000</r>
       <r>  -0.7625  1.0000</r>
       <r>  -0.0798  1.0000</r>
       <r>  -0.0798  1.0000</r>
       <r>   0.2655  1.0000</r>
       <r>   0.2655  1.0000</r>
       <r>   0.2770  1.0000</r>
       <r>   0.9502  1.0000</r>
       <r>   1.3377  1.0000</r>
       <r>   1.3377  1.0000</r>
       <r>   1.4930  1.0000</r>
       <r>   1.5673  1.0000</r>
       <r>   1.6327  1.0000</r>
       <r>   2.2034  1.0000</r>
       <r>   2.2435  1.0000</r>
       <r>   2.3128  1.0000</r>
       <r>   2.3128  1.0000</r>
       <r>   2.5249  1.0000</r>
       <r>   2.9883  1.0000</r>
       <r>   2.9952  1.0000</r>
       <r>   2.9952  1.0000</r>
       <r>   3.8925  1.0000</r>
       <r>   7.3637  0.0000</r>
       <r>   7.3637  0.0000</r>
       <r>  11.6858  0.0000</r>
       <r>  11.6858  0.0000</r>
      </set>
      <set comment="kpoint 53">
       <r>  -2.6943  1.0000</r>
       <r>  -1.2611  1.0000</r>
       <r>   0.1338  1.0000</r>
       <r>   0.1338  1.0000</r>
       <r>   0.3627  1.0000</r>
       <r>   0.3627  1.0000</r>
       <r>   0.4482  1.0000</r>
       <r>   0.7973  1.0000</r>
       <r>   1.0825  1.0000</r>
       <r>   1.0825  1.0000</r>
       <r>   1.3832  1.0000</r>
       <r>   1.5074  1.0000</r>
       <r>   1.7360  1.0000</r>
       <r>   2.0284  1.0000</r>
       <r>   2.2037  1.0000</r>
       <r>   2.2037  1.0000</r>
       <r>   2.3941  1.0000</r>
       <r>   2.6570  1.0000</r>
       <r>   2.8988  1.0000</r>
       <r>   2.9635  1.0000</r>
       <r>   2.9635  1.0000</r>
       <r>   3.1885  1.0000</r>
       <r>   8.0912  0.0000</r>
       <r>   8.0912  0.0000</r>
       <r>  10.6190  0.0000</r>
       <r>  10.6190  0.0000</r>
      </set>
      <set comment="kpoint 54">
       <r>  -1.9537  1.0000</r>
       <r>  -1.9537  1.0000</r>
       <r>   0.3084  1.0000</r>
       <r>   0.3084  1.0000</r>
       <r>   0.3164  1.0000</r>
       <r>   0.3164  1.0000</r>
       <r>   0.6259  1.0000</r>
       <r>   0.6259  1.0000</r>
       <r>   0.9858  1.0000</r>
       <r>   0.9858  1.0000</r>
       <r>   1.4156  1.0000</r>
       <r>   1.4156  1.0000</r>
       <r>   1.8696  1.0000</r>
       <r>   1.8696  1.0000</r>
       <r>   2.1548  1.0000</r>
       <r>   2.1548  1.0000</r>
       <r>   2.7056  1.0000</r>
       <r>   2.7056  1.0000</r>
       <r>   2.7852  1.0000</r>
       <r>   2.7852  1.0000</r>
       <r>   2.9524  1.0000</r>
       <r>   2.9524  1.0000</r>
       <r>   8.5286  0.0000</r>
       <r>   8.5286  0.0000</r>
       <r>  10.0692  0.0000</r>
       <r>  10.0692  0.0000</r>
      </set>
      <set comment="kpoint 55">
       <r>  -3.5416  1.0000</r>
       <r>  -0.3527  1.0000</r>
       <r>  -0.3527  1.0000</r>
       <r>  -0.1621  1.0000</r>
       <r>   0.2251  1.0000</r>
       <r>   0.2424  1.0000</r>
       <r>   0.2424  1.0000</r>
       <r>   1.0391  1.0000</r>
       <r>   1.4682  1.0000</r>
       <r>   1.4682  1.0000</r>
       <r>   1.5044  1.0000</r>
       <r>   1.5487  1.0000</r>
       <r>   1.5713  1.0000</r>
       <r>   2.2653  1.0000</r>
       <r>   2.2700  1.0000</r>
       <r>   2.2700  1.0000</r>
       <r>   2.2752  1.0000</r>
       <r>   2.4650  1.0000</r>
       <r>   3.0113  1.0000</r>
       <r>   3.0247  1.0000</r>
       <r>   3.0247  1.0000</r>
       <r>   5.3840  0.0000</r>
       <r>   5.3840  0.0000</r>
       <r>   7.1481  0.0000</r>
       <r>  11.5352  0.0000</r>
       <r>  13.4938  0.0000</r>
      </set>
      <set comment="kpoint 56">
       <r>  -3.0007  1.0000</r>
       <r>  -0.5823  1.0000</r>
       <r>  -0.1635  1.0000</r>
       <r>  -0.0329  1.0000</r>
       <r>   0.3474  1.0000</r>
       <r>   0.3868  1.0000</r>
       <r>   0.3965  1.0000</r>
       <r>   0.9679  1.0000</r>
       <r>   1.2199  1.0000</r>
       <r>   1.3084  1.0000</r>
       <r>   1.3170  1.0000</r>
       <r>   1.5275  1.0000</r>
       <r>   1.6068  1.0000</r>
       <r>   2.0966  1.0000</r>
       <r>   2.1549  1.0000</r>
       <r>   2.1757  1.0000</r>
       <r>   2.2921  1.0000</r>
       <r>   2.6126  1.0000</r>
       <r>   2.9608  1.0000</r>
       <r>   2.9686  1.0000</r>
       <r>   2.9698  1.0000</r>
       <r>   4.3198  1.0000</r>
       <r>   6.0031  0.0000</r>
       <r>   7.6658  0.0000</r>
       <r>  10.3755  0.0000</r>
       <r>  12.1998  0.0000</r>
      </set>
      <set comment="kpoint 57">
       <r>  -2.3577  1.0000</r>
       <r>  -1.0409  1.0000</r>
       <r>   0.0035  1.0000</r>
       <r>   0.0726  1.0000</r>
       <r>   0.4410  1.0000</r>
       <r>   0.4901  1.0000</r>
       <r>   0.5646  1.0000</r>
       <r>   0.8599  1.0000</r>
       <r>   1.0773  1.0000</r>
       <r>   1.1691  1.0000</r>
       <r>   1.2671  1.0000</r>
       <r>   1.4488  1.0000</r>
       <r>   1.6777  1.0000</r>
       <r>   1.9302  1.0000</r>
       <r>   2.0645  1.0000</r>
       <r>   2.0852  1.0000</r>
       <r>   2.4335  1.0000</r>
       <r>   2.7931  1.0000</r>
       <r>   2.8601  1.0000</r>
       <r>   2.9152  1.0000</r>
       <r>   2.9181  1.0000</r>
       <r>   3.5358  1.0000</r>
       <r>   6.6922  0.0000</r>
       <r>   7.8771  0.0000</r>
       <r>   9.8052  0.0000</r>
       <r>  11.0811  0.0000</r>
      </set>
      <set comment="kpoint 58">
       <r>  -1.6723  1.0000</r>
       <r>  -1.6723  1.0000</r>
       <r>   0.0990  1.0000</r>
       <r>   0.0990  1.0000</r>
       <r>   0.4863  1.0000</r>
       <r>   0.4863  1.0000</r>
       <r>   0.7231  1.0000</r>
       <r>   0.7231  1.0000</r>
       <r>   1.0850  1.0000</r>
       <r>   1.0850  1.0000</r>
       <r>   1.3373  1.0000</r>
       <r>   1.3373  1.0000</r>
       <r>   1.7872  1.0000</r>
       <r>   1.7872  1.0000</r>
       <r>   2.0345  1.0000</r>
       <r>   2.0345  1.0000</r>
       <r>   2.6686  1.0000</r>
       <r>   2.6686  1.0000</r>
       <r>   2.8980  1.0000</r>
       <r>   2.8980  1.0000</r>
       <r>   3.0501  1.0000</r>
       <r>   3.0501  1.0000</r>
       <r>   7.4030  0.0000</r>
       <r>   7.4030  0.0000</r>
       <r>  10.1933  0.0000</r>
       <r>  10.1933  0.0000</r>
      </set>
      <set comment="kpoint 59">
       <r>  -2.5039  1.0000</r>
       <r>  -0.3944  1.0000</r>
       <r>  -0.3944  1.0000</r>
       <r>  -0.0295  1.0000</r>
       <r>   0.4835  1.0000</r>
       <r>   0.5574  1.0000</r>
       <r>   0.5574  1.0000</r>
       <r>   0.9689  1.0000</r>
       <r>   1.1486  1.0000</r>
       <r>   1.1486  1.0000</r>
       <r>   1.2778  1.0000</r>
       <r>   1.4825  1.0000</r>
       <r>   1.6021  1.0000</r>
       <r>   2.0154  1.0000</r>
       <r>   2.0154  1.0000</r>
       <r>   2.0196  1.0000</r>
       <r>   2.3057  1.0000</r>
       <r>   2.8013  1.0000</r>
       <r>   2.9004  1.0000</r>
       <r>   2.9004  1.0000</r>
       <r>   2.9008  1.0000</r>
       <r>   4.8505  0.0000</r>
       <r>   4.8505  0.0000</r>
       <r>   7.6436  0.0000</r>
       <r>   9.7117  0.0000</r>
       <r>  12.8678  0.0000</r>
      </set>
      <set comment="kpoint 60">
       <r>  -1.9269  1.0000</r>
       <r>  -0.7951  1.0000</r>
       <r>  -0.2369  1.0000</r>
       <r>  -0.0604  1.0000</r>
       <r>   0.6133  1.0000</r>
       <r>   0.6886  1.0000</r>
       <r>   0.7324  1.0000</r>
       <r>   0.9377  1.0000</r>
       <r>   1.0875  1.0000</r>
       <r>   1.1636  1.0000</r>
       <r>   1.2280  1.0000</r>
       <r>   1.3936  1.0000</r>
       <r>   1.6373  1.0000</r>
       <r>   1.8579  1.0000</r>
       <r>   1.9259  1.0000</r>
       <r>   1.9414  1.0000</r>
       <r>   2.4003  1.0000</r>
       <r>   2.7720  1.0000</r>
       <r>   2.8352  1.0000</r>
       <r>   2.8397  1.0000</r>
       <r>   3.0500  1.0000</r>
       <r>   3.9792  1.0000</r>
       <r>   5.4738  0.0000</r>
       <r>   6.9991  0.0000</r>
       <r>   9.9912  0.0000</r>
       <r>  11.7177  0.0000</r>
      </set>
      <set comment="kpoint 61">
       <r>  -1.3309  1.0000</r>
       <r>  -1.3309  1.0000</r>
       <r>  -0.1263  1.0000</r>
       <r>  -0.1263  1.0000</r>
       <r>   0.6929  1.0000</r>
       <r>   0.6929  1.0000</r>
       <r>   0.8632  1.0000</r>
       <r>   0.8632  1.0000</r>
       <r>   1.1548  1.0000</r>
       <r>   1.1548  1.0000</r>
       <r>   1.2637  1.0000</r>
       <r>   1.2637  1.0000</r>
       <r>   1.7259  1.0000</r>
       <r>   1.7259  1.0000</r>
       <r>   1.8977  1.0000</r>
       <r>   1.8977  1.0000</r>
       <r>   2.5841  1.0000</r>
       <r>   2.5841  1.0000</r>
       <r>   2.8113  1.0000</r>
       <r>   2.8113  1.0000</r>
       <r>   3.4049  1.0000</r>
       <r>   3.4049  1.0000</r>
       <r>   6.1988  0.0000</r>
       <r>   6.1988  0.0000</r>
       <r>  10.7420  0.0000</r>
       <r>  10.7420  0.0000</r>
      </set>
      <set comment="kpoint 62">
       <r>  -1.4481  1.0000</r>
       <r>  -0.5664  1.0000</r>
       <r>  -0.5664  1.0000</r>
       <r>  -0.2090  1.0000</r>
       <r>   0.7841  1.0000</r>
       <r>   0.8991  1.0000</r>
       <r>   0.8991  1.0000</r>
       <r>   1.0064  1.0000</r>
       <r>   1.1122  1.0000</r>
       <r>   1.1122  1.0000</r>
       <r>   1.2423  1.0000</r>
       <r>   1.3184  1.0000</r>
       <r>   1.6252  1.0000</r>
       <r>   1.7971  1.0000</r>
       <r>   1.7971  1.0000</r>
       <r>   1.8168  1.0000</r>
       <r>   2.4247  1.0000</r>
       <r>   2.7034  1.0000</r>
       <r>   2.7034  1.0000</r>
       <r>   2.7528  1.0000</r>
       <r>   3.3793  1.0000</r>
       <r>   4.5139  1.0000</r>
       <r>   4.5139  1.0000</r>
       <r>   6.0180  0.0000</r>
       <r>  10.6333  0.0000</r>
       <r>  12.5067  0.0000</r>
      </set>
      <set comment="kpoint 63">
       <r>  -0.9782  1.0000</r>
       <r>  -0.9782  1.0000</r>
       <r>  -0.3733  1.0000</r>
       <r>  -0.3733  1.0000</r>
       <r>   0.9021  1.0000</r>
       <r>   0.9021  1.0000</r>
       <r>   1.0221  1.0000</r>
       <r>   1.0221  1.0000</r>
       <r>   1.1858  1.0000</r>
       <r>   1.1858  1.0000</r>
       <r>   1.1926  1.0000</r>
       <r>   1.1926  1.0000</r>
       <r>   1.6808  1.0000</r>
       <r>   1.6808  1.0000</r>
       <r>   1.7701  1.0000</r>
       <r>   1.7701  1.0000</r>
       <r>   2.5433  1.0000</r>
       <r>   2.5433  1.0000</r>
       <r>   2.6950  1.0000</r>
       <r>   2.6950  1.0000</r>
       <r>   3.8350  1.0000</r>
       <r>   3.8350  1.0000</r>
       <r>   5.1814  0.0000</r>
       <r>   5.1814  0.0000</r>
       <r>  11.4874  0.0000</r>
       <r>  11.4874  0.0000</r>
      </set>
      <set comment="kpoint 64">
       <r>  -0.6544  1.0000</r>
       <r>  -0.6544  1.0000</r>
       <r>  -0.6544  1.0000</r>
       <r>  -0.6544  1.0000</r>
       <r>   1.0668  1.0000</r>
       <r>   1.0668  1.0000</r>
       <r>   1.0668  1.0000</r>
       <r>   1.0668  1.0000</r>
       <r>   1.1589  1.0000</r>
       <r>   1.1589  1.0000</r>
       <r>   1.1589  1.0000</r>
       <r>   1.1589  1.0000</r>
       <r>   1.6865  1.0000</r>
       <r>   1.6865  1.0000</r>
       <r>   1.6865  1.0000</r>
       <r>   1.6865  1.0000</r>
       <r>   2.5857  1.0000</r>
       <r>   2.5857  1.0000</r>
       <r>   2.5857  1.0000</r>
       <r>   2.5857  1.0000</r>
       <r>   4.4030  1.0000</r>
       <r>   4.4030  1.0000</r>
       <r>   4.4030  1.0000</r>
       <r>   4.4030  1.0000</r>
       <r>  12.3892  0.0000</r>
       <r>  12.3892  0.0000</r>
      </set>
      <set comment="kpoint 65">
       <r>  -3.1615  1.0000</r>
       <r>  -0.2655  1.0000</r>
       <r>  -0.2655  1.0000</r>
       <r>  -0.2655  1.0000</r>
       <r>   0.3612  1.0000</r>
       <r>   0.3612  1.0000</r>
       <r>   0.3612  1.0000</r>
       <r>   1.0520  1.0000</r>
       <r>   1.3778  1.0000</r>
       <r>   1.3778  1.0000</r>
       <r>   1.3778  1.0000</r>
       <r>   1.5386  1.0000</r>
       <r>   1.5386  1.0000</r>
       <r>   2.1050  1.0000</r>
       <r>   2.1050  1.0000</r>
       <r>   2.1050  1.0000</r>
       <r>   2.4228  1.0000</r>
       <r>   2.4228  1.0000</r>
       <r>   3.0395  1.0000</r>
       <r>   3.0395  1.0000</r>
       <r>   3.0395  1.0000</r>
       <r>   5.7841  0.0000</r>
       <r>   5.7841  0.0000</r>
       <r>   5.7841  0.0000</r>
       <r>  12.0538  0.0000</r>
       <r>  12.0538  0.0000</r>
      </set>
      <set comment="kpoint 66">
       <r>  -2.6598  1.0000</r>
       <r>  -0.5085  1.0000</r>
       <r>  -0.1905  1.0000</r>
       <r>  -0.1905  1.0000</r>
       <r>   0.5065  1.0000</r>
       <r>   0.5065  1.0000</r>
       <r>   0.5421  1.0000</r>
       <r>   1.0409  1.0000</r>
       <r>   1.2825  1.0000</r>
       <r>   1.2879  1.0000</r>
       <r>   1.2879  1.0000</r>
       <r>   1.5072  1.0000</r>
       <r>   1.5401  1.0000</r>
       <r>   1.9361  1.0000</r>
       <r>   1.9922  1.0000</r>
       <r>   1.9922  1.0000</r>
       <r>   2.4495  1.0000</r>
       <r>   2.5861  1.0000</r>
       <r>   3.0007  1.0000</r>
       <r>   3.0007  1.0000</r>
       <r>   3.0262  1.0000</r>
       <r>   4.6116  1.0000</r>
       <r>   6.2623  0.0000</r>
       <r>   6.2623  0.0000</r>
       <r>  10.8322  0.0000</r>
       <r>  10.8322  0.0000</r>
      </set>
      <set comment="kpoint 67">
       <r>  -2.0751  1.0000</r>
       <r>  -0.9201  1.0000</r>
       <r>  -0.1397  1.0000</r>
       <r>  -0.1397  1.0000</r>
       <r>   0.6125  1.0000</r>
       <r>   0.6125  1.0000</r>
       <r>   0.7325  1.0000</r>
       <r>   0.9904  1.0000</r>
       <r>   1.2545  1.0000</r>
       <r>   1.2545  1.0000</r>
       <r>   1.2626  1.0000</r>
       <r>   1.4280  1.0000</r>
       <r>   1.5821  1.0000</r>
       <r>   1.7856  1.0000</r>
       <r>   1.9127  1.0000</r>
       <r>   1.9127  1.0000</r>
       <r>   2.6352  1.0000</r>
       <r>   2.7396  1.0000</r>
       <r>   2.9492  1.0000</r>
       <r>   2.9492  1.0000</r>
       <r>   2.9686  1.0000</r>
       <r>   3.6918  1.0000</r>
       <r>   6.7265  0.0000</r>
       <r>   6.7265  0.0000</r>
       <r>   9.9197  0.0000</r>
       <r>   9.9197  0.0000</r>
      </set>
      <set comment="kpoint 68">
       <r>  -1.4682  1.0000</r>
       <r>  -1.4682  1.0000</r>
       <r>  -0.1212  1.0000</r>
       <r>  -0.1212  1.0000</r>
       <r>   0.6438  1.0000</r>
       <r>   0.6438  1.0000</r>
       <r>   0.8898  1.0000</r>
       <r>   0.8898  1.0000</r>
       <r>   1.2613  1.0000</r>
       <r>   1.2613  1.0000</r>
       <r>   1.3243  1.0000</r>
       <r>   1.3243  1.0000</r>
       <r>   1.6652  1.0000</r>
       <r>   1.6652  1.0000</r>
       <r>   1.8783  1.0000</r>
       <r>   1.8783  1.0000</r>
       <r>   2.8705  1.0000</r>
       <r>   2.8705  1.0000</r>
       <r>   2.9259  1.0000</r>
       <r>   2.9259  1.0000</r>
       <r>   3.0390  1.0000</r>
       <r>   3.0390  1.0000</r>
       <r>   6.9523  0.0000</r>
       <r>   6.9523  0.0000</r>
       <r>   9.5436  0.0000</r>
       <r>   9.5436  0.0000</r>
      </set>
      <set comment="kpoint 69">
       <r>  -2.2207  1.0000</r>
       <r>  -0.4444  1.0000</r>
       <r>  -0.4444  1.0000</r>
       <r>  -0.2391  1.0000</r>
       <r>   0.6562  1.0000</r>
       <r>   0.7135  1.0000</r>
       <r>   0.7135  1.0000</r>
       <r>   1.1228  1.0000</r>
       <r>   1.2749  1.0000</r>
       <r>   1.2749  1.0000</r>
       <r>   1.3550  1.0000</r>
       <r>   1.4758  1.0000</r>
       <r>   1.5042  1.0000</r>
       <r>   1.8317  1.0000</r>
       <r>   1.8317  1.0000</r>
       <r>   1.8516  1.0000</r>
       <r>   2.4981  1.0000</r>
       <r>   2.7207  1.0000</r>
       <r>   2.9785  1.0000</r>
       <r>   2.9973  1.0000</r>
       <r>   2.9973  1.0000</r>
       <r>   5.0186  0.0000</r>
       <r>   5.0186  0.0000</r>
       <r>   6.4769  0.0000</r>
       <r>   9.8248  0.0000</r>
       <r>  11.4604  0.0000</r>
      </set>
      <set comment="kpoint 70">
       <r>  -1.7270  1.0000</r>
       <r>  -0.7960  1.0000</r>
       <r>  -0.3920  1.0000</r>
       <r>  -0.2929  1.0000</r>
       <r>   0.7771  1.0000</r>
       <r>   0.8236  1.0000</r>
       <r>   0.9360  1.0000</r>
       <r>   1.1722  1.0000</r>
       <r>   1.2807  1.0000</r>
       <r>   1.3336  1.0000</r>
       <r>   1.3992  1.0000</r>
       <r>   1.4118  1.0000</r>
       <r>   1.5193  1.0000</r>
       <r>   1.6918  1.0000</r>
       <r>   1.7621  1.0000</r>
       <r>   1.7641  1.0000</r>
       <r>   2.6111  1.0000</r>
       <r>   2.9311  1.0000</r>
       <r>   2.9375  1.0000</r>
       <r>   2.9381  1.0000</r>
       <r>   2.9400  1.0000</r>
       <r>   4.0162  1.0000</r>
       <r>   5.5106  0.0000</r>
       <r>   6.4281  0.0000</r>
       <r>   9.4112  0.0000</r>
       <r>  10.4244  0.0000</r>
      </set>
      <set comment="kpoint 71">
       <r>  -1.2344  1.0000</r>
       <r>  -1.2344  1.0000</r>
       <r>  -0.3436  1.0000</r>
       <r>  -0.3436  1.0000</r>
       <r>   0.8359  1.0000</r>
       <r>   0.8359  1.0000</r>
       <r>   1.1195  1.0000</r>
       <r>   1.1195  1.0000</r>
       <r>   1.3116  1.0000</r>
       <r>   1.3116  1.0000</r>
       <r>   1.4141  1.0000</r>
       <r>   1.4141  1.0000</r>
       <r>   1.5846  1.0000</r>
       <r>   1.5846  1.0000</r>
       <r>   1.7307  1.0000</r>
       <r>   1.7307  1.0000</r>
       <r>   2.8046  1.0000</r>
       <r>   2.8046  1.0000</r>
       <r>   2.9073  1.0000</r>
       <r>   2.9073  1.0000</r>
       <r>   3.3185  1.0000</r>
       <r>   3.3185  1.0000</r>
       <r>   6.0333  0.0000</r>
       <r>   6.0333  0.0000</r>
       <r>   9.6840  0.0000</r>
       <r>   9.6840  0.0000</r>
      </set>
      <set comment="kpoint 72">
       <r>  -1.3563  1.0000</r>
       <r>  -0.6783  1.0000</r>
       <r>  -0.6783  1.0000</r>
       <r>  -0.4345  1.0000</r>
       <r>   0.9260  1.0000</r>
       <r>   1.0424  1.0000</r>
       <r>   1.0424  1.0000</r>
       <r>   1.3485  1.0000</r>
       <r>   1.3498  1.0000</r>
       <r>   1.3943  1.0000</r>
       <r>   1.3943  1.0000</r>
       <r>   1.4912  1.0000</r>
       <r>   1.5235  1.0000</r>
       <r>   1.6375  1.0000</r>
       <r>   1.6375  1.0000</r>
       <r>   1.6552  1.0000</r>
       <r>   2.6152  1.0000</r>
       <r>   2.8649  1.0000</r>
       <r>   2.8649  1.0000</r>
       <r>   2.8767  1.0000</r>
       <r>   3.2464  1.0000</r>
       <r>   4.4748  1.0000</r>
       <r>   4.4748  1.0000</r>
       <r>   5.7742  0.0000</r>
       <r>   9.6112  0.0000</r>
       <r>  11.1357  0.0000</r>
      </set>
      <set comment="kpoint 73">
       <r>  -1.0005  1.0000</r>
       <r>  -1.0005  1.0000</r>
       <r>  -0.5612  1.0000</r>
       <r>  -0.5612  1.0000</r>
       <r>   1.0209  1.0000</r>
       <r>   1.0209  1.0000</r>
       <r>   1.2291  1.0000</r>
       <r>   1.2291  1.0000</r>
       <r>   1.4170  1.0000</r>
       <r>   1.4170  1.0000</r>
       <r>   1.5249  1.0000</r>
       <r>   1.5249  1.0000</r>
       <r>   1.5411  1.0000</r>
       <r>   1.5411  1.0000</r>
       <r>   1.6159  1.0000</r>
       <r>   1.6159  1.0000</r>
       <r>   2.7317  1.0000</r>
       <r>   2.7317  1.0000</r>
       <r>   2.8367  1.0000</r>
       <r>   2.8367  1.0000</r>
       <r>   3.7182  1.0000</r>
       <r>   3.7182  1.0000</r>
       <r>   5.0685  0.0000</r>
       <r>   5.0685  0.0000</r>
       <r>  10.2410  0.0000</r>
       <r>  10.2410  0.0000</r>
      </set>
      <set comment="kpoint 74">
       <r>  -0.7774  1.0000</r>
       <r>  -0.7774  1.0000</r>
       <r>  -0.7774  1.0000</r>
       <r>  -0.7774  1.0000</r>
       <r>   1.1604  1.0000</r>
       <r>   1.1604  1.0000</r>
       <r>   1.1604  1.0000</r>
       <r>   1.1604  1.0000</r>
       <r>   1.5350  1.0000</r>
       <r>   1.5350  1.0000</r>
       <r>   1.5350  1.0000</r>
       <r>   1.5350  1.0000</r>
       <r>   1.5601  1.0000</r>
       <r>   1.5601  1.0000</r>
       <r>   1.5601  1.0000</r>
       <r>   1.5601  1.0000</r>
       <r>   2.7492  1.0000</r>
       <r>   2.7492  1.0000</r>
       <r>   2.7492  1.0000</r>
       <r>   2.7492  1.0000</r>
       <r>   4.2815  1.0000</r>
       <r>   4.2815  1.0000</r>
       <r>   4.2815  1.0000</r>
       <r>   4.2815  1.0000</r>
       <r>  11.0332  0.0000</r>
       <r>  11.0332  0.0000</r>
      </set>
      <set comment="kpoint 75">
       <r>  -1.8700  1.0000</r>
       <r>  -0.4963  1.0000</r>
       <r>  -0.4963  1.0000</r>
       <r>  -0.4963  1.0000</r>
       <r>   0.8680  1.0000</r>
       <r>   0.8680  1.0000</r>
       <r>   0.8680  1.0000</r>
       <r>   1.3339  1.0000</r>
       <r>   1.4352  1.0000</r>
       <r>   1.4352  1.0000</r>
       <r>   1.4352  1.0000</r>
       <r>   1.4498  1.0000</r>
       <r>   1.4498  1.0000</r>
       <r>   1.6963  1.0000</r>
       <r>   1.6963  1.0000</r>
       <r>   1.6963  1.0000</r>
       <r>   2.6755  1.0000</r>
       <r>   2.6755  1.0000</r>
       <r>   3.0149  1.0000</r>
       <r>   3.0149  1.0000</r>
       <r>   3.0149  1.0000</r>
       <r>   5.2370  0.0000</r>
       <r>   5.2370  0.0000</r>
       <r>   5.2370  0.0000</r>
       <r>  10.3172  0.0000</r>
       <r>  10.3172  0.0000</r>
      </set>
      <set comment="kpoint 76">
       <r>  -1.4931  1.0000</r>
       <r>  -0.7930  1.0000</r>
       <r>  -0.5341  1.0000</r>
       <r>  -0.5341  1.0000</r>
       <r>   0.9661  1.0000</r>
       <r>   0.9661  1.0000</r>
       <r>   1.0860  1.0000</r>
       <r>   1.3880  1.0000</r>
       <r>   1.4428  1.0000</r>
       <r>   1.5101  1.0000</r>
       <r>   1.5175  1.0000</r>
       <r>   1.5703  1.0000</r>
       <r>   1.5860  1.0000</r>
       <r>   1.5860  1.0000</r>
       <r>   1.6282  1.0000</r>
       <r>   1.6282  1.0000</r>
       <r>   2.8117  1.0000</r>
       <r>   2.8252  1.0000</r>
       <r>   2.9798  1.0000</r>
       <r>   2.9798  1.0000</r>
       <r>   3.0012  1.0000</r>
       <r>   4.1476  1.0000</r>
       <r>   5.4461  0.0000</r>
       <r>   5.4461  0.0000</r>
       <r>   9.5346  0.0000</r>
       <r>   9.5346  0.0000</r>
      </set>
      <set comment="kpoint 77">
       <r>  -1.1271  1.0000</r>
       <r>  -1.1271  1.0000</r>
       <r>  -0.5478  1.0000</r>
       <r>  -0.5478  1.0000</r>
       <r>   0.9970  1.0000</r>
       <r>   0.9970  1.0000</r>
       <r>   1.2689  1.0000</r>
       <r>   1.2689  1.0000</r>
       <r>   1.4838  1.0000</r>
       <r>   1.4838  1.0000</r>
       <r>   1.5604  1.0000</r>
       <r>   1.5604  1.0000</r>
       <r>   1.5845  1.0000</r>
       <r>   1.5845  1.0000</r>
       <r>   1.6783  1.0000</r>
       <r>   1.6783  1.0000</r>
       <r>   2.9365  1.0000</r>
       <r>   2.9365  1.0000</r>
       <r>   2.9541  1.0000</r>
       <r>   2.9541  1.0000</r>
       <r>   3.3072  1.0000</r>
       <r>   3.3072  1.0000</r>
       <r>   5.5388  0.0000</r>
       <r>   5.5388  0.0000</r>
       <r>   9.2470  0.0000</r>
       <r>   9.2470  0.0000</r>
      </set>
      <set comment="kpoint 78">
       <r>  -1.2509  1.0000</r>
       <r>  -0.7738  1.0000</r>
       <r>  -0.7738  1.0000</r>
       <r>  -0.6479  1.0000</r>
       <r>   1.0788  1.0000</r>
       <r>   1.1436  1.0000</r>
       <r>   1.1436  1.0000</r>
       <r>   1.3654  1.0000</r>
       <r>   1.3989  1.0000</r>
       <r>   1.4960  1.0000</r>
       <r>   1.4960  1.0000</r>
       <r>   1.5166  1.0000</r>
       <r>   1.7870  1.0000</r>
       <r>   1.7870  1.0000</r>
       <r>   1.8286  1.0000</r>
       <r>   1.8564  1.0000</r>
       <r>   2.7789  1.0000</r>
       <r>   2.9627  1.0000</r>
       <r>   2.9706  1.0000</r>
       <r>   2.9706  1.0000</r>
       <r>   3.0638  1.0000</r>
       <r>   4.4121  1.0000</r>
       <r>   4.4121  1.0000</r>
       <r>   5.1889  0.0000</r>
       <r>   9.1957  0.0000</r>
       <r>  10.0542  0.0000</r>
      </set>
      <set comment="kpoint 79">
       <r>  -1.0114  1.0000</r>
       <r>  -1.0114  1.0000</r>
       <r>  -0.7276  1.0000</r>
       <r>  -0.7276  1.0000</r>
       <r>   1.1402  1.0000</r>
       <r>   1.1402  1.0000</r>
       <r>   1.2805  1.0000</r>
       <r>   1.2805  1.0000</r>
       <r>   1.4228  1.0000</r>
       <r>   1.4228  1.0000</r>
       <r>   1.4758  1.0000</r>
       <r>   1.4758  1.0000</r>
       <r>   1.9225  1.0000</r>
       <r>   1.9225  1.0000</r>
       <r>   1.9250  1.0000</r>
       <r>   1.9250  1.0000</r>
       <r>   2.8901  1.0000</r>
       <r>   2.8901  1.0000</r>
       <r>   2.9381  1.0000</r>
       <r>   2.9381  1.0000</r>
       <r>   3.5591  1.0000</r>
       <r>   3.5591  1.0000</r>
       <r>   4.7913  0.3125</r>
       <r>   4.7913  0.3125</r>
       <r>   9.4109  0.0000</r>
       <r>   9.4109  0.0000</r>
      </set>
      <set comment="kpoint 80">
       <r>  -0.8808  1.0000</r>
       <r>  -0.8808  1.0000</r>
       <r>  -0.8808  1.0000</r>
       <r>  -0.8808  1.0000</r>
       <r>   1.2406  1.0000</r>
       <r>   1.2406  1.0000</r>
       <r>   1.2406  1.0000</r>
       <r>   1.2406  1.0000</r>
       <r>   1.4165  1.0000</r>
       <r>   1.4165  1.0000</r>
       <r>   1.4165  1.0000</r>
       <r>   1.4165  1.0000</r>
       <r>   2.0634  1.0000</r>
       <r>   2.0634  1.0000</r>
       <r>   2.0634  1.0000</r>
       <r>   2.0634  1.0000</r>
       <r>   2.8797  1.0000</r>
       <r>   2.8797  1.0000</r>
       <r>   2.8797  1.0000</r>
       <r>   2.8797  1.0000</r>
       <r>   4.0672  1.0000</r>
       <r>   4.0672  1.0000</r>
       <r>   4.0672  1.0000</r>
       <r>   4.0672  1.0000</r>
       <r>   9.9744  0.0000</r>
       <r>   9.9744  0.0000</r>
      </set>
      <set comment="kpoint 81">
       <r>  -1.1332  1.0000</r>
       <r>  -0.8366  1.0000</r>
       <r>  -0.8366  1.0000</r>
       <r>  -0.8366  1.0000</r>
       <r>   1.2110  1.0000</r>
       <r>   1.2110  1.0000</r>
       <r>   1.2110  1.0000</r>
       <r>   1.3543  1.0000</r>
       <r>   1.3543  1.0000</r>
       <r>   1.4155  1.0000</r>
       <r>   1.4155  1.0000</r>
       <r>   1.4155  1.0000</r>
       <r>   2.1449  1.0000</r>
       <r>   2.1449  1.0000</r>
       <r>   2.1449  1.0000</r>
       <r>   2.4555  1.0000</r>
       <r>   2.9030  1.0000</r>
       <r>   2.9030  1.0000</r>
       <r>   2.9981  1.0000</r>
       <r>   2.9981  1.0000</r>
       <r>   2.9981  1.0000</r>
       <r>   4.3400  1.0000</r>
       <r>   4.3400  1.0000</r>
       <r>   4.3400  1.0000</r>
       <r>   9.3496  0.0000</r>
       <r>   9.3496  0.0000</r>
      </set>
      <set comment="kpoint 82">
       <r>  -0.9974  1.0000</r>
       <r>  -0.9974  1.0000</r>
       <r>  -0.8584  1.0000</r>
       <r>  -0.8584  1.0000</r>
       <r>   1.2366  1.0000</r>
       <r>   1.2366  1.0000</r>
       <r>   1.3044  1.0000</r>
       <r>   1.3044  1.0000</r>
       <r>   1.3600  1.0000</r>
       <r>   1.3600  1.0000</r>
       <r>   1.3851  1.0000</r>
       <r>   1.3851  1.0000</r>
       <r>   2.3143  1.0000</r>
       <r>   2.3143  1.0000</r>
       <r>   2.4423  1.0000</r>
       <r>   2.4423  1.0000</r>
       <r>   2.9779  1.0000</r>
       <r>   2.9779  1.0000</r>
       <r>   2.9818  1.0000</r>
       <r>   2.9818  1.0000</r>
       <r>   3.4523  1.0000</r>
       <r>   3.4523  1.0000</r>
       <r>   4.3048  1.0000</r>
       <r>   4.3048  1.0000</r>
       <r>   9.1031  0.0000</r>
       <r>   9.1031  0.0000</r>
      </set>
      <set comment="kpoint 83">
       <r>  -0.9482  1.0000</r>
       <r>  -0.9482  1.0000</r>
       <r>  -0.9482  1.0000</r>
       <r>  -0.9482  1.0000</r>
       <r>   1.2963  1.0000</r>
       <r>   1.2963  1.0000</r>
       <r>   1.2963  1.0000</r>
       <r>   1.2963  1.0000</r>
       <r>   1.3417  1.0000</r>
       <r>   1.3417  1.0000</r>
       <r>   1.3417  1.0000</r>
       <r>   1.3417  1.0000</r>
       <r>   2.6086  1.0000</r>
       <r>   2.6086  1.0000</r>
       <r>   2.6086  1.0000</r>
       <r>   2.6086  1.0000</r>
       <r>   2.9633  1.0000</r>
       <r>   2.9633  1.0000</r>
       <r>   2.9633  1.0000</r>
       <r>   2.9633  1.0000</r>
       <r>   3.7373  1.0000</r>
       <r>   3.7373  1.0000</r>
       <r>   3.7373  1.0000</r>
       <r>   3.7373  1.0000</r>
       <r>   9.2952  0.0000</r>
       <r>   9.2952  0.0000</r>
      </set>
      <set comment="kpoint 84">
       <r>  -0.9715  1.0000</r>
       <r>  -0.9715  1.0000</r>
       <r>  -0.9715  1.0000</r>
       <r>  -0.9715  1.0000</r>
       <r>   1.3162  1.0000</r>
       <r>   1.3162  1.0000</r>
       <r>   1.3162  1.0000</r>
       <r>   1.3162  1.0000</r>
       <r>   1.3162  1.0000</r>
       <r>   1.3162  1.0000</r>
       <r>   1.3162  1.0000</r>
       <r>   1.3162  1.0000</r>
       <r>   2.9920  1.0000</r>
       <r>   2.9920  1.0000</r>
       <r>   2.9920  1.0000</r>
       <r>   2.9920  1.0000</r>
       <r>   2.9920  1.0000</r>
       <r>   2.9920  1.0000</r>
       <r>   2.9920  1.0000</r>
       <r>   2.9920  1.0000</r>
       <r>   3.4332  1.0000</r>
       <r>   3.4332  1.0000</r>
       <r>   3.4332  1.0000</r>
       <r>   3.4332  1.0000</r>
       <r>   9.0608  0.0000</r>
       <r>   9.0608  0.0000</r>
      </set>
     </set>
    </set>
   </array>
  </eigenvalues>
 </calculation>
 <structure name="finalpos" >
  <crystal>
   <varray name="basis" >
    <v>       3.49095918      0.00000000      0.00000000</v>
    <v>       0.00000000      3.49095918      0.00000000</v>
    <v>       0.00000000      0.00000000      3.49095918</v>
   </varray>
   <i name="volume">     42.54360733</i>
   <varray name="rec_basis" >
    <v>       0.28645422      0.00000000      0.00000000</v>
    <v>       0.00000000      0.28645422      0.00000000</v>
    <v>       0.00000000      0.00000000      0.28645422</v>
   </varray>
  </crystal>
  <varray name="positions" >
   <v>       0.00000000      0.00000000      0.00000000</v>
   <v>       0.50000000      0.50000000      0.00000000</v>
   <v>       0.50000000      0.00000000      0.50000000</v>
   <v>       0.00000000      0.50000000      0.50000000</v>
  </varray>
 </structure>
</modeling>
