 vasp.4.6.28 25Jul05 complex 
 executed on             LinuxIFC date 2016.05.23  15:31:37
 running on    4 nodes
 distr:  one band on    1 nodes,    4 groups


--------------------------------------------------------------------------------------------------------


 INCAR:
 POTCAR:   PAW_PBE Cu 05Jan2001                   
 POTCAR:   PAW_PBE Cu 05Jan2001                   
   VRHFIN =Cu: d10 p1                                                           
   LEXCH  = PE                                                                  
   EATOM  =  1390.9800 eV,  102.2341 Ry                                         
                                                                                
   TITEL  = PAW_PBE Cu 05Jan2001                                                
   LULTRA =        F    use ultrasoft PP ?                                      
   IUNSCR =        1    unscreen: 0-lin 1-nonlin 2-no                           
   RPACOR =    2.000    partial core radius                                     
   POMASS =   63.546; ZVAL   =   11.000    mass and valenz                      
   RCORE  =    2.300    outmost cutoff radius                                   
   RWIGS  =    2.480; RWIGS  =    1.312    wigner-seitz radius (au A)           
   ENMAX  =  273.214; ENMIN  =  204.910 eV                                      
   RCLOC  =    1.712    cutoff for local pot                                    
   LCOR   =        T    correct aug charges                                     
   LPAW   =        T    paw PP                                                  
   EAUG   =  516.456                                                            
   DEXC   =    -.008                                                            
   RMAX   =    2.789    core radius for proj-oper                               
   RAUG   =    1.300    factor for augmentation sphere                          
   RDEP   =    2.302    radius for radial grids                                 
   QCUT   =   -4.481; QGAM   =    8.962    optimization parameters              
                                                                                
   Description                                                                  
     l     E      TYP  RCUT    TYP  RCUT                                        
     2   .000     23  2.300                                                     
     2   .000     23  2.300                                                     
     0   .000     23  2.300                                                     
     0   .000     23  2.300                                                     
     1  -.200     23  2.300                                                     
     1   .000     23  2.300                                                     
     3   .000      7   .000                                                     
  local pseudopotential read in
  partial core-charges read in
  atomic valenz-charges read in
  non local Contribution for L=           2  read in
    real space projection operators read in
  non local Contribution for L=           2  read in
    real space projection operators read in
  non local Contribution for L=           0  read in
    real space projection operators read in
  non local Contribution for L=           0  read in
    real space projection operators read in
  non local Contribution for L=           1  read in
    real space projection operators read in
  non local Contribution for L=           1  read in
    real space projection operators read in
    PAW grid and wavefunctions read in
 
   number of l-projection  operators is LMAX  =           6
   number of lm-projection operators is LMMAX =          18
 

 ----------------------------------------------------------------------------- 
|                                                                             |
|  ADVICE TO THIS USER RUNNING 'VASP/VAMP'   (HEAR YOUR MASTER'S VOICE ...):  |
|                                                                             |
|      You have a (more or less) 'large supercell' and for larger cells       |
|      it might be more efficient to use real space projection operators      |
|      So try LREAL= Auto  in the INCAR   file.                               |
|      Mind: If you want to do an extremely accurate calculations keep the    |
|      reciprocal projection scheme          (i.e. LREAL=.FALSE.)             |
|                                                                             |
 ----------------------------------------------------------------------------- 

 PAW_PBE Cu 05Jan2001                   :
 energy of atom  1       EATOM=-1390.9800
 kinetic energy error for atom=    0.0395 (will be added to EATOM!!)
 
 EXHCAR: internal setup
 exchange correlation table for  LEXCH =        8
   RHO(1)=    0.500       N(1)  =     2000
   RHO(2)=  100.500       N(2)  =     4000
 
 POSCAR: No title                                
  positions in direct lattice
  No initial velocities read in
 


--------------------------------------------------------------------------------------------------------


 ion  position               nearest neighbor table
   1  0.667  0.667  0.333-   5 2.55   8 2.55   9 2.55  43 2.55  60 2.55  59 2.55   3 2.55   2 2.55
                            38 2.55  19 2.55  34 2.55 101 2.55
   2  0.667  0.833  0.500-   3 2.55  14 2.55   9 2.55  10 2.55  34 2.55  39 2.55   1 2.55   6 2.55
                            61 2.55  97 2.55  60 2.55  35 2.55
   3  0.833  0.667  0.500-   2 2.55   9 2.55  14 2.55  12 2.55  19 2.55   1 2.55  39 2.55  49 2.55
                            87 2.55  11 2.55  44 2.55  43 2.55
   4  0.667  0.667  0.000-  21 2.55  15 2.55  66 2.55  83 2.55  20 2.55   8 2.55   5 2.55  38 2.55
                            59 2.55 107 2.55  82 2.55  63 2.55
   5  0.667  0.833  0.167-   1 2.55   8 2.55   9 2.55  21 2.55  60 2.55  59 2.55  22 2.55   4 2.55
                             6 2.55  16 2.55  84 2.55  83 2.55
   6  0.667  0.000  0.333-  22 2.55  17 2.55   9 2.55  23 2.55  10 2.55  84 2.55   5 2.55   2 2.55
                            85 2.55  61 2.55  60 2.55   7 2.55
   7  0.667  0.167  0.500-  24 2.55  18 2.55  10 2.55  86 2.55  23 2.55  64 2.55  62 2.55  35 2.55
                           105 2.55  61 2.55  85 2.55   6 2.55
   8  0.833  0.667  0.167-   5 2.55   1 2.55   9 2.55  21 2.55  43 2.55  38 2.55  26 2.55   4 2.55
                            11 2.55  70 2.55  25 2.55  66 2.55
   9  0.833  0.833  0.333-   1 2.55   5 2.55   8 2.55   6 2.55   3 2.55  11 2.55  22 2.55   2 2.55
                            26 2.55  27 2.55  12 2.55  10 2.55
  10  0.833  0.000  0.500-   7 2.55  35 2.55   2 2.55   6 2.55  23 2.55  12 2.55  39 2.55  27 2.55
                            28 2.55  67 2.55  64 2.55   9 2.55
  11  0.000  0.667  0.333-  26 2.55   9 2.55  29 2.55  30 2.55   8 2.55  12 2.55  70 2.55  49 2.55
                            75 2.55   3 2.55  43 2.55  13 2.55
  12  0.000  0.833  0.500-  13 2.55  44 2.55   3 2.55  11 2.55  27 2.55  10 2.55  39 2.55  30 2.55
                            31 2.55   9 2.55  71 2.55  67 2.55
  13  0.167  0.667  0.500-  33 2.55  30 2.55  12 2.55  81 2.55  32 2.55  76 2.55  71 2.55 102 2.55
                            44 2.55  49 2.55  11 2.55  75 2.55
  14  0.667  0.667  0.667-  39 2.55  20 2.55  15 2.55   2 2.55  63 2.55  87 2.55  97 2.55   3 2.55
                            82 2.55 108 2.55  34 2.55  19 2.55
  15  0.667  0.833  0.833-  20 2.55  39 2.55  14 2.55  35 2.55   4 2.55  40 2.55  82 2.55  21 2.55
                            97 2.55  98 2.55  83 2.55  16 2.55
  16  0.667  0.000  0.000-  21 2.55  40 2.55  41 2.55  22 2.55   5 2.55  36 2.55  99 2.55  84 2.55
                            83 2.55  98 2.55  17 2.55  15 2.55
  17  0.667  0.167  0.167-  42 2.55  23 2.55  18 2.55   6 2.55  37 2.55  22 2.55 100 2.55  85 2.55
                            41 2.55  84 2.55  99 2.55  16 2.55
  18  0.667  0.333  0.333-  23 2.55  42 2.55  17 2.55  38 2.55   7 2.55  43 2.55  85 2.55  24 2.55
                           100 2.55 101 2.55  86 2.55  19 2.55
  19  0.667  0.500  0.500-  24 2.55  43 2.55   3 2.55  87 2.55   1 2.55  62 2.55  34 2.55 108 2.55
                            86 2.55 101 2.55  14 2.55  18 2.55
  20  0.833  0.667  0.833-  15 2.55  39 2.55  14 2.55   4 2.55  44 2.55  45 2.55  63 2.55  21 2.55
                            87 2.55  66 2.55  89 2.55  25 2.55
  21  0.833  0.833  0.000-   4 2.55   8 2.55  16 2.55  25 2.55   5 2.55  15 2.55  20 2.55  40 2.55
                            45 2.55  26 2.55  22 2.55  46 2.56
  22  0.833  0.000  0.167-   6 2.55   9 2.55  17 2.55   5 2.55  16 2.55  27 2.55  23 2.55  26 2.55
                            41 2.55  47 2.55  21 2.55  46 2.56
  23  0.833  0.167  0.333-  18 2.55  42 2.55  17 2.55   7 2.55  47 2.55   6 2.55  48 2.55  24 2.55
                            22 2.55  27 2.55  10 2.55  28 2.55
  24  0.833  0.333  0.500-   7 2.55  19 2.55  28 2.55  64 2.55  62 2.55  18 2.55  23 2.55  43 2.55
                            48 2.55  49 2.55  88 2.55  87 2.55
  25  0.000  0.667  0.000-  21 2.55  45 2.55  51 2.55  26 2.55  70 2.55  92 2.55  50 2.55   8 2.55
                            66 2.55  20 2.55  29 2.55  89 2.55
  26  0.000  0.833  0.167-  11 2.55  29 2.55   9 2.55   8 2.55  30 2.55  25 2.55  27 2.55  22 2.55
                            51 2.55  52 2.55  21 2.55  46 2.55
  27  0.000  0.000  0.333-  47 2.55  52 2.55  22 2.55  26 2.55  30 2.55  23 2.55  12 2.55  10 2.55
                             9 2.55  53 2.55  31 2.55  28 2.55
  28  0.000  0.167  0.500-  24 2.55  48 2.55  54 2.55  88 2.55  67 2.55  31 2.55  53 2.55  64 2.55
                            10 2.55  23 2.55  90 2.55  27 2.55
  29  0.167  0.667  0.167-  56 2.55  32 2.55  30 2.55  51 2.55  26 2.55  75 2.55  96 2.55  55 2.55
                            11 2.55  70 2.55  25 2.55  92 2.55
  30  0.167  0.833  0.333-  32 2.55  56 2.55  29 2.55  52 2.55  13 2.55  11 2.55  57 2.55  33 2.55
                            26 2.55  27 2.55  12 2.55  31 2.55
  31  0.167  0.000  0.500-  33 2.55  57 2.55  58 2.55  93 2.55  53 2.55  71 2.55  28 2.55  67 2.55
                            12 2.55  27 2.55  90 2.55  30 2.55
  32  0.333  0.667  0.333-  30 2.55  56 2.55  29 2.55  13 2.55  59 2.55  60 2.55  75 2.55  33 2.55
                            96 2.55  81 2.55 101 2.55  34 2.55
  33  0.333  0.833  0.500-  13 2.55  31 2.55  34 2.55  76 2.55  71 2.55  30 2.55  32 2.55  57 2.55
                            60 2.55  61 2.55  97 2.55  93 2.55
  34  0.500  0.667  0.500-  33 2.55  60 2.55   2 2.55  97 2.55  19 2.55 108 2.55   1 2.55  76 2.55
                            81 2.55  14 2.55  32 2.55 101 2.55
  35  0.667  0.000  0.667-  40 2.55  39 2.55  15 2.55  10 2.55  98 2.55  64 2.55  36 2.55   7 2.55
                           105 2.55  97 2.55  61 2.55   2 2.55
  36  0.667  0.167  0.833-  62 2.55  64 2.55  65 2.55  40 2.55 106 2.55 105 2.55  41 2.55  37 2.55
                            35 2.55  16 2.55  99 2.55  98 2.55
  37  0.667  0.333  0.000-  41 2.55  17 2.55  65 2.55  66 2.55  99 2.55  42 2.55  36 2.55  63 2.55
                           107 2.55 100 2.55 106 2.55  38 2.55
  38  0.667  0.500  0.167-  43 2.55  42 2.55  18 2.55  66 2.55 101 2.55   8 2.55   1 2.55   4 2.55
                            59 2.55 100 2.55 107 2.55  37 2.55
  39  0.833  0.833  0.667-  20 2.55  15 2.55  14 2.55  35 2.55  44 2.55   2 2.55  45 2.55   3 2.55
                            40 2.55  10 2.55  12 2.55  67 2.55
  40  0.833  0.000  0.833-  35 2.55  36 2.55  64 2.55  16 2.55  67 2.55  15 2.55  39 2.55  21 2.55
                            45 2.55  68 2.55  41 2.55  46 2.56
  41  0.833  0.167  0.000-  37 2.55  65 2.55  17 2.55  16 2.55  69 2.55  36 2.55  42 2.55  22 2.55
                            68 2.55  47 2.55  40 2.55  46 2.56
  42  0.833  0.333  0.167-  23 2.55  18 2.55  17 2.55  38 2.55  47 2.55  37 2.55  48 2.55  41 2.55
                            43 2.55  66 2.55  69 2.55  70 2.55
  43  0.833  0.500  0.333-  38 2.55   8 2.55   1 2.55  19 2.55  70 2.55  18 2.55  42 2.55  48 2.55
                            24 2.55  11 2.55  49 2.55   3 2.55
  44  0.000  0.667  0.667-  45 2.55  39 2.55  12 2.55  89 2.55  20 2.55  71 2.55  50 2.55 102 2.55
                            13 2.55  87 2.55   3 2.55  49 2.55
  45  0.000  0.833  0.833-  44 2.55  25 2.55  50 2.55  67 2.55  71 2.55  20 2.55  39 2.55  40 2.55
                            21 2.55  72 2.55  51 2.55  46 2.55
  46  0.002  0.000  0.000-  51 2.53  72 2.53  52 2.53  73 2.53  26 2.55  68 2.55  47 2.55  45 2.55
                            41 2.56  22 2.56  21 2.56  40 2.56
  47  0.000  0.167  0.167-  48 2.55  42 2.55  27 2.55  69 2.55  23 2.55  74 2.55  53 2.55  52 2.55
                            73 2.55  22 2.55  41 2.55  46 2.55
  48  0.000  0.333  0.333-  47 2.55  28 2.55  53 2.55  70 2.55  74 2.55  23 2.55  42 2.55  43 2.55
                            24 2.55  75 2.55  54 2.55  49 2.55
  49  0.000  0.500  0.500-   3 2.55  11 2.55  54 2.55  88 2.55  87 2.55  75 2.55  13 2.55  24 2.55
                            43 2.55 102 2.55  48 2.55  44 2.55
  50  0.167  0.667  0.833-  71 2.55  76 2.55  77 2.55  45 2.55 104 2.55  44 2.55  55 2.55  51 2.55
                           102 2.55  92 2.55  25 2.55  89 2.55
  51  0.167  0.833  0.000-  46 2.53  55 2.55  29 2.55  77 2.55  25 2.55  78 2.55  56 2.55  50 2.55
                            72 2.55  26 2.55  45 2.55  52 2.55
  52  0.167  0.000  0.167-  46 2.53  57 2.55  56 2.55  30 2.55  27 2.55  78 2.55  79 2.55  53 2.55
                            47 2.55  73 2.55  26 2.55  51 2.55
  53  0.167  0.167  0.333-  74 2.55  79 2.55  80 2.55  57 2.55  48 2.55  58 2.55  47 2.55  54 2.55
                            52 2.55  31 2.55  28 2.55  27 2.55
  54  0.167  0.333  0.500-  58 2.55  90 2.55  80 2.55  81 2.55  28 2.55 103 2.55  53 2.55  49 2.55
                            75 2.55  88 2.55  48 2.55 102 2.55
  55  0.333  0.667  0.000-  51 2.55  77 2.55  29 2.55  83 2.55  92 2.55  50 2.55  56 2.55  96 2.55
                           107 2.55  82 2.55  59 2.55 104 2.55
  56  0.333  0.833  0.167-  32 2.55  30 2.55  29 2.55  52 2.55  59 2.55  51 2.55  60 2.55  55 2.55
                            57 2.55  78 2.55  83 2.55  84 2.55
  57  0.333  0.000  0.333-  52 2.55  53 2.55  79 2.55  31 2.55  84 2.55  30 2.55  56 2.55  33 2.55
                            60 2.55  85 2.55  61 2.55  58 2.55
  58  0.333  0.167  0.500-  54 2.55  80 2.55  90 2.55  86 2.55  31 2.55  53 2.55 103 2.55  93 2.55
                            61 2.55  85 2.55 105 2.55  57 2.55
  59  0.500  0.667  0.167-  60 2.55  56 2.55  83 2.55 101 2.55  32 2.55   5 2.55   1 2.55  38 2.55
                             4 2.55  96 2.55  55 2.55 107 2.55
  60  0.500  0.833  0.333-  59 2.55  34 2.55   1 2.55  84 2.55   5 2.55  32 2.55  56 2.55  57 2.55
                            33 2.55   6 2.55   2 2.55  61 2.55
  61  0.500  0.000  0.500-   2 2.55  58 2.55  85 2.55  97 2.55  93 2.55   6 2.55   7 2.55  33 2.55
                            35 2.55  57 2.55  60 2.55 105 2.55
  62  0.667  0.333  0.667-  36 2.55  64 2.55  65 2.55  24 2.55 106 2.55 105 2.55  87 2.55   7 2.55
                            63 2.55  19 2.55 108 2.55  86 2.55
  63  0.667  0.500  0.833-  87 2.55  65 2.55  14 2.55  20 2.55  66 2.55 108 2.55  62 2.55  37 2.55
                            82 2.55 107 2.55 106 2.55   4 2.55
  64  0.833  0.167  0.667-  62 2.55  36 2.55  65 2.55  24 2.55  40 2.55  35 2.55  88 2.55  68 2.55
                             7 2.55  67 2.55  28 2.55  10 2.55
  65  0.833  0.333  0.833-  36 2.55  62 2.55  64 2.55  63 2.55  41 2.55  68 2.55  87 2.55  37 2.55
                            88 2.55  89 2.55  69 2.55  66 2.55
  66  0.833  0.500  0.000-   4 2.55  38 2.55  37 2.55  63 2.55  42 2.55  20 2.55  69 2.55  89 2.55
                            25 2.55  70 2.55  65 2.55   8 2.55
  67  0.000  0.000  0.667-  45 2.55  40 2.55  72 2.55  68 2.55  28 2.55  71 2.55  64 2.55  31 2.55
                            39 2.55  90 2.55  10 2.55  12 2.55
  68  0.000  0.167  0.833-  88 2.55  65 2.55  90 2.55  91 2.55  64 2.55  69 2.55  67 2.55  72 2.55
                            41 2.55  40 2.55  73 2.55  46 2.55
  69  0.000  0.333  0.000-  47 2.55  73 2.55  41 2.55  68 2.55  66 2.55  89 2.55  42 2.55  91 2.55
                            92 2.55  74 2.55  65 2.55  70 2.55
  70  0.000  0.500  0.167-  48 2.55  43 2.55  75 2.55  11 2.55  25 2.55  74 2.55   8 2.55  92 2.55
                            42 2.55  29 2.55  66 2.55  69 2.55
  71  0.167  0.833  0.667-  50 2.55  76 2.55  77 2.55  45 2.55  33 2.55  44 2.55  93 2.55  13 2.55
                            72 2.55  31 2.55  67 2.55  12 2.55
  72  0.167  0.000  0.833-  46 2.53  93 2.55  90 2.55  77 2.55  94 2.55  78 2.55  67 2.55  71 2.55
                            51 2.55  68 2.55  45 2.55  73 2.55
  73  0.167  0.167  0.000-  46 2.53  95 2.55  78 2.55  91 2.55  69 2.55  94 2.55  79 2.55  74 2.55
                            52 2.55  47 2.55  68 2.55  72 2.55
  74  0.167  0.333  0.167-  53 2.55  79 2.55  80 2.55  48 2.55  95 2.55  47 2.55  96 2.55  73 2.55
                            75 2.55  70 2.55  92 2.55  69 2.55
  75  0.167  0.500  0.333-  96 2.55  80 2.55  29 2.55  32 2.55  81 2.55  70 2.55  74 2.55  54 2.55
                            11 2.55  49 2.55  48 2.55  13 2.55
  76  0.333  0.667  0.667-  71 2.55  50 2.55  77 2.55  33 2.55 104 2.55 102 2.55  97 2.55  82 2.55
                            13 2.55 108 2.55  34 2.55  81 2.55
  77  0.333  0.833  0.833-  50 2.55  71 2.55  76 2.55  72 2.55  55 2.55  82 2.55  93 2.55  51 2.55
                            97 2.55  98 2.55  83 2.55  78 2.55
  78  0.333  0.000  0.000-  73 2.55  52 2.55  51 2.55  72 2.55  56 2.55  83 2.55  94 2.55  98 2.55
                            99 2.55  84 2.55  79 2.55  77 2.55
  79  0.333  0.167  0.167-  74 2.55  53 2.55  80 2.55  57 2.55  95 2.55  52 2.55 100 2.55  73 2.55
                            85 2.55  84 2.55  99 2.55  78 2.55
  80  0.333  0.333  0.333-  53 2.55  74 2.55  79 2.55  75 2.55  58 2.55  85 2.55  96 2.55  54 2.55
                           100 2.55 101 2.55  86 2.55  81 2.55
  81  0.333  0.500  0.500-  13 2.55 102 2.55  54 2.55  75 2.55  86 2.55  32 2.55 103 2.55 101 2.55
                            34 2.55 108 2.55  80 2.55  76 2.55
  82  0.500  0.667  0.833-  97 2.55  77 2.55  14 2.55  15 2.55  76 2.55  83 2.55 108 2.55 107 2.55
                            63 2.55  55 2.55 104 2.55   4 2.55
  83  0.500  0.833  0.000-   4 2.55  59 2.55  55 2.55  82 2.55  78 2.55  98 2.55  15 2.55  56 2.55
                            16 2.55  77 2.55   5 2.55  84 2.55
  84  0.500  0.000  0.167-  60 2.55  57 2.55   6 2.55  85 2.55  79 2.55   5 2.55  99 2.55  16 2.55
                            56 2.55  17 2.55  78 2.55  83 2.55
  85  0.500  0.167  0.333- 100 2.55  80 2.55  17 2.55  18 2.55  79 2.55  86 2.55  84 2.55  61 2.55
                             6 2.55  58 2.55  57 2.55   7 2.55
  86  0.500  0.333  0.500-   7 2.55 105 2.55  58 2.55  85 2.55 101 2.55  81 2.55 103 2.55  18 2.55
                            19 2.55  80 2.55  62 2.55 108 2.55
  87  0.833  0.500  0.667-  63 2.55  14 2.55  65 2.55  62 2.55  19 2.55  89 2.55  20 2.55  88 2.55
                             3 2.55  49 2.55  44 2.55  24 2.55
  88  0.000  0.333  0.667-  68 2.55  90 2.55  65 2.55  64 2.55  91 2.55  28 2.55  89 2.55  87 2.55
                            49 2.55  54 2.55 102 2.55  24 2.55
  89  0.000  0.500  0.833-  44 2.55 102 2.55  87 2.55  88 2.55  69 2.55  91 2.55  20 2.55  66 2.55
                            50 2.55  65 2.55  92 2.55  25 2.55
  90  0.167  0.167  0.667- 103 2.55  94 2.55  91 2.55  54 2.55  93 2.55  72 2.55  88 2.55  58 2.55
                            68 2.55  67 2.55  28 2.55  31 2.55
  91  0.167  0.333  0.833-  94 2.55 103 2.55  90 2.55 102 2.55  73 2.55  68 2.55 104 2.55  95 2.55
                            88 2.55  89 2.55  69 2.55  92 2.55
  92  0.167  0.500  0.000-  95 2.55 104 2.55  55 2.55  96 2.55  50 2.55  25 2.55  74 2.55  70 2.55
                            69 2.55  89 2.55  91 2.55  29 2.55
  93  0.333  0.000  0.667-  72 2.55  77 2.55  90 2.55  71 2.55  31 2.55  98 2.55  94 2.55  97 2.55
                            58 2.55  61 2.55 105 2.55  33 2.55
  94  0.333  0.167  0.833-  91 2.55 103 2.55  90 2.55  73 2.55 105 2.55  72 2.55 106 2.55  95 2.55
                            93 2.55  98 2.55  78 2.55  99 2.55
  95  0.333  0.333  0.000-  73 2.55  79 2.55  92 2.55  99 2.55  74 2.55  91 2.55  94 2.55 104 2.55
                           106 2.55 107 2.55 100 2.55  96 2.55
  96  0.333  0.500  0.167-  75 2.55  29 2.55  80 2.55  74 2.55  92 2.55 101 2.55  32 2.55 100 2.55
                            55 2.55 107 2.55  59 2.55  95 2.55
  97  0.500  0.833  0.667-  82 2.55  14 2.55  77 2.55  76 2.55  15 2.55  34 2.55  98 2.55  93 2.55
                            61 2.55   2 2.55  35 2.55  33 2.55
  98  0.500  0.000  0.833- 105 2.55  35 2.55  93 2.55  97 2.55  94 2.55  83 2.55  15 2.55  78 2.55
                            36 2.55  77 2.55  16 2.55  99 2.55
  99  0.500  0.167  0.000-  95 2.55 106 2.55  37 2.55 100 2.55  84 2.55  16 2.55  36 2.55  79 2.55
                            78 2.55  94 2.55  17 2.55  98 2.55
 100  0.500  0.333  0.167-  85 2.55  17 2.55  80 2.55  79 2.55  18 2.55  99 2.55 101 2.55  96 2.55
                           107 2.55  37 2.55  38 2.55  95 2.55
 101  0.500  0.500  0.333-  59 2.55  38 2.55  96 2.55 100 2.55  86 2.55  18 2.55  32 2.55  81 2.55
                             1 2.55  80 2.55  19 2.55  34 2.55
 102  0.167  0.500  0.667- 104 2.55 103 2.55  91 2.55  89 2.55  81 2.55  76 2.55  50 2.55  44 2.55
                            13 2.55  88 2.55  49 2.55  54 2.55
 103  0.333  0.333  0.667-  94 2.55  91 2.55  90 2.55 102 2.55 105 2.55  54 2.55 106 2.55  58 2.55
                           104 2.55  81 2.55  86 2.55 108 2.55
 104  0.333  0.500  0.833- 102 2.55  76 2.55  50 2.55  92 2.55 108 2.55  91 2.55 103 2.55 106 2.55
                            95 2.55  82 2.55 107 2.55  55 2.55
 105  0.500  0.167  0.667- 106 2.55  98 2.55 103 2.55  86 2.55  94 2.55  62 2.55  36 2.55  35 2.55
                             7 2.55  93 2.55  58 2.55  61 2.55
 106  0.500  0.333  0.833- 105 2.55  99 2.55  36 2.55 108 2.55  62 2.55  94 2.55 103 2.55 104 2.55
                            95 2.55  63 2.55  37 2.55 107 2.55
 107  0.500  0.500  0.000-  37 2.55  55 2.55  82 2.55 100 2.55  96 2.55  63 2.55   4 2.55  95 2.55
                            38 2.55 104 2.55  59 2.55 106 2.55
 108  0.500  0.500  0.667- 106 2.55 104 2.55  63 2.55  82 2.55  62 2.55  34 2.55  76 2.55  19 2.55
                            14 2.55 103 2.55  81 2.55  86 2.55
 
  LATTYP: Found a simple cubic cell.
 ALAT       =    10.7999999700
  
  Lattice vectors:
  
 A1 = (  10.7999999700,   0.0000000000,   0.0000000000)
 A2 = (   0.0000002000,  10.7999999700,   0.0000000000)
 A3 = (   0.0000002000,   0.0000002000,  10.7999999700)
 Subroutine PRICEL returns:
 Original cell was already a primitive cell.
 

Analysis of symmetry for initial positions (statically):

 Routine SETGRP: Setting up the symmetry group for a 
 simple cubic supercell.


 Subroutine GETGRP returns: Found  8 space group operations
 (whereof  8 operations were pure point group operations)
 out of a pool of 48 trial point group operations.


The static configuration has the point symmetry C_4v.

Analysis of symmetry for dynamics (positions and initial velocities):

 Subroutine DYNSYM returns: Found  8 space group operations
 (whereof  8 operations were pure point group operations)
 out of a pool of  8 trial space group operations
 (whereof  8 operations were pure point group operations)
 and found also     1 'primitive' translations


The dynamic configuration has the point symmetry C_4v.
 
 
 KPOINTS: Automatic mesh                          

Automatic generation of k-mesh.
 
 Subroutine IBZKPT returns following result:
 ===========================================
 
 Found      1 irreducible k-points:
 
 Following reciprocal coordinates:
            Coordinates               Weight
  0.250000  0.250000  0.250000      8.000000
 
 Following cartesian coordinates:
            Coordinates               Weight
  0.023148  0.023148  0.023148      8.000000
 


--------------------------------------------------------------------------------------------------------




 Dimension of arrays:
   k-Points           NKPTS =      1   number of bands    NBANDS=    712
   number of dos      NEDOS =    301   number of ions     NIONS =    108
   non local maximal  LDIM  =      6   non local SUM 2l+1 LMDIM =     18
   total plane-waves  NPLWV = 110592
   max r-space proj   IRMAX =      1   max aug-charges    IRDMAX=   3280
   dimension x,y,z NGX =    48 NGY =   48 NGZ =   48
   dimension x,y,z NGXF=    96 NGYF=   96 NGZF=   96
   support grid    NGXF=    96 NGYF=   96 NGZF=   96
   ions per type =             108
 NGX,Y,Z   is equivalent  to a cutoff of   7.39,  7.39,  7.39 a.u.
 NGXF,Y,Z  is equivalent  to a cutoff of  14.78, 14.78, 14.78 a.u.


 I would recommend the setting:
   dimension x,y,z NGX =    44 NGY =   44 NGZ =   44
 SYSTEM =  No title                                
 POSCAR =  No title                                

 Startparameter for this run:
   NWRITE =      2    write-flag & timer
   PREC   = normal    medium, high low
   ISTART =      1    job   : 0-new  1-cont  2-samecut
   ICHARG =      0    charge: 1-file 2-atom 10-const
   ISPIN  =      1    spin polarized calculation?
   LNONCOLLINEAR =      F non collinear calculations
   LSORBIT =      F    spin-orbit coupling
   INIWAV =      1    electr: 0-lowe 1-rand  2-diag
   LASPH  =      F    aspherical Exc in radial PAW
   METAGGA=      F    non-selfconsistent MetaGGA calc.

 Electronic Relaxation 1
   ENCUT  =  273.2 eV  20.08 Ry    4.48 a.u.  14.56 14.56 14.56*2*pi/ulx,y,z
   ENINI  =  273.2     initial cutoff
   ENAUG  =  516.5 eV  augmentation charge cutoff
   NELM   =     60;   NELMIN=  2; NELMDL=  0     # of ELM steps 
   EDIFF  = 0.1E-04   stopping-criterion for ELM
   LREAL  =      F    real-space projection
   LCOMPAT=      F    compatible to vasp.4.4
   LREAL_COMPAT= F    compatible to vasp.4.5.1-3
   GGA_COMPAT  = T    GGA compatible to vasp.4.4-vasp.4.6
   LMAXPAW     = -100 max onsite density
   LMAXMIX     =    2 max onsite mixed and CHGCAR
   VOSKOWN=      1    Vosko Wilk Nusair interpolation
   ROPT   =    0.00000
 Ionic relaxation
   EDIFFG = -.2E-01   stopping-criterion for IOM
   NSW    =      0    number of steps for IOM
   NBLOCK =      1;   KBLOCK =      1    inner block; outer block 
   IBRION =     -1    ionic relax: 0-MD 1-quasi-New 2-CG
   NFREE  =      0    steps in history (QN), initial steepest desc. (CG)
   ISIF   =      2    stress and relaxation
   IWAVPR =     10    prediction:  0-non 1-charg 2-wave 3-comb
   ISYM   =      2    0-nonsym 1-usesym 2-fastsym
   LCORR  =      T    Harris-Foulkes like correction to forces

   POTIM  =   0.50    time-step for ionic-motion
   TEIN   =    0.0    initial temperature
   TEBEG  =    0.0;   TEEND  =   0.0 temperature during run
   SMASS  =  -3.00    Nose mass-parameter (am)
   estimated Nose-frequenzy (Omega)   =  0.10E-29 period in steps =****** mass=  -0.267E-26a.u.
   NPACO  =    256;   APACO  = 16.0  distance and # of slots for P.C.
   PSTRESS=    0.0 pullay stress

  Mass of Ions in am
   POMASS =  63.55
  Ionic Valenz
   ZVAL   =  11.00
  Atomic Wigner-Seitz radii
   RWIGS  =   1.17
   NELECT =    1188.0000    total number of electrons
   NUPDOWN=      -1.0000    fix difference up-down

 DOS related values:
   EMIN   =  10.00;   EMAX   =-10.00  energy-range for DOS
   ISMEAR =     1;   SIGMA  =   0.20  broadening in eV -4-tet -1-fermi 0-gaus

 Electronic relaxation 2 (details)
   IALGO  =     38    algorithm
   LDIAG  =      T    sub-space diagonalisation
   IMIX   =      4    mixing-type and parameters
     AMIX     =   0.40;   BMIX     =  1.00
     AMIX_MAG =   1.60;   BMIX_MAG =  1.00
     AMIN     =   0.10
     WC   =   100.;   INIMIX=   1;  MIXPRE=   1

 Intra band minimization:
   WEIMIN = 0.0000     energy-eigenvalue tresh-hold
   EBREAK =  0.35E-08  absolut break condition
   DEPER  =   0.30     relativ break condition  

   TIME   =   0.10     timestep for ELM

  volume/ion in A,a.u.               =      11.66        78.71
  Fermi-wavevector in a.u.,eV,Ry     =   1.605425 35.067491  2.577388

 Second variation
   LSECVAR=     F    do a second variation
 
 Write flags
   LWAVE  =      F    write WAVECAR
   LCHARG =      F    write CHGCAR
   LVTOT  =      F    write LOCPOT, local potential
   LELF   =      F    write electronic localiz. function (ELF)
   LORBIT =      0    0 simple, 1 ext, 2 COOP (PROOUT)


 Dipole corrections
   IDIPOL =      0    1-x, 2-y, 3-z
   LDIPOL =      F    correct potential



--------------------------------------------------------------------------------------------------------


 Static calculation
 charge density will be updated during run
 non-spin polarized calculation
 Variant of blocked Davidson
 Davidson routine will perform the subspace rotation
 performe sub-space diagonalisation
    after iterative eigenvector-optimisation
 modified Broyden-mixing scheme, WC =      100.0
 initial mixing is a Kerker type mixing with AMIX =  0.4000 and BMIX =      1.0000
 Hartree-type preconditioning will be used
 using additional bands          118
 reciprocal scheme for non local part
 use partial core corrections
 calculate Harris-corrections to forces 
   (improved forces if not selfconsistent)
 use gradient corrections 
 use of overlap-Matrix (Vanderbilt PP)
 Methfessel and Paxton  Order N= 1 SIGMA  =   0.20


--------------------------------------------------------------------------------------------------------


  energy-cutoff  :      273.21
  volume of cell :     1259.71
      direct lattice vectors                 reciprocal lattice vectors
    10.799999970  0.000000000  0.000000000     0.092592593 -0.000000002 -0.000000002
     0.000000200 10.799999970  0.000000000     0.000000000  0.092592593 -0.000000002
     0.000000200  0.000000200 10.799999970     0.000000000  0.000000000  0.092592593

  length of vectors
    10.799999970 10.799999970 10.799999970     0.092592593  0.092592593  0.092592593


 
 old parameters found on file WAVECAR:
  energy-cutoff  :      273.21
  volume of cell :     1259.71
      direct lattice vectors                 reciprocal lattice vectors
    10.799999970  0.000000000  0.000000000     0.092592593 -0.000000002 -0.000000002
     0.000000200 10.799999970  0.000000000     0.000000000  0.092592593 -0.000000002
     0.000000200  0.000000200 10.799999970     0.000000000  0.000000000  0.092592593

  length of vectors

 
 k-points in units of 2pi/SCALE and weight: Automatic mesh                          
   0.02314815  0.02314815  0.02314815       1.000
 
 k-points in reciprocal lattice and weights: Automatic mesh                          
   0.25000000  0.25000000  0.25000000       1.000
 
 position of ions in fractional coordinates (direct lattice) 
   0.66666667  0.66666667  0.33333333
   0.66666667  0.83333333  0.50000000
   0.83333333  0.66666667  0.50000000
   0.66666667  0.66666667  0.00000000
   0.66666667  0.83333333  0.16666667
   0.66666667  0.00000000  0.33333333
   0.66666667  0.16666667  0.50000000
   0.83333333  0.66666667  0.16666667
   0.83333333  0.83333333  0.33333333
   0.83333333  0.00000000  0.50000000
   0.00000000  0.66666667  0.33333333
   0.00000000  0.83333333  0.50000000
   0.16666667  0.66666667  0.50000000
   0.66666667  0.66666667  0.66666667
   0.66666667  0.83333333  0.83333333
   0.66666667  0.00000000  0.00000000
   0.66666667  0.16666667  0.16666667
   0.66666667  0.33333333  0.33333333
   0.66666667  0.50000000  0.50000000
   0.83333333  0.66666667  0.83333333
   0.83333333  0.83333333  0.00000000
   0.83333333  0.00000000  0.16666667
   0.83333333  0.16666667  0.33333333
   0.83333333  0.33333333  0.50000000
   0.00000000  0.66666667  0.00000000
   0.00000000  0.83333333  0.16666667
   0.00000000  0.00000000  0.33333333
   0.00000000  0.16666667  0.50000000
   0.16666667  0.66666667  0.16666667
   0.16666667  0.83333333  0.33333333
   0.16666667  0.00000000  0.50000000
   0.33333333  0.66666667  0.33333333
   0.33333333  0.83333333  0.50000000
   0.50000000  0.66666667  0.50000000
   0.66666667  0.00000000  0.66666667
   0.66666667  0.16666667  0.83333333
   0.66666667  0.33333333  0.00000000
   0.66666667  0.50000000  0.16666667
   0.83333333  0.83333333  0.66666667
   0.83333333  0.00000000  0.83333333
   0.83333333  0.16666667  0.00000000
   0.83333333  0.33333333  0.16666667
   0.83333333  0.50000000  0.33333333
   0.00000000  0.66666667  0.66666667
   0.00000000  0.83333333  0.83333333
   0.00185200  0.00000000  0.00000000
   0.00000000  0.16666667  0.16666667
   0.00000000  0.33333333  0.33333333
   0.00000000  0.50000000  0.50000000
   0.16666667  0.66666667  0.83333333
   0.16666667  0.83333333  0.00000000
   0.16666667  0.00000000  0.16666667
   0.16666667  0.16666667  0.33333333
   0.16666667  0.33333333  0.50000000
   0.33333333  0.66666667  0.00000000
   0.33333333  0.83333333  0.16666667
   0.33333333  0.00000000  0.33333333
   0.33333333  0.16666667  0.50000000
   0.50000000  0.66666667  0.16666667
   0.50000000  0.83333333  0.33333333
   0.50000000  0.00000000  0.50000000
   0.66666667  0.33333333  0.66666667
   0.66666667  0.50000000  0.83333333
   0.83333333  0.16666667  0.66666667
   0.83333333  0.33333333  0.83333333
   0.83333333  0.50000000  0.00000000
   0.00000000  0.00000000  0.66666667
   0.00000000  0.16666667  0.83333333
   0.00000000  0.33333333  0.00000000
   0.00000000  0.50000000  0.16666667
   0.16666667  0.83333333  0.66666667
   0.16666667  0.00000000  0.83333333
   0.16666667  0.16666667  0.00000000
   0.16666667  0.33333333  0.16666667
   0.16666667  0.50000000  0.33333333
   0.33333333  0.66666667  0.66666667
   0.33333333  0.83333333  0.83333333
   0.33333333  0.00000000  0.00000000
   0.33333333  0.16666667  0.16666667
   0.33333333  0.33333333  0.33333333
   0.33333333  0.50000000  0.50000000
   0.50000000  0.66666667  0.83333333
   0.50000000  0.83333333  0.00000000
   0.50000000  0.00000000  0.16666667
   0.50000000  0.16666667  0.33333333
   0.50000000  0.33333333  0.50000000
   0.83333333  0.50000000  0.66666667
   0.00000000  0.33333333  0.66666667
   0.00000000  0.50000000  0.83333333
   0.16666667  0.16666667  0.66666667
   0.16666667  0.33333333  0.83333333
   0.16666667  0.50000000  0.00000000
   0.33333333  0.00000000  0.66666667
   0.33333333  0.16666667  0.83333333
   0.33333333  0.33333333  0.00000000
   0.33333333  0.50000000  0.16666667
   0.50000000  0.83333333  0.66666667
   0.50000000  0.00000000  0.83333333
   0.50000000  0.16666667  0.00000000
   0.50000000  0.33333333  0.16666667
   0.50000000  0.50000000  0.33333333
   0.16666667  0.50000000  0.66666667
   0.33333333  0.33333333  0.66666667
   0.33333333  0.50000000  0.83333333
   0.50000000  0.16666667  0.66666667
   0.50000000  0.33333333  0.83333333
   0.50000000  0.50000000  0.00000000
   0.50000000  0.50000000  0.66666667
 
 position of ions in cartesian coordinates  (Angst):
   7.20000022  7.20000008  3.59999995
   7.20000028  9.00000004  5.39999999
   9.00000017  7.20000012  5.39999999
   7.20000015  7.20000002  0.00000000
   7.20000022  8.99999997  1.80000003
   7.20000008  0.00000007  3.59999995
   7.20000015  1.80000013  5.39999999
   9.00000011  7.20000005  1.80000003
   9.00000017  9.00000001  3.59999995
   9.00000004  0.00000010  5.39999999
   0.00000020  7.20000008  3.59999995
   0.00000027  9.00000004  5.39999999
   1.80000026  7.20000012  5.39999999
   7.20000028  7.20000015  7.20000002
   7.20000035  9.00000011  8.99999994
   7.20000002  0.00000000  0.00000000
   7.20000008  1.80000006  1.80000003
   7.20000015  3.60000002  3.59999995
   7.20000022  5.40000009  5.39999999
   9.00000024  7.20000018  8.99999994
   9.00000011  8.99999994  0.00000000
   8.99999997  0.00000003  1.80000003
   9.00000004  1.80000010  3.59999995
   9.00000011  3.60000005  5.39999999
   0.00000013  7.20000002  0.00000000
   0.00000020  8.99999997  1.80000003
   0.00000007  0.00000007  3.59999995
   0.00000013  1.80000013  5.39999999
   1.80000020  7.20000005  1.80000003
   1.80000026  9.00000001  3.59999995
   1.80000013  0.00000010  5.39999999
   3.60000015  7.20000008  3.59999995
   3.60000022  9.00000004  5.39999999
   5.40000022  7.20000012  5.39999999
   7.20000015  0.00000013  7.20000002
   7.20000022  1.80000020  8.99999994
   7.20000008  3.59999995  0.00000000
   7.20000015  5.40000002  1.80000003
   9.00000024  9.00000007  7.20000002
   9.00000011  0.00000017  8.99999994
   8.99999997  1.80000003  0.00000000
   9.00000004  3.59999999  1.80000003
   9.00000011  5.40000005  3.59999995
   0.00000027  7.20000015  7.20000002
   0.00000033  9.00000011  8.99999994
   0.02000160  0.00000000  0.00000000
   0.00000007  1.80000006  1.80000003
   0.00000013  3.60000002  3.59999995
   0.00000020  5.40000009  5.39999999
   1.80000033  7.20000018  8.99999994
   1.80000020  8.99999994  0.00000000
   1.80000006  0.00000003  1.80000003
   1.80000013  1.80000010  3.59999995
   1.80000020  3.60000005  5.39999999
   3.60000009  7.20000002  0.00000000
   3.60000015  8.99999997  1.80000003
   3.60000002  0.00000007  3.59999995
   3.60000009  1.80000013  5.39999999
   5.40000015  7.20000005  1.80000003
   5.40000022  9.00000001  3.59999995
   5.40000009  0.00000010  5.39999999
   7.20000022  3.60000009  7.20000002
   7.20000028  5.40000015  8.99999994
   9.00000011  1.80000016  7.20000002
   9.00000017  3.60000012  8.99999994
   9.00000004  5.39999999  0.00000000
   0.00000013  0.00000013  7.20000002
   0.00000020  1.80000020  8.99999994
   0.00000007  3.59999995  0.00000000
   0.00000013  5.40000002  1.80000003
   1.80000033  9.00000007  7.20000002
   1.80000020  0.00000017  8.99999994
   1.80000006  1.80000003  0.00000000
   1.80000013  3.59999999  1.80000003
   1.80000020  5.40000005  3.59999995
   3.60000022  7.20000015  7.20000002
   3.60000029  9.00000011  8.99999994
   3.59999995  0.00000000  0.00000000
   3.60000002  1.80000006  1.80000003
   3.60000009  3.60000002  3.59999995
   3.60000015  5.40000009  5.39999999
   5.40000028  7.20000018  8.99999994
   5.40000015  8.99999994  0.00000000
   5.40000002  0.00000003  1.80000003
   5.40000009  1.80000010  3.59999995
   5.40000015  3.60000005  5.39999999
   9.00000017  5.40000012  7.20000002
   0.00000020  3.60000009  7.20000002
   0.00000027  5.40000015  8.99999994
   1.80000020  1.80000016  7.20000002
   1.80000026  3.60000012  8.99999994
   1.80000013  5.39999999  0.00000000
   3.60000009  0.00000013  7.20000002
   3.60000015  1.80000020  8.99999994
   3.60000002  3.59999995  0.00000000
   3.60000009  5.40000002  1.80000003
   5.40000028  9.00000007  7.20000002
   5.40000015  0.00000017  8.99999994
   5.40000002  1.80000003  0.00000000
   5.40000009  3.59999999  1.80000003
   5.40000015  5.40000005  3.59999995
   1.80000026  5.40000012  7.20000002
   3.60000015  3.60000009  7.20000002
   3.60000022  5.40000015  8.99999994
   5.40000015  1.80000016  7.20000002
   5.40000022  3.60000012  8.99999994
   5.40000009  5.39999999  0.00000000
   5.40000022  5.40000012  7.20000002
 


--------------------------------------------------------------------------------------------------------


 k-point  1 :  0.25000.25000.2500  plane waves:  12923

 maximum and minimum number of plane-waves per node :  12923 12923

 maximum number of plane-waves:  12923
 maximal index in each direction: 
   IXMAX= 14   IYMAX= 14   IZMAX= 14
   IXMIN=-14   IYMIN=-14   IZMIN=-14

 WARNING: wrap around error must be expected set NGX to  58
 WARNING: wrap around error must be expected set NGY to  58
 WARNING: wrap around error must be expected set NGZ to  58

 parallel 3dFFT wavefunction:
    minimum data exchange during FFTs selected (reduces bandwidth)
 parallel 3dFFT charge:
    minimum data exchange during FFTs selected (reduces bandwidth)

 For storing wavefunctions  147.22 MBYTES are necessary
 For predicting wavefunctions  341.52 MBYTES are necessary
Broyden mixing: mesh for mixing (old mesh)
   NGX = 29   NGY = 29   NGZ = 29
  (NGX  = 96   NGY  = 96   NGZ  = 96)
 gives a total of  24389 points
 charge density for first step will be calculated from the start-wavefunctions


--------------------------------------------------------------------------------------------------------


 Maximum index for augmentation-charges          745 (set IRDMAX)


--------------------------------------------------------------------------------------------------------


 initial charge from wavefunction
 First call to EWALD:  gamma=   0.164
 Maximum number of real-space cells 3x 3x 3
 Maximum number of reciprocal cells 3x 3x 3

    FEWALD:  VPU time    0.10: CPU time    0.11


----------------------------------------- Iteration    1(   1)  ---------------------------------------


    POTLOK:  VPU time    0.37: CPU time    0.37
    SETDIJ:  VPU time    0.09: CPU time    0.09
    EDDAV :  VPU time   68.89: CPU time   68.93
    DOS   :  VPU time    0.00: CPU time   -0.00
    CHARGE:  VPU time    0.49: CPU time    0.49
    MIXING:  VPU time    0.01: CPU time    0.01
    ------------------------------------------
      LOOP:  VPU time   69.89: CPU time   69.95

 eigenvalue-minimisations  :  1480
 total energy-change (2. order) :-0.3995409E+03  (-0.2189998E+00)
 number of electron 1187.9976599 magnetization 
 augmentation part   775.7938233 magnetization 

 Broyden mixing:
  rms(total) = 0.78878E-01    rms(broyden)= 0.78771E-01
  rms(prec ) = 0.17879E+00
  weight for this iteration     100.00

 Free energy of the ion-electron system (eV)
  ---------------------------------------------------
  alpha Z        PSCENC =     11829.86148747
  Ewald energy   TEWEN  =   -119828.08640955
  -1/2 Hartree   DENC   =    -32558.56777855
  -V(xc)+E(xc)   XCENC  =      4625.75893529
  PAW double counting   =    118814.56796720  -134442.11856842
  entropy T*S    EENTRO =        -0.49313840
  eigenvalues    EBANDS =       937.96153461
  atomic energy  EATOM  =    150221.57506482
  ---------------------------------------------------
  free energy    TOTEN  =      -399.54090554 eV

  energy without entropy =     -399.04776714  energy(sigma->0) =     -399.37652607


--------------------------------------------------------------------------------------------------------




----------------------------------------- Iteration    1(   2)  ---------------------------------------


    POTLOK:  VPU time    0.42: CPU time    0.42
    SETDIJ:  VPU time    0.09: CPU time    0.10
    EDDAV :  VPU time   72.25: CPU time   72.27
    DOS   :  VPU time    0.00: CPU time   -0.00
    CHARGE:  VPU time    0.49: CPU time    0.49
    MIXING:  VPU time    0.01: CPU time    0.01
    ------------------------------------------
      LOOP:  VPU time   73.30: CPU time   73.32

 eigenvalue-minimisations  :  1576
 total energy-change (2. order) :-0.2443460E-01  (-0.2174276E-01)
 number of electron 1187.9976599 magnetization 
 augmentation part   775.7721792 magnetization 

 Broyden mixing:
  rms(total) = 0.15502E+00    rms(broyden)= 0.15496E+00
  rms(prec ) = 0.28266E+00
  weight for this iteration     100.00

 eigenvalues of (default mixing * dielectric matrix)
  average eigenvalue GAMMA=   0.2907
  0.2907

 Free energy of the ion-electron system (eV)
  ---------------------------------------------------
  alpha Z        PSCENC =     11829.86148747
  Ewald energy   TEWEN  =   -119828.08640955
  -1/2 Hartree   DENC   =    -32559.21546877
  -V(xc)+E(xc)   XCENC  =      4625.78996270
  PAW double counting   =    118815.79776440  -134443.69208979
  entropy T*S    EENTRO =        -0.48596290
  eigenvalues    EBANDS =       938.89031148
  atomic energy  EATOM  =    150221.57506482
  ---------------------------------------------------
  free energy    TOTEN  =      -399.56534014 eV

  energy without entropy =     -399.07937724  energy(sigma->0) =     -399.40335250


--------------------------------------------------------------------------------------------------------




----------------------------------------- Iteration    1(   3)  ---------------------------------------


    POTLOK:  VPU time    0.37: CPU time    0.37
    SETDIJ:  VPU time    0.09: CPU time    0.09
    EDDAV :  VPU time   71.90: CPU time   71.92
    DOS   :  VPU time    0.00: CPU time   -0.00
    CHARGE:  VPU time    0.50: CPU time    0.50
    MIXING:  VPU time    0.01: CPU time    0.01
    ------------------------------------------
      LOOP:  VPU time   72.91: CPU time   72.94

 eigenvalue-minimisations  :  1576
 total energy-change (2. order) : 0.5253805E-01  (-0.1093443E-01)
 number of electron 1187.9976599 magnetization 
 augmentation part   775.7871691 magnetization 

 Broyden mixing:
  rms(total) = 0.35825E-01    rms(broyden)= 0.35704E-01
  rms(prec ) = 0.62410E-01
  weight for this iteration     100.00

 eigenvalues of (default mixing * dielectric matrix)
  average eigenvalue GAMMA=   0.5371
  0.7214  0.3528

 Free energy of the ion-electron system (eV)
  ---------------------------------------------------
  alpha Z        PSCENC =     11829.86148747
  Ewald energy   TEWEN  =   -119828.08640955
  -1/2 Hartree   DENC   =    -32559.08646733
  -V(xc)+E(xc)   XCENC  =      4625.78353065
  PAW double counting   =    118815.52218871  -134443.37813315
  entropy T*S    EENTRO =        -0.49737828
  eigenvalues    EBANDS =       938.79331457
  atomic energy  EATOM  =    150221.57506482
  ---------------------------------------------------
  free energy    TOTEN  =      -399.51280209 eV

  energy without entropy =     -399.01542381  energy(sigma->0) =     -399.34700933


--------------------------------------------------------------------------------------------------------




----------------------------------------- Iteration    1(   4)  ---------------------------------------


    POTLOK:  VPU time    0.37: CPU time    0.37
    SETDIJ:  VPU time    0.09: CPU time    0.09
    EDDAV :  VPU time   80.29: CPU time   80.31
    DOS   :  VPU time    0.00: CPU time   -0.00
    CHARGE:  VPU time    0.48: CPU time    0.48
    MIXING:  VPU time    0.01: CPU time    0.01
    ------------------------------------------
      LOOP:  VPU time   81.29: CPU time   81.31

 eigenvalue-minimisations  :  1816
 total energy-change (2. order) : 0.4556590E-03  (-0.2576313E-02)
 number of electron 1187.9976599 magnetization 
 augmentation part   775.7807849 magnetization 

 Broyden mixing:
  rms(total) = 0.27790E-01    rms(broyden)= 0.27776E-01
  rms(prec ) = 0.40945E-01
  weight for this iteration     100.00

 eigenvalues of (default mixing * dielectric matrix)
  average eigenvalue GAMMA=   0.8341
  1.7873  0.3575  0.3575

 Free energy of the ion-electron system (eV)
  ---------------------------------------------------
  alpha Z        PSCENC =     11829.86148747
  Ewald energy   TEWEN  =   -119828.08640955
  -1/2 Hartree   DENC   =    -32559.22739765
  -V(xc)+E(xc)   XCENC  =      4625.79044575
  PAW double counting   =    118815.71985881  -134443.65096757
  entropy T*S    EENTRO =        -0.49783764
  eigenvalues    EBANDS =       939.00340914
  atomic energy  EATOM  =    150221.57506482
  ---------------------------------------------------
  free energy    TOTEN  =      -399.51234643 eV

  energy without entropy =     -399.01450879  energy(sigma->0) =     -399.34640055


--------------------------------------------------------------------------------------------------------




----------------------------------------- Iteration    1(   5)  ---------------------------------------


    POTLOK:  VPU time    0.42: CPU time    0.42
    SETDIJ:  VPU time    0.10: CPU time    0.10
    EDDAV :  VPU time   79.40: CPU time   79.42
    DOS   :  VPU time    0.00: CPU time   -0.00
    CHARGE:  VPU time    0.48: CPU time    0.48
    MIXING:  VPU time    0.01: CPU time    0.01
    ------------------------------------------
      LOOP:  VPU time   80.44: CPU time   80.46

 eigenvalue-minimisations  :  1792
 total energy-change (2. order) : 0.7900861E-03  (-0.1068775E-02)
 number of electron 1187.9976599 magnetization 
 augmentation part   775.7789561 magnetization 

 Broyden mixing:
  rms(total) = 0.75282E-02    rms(broyden)= 0.75151E-02
  rms(prec ) = 0.10716E-01
  weight for this iteration     100.00

 eigenvalues of (default mixing * dielectric matrix)
  average eigenvalue GAMMA=   0.8220
  1.8838  0.6454  0.3036  0.4552

 Free energy of the ion-electron system (eV)
  ---------------------------------------------------
  alpha Z        PSCENC =     11829.86148747
  Ewald energy   TEWEN  =   -119828.08640955
  -1/2 Hartree   DENC   =    -32559.24738916
  -V(xc)+E(xc)   XCENC  =      4625.79118054
  PAW double counting   =    118815.70887633  -134443.64852972
  entropy T*S    EENTRO =        -0.49792442
  eigenvalues    EBANDS =       939.03208735
  atomic energy  EATOM  =    150221.57506482
  ---------------------------------------------------
  free energy    TOTEN  =      -399.51155634 eV

  energy without entropy =     -399.01363192  energy(sigma->0) =     -399.34558153


--------------------------------------------------------------------------------------------------------




----------------------------------------- Iteration    1(   6)  ---------------------------------------


    POTLOK:  VPU time    0.37: CPU time    0.37
    SETDIJ:  VPU time    0.09: CPU time    0.09
    EDDAV :  VPU time   69.37: CPU time   69.39
    DOS   :  VPU time   -0.00: CPU time   -0.00
    CHARGE:  VPU time    0.47: CPU time    0.47
    MIXING:  VPU time    0.01: CPU time    0.01
    ------------------------------------------
      LOOP:  VPU time   70.36: CPU time   70.37

 eigenvalue-minimisations  :  1520
 total energy-change (2. order) :-0.1658490E-03  (-0.2170861E-03)
 number of electron 1187.9976599 magnetization 
 augmentation part   775.7809925 magnetization 

 Broyden mixing:
  rms(total) = 0.76517E-02    rms(broyden)= 0.76485E-02
  rms(prec ) = 0.11316E-01
  weight for this iteration     100.00

 eigenvalues of (default mixing * dielectric matrix)
  average eigenvalue GAMMA=   0.8833
  1.6553  1.6553  0.4400  0.3037  0.3623

 Free energy of the ion-electron system (eV)
  ---------------------------------------------------
  alpha Z        PSCENC =     11829.86148747
  Ewald energy   TEWEN  =   -119828.08640955
  -1/2 Hartree   DENC   =    -32559.14620530
  -V(xc)+E(xc)   XCENC  =      4625.78598089
  PAW double counting   =    118815.52730612  -134443.40614090
  entropy T*S    EENTRO =        -0.49793899
  eigenvalues    EBANDS =       938.87513325
  atomic energy  EATOM  =    150221.57506482
  ---------------------------------------------------
  free energy    TOTEN  =      -399.51172219 eV

  energy without entropy =     -399.01378320  energy(sigma->0) =     -399.34574253


--------------------------------------------------------------------------------------------------------




----------------------------------------- Iteration    1(   7)  ---------------------------------------


    POTLOK:  VPU time    0.37: CPU time    0.37
    SETDIJ:  VPU time    0.09: CPU time    0.09
    EDDAV :  VPU time   69.12: CPU time   69.14
    DOS   :  VPU time    0.00: CPU time   -0.00
    CHARGE:  VPU time    0.47: CPU time    0.47
    MIXING:  VPU time    0.01: CPU time    0.01
    ------------------------------------------
      LOOP:  VPU time   70.11: CPU time   70.12

 eigenvalue-minimisations  :  1520
 total energy-change (2. order) : 0.1690624E-04  (-0.9670106E-04)
 number of electron 1187.9976599 magnetization 
 augmentation part   775.7821295 magnetization 

 Broyden mixing:
  rms(total) = 0.42067E-02    rms(broyden)= 0.42033E-02
  rms(prec ) = 0.58417E-02
  weight for this iteration     100.00

 eigenvalues of (default mixing * dielectric matrix)
  average eigenvalue GAMMA=   0.9035
  2.1420  1.5635  0.6969  0.4134  0.3026  0.3026

 Free energy of the ion-electron system (eV)
  ---------------------------------------------------
  alpha Z        PSCENC =     11829.86148747
  Ewald energy   TEWEN  =   -119828.08640955
  -1/2 Hartree   DENC   =    -32559.10214447
  -V(xc)+E(xc)   XCENC  =      4625.78375319
  PAW double counting   =    118815.46113410  -134443.31065298
  entropy T*S    EENTRO =        -0.49795938
  eigenvalues    EBANDS =       938.80402151
  atomic energy  EATOM  =    150221.57506482
  ---------------------------------------------------
  free energy    TOTEN  =      -399.51170528 eV

  energy without entropy =     -399.01374590  energy(sigma->0) =     -399.34571882


--------------------------------------------------------------------------------------------------------




----------------------------------------- Iteration    1(   8)  ---------------------------------------


    POTLOK:  VPU time    0.38: CPU time    0.38
    SETDIJ:  VPU time    0.09: CPU time    0.09
    EDDAV :  VPU time   69.61: CPU time   69.62
    DOS   :  VPU time    0.00: CPU time   -0.00
    CHARGE:  VPU time    0.50: CPU time    0.50
    MIXING:  VPU time    0.02: CPU time    0.02
    ------------------------------------------
      LOOP:  VPU time   70.64: CPU time   70.66

 eigenvalue-minimisations  :  1528
 total energy-change (2. order) :-0.7719558E-05  (-0.2467497E-04)
 number of electron 1187.9976599 magnetization 
 augmentation part   775.7816848 magnetization 

 Broyden mixing:
  rms(total) = 0.31445E-02    rms(broyden)= 0.31431E-02
  rms(prec ) = 0.44488E-02
  weight for this iteration     100.00

 eigenvalues of (default mixing * dielectric matrix)
  average eigenvalue GAMMA=   0.9088
  2.4968  1.2318  1.2318  0.4245  0.3668  0.3051  0.3051

 Free energy of the ion-electron system (eV)
  ---------------------------------------------------
  alpha Z        PSCENC =     11829.86148747
  Ewald energy   TEWEN  =   -119828.08640955
  -1/2 Hartree   DENC   =    -32559.12272894
  -V(xc)+E(xc)   XCENC  =      4625.78482657
  PAW double counting   =    118815.52215268  -134443.37699080
  entropy T*S    EENTRO =        -0.49795642
  eigenvalues    EBANDS =       938.82884117
  atomic energy  EATOM  =    150221.57506482
  ---------------------------------------------------
  free energy    TOTEN  =      -399.51171300 eV

  energy without entropy =     -399.01375658  energy(sigma->0) =     -399.34572753


--------------------------------------------------------------------------------------------------------




----------------------------------------- Iteration    1(   9)  ---------------------------------------


    POTLOK:  VPU time    0.37: CPU time    0.37
    SETDIJ:  VPU time    0.09: CPU time    0.09
    EDDAV :  VPU time   69.25: CPU time   69.27
    DOS   :  VPU time    0.00: CPU time   -0.00
    ------------------------------------------
      LOOP:  VPU time   69.75: CPU time   69.77

 eigenvalue-minimisations  :  1512
 total energy-change (2. order) : 0.9675161E-05  (-0.9971547E-05)
 number of electron 1187.9976599 magnetization 
 augmentation part   775.7816848 magnetization 

 Free energy of the ion-electron system (eV)
  ---------------------------------------------------
  alpha Z        PSCENC =     11829.86148747
  Ewald energy   TEWEN  =   -119828.08640955
  -1/2 Hartree   DENC   =    -32559.14396326
  -V(xc)+E(xc)   XCENC  =      4625.78590971
  PAW double counting   =    118815.57434247  -134443.43812456
  entropy T*S    EENTRO =        -0.49795401
  eigenvalues    EBANDS =       938.85794357
  atomic energy  EATOM  =    150221.57506482
  ---------------------------------------------------
  free energy    TOTEN  =      -399.51170333 eV

  energy without entropy =     -399.01374932  energy(sigma->0) =     -399.34571866


--------------------------------------------------------------------------------------------------------




 average (electrostatic) potential at core
  the test charge radii are     1.0053
  (the norm of the test charge is              1.0000)
       1 -39.8761       2 -39.8760       3 -39.8761       4 -39.8760       5 -39.8760
       6 -39.8760       7 -39.8760       8 -39.8758       9 -39.8758      10 -39.8757
      11 -39.8759      12 -39.8757      13 -39.8756      14 -39.8761      15 -39.8760
      16 -39.8760      17 -39.8760      18 -39.8761      19 -39.8763      20 -39.8758
      21 -39.8734      22 -39.8734      23 -39.8758      24 -39.8761      25 -39.8759
      26 -39.8757      27 -39.8759      28 -39.8757      29 -39.8756      30 -39.8756
      31 -39.8758      32 -39.8756      33 -39.8756      34 -39.8759      35 -39.8760
      36 -39.8760      37 -39.8760      38 -39.8760      39 -39.8758      40 -39.8734
      41 -39.8734      42 -39.8758      43 -39.8761      44 -39.8759      45 -39.8757
      46 -39.8753      47 -39.8757      48 -39.8759      49 -39.8759      50 -39.8756
      51 -39.8780      52 -39.8780      53 -39.8756      54 -39.8756      55 -39.8757
      56 -39.8754      57 -39.8757      58 -39.8756      59 -39.8758      60 -39.8758
      61 -39.8758      62 -39.8761      63 -39.8760      64 -39.8758      65 -39.8758
      66 -39.8757      67 -39.8759      68 -39.8757      69 -39.8759      70 -39.8757
      71 -39.8756      72 -39.8780      73 -39.8780      74 -39.8756      75 -39.8756
      76 -39.8756      77 -39.8754      78 -39.8758      79 -39.8754      80 -39.8756
      81 -39.8756      82 -39.8758      83 -39.8757      84 -39.8757      85 -39.8758
      86 -39.8759      87 -39.8761      88 -39.8759      89 -39.8757      90 -39.8756
      91 -39.8756      92 -39.8758      93 -39.8757      94 -39.8754      95 -39.8757
      96 -39.8756      97 -39.8758      98 -39.8757      99 -39.8757     100 -39.8758
     101 -39.8759     102 -39.8756     103 -39.8756     104 -39.8756     105 -39.8758
     106 -39.8758     107 -39.8758     108 -39.8759
 
 
 
 E-fermi :   3.6877     XC(G=0): -12.8751     alpha+bet : -9.7516
   add alpha+bet to get absolut eigen values

 k-point   1 :       0.2500    0.2500    0.2500
  band No.  band energies     occupation 
      1      -5.2916      2.00000
      2      -4.6287      2.00000
      3      -4.6277      2.00000
      4      -4.6268      2.00000
      5      -3.9939      2.00000
      6      -3.9929      2.00000
      7      -3.9920      2.00000
      8      -3.4086      2.00000
      9      -3.3855      2.00000
     10      -3.3846      2.00000
     11      -3.3837      2.00000
     12      -2.8230      2.00000
     13      -2.8216      2.00000
     14      -2.8211      2.00000
     15      -2.8211      2.00000
     16      -2.8207      2.00000
     17      -2.8193      2.00000
     18      -2.3710      2.00000
     19      -2.3703      2.00000
     20      -2.3696      2.00000
     21      -1.9020      2.00000
     22      -1.9013      2.00000
     23      -1.9007      2.00000
     24      -1.8431      2.00000
     25      -1.8422      2.00000
     26      -1.8414      2.00000
     27      -1.6712      2.00000
     28      -1.6707      2.00000
     29      -1.6702      2.00000
     30      -1.4672      2.00000
     31      -1.4661      2.00000
     32      -1.4657      2.00000
     33      -1.4657      2.00000
     34      -1.4652      2.00000
     35      -1.4642      2.00000
     36      -1.4389      2.00000
     37      -1.2583      2.00000
     38      -1.2575      2.00000
     39      -1.2567      2.00000
     40      -1.1564      2.00000
     41      -1.1564      2.00000
     42      -1.1563      2.00000
     43      -1.0979      2.00000
     44      -1.0975      2.00000
     45      -1.0970      2.00000
     46      -1.0215      2.00000
     47      -1.0215      2.00000
     48      -1.0208      2.00000
     49      -1.0208      2.00000
     50      -1.0202      2.00000
     51      -1.0201      2.00000
     52      -1.0045      2.00000
     53      -1.0044      2.00000
     54      -1.0044      2.00000
     55      -0.8409      2.00000
     56      -0.8406      2.00000
     57      -0.8401      2.00000
     58      -0.8400      2.00000
     59      -0.8395      2.00000
     60      -0.8392      2.00000
     61      -0.7922      2.00000
     62      -0.7914      2.00000
     63      -0.7907      2.00000
     64      -0.7650      2.00000
     65      -0.7645      2.00000
     66      -0.7641      2.00000
     67      -0.7641      2.00000
     68      -0.7638      2.00000
     69      -0.7633      2.00000
     70      -0.7202      2.00000
     71      -0.7196      2.00000
     72      -0.7193      2.00000
     73      -0.7193      2.00000
     74      -0.7190      2.00000
     75      -0.7183      2.00000
     76      -0.6274      2.00000
     77      -0.6274      2.00000
     78      -0.6273      2.00000
     79      -0.5587      2.00000
     80      -0.5587      2.00000
     81      -0.5586      2.00000
     82      -0.5229      2.00000
     83      -0.5227      2.00000
     84      -0.5223      2.00000
     85      -0.5223      2.00000
     86      -0.5218      2.00000
     87      -0.5217      2.00000
     88      -0.5002      2.00000
     89      -0.4997      2.00000
     90      -0.4992      2.00000
     91      -0.4078      2.00000
     92      -0.4074      2.00000
     93      -0.4071      2.00000
     94      -0.3903      2.00000
     95      -0.3900      2.00000
     96      -0.3896      2.00000
     97      -0.3734      2.00000
     98      -0.3733      2.00000
     99      -0.3729      2.00000
    100      -0.3729      2.00000
    101      -0.3725      2.00000
    102      -0.3724      2.00000
    103      -0.3481      2.00000
    104      -0.3471      2.00000
    105      -0.3470      2.00000
    106      -0.3470      2.00000
    107      -0.3469      2.00000
    108      -0.3460      2.00000
    109      -0.3093      2.00000
    110      -0.3084      2.00000
    111      -0.3081      2.00000
    112      -0.3081      2.00000
    113      -0.3078      2.00000
    114      -0.3069      2.00000
    115      -0.2434      2.00000
    116      -0.2432      2.00000
    117      -0.2430      2.00000
    118      -0.2282      2.00000
    119      -0.2280      2.00000
    120      -0.2276      2.00000
    121      -0.2276      2.00000
    122      -0.2272      2.00000
    123      -0.2269      2.00000
    124      -0.1954      2.00000
    125      -0.1952      2.00000
    126      -0.1948      2.00000
    127      -0.1947      2.00000
    128      -0.1943      2.00000
    129      -0.1940      2.00000
    130      -0.0932      2.00000
    131      -0.0928      2.00000
    132      -0.0923      2.00000
    133      -0.0737      2.00000
    134      -0.0729      2.00000
    135      -0.0728      2.00000
    136      -0.0728      2.00000
    137      -0.0728      2.00000
    138      -0.0720      2.00000
    139      -0.0557      2.00000
    140      -0.0555      2.00000
    141      -0.0553      2.00000
    142      -0.0155      2.00000
    143      -0.0154      2.00000
    144      -0.0150      2.00000
    145      -0.0150      2.00000
    146      -0.0146      2.00000
    147      -0.0145      2.00000
    148       0.0267      2.00000
    149       0.0274      2.00000
    150       0.0277      2.00000
    151       0.0277      2.00000
    152       0.0280      2.00000
    153       0.0286      2.00000
    154       0.0403      2.00000
    155       0.0409      2.00000
    156       0.0411      2.00000
    157       0.0412      2.00000
    158       0.0414      2.00000
    159       0.0420      2.00000
    160       0.1671      2.00000
    161       0.1680      2.00000
    162       0.1681      2.00000
    163       0.1681      2.00000
    164       0.1682      2.00000
    165       0.1691      2.00000
    166       0.2325      2.00000
    167       0.2330      2.00000
    168       0.2334      2.00000
    169       0.2569      2.00000
    170       0.2574      2.00000
    171       0.2577      2.00000
    172       0.2614      2.00000
    173       0.2620      2.00000
    174       0.2622      2.00000
    175       0.2623      2.00000
    176       0.2625      2.00000
    177       0.2631      2.00000
    178       0.2673      2.00000
    179       0.2676      2.00000
    180       0.2681      2.00000
    181       0.3011      2.00000
    182       0.3019      2.00000
    183       0.3021      2.00000
    184       0.3021      2.00000
    185       0.3023      2.00000
    186       0.3031      2.00000
    187       0.3290      2.00000
    188       0.3294      2.00000
    189       0.3298      2.00000
    190       0.4004      2.00000
    191       0.4011      2.00000
    192       0.4015      2.00000
    193       0.4015      2.00000
    194       0.4019      2.00000
    195       0.4025      2.00000
    196       0.4338      2.00000
    197       0.4342      2.00000
    198       0.4346      2.00000
    199       0.4671      2.00000
    200       0.4673      2.00000
    201       0.4677      2.00000
    202       0.4678      2.00000
    203       0.4681      2.00000
    204       0.4684      2.00000
    205       0.4869      2.00000
    206       0.4875      2.00000
    207       0.4880      2.00000
    208       0.5005      2.00000
    209       0.5008      2.00000
    210       0.5011      2.00000
    211       0.5043      2.00000
    212       0.5046      2.00000
    213       0.5050      2.00000
    214       0.5347      2.00000
    215       0.5352      2.00000
    216       0.5353      2.00000
    217       0.5355      2.00000
    218       0.5355      2.00000
    219       0.5357      2.00000
    220       0.5363      2.00000
    221       0.5654      2.00000
    222       0.5656      2.00000
    223       0.5660      2.00000
    224       0.5696      2.00000
    225       0.5697      2.00000
    226       0.5700      2.00000
    227       0.5700      2.00000
    228       0.5703      2.00000
    229       0.5705      2.00000
    230       0.5759      2.00000
    231       0.5760      2.00000
    232       0.5763      2.00000
    233       0.5764      2.00000
    234       0.5767      2.00000
    235       0.5767      2.00000
    236       0.6708      2.00000
    237       0.6709      2.00000
    238       0.6710      2.00000
    239       0.7126      2.00000
    240       0.7130      2.00000
    241       0.7134      2.00000
    242       0.7161      2.00000
    243       0.7162      2.00000
    244       0.7166      2.00000
    245       0.7166      2.00000
    246       0.7169      2.00000
    247       0.7169      2.00000
    248       0.7188      2.00000
    249       0.7193      2.00000
    250       0.7196      2.00000
    251       0.7196      2.00000
    252       0.7199      2.00000
    253       0.7206      2.00000
    254       0.7349      2.00000
    255       0.7419      2.00000
    256       0.7422      2.00000
    257       0.7426      2.00000
    258       0.7867      2.00000
    259       0.7869      2.00000
    260       0.7873      2.00000
    261       0.7904      2.00000
    262       0.7905      2.00000
    263       0.8181      2.00000
    264       0.8182      2.00000
    265       0.8184      2.00000
    266       0.8203      2.00000
    267       0.8208      2.00000
    268       0.8214      2.00000
    269       0.8353      2.00000
    270       0.8353      2.00000
    271       0.8447      2.00000
    272       0.8452      2.00000
    273       0.8453      2.00000
    274       0.8454      2.00000
    275       0.8455      2.00000
    276       0.8455      2.00000
    277       0.8456      2.00000
    278       0.8458      2.00000
    279       0.8464      2.00000
    280       0.8551      2.00000
    281       0.8553      2.00000
    282       0.8554      2.00000
    283       0.8830      2.00000
    284       0.8831      2.00000
    285       0.8833      2.00000
    286       0.8833      2.00000
    287       0.8836      2.00000
    288       0.8837      2.00000
    289       0.9097      2.00000
    290       0.9098      2.00000
    291       0.9098      2.00000
    292       0.9426      2.00000
    293       0.9427      2.00000
    294       0.9431      2.00000
    295       0.9432      2.00000
    296       0.9436      2.00000
    297       0.9436      2.00000
    298       0.9493      2.00000
    299       0.9493      2.00000
    300       0.9621      2.00000
    301       0.9625      2.00000
    302       0.9628      2.00000
    303       0.9644      2.00000
    304       0.9648      2.00000
    305       0.9650      2.00000
    306       0.9655      2.00000
    307       0.9655      2.00000
    308       0.9659      2.00000
    309       0.9688      2.00000
    310       0.9692      2.00000
    311       0.9695      2.00000
    312       0.9875      2.00000
    313       0.9877      2.00000
    314       0.9878      2.00000
    315       1.0182      2.00000
    316       1.0185      2.00000
    317       1.0187      2.00000
    318       1.0233      2.00000
    319       1.0237      2.00000
    320       1.0241      2.00000
    321       1.0381      2.00000
    322       1.0382      2.00000
    323       1.0387      2.00000
    324       1.0387      2.00000
    325       1.0392      2.00000
    326       1.0393      2.00000
    327       1.0513      2.00000
    328       1.0513      2.00000
    329       1.0520      2.00000
    330       1.0523      2.00000
    331       1.0527      2.00000
    332       1.0533      2.00000
    333       1.0699      2.00000
    334       1.0702      2.00000
    335       1.0704      2.00000
    336       1.1636      2.00000
    337       1.1643      2.00000
    338       1.1648      2.00000
    339       1.1676      2.00000
    340       1.1681      2.00000
    341       1.1687      2.00000
    342       1.1859      2.00000
    343       1.1863      2.00000
    344       1.1868      2.00000
    345       1.1868      2.00000
    346       1.1872      2.00000
    347       1.1876      2.00000
    348       1.2259      2.00000
    349       1.2264      2.00000
    350       1.2269      2.00000
    351       1.2759      2.00000
    352       1.2760      2.00000
    353       1.2763      2.00000
    354       1.2764      2.00000
    355       1.2766      2.00000
    356       1.2767      2.00000
    357       1.3166      2.00000
    358       1.3167      2.00000
    359       1.3170      2.00000
    360       1.3171      2.00000
    361       1.3175      2.00000
    362       1.3175      2.00000
    363       1.3271      2.00000
    364       1.3273      2.00000
    365       1.3274      2.00000
    366       1.3315      2.00000
    367       1.3316      2.00000
    368       1.3319      2.00000
    369       1.3319      2.00000
    370       1.3321      2.00000
    371       1.3325      2.00000
    372       1.4401      2.00000
    373       1.4402      2.00000
    374       1.4402      2.00000
    375       1.4610      2.00000
    376       1.4612      2.00000
    377       1.4616      2.00000
    378       1.4616      2.00000
    379       1.4617      2.00000
    380       1.4619      2.00000
    381       1.4633      2.00000
    382       1.4637      2.00000
    383       1.4639      2.00000
    384       1.4677      2.00000
    385       1.4678      2.00000
    386       1.4680      2.00000
    387       1.4683      2.00000
    388       1.4688      2.00000
    389       1.4691      2.00000
    390       1.5144      2.00000
    391       1.5147      2.00000
    392       1.5149      2.00000
    393       1.5149      2.00000
    394       1.5151      2.00000
    395       1.5154      2.00000
    396       1.5254      2.00000
    397       1.5258      2.00000
    398       1.5261      2.00000
    399       1.5383      2.00000
    400       1.5385      2.00000
    401       1.5388      2.00000
    402       1.5388      2.00000
    403       1.5390      2.00000
    404       1.5393      2.00000
    405       1.5434      2.00000
    406       1.5436      2.00000
    407       1.5437      2.00000
    408       1.5620      2.00000
    409       1.5626      2.00000
    410       1.5628      2.00000
    411       1.5628      2.00000
    412       1.5630      2.00000
    413       1.5635      2.00000
    414       1.5662      2.00000
    415       1.5663      2.00000
    416       1.5666      2.00000
    417       1.6123      2.00000
    418       1.6123      2.00000
    419       1.6311      2.00000
    420       1.6317      2.00000
    421       1.6322      2.00000
    422       1.6378      2.00000
    423       1.6383      2.00000
    424       1.6384      2.00000
    425       1.6384      2.00000
    426       1.6386      2.00000
    427       1.6390      2.00000
    428       1.7017      2.00000
    429       1.7020      2.00000
    430       1.7023      2.00000
    431       1.7118      2.00000
    432       1.7122      2.00000
    433       1.7127      2.00000
    434       1.7139      2.00000
    435       1.7139      2.00000
    436       1.7679      2.00000
    437       1.7679      2.00000
    438       1.7683      2.00000
    439       1.7683      2.00000
    440       1.7686      2.00000
    441       1.7687      2.00000
    442       1.7871      2.00000
    443       1.7873      2.00000
    444       1.7875      2.00000
    445       1.7972      2.00000
    446       1.7974      2.00000
    447       1.7978      2.00000
    448       1.7978      2.00000
    449       1.7982      2.00000
    450       1.7984      2.00000
    451       1.8565      2.00000
    452       1.8566      2.00000
    453       1.8567      2.00000
    454       1.8791      2.00000
    455       1.8804      2.00000
    456       1.8809      2.00000
    457       1.8813      2.00000
    458       1.8826      2.00000
    459       1.8830      2.00000
    460       1.8835      2.00000
    461       1.8946      2.00000
    462       1.8952      2.00000
    463       1.8953      2.00000
    464       1.8953      2.00000
    465       1.8954      2.00000
    466       1.8960      2.00000
    467       1.9008      2.00000
    468       1.9012      2.00000
    469       1.9018      2.00000
    470       1.9031      2.00000
    471       1.9036      2.00000
    472       1.9040      2.00000
    473       1.9127      2.00000
    474       1.9130      2.00000
    475       1.9132      2.00000
    476       1.9132      2.00000
    477       1.9133      2.00000
    478       1.9136      2.00000
    479       1.9559      2.00000
    480       1.9565      2.00000
    481       1.9570      2.00000
    482       1.9872      2.00000
    483       1.9876      2.00000
    484       1.9880      2.00000
    485       2.0358      2.00000
    486       2.0359      2.00000
    487       2.0363      2.00000
    488       2.0364      2.00000
    489       2.0366      2.00000
    490       2.0368      2.00000
    491       2.0866      2.00000
    492       2.0870      2.00000
    493       2.0871      2.00000
    494       2.0871      2.00000
    495       2.0873      2.00000
    496       2.0874      2.00000
    497       2.0875      2.00000
    498       2.0875      2.00000
    499       2.0876      2.00000
    500       2.0878      2.00000
    501       2.0879      2.00000
    502       2.0881      2.00000
    503       2.0945      2.00000
    504       2.0946      2.00000
    505       2.0948      2.00000
    506       2.0948      2.00000
    507       2.0951      2.00000
    508       2.0952      2.00000
    509       2.0965      2.00000
    510       2.0968      2.00000
    511       2.0969      2.00000
    512       2.0970      2.00000
    513       2.0971      2.00000
    514       2.0975      2.00000
    515       2.1053      2.00000
    516       2.1054      2.00000
    517       2.1055      2.00000
    518       2.1060      2.00000
    519       2.1060      2.00000
    520       2.1061      2.00000
    521       2.1283      2.00000
    522       2.1283      2.00000
    523       2.1543      2.00000
    524       2.1545      2.00000
    525       2.1546      2.00000
    526       2.1546      2.00000
    527       2.1547      2.00000
    528       2.1550      2.00000
    529       2.1670      2.00000
    530       2.1672      2.00000
    531       2.1673      2.00000
    532       2.1674      2.00000
    533       2.1675      2.00000
    534       2.1676      2.00000
    535       2.1761      2.00000
    536       2.1763      2.00000
    537       2.1764      2.00000
    538       2.1856      2.00000
    539       2.1857      2.00000
    540       2.1858      2.00000
    541       2.2010      2.00000
    542       2.2010      2.00000
    543       2.2011      2.00000
    544       2.2096      2.00000
    545       2.2096      2.00000
    546       2.2097      2.00000
    547       2.2451      2.00000
    548       2.2451      2.00000
    549       2.2452      2.00000
    550       2.2810      2.00000
    551       2.2811      2.00000
    552       2.2812      2.00000
    553       2.2812      2.00000
    554       2.2813      2.00000
    555       2.2814      2.00000
    556       2.2880      2.00000
    557       2.2882      2.00000
    558       2.2883      2.00000
    559       2.2883      2.00000
    560       2.2883      2.00000
    561       2.2884      2.00000
    562       2.3076      2.00000
    563       2.3076      2.00000
    564       2.3077      2.00000
    565       2.4466      2.00000
    566       2.4470      2.00000
    567       2.4474      2.00000
    568       2.6262      2.00000
    569       2.6264      2.00000
    570       2.6266      2.00000
    571       2.6780      2.00000
    572       2.6785      2.00000
    573       2.6787      2.00000
    574       2.6787      2.00000
    575       2.6789      2.00000
    576       2.6794      2.00000
    577       2.8688      2.00000
    578       2.8692      2.00000
    579       2.8695      2.00000
    580       3.1671      2.00144
    581       3.1676      2.00146
    582       3.1681      2.00148
    583       3.5846      1.75706
    584       3.5847      1.75633
    585       3.5849      1.75557
    586       3.6121      1.59224
    587       3.6122      1.59149
[...]
   0.201E+01 0.208E-01 0.208E-01   -.202E+01 -.175E-01 -.175E-01   0.157E-01 -.516E-03 -.516E-03   -.105E-01 -.272E-02 -.272E-02
   0.230E+00 0.442E-02 0.442E-02   -.239E+00 -.854E-03 -.854E-03   -.132E-02 -.171E-03 -.171E-03   0.101E-01 -.326E-02 -.326E-02
   0.112E+00 -.555E-08 -.555E-08   -.124E+00 0.585E-08 0.585E-08   -.169E-02 -.119E-20 -.339E-20   0.135E-01 0.776E-10 0.776E-10
   0.125E+00 0.348E+00 0.189E+00   -.127E+00 -.349E+00 -.191E+00   -.439E-02 0.479E-02 0.112E-02   0.717E-02 -.407E-02 0.501E-03
   -.117E+01 0.315E+01 -.400E-08   0.118E+01 -.317E+01 0.620E-09   0.114E-01 0.602E-02 0.000E+00   -.348E-02 -.113E-01 -.527E-09
   -.117E+01 -.474E-07 -.315E+01   0.118E+01 0.590E-07 0.317E+01   0.114E-01 -.111E-09 -.602E-02   -.348E-02 0.395E-09 0.113E-01
   0.125E+00 -.189E+00 -.348E+00   -.127E+00 0.191E+00 0.349E+00   -.439E-02 -.112E-02 -.479E-02   0.717E-02 -.501E-03 0.407E-02
   0.657E-01 -.498E-01 0.853E-09   -.718E-01 0.532E-01 -.789E-09   -.981E-03 -.106E-02 0.000E+00   0.706E-02 -.212E-02 -.146E-09
   -.293E+00 0.293E+00 0.148E-09   0.292E+00 -.287E+00 -.336E-09   0.704E-02 -.426E-02 0.339E-20   -.598E-02 -.163E-02 0.247E-09
   -.589E+00 0.353E+00 -.353E+00   0.596E+00 -.352E+00 0.352E+00   -.814E-02 0.395E-02 -.395E-02   0.147E-02 -.527E-02 0.527E-02
   -.293E+00 -.445E-08 -.293E+00   0.292E+00 0.477E-08 0.287E+00   0.704E-02 0.789E-10 0.426E-02   -.598E-02 0.682E-09 0.163E-02
   -.110E+00 -.516E-01 0.119E-07   0.121E+00 0.534E-01 -.122E-07   -.261E-02 0.134E-03 0.136E-19   -.787E-02 -.181E-02 -.476E-09
   -.280E+00 -.243E-02 0.250E-02   0.297E+00 -.109E-02 0.561E-03   -.248E-02 0.397E-03 -.188E-03   -.145E-01 0.296E-02 -.276E-02
   -.280E+00 -.250E-02 0.243E-02   0.297E+00 -.561E-03 0.109E-02   -.248E-02 0.188E-03 -.397E-03   -.145E-01 0.276E-02 -.296E-02
   -.227E+00 0.636E-09 0.137E-07   0.236E+00 -.809E-09 -.139E-07   0.721E-02 -.293E-20 0.000E+00   -.155E-01 0.698E-09 -.524E-09
   -.115E+00 0.890E-01 -.890E-01   0.117E+00 -.835E-01 0.835E-01   0.577E-03 -.187E-03 0.187E-03   -.244E-02 -.510E-02 0.510E-02
   -.117E+00 0.111E-07 -.576E-01   0.122E+00 -.113E-07 0.531E-01   -.226E-02 0.905E-11 0.489E-03   -.285E-02 -.553E-09 0.395E-02
   0.116E+00 0.195E+00 -.356E+00   -.121E+00 -.191E+00 0.349E+00   -.422E-02 0.115E-02 -.493E-02   0.973E-02 -.524E-02 0.119E-01
   0.116E+00 0.356E+00 -.195E+00   -.121E+00 -.349E+00 0.191E+00   -.422E-02 0.493E-02 -.115E-02   0.973E-02 -.119E-01 0.524E-02
   0.101E+00 -.560E-08 -.338E-09   -.112E+00 0.613E-08 0.400E-09   0.271E-02 -.354E-20 0.000E+00   0.874E-02 0.673E-10 -.335E-09
   0.686E+00 -.147E-08 -.972E-02   -.695E+00 0.995E-09 0.576E-02   0.591E-02 -.762E-11 -.411E-03   0.304E-02 -.535E-09 0.442E-02
   0.201E+01 0.208E-01 -.208E-01   -.202E+01 -.175E-01 0.175E-01   0.157E-01 -.516E-03 0.516E-03   -.105E-01 -.272E-02 0.272E-02
   0.686E+00 0.972E-02 -.153E-08   -.695E+00 -.576E-02 0.887E-09   0.591E-02 0.411E-03 0.678E-20   0.304E-02 -.442E-02 -.418E-09
   0.237E+00 -.160E-07 0.317E-02   -.247E+00 0.167E-07 -.549E-03   -.573E-03 -.394E-11 -.213E-03   0.105E-01 0.447E-09 -.228E-02
   0.125E+00 0.189E+00 0.348E+00   -.127E+00 -.191E+00 -.349E+00   -.439E-02 0.112E-02 0.479E-02   0.717E-02 0.501E-03 -.407E-02
   -.117E+01 0.543E-07 0.315E+01   0.118E+01 -.580E-07 -.317E+01   0.114E-01 0.111E-09 0.602E-02   -.348E-02 -.736E-09 -.113E-01
   -.117E+01 -.315E+01 0.111E-07   0.118E+01 0.317E+01 0.407E-09   0.114E-01 -.602E-02 -.678E-20   -.348E-02 0.113E-01 0.185E-09
   0.125E+00 -.348E+00 -.189E+00   -.127E+00 0.349E+00 0.191E+00   -.439E-02 -.479E-02 -.112E-02   0.717E-02 0.407E-02 -.501E-03
   0.657E-01 -.734E-10 -.498E-01   -.718E-01 0.195E-09 0.532E-01   -.981E-03 -.197E-10 -.106E-02   0.706E-02 -.185E-09 -.212E-02
   -.108E+00 0.822E-01 0.822E-01   0.115E+00 -.844E-01 -.844E-01   0.260E-03 0.383E-03 0.383E-03   -.806E-02 0.182E-02 0.182E-02
   -.589E+00 0.353E+00 0.353E+00   0.596E+00 -.352E+00 -.352E+00   -.814E-02 0.395E-02 0.395E-02   0.147E-02 -.527E-02 -.527E-02
   -.174E+01 0.215E-08 0.206E-08   0.175E+01 -.548E-09 -.549E-09   -.276E-01 -.391E-20 -.542E-19   0.167E-01 0.618E-09 0.618E-09
   -.589E+00 -.353E+00 -.353E+00   0.596E+00 0.352E+00 0.352E+00   -.814E-02 -.395E-02 -.395E-02   0.147E-02 0.527E-02 0.527E-02
   -.108E+00 -.822E-01 -.822E-01   0.115E+00 0.844E-01 0.844E-01   0.260E-03 -.383E-03 -.383E-03   -.806E-02 -.182E-02 -.182E-02
   -.510E-01 0.273E-08 0.263E-08   0.613E-01 -.289E-08 -.289E-08   -.258E-03 0.130E-21 0.000E+00   -.990E-02 -.404E-10 -.404E-10
   -.280E+00 -.243E-02 -.250E-02   0.297E+00 -.109E-02 -.561E-03   -.248E-02 0.397E-03 0.188E-03   -.145E-01 0.296E-02 0.276E-02
   -.709E+00 -.292E-04 0.113E-08   0.709E+00 -.210E-02 -.102E-08   0.452E-02 0.208E-03 0.169E-20   -.593E-02 0.182E-02 0.924E-09
   -.709E+00 0.109E-08 0.292E-04   0.709E+00 -.975E-09 0.210E-02   0.452E-02 -.384E-11 -.208E-03   -.593E-02 0.103E-08 -.182E-02
   -.280E+00 0.250E-02 0.243E-02   0.297E+00 0.561E-03 0.109E-02   -.248E-02 -.188E-03 -.397E-03   -.145E-01 -.276E-02 -.296E-02
   -.127E+00 0.399E-02 0.655E-08   0.143E+00 0.333E-03 -.705E-08   0.103E-02 -.252E-03 0.169E-20   -.169E-01 -.392E-02 -.641E-10
   0.606E-01 0.932E-10 -.573E-01   -.700E-01 0.831E-10 0.533E-01   -.566E-03 -.743E-11 -.401E-03   0.985E-02 -.201E-09 0.419E-02
   0.230E+00 0.442E-02 -.442E-02   -.239E+00 -.854E-03 0.854E-03   -.132E-02 -.171E-03 0.171E-03   0.101E-01 -.326E-02 0.326E-02
   0.237E+00 -.160E-07 -.317E-02   -.247E+00 0.167E-07 0.549E-03   -.573E-03 0.394E-11 0.213E-03   0.105E-01 0.488E-09 0.228E-02
   0.125E+00 -.189E+00 0.348E+00   -.127E+00 0.191E+00 -.349E+00   -.439E-02 -.112E-02 0.479E-02   0.717E-02 -.501E-03 -.407E-02
   0.125E+00 -.348E+00 0.189E+00   -.127E+00 0.349E+00 -.191E+00   -.439E-02 -.479E-02 0.112E-02   0.717E-02 0.407E-02 0.501E-03
   0.107E+00 -.589E-08 -.241E-09   -.116E+00 0.639E-08 0.410E-09   0.213E-02 0.647E-20 0.678E-20   0.723E-02 0.514E-10 -.250E-09
   -.293E+00 0.557E-08 0.293E+00   0.292E+00 -.565E-08 -.287E+00   0.704E-02 -.789E-10 -.426E-02   -.598E-02 0.217E-09 -.163E-02
   -.589E+00 -.353E+00 0.353E+00   0.596E+00 0.352E+00 -.352E+00   -.814E-02 -.395E-02 0.395E-02   0.147E-02 0.527E-02 -.527E-02
   -.293E+00 -.293E+00 0.792E-09   0.292E+00 0.287E+00 -.546E-09   0.704E-02 0.426E-02 -.678E-20   -.598E-02 0.163E-02 0.652E-09
   -.110E+00 0.110E-07 -.516E-01   0.121E+00 -.112E-07 0.534E-01   -.261E-02 0.249E-11 0.134E-03   -.787E-02 -.510E-09 -.181E-02
   -.280E+00 -.250E-02 -.243E-02   0.297E+00 -.561E-03 -.109E-02   -.248E-02 0.188E-03 0.397E-03   -.145E-01 0.276E-02 0.296E-02
   -.709E+00 0.121E-08 -.292E-04   0.709E+00 -.105E-08 -.210E-02   0.452E-02 0.384E-11 0.208E-03   -.593E-02 0.957E-09 0.182E-02
   -.709E+00 0.292E-04 0.118E-08   0.709E+00 0.210E-02 -.101E-08   0.452E-02 -.208E-03 0.000E+00   -.593E-02 -.182E-02 0.106E-08
   -.280E+00 0.243E-02 0.250E-02   0.297E+00 0.109E-02 0.561E-03   -.248E-02 -.397E-03 -.188E-03   -.145E-01 -.296E-02 -.276E-02
   -.127E+00 0.672E-08 0.399E-02   0.143E+00 -.704E-08 0.333E-03   0.103E-02 -.466E-11 -.252E-03   -.169E-01 -.137E-09 -.392E-02
   0.657E-01 -.644E-08 0.498E-01   -.718E-01 0.677E-08 -.532E-01   -.981E-03 0.197E-10 0.106E-02   0.706E-02 0.176E-09 0.212E-02
   -.108E+00 -.822E-01 0.822E-01   0.115E+00 0.844E-01 -.844E-01   0.260E-03 -.383E-03 0.383E-03   -.806E-02 -.182E-02 0.182E-02
   -.110E+00 0.454E-08 0.516E-01   0.121E+00 -.461E-08 -.534E-01   -.261E-02 -.249E-11 -.134E-03   -.787E-02 -.139E-09 0.181E-02
   -.280E+00 0.250E-02 -.243E-02   0.297E+00 0.561E-03 -.109E-02   -.248E-02 -.188E-03 0.397E-03   -.145E-01 -.276E-02 0.296E-02
   -.280E+00 0.243E-02 -.250E-02   0.297E+00 0.109E-02 -.561E-03   -.248E-02 -.397E-03 0.188E-03   -.145E-01 -.296E-02 0.276E-02
   -.227E+00 0.137E-07 0.636E-09   0.236E+00 -.139E-07 -.809E-09   0.721E-02 -.134E-19 0.678E-20   -.155E-01 -.524E-09 0.698E-09
   -.127E+00 0.669E-08 -.399E-02   0.143E+00 -.701E-08 -.333E-03   0.103E-02 0.466E-11 0.252E-03   -.169E-01 -.136E-09 0.392E-02
 -----------------------------------------------------------------------------------------------
   0.115E-03 0.615E-10 0.460E-04   -.109E-10 -.371E-11 0.323E-13   0.761E-02 -.179E-18 -.379E-17   -.732E-02 -.238E-10 -.195E-10
 
 
 POSITION                                       TOTAL-FORCE (eV/Angst)
 -----------------------------------------------------------------------------------
      7.20000      7.20000      3.60000        -0.000436     -0.000277      0.000277
      7.20000      9.00000      5.40000        -0.000225     -0.000098      0.000000
      9.00000      7.20000      5.40000        -0.000195     -0.000161     -0.000000
      7.20000      7.20000      0.00000         0.000041     -0.000252      0.000000
      7.20000      9.00000      1.80000         0.001006      0.000521     -0.000521
      7.20000      0.00000      3.60000         0.000041      0.000000      0.000252
      7.20000      1.80000      5.40000        -0.000225      0.000098     -0.000000
      9.00000      7.20000      1.80000         0.000434      0.000562      0.000224
      9.00000      9.00000      3.60000         0.000434     -0.000224     -0.000562
      9.00000      0.00000      5.40000         0.000149     -0.000000     -0.000000
      0.00000      7.20000      3.60000        -0.000060     -0.000140      0.000140
      0.00000      9.00000      5.40000        -0.000139     -0.000126      0.000000
      1.80000      7.20000      5.40000        -0.000065     -0.000165      0.000000
      7.20000      7.20000      7.20000        -0.000436     -0.000277     -0.000277
      7.20000      9.00000      9.00000         0.001006      0.000521      0.000521
      7.20000      0.00000      0.00000         0.003684     -0.000000     -0.000000
      7.20000      1.80000      1.80000         0.001006     -0.000521     -0.000521
      7.20000      3.60000      3.60000        -0.000436      0.000277      0.000277
      7.20000      5.40000      5.40000        -0.000049      0.000000      0.000000
      9.00000      7.20000      9.00000         0.000434      0.000562     -0.000224
      9.00000      9.00000      0.00000         0.016994      0.019591      0.000000
      9.00000      0.00000      1.80000         0.016994     -0.000000     -0.019591
      9.00000      1.80000      3.60000         0.000434      0.000224     -0.000562
      9.00000      3.60000      5.40000        -0.000195      0.000161     -0.000000
      0.00000      7.20000      0.00000         0.000167      0.000052      0.000000
      0.00000      9.00000      1.80000        -0.003641     -0.000024      0.000024
      0.00000      0.00000      3.60000         0.000167     -0.000000     -0.000052
      0.00000      1.80000      5.40000        -0.000139      0.000126     -0.000000
      1.80000      7.20000      1.80000         0.000503     -0.000734     -0.000081
      1.80000      9.00000      3.60000         0.000503      0.000081      0.000734
      1.80000      0.00000      5.40000         0.000279     -0.000000     -0.000000
      3.60000      7.20000      3.60000        -0.000262     -0.000019      0.000019
      3.60000      9.00000      5.40000        -0.000016     -0.000140      0.000000
      5.40000      7.20000      5.40000         0.000060     -0.000148     -0.000000
      7.20000      0.00000      7.20000         0.000041     -0.000000     -0.000252
      7.20000      1.80000      9.00000         0.001006     -0.000521      0.000521
      7.20000      3.60000      0.00000         0.000041      0.000252     -0.000000
      7.20000      5.40000      1.80000        -0.000225      0.000000      0.000098
      9.00000      9.00000      7.20000         0.000434     -0.000224      0.000562
      9.00000      0.00000      9.00000         0.016994      0.000000      0.019591
      9.00000      1.80000      0.00000         0.016994     -0.019591      0.000000
      9.00000      3.60000      1.80000         0.000434     -0.000562      0.000224
      9.00000      5.40000      3.60000        -0.000195      0.000000      0.000161
      0.00000      7.20000      7.20000        -0.000060     -0.000140     -0.000140
      0.00000      9.00000      9.00000        -0.003641     -0.000024     -0.000024
      0.02000      0.00000      0.00000        -0.141139     -0.000000      0.000000
      0.00000      1.80000      1.80000        -0.003641      0.000024      0.000024
      0.00000      3.60000      3.60000        -0.000060      0.000140      0.000140
      0.00000      5.40000      5.40000         0.000127     -0.000000      0.000000
      1.80000      7.20000      9.00000         0.000503     -0.000734      0.000081
      1.80000      9.00000      0.00000         0.018277     -0.021495     -0.000000
      1.80000      0.00000      1.80000         0.018277      0.000000      0.021495
      1.80000      1.80000      3.60000         0.000503     -0.000081      0.000734
      1.80000      3.60000      5.40000        -0.000065      0.000165     -0.000000
      3.60000      7.20000      0.00000         0.000147     -0.000027     -0.000000
      3.60000      9.00000      1.80000         0.001018     -0.000703      0.000703
      3.60000      0.00000      3.60000         0.000147      0.000000      0.000027
      3.60000      1.80000      5.40000        -0.000016      0.000140      0.000000
      5.40000      7.20000      1.80000        -0.000306     -0.000162      0.000115
      5.40000      9.00000      3.60000        -0.000306     -0.000115      0.000162
      5.40000      0.00000      5.40000         0.000476     -0.000000      0.000000
      7.20000      3.60000      7.20000        -0.000436      0.000277     -0.000277
      7.20000      5.40000      9.00000        -0.000225     -0.000000     -0.000098
      9.00000      1.80000      7.20000         0.000434      0.000224      0.000562
      9.00000      3.60000      9.00000         0.000434     -0.000562     -0.000224
      9.00000      5.40000      0.00000         0.000149      0.000000      0.000000
      0.00000      0.00000      7.20000         0.000167      0.000000      0.000052
      0.00000      1.80000      9.00000        -0.003641      0.000024     -0.000024
      0.00000      3.60000      0.00000         0.000167     -0.000052     -0.000000
      0.00000      5.40000      1.80000        -0.000139      0.000000      0.000126
      1.80000      9.00000      7.20000         0.000503      0.000081     -0.000734
      1.80000      0.00000      9.00000         0.018277     -0.000000     -0.021495
      1.80000      1.80000      0.00000         0.018277      0.021495      0.000000
      1.80000      3.60000      1.80000         0.000503      0.000734     -0.000081
      1.80000      5.40000      3.60000        -0.000065      0.000000      0.000165
      3.60000      7.20000      7.20000        -0.000262     -0.000019     -0.000019
      3.60000      9.00000      9.00000         0.001018     -0.000703     -0.000703
      3.60000      0.00000      0.00000         0.003518     -0.000000     -0.000000
      3.60000      1.80000      1.80000         0.001018      0.000703      0.000703
      3.60000      3.60000      3.60000        -0.000262      0.000019      0.000019
      3.60000      5.40000      5.40000         0.000151      0.000000     -0.000000
      5.40000      7.20000      9.00000        -0.000306     -0.000162     -0.000115
      5.40000      9.00000      0.00000        -0.000960     -0.000102     -0.000000
      5.40000      0.00000      1.80000        -0.000960      0.000000      0.000102
      5.40000      1.80000      3.60000        -0.000306      0.000115      0.000162
      5.40000      3.60000      5.40000         0.000060      0.000148     -0.000000
      9.00000      5.40000      7.20000        -0.000195     -0.000000     -0.000161
      0.00000      3.60000      7.20000        -0.000060      0.000140     -0.000140
      0.00000      5.40000      9.00000        -0.000139     -0.000000     -0.000126
      1.80000      1.80000      7.20000         0.000503     -0.000081     -0.000734
      1.80000      3.60000      9.00000         0.000503      0.000734      0.000081
      1.80000      5.40000      0.00000         0.000279     -0.000000      0.000000
      3.60000      0.00000      7.20000         0.000147     -0.000000     -0.000027
      3.60000      1.80000      9.00000         0.001018      0.000703     -0.000703
      3.60000      3.60000      0.00000         0.000147      0.000027      0.000000
      3.60000      5.40000      1.80000        -0.000016      0.000000      0.000140
      5.40000      9.00000      7.20000        -0.000306     -0.000115     -0.000162
      5.40000      0.00000      9.00000        -0.000960     -0.000000     -0.000102
      5.40000      1.80000      0.00000        -0.000960      0.000102      0.000000
      5.40000      3.60000      1.80000        -0.000306      0.000162      0.000115
      5.40000      5.40000      3.60000         0.000060      0.000000      0.000148
      1.80000      5.40000      7.20000        -0.000065     -0.000000     -0.000165
      3.60000      3.60000      7.20000        -0.000262      0.000019     -0.000019
      3.60000      5.40000      9.00000        -0.000016     -0.000000     -0.000140
      5.40000      1.80000      7.20000        -0.000306      0.000115     -0.000162
      5.40000      3.60000      9.00000        -0.000306      0.000162     -0.000115
      5.40000      5.40000      0.00000         0.000476     -0.000000     -0.000000
      5.40000      5.40000      7.20000         0.000060     -0.000000     -0.000148
 -----------------------------------------------------------------------------------
    total drift:                                0.000404      0.000000      0.000046


--------------------------------------------------------------------------------------------------------



 mean value of Nose-termostat <S>:     1.000 mean value of <T> :     0.000
 mean temperature <T/S>/<1/S>  :     0.000

     LOOP+:  VPU time  760.12: CPU time  760.38

 ----------------------------------------------------------------------------- 
|                                                                             |
|           W    W    AA    RRRRR   N    N  II  N    N   GGGG   !!!           |
|           W    W   A  A   R    R  NN   N  II  NN   N  G    G  !!!           |
|           W    W  A    A  R    R  N N  N  II  N N  N  G       !!!           |
|           W WW W  AAAAAA  RRRRR   N  N N  II  N  N N  G  GGG   !            |
|           WW  WW  A    A  R   R   N   NN  II  N   NN  G    G                |
|           W    W  A    A  R    R  N    N  II  N    N   GGGG   !!!           |
|                                                                             |
|      The partial DOS and the PROCAR file are not evaluated for NPAR/=1      |
|      please rerun with NPAR=1                                               |
|                                                                             |
 ----------------------------------------------------------------------------- 

  
  
 General timing and accounting informations for this job:
 ========================================================
  
                  Total CPU time used (sec):      772.735
                            User time (sec):      751.621
                          System time (sec):       21.114
                         Elapsed time (sec):      773.024
  
                   Maximum memory used (kb):      310072.
                   Average memory used (kb):           0.
  
                          Minor page faults:        58760
                          Major page faults:            0
                 Voluntary context switches:          859
