 running on    4 nodes
 distr:  one band on    1 nodes,    4 groups
 vasp.4.6.28 25Jul05 complex 
 POSCAR found :  1 types and  108 ions

 ----------------------------------------------------------------------------- 
|                                                                             |
|  ADVICE TO THIS USER RUNNING 'VASP/VAMP'   (HEAR YOUR MASTER'S VOICE ...):  |
|                                                                             |
|      You have a (more or less) 'large supercell' and for larger cells       |
|      it might be more efficient to use real space projection operators      |
|      So try LREAL= Auto  in the INCAR   file.                               |
|      Mind: If you want to do an extremely accurate calculations keep the    |
|      reciprocal projection scheme          (i.e. LREAL=.FALSE.)             |
|                                                                             |
 ----------------------------------------------------------------------------- 

 LDA part: xc-table for Pade appr. of Perdew
 found WAVECAR, reading the header
 POSCAR, INCAR and KPOINTS ok, starting setup
 WARNING: wrap around errors must be expected
 FFT: planning ...           1
 reading WAVECAR
 the WAVECAR file was read sucessfully
 initial charge from wavefunction
 entering main loop
       N       E                     dE             d eps       ncg     rms          rms(c)
DAV:   1    -0.399540909851E+03   -0.39954E+03   -0.21897E+00  1480   0.300E+00    0.789E-01
DAV:   2    -0.399565336287E+03   -0.24426E-01   -0.21736E-01  1576   0.614E+00    0.155E+00
DAV:   3    -0.399512800772E+03    0.52536E-01   -0.10933E-01  1576   0.429E+00    0.358E-01
DAV:   4    -0.399512349667E+03    0.45111E-03   -0.25826E-02  1824   0.123E+00    0.278E-01
DAV:   5    -0.399511556490E+03    0.79318E-03   -0.10658E-02  1784   0.748E-01    0.754E-02
DAV:   6    -0.399511722028E+03   -0.16554E-03   -0.21682E-03  1520   0.263E-01    0.765E-02
DAV:   7    -0.399511705352E+03    0.16676E-04   -0.96825E-04  1520   0.217E-01    0.421E-02
DAV:   8    -0.399511713006E+03   -0.76539E-05   -0.24709E-04  1528   0.122E-01    0.314E-02
DAV:   9    -0.399511703333E+03    0.96726E-05   -0.99432E-05  1512   0.755E-02
   1 F= -.39951170E+03 E0= -.39934572E+03  d E =-.497954E+00

 ----------------------------------------------------------------------------- 
|                                                                             |
|           W    W    AA    RRRRR   N    N  II  N    N   GGGG   !!!           |
|           W    W   A  A   R    R  NN   N  II  NN   N  G    G  !!!           |
|           W    W  A    A  R    R  N N  N  II  N N  N  G       !!!           |
|           W WW W  AAAAAA  RRRRR   N  N N  II  N  N N  G  GGG   !            |
|           WW  WW  A    A  R   R   N   NN  II  N   NN  G    G                |
|           W    W  A    A  R    R  N    N  II  N    N   GGGG   !!!           |
|                                                                             |
|      The partial DOS and the PROCAR file are not evaluated for NPAR/=1      |
|      please rerun with NPAR=1                                               |
|                                                                             |
 ----------------------------------------------------------------------------- 

