 vasp.4.6.28 25Jul05 complex 
 executed on             LinuxIFC date 2016.05.23  15:09:01
 running on    4 nodes
 distr:  one band on    1 nodes,    4 groups


--------------------------------------------------------------------------------------------------------


 INCAR:
 POTCAR:   PAW_PBE Cu 05Jan2001                   
 POTCAR:   PAW_PBE Cu 05Jan2001                   
   VRHFIN =Cu: d10 p1                                                           
   LEXCH  = PE                                                                  
   EATOM  =  1390.9800 eV,  102.2341 Ry                                         
                                                                                
   TITEL  = PAW_PBE Cu 05Jan2001                                                
   LULTRA =        F    use ultrasoft PP ?                                      
   IUNSCR =        1    unscreen: 0-lin 1-nonlin 2-no                           
   RPACOR =    2.000    partial core radius                                     
   POMASS =   63.546; ZVAL   =   11.000    mass and valenz                      
   RCORE  =    2.300    outmost cutoff radius                                   
   RWIGS  =    2.480; RWIGS  =    1.312    wigner-seitz radius (au A)           
   ENMAX  =  273.214; ENMIN  =  204.910 eV                                      
   RCLOC  =    1.712    cutoff for local pot                                    
   LCOR   =        T    correct aug charges                                     
   LPAW   =        T    paw PP                                                  
   EAUG   =  516.456                                                            
   DEXC   =    -.008                                                            
   RMAX   =    2.789    core radius for proj-oper                               
   RAUG   =    1.300    factor for augmentation sphere                          
   RDEP   =    2.302    radius for radial grids                                 
   QCUT   =   -4.481; QGAM   =    8.962    optimization parameters              
                                                                                
   Description                                                                  
     l     E      TYP  RCUT    TYP  RCUT                                        
     2   .000     23  2.300                                                     
     2   .000     23  2.300                                                     
     0   .000     23  2.300                                                     
     0   .000     23  2.300                                                     
     1  -.200     23  2.300                                                     
     1   .000     23  2.300                                                     
     3   .000      7   .000                                                     
  local pseudopotential read in
  partial core-charges read in
  atomic valenz-charges read in
  non local Contribution for L=           2  read in
    real space projection operators read in
  non local Contribution for L=           2  read in
    real space projection operators read in
  non local Contribution for L=           0  read in
    real space projection operators read in
  non local Contribution for L=           0  read in
    real space projection operators read in
  non local Contribution for L=           1  read in
    real space projection operators read in
  non local Contribution for L=           1  read in
    real space projection operators read in
    PAW grid and wavefunctions read in
 
   number of l-projection  operators is LMAX  =           6
   number of lm-projection operators is LMMAX =          18
 

 ----------------------------------------------------------------------------- 
|                                                                             |
|  ADVICE TO THIS USER RUNNING 'VASP/VAMP'   (HEAR YOUR MASTER'S VOICE ...):  |
|                                                                             |
|      You have a (more or less) 'large supercell' and for larger cells       |
|      it might be more efficient to use real space projection operators      |
|      So try LREAL= Auto  in the INCAR   file.                               |
|      Mind: If you want to do an extremely accurate calculations keep the    |
|      reciprocal projection scheme          (i.e. LREAL=.FALSE.)             |
|                                                                             |
 ----------------------------------------------------------------------------- 

 PAW_PBE Cu 05Jan2001                   :
 energy of atom  1       EATOM=-1390.9800
 kinetic energy error for atom=    0.0395 (will be added to EATOM!!)
 
 EXHCAR: internal setup
 exchange correlation table for  LEXCH =        8
   RHO(1)=    0.500       N(1)  =     2000
   RHO(2)=  100.500       N(2)  =     4000
 
 POSCAR: No title                                
  positions in direct lattice
  No initial velocities read in
 


--------------------------------------------------------------------------------------------------------


 ion  position               nearest neighbor table
   1  0.667  0.667  0.333-   5 2.55   8 2.55   9 2.55  43 2.55  60 2.55  59 2.55   3 2.55   2 2.55
                            38 2.55  19 2.55  34 2.55 101 2.55
   2  0.667  0.833  0.500-   3 2.55  14 2.55   9 2.55  10 2.55  34 2.55  39 2.55   1 2.55   6 2.55
                            61 2.55  97 2.55  60 2.55  35 2.55
   3  0.833  0.667  0.500-   2 2.55   9 2.55  14 2.55  12 2.55  19 2.55   1 2.55  39 2.55  49 2.55
                            87 2.55  11 2.55  44 2.55  43 2.55
   4  0.667  0.667  0.000-  21 2.55  15 2.55  66 2.55  83 2.55  20 2.55   8 2.55   5 2.55  38 2.55
                            59 2.55 107 2.55  82 2.55  63 2.55
   5  0.667  0.833  0.167-   1 2.55   8 2.55   9 2.55  21 2.55  60 2.55  59 2.55  22 2.55   4 2.55
                             6 2.55  16 2.55  84 2.55  83 2.55
   6  0.667  0.000  0.333-  22 2.55  17 2.55   9 2.55  23 2.55  10 2.55  84 2.55   5 2.55   2 2.55
                            85 2.55  61 2.55  60 2.55   7 2.55
   7  0.667  0.167  0.500-  24 2.55  18 2.55  10 2.55  86 2.55  23 2.55  64 2.55  62 2.55  35 2.55
                           105 2.55  61 2.55  85 2.55   6 2.55
   8  0.833  0.667  0.167-   5 2.55   1 2.55   9 2.55  21 2.55  43 2.55  38 2.55  26 2.55   4 2.55
                            11 2.55  70 2.55  25 2.55  66 2.55
   9  0.833  0.833  0.333-   1 2.55   5 2.55   8 2.55   6 2.55   3 2.55  11 2.55  22 2.55   2 2.55
                            26 2.55  27 2.55  12 2.55  10 2.55
  10  0.833  0.000  0.500-   7 2.55  35 2.55   2 2.55   6 2.55  23 2.55  12 2.55  39 2.55  27 2.55
                            28 2.55  67 2.55  64 2.55   9 2.55
  11  0.000  0.667  0.333-  26 2.55   9 2.55  29 2.55  30 2.55   8 2.55  12 2.55  70 2.55  49 2.55
                            75 2.55   3 2.55  43 2.55  13 2.55
  12  0.000  0.833  0.500-  13 2.55  44 2.55   3 2.55  11 2.55  27 2.55  10 2.55  39 2.55  30 2.55
                            31 2.55   9 2.55  71 2.55  67 2.55
  13  0.167  0.667  0.500-  33 2.55  30 2.55  12 2.55  81 2.55  32 2.55  76 2.55  71 2.55 102 2.55
                            44 2.55  49 2.55  11 2.55  75 2.55
  14  0.667  0.667  0.667-  39 2.55  20 2.55  15 2.55   2 2.55  63 2.55  87 2.55  97 2.55   3 2.55
                            82 2.55 108 2.55  34 2.55  19 2.55
  15  0.667  0.833  0.833-  20 2.55  39 2.55  14 2.55  35 2.55   4 2.55  40 2.55  82 2.55  21 2.55
                            97 2.55  98 2.55  83 2.55  16 2.55
  16  0.667  0.000  0.000-  21 2.55  40 2.55  41 2.55  22 2.55   5 2.55  36 2.55  99 2.55  84 2.55
                            83 2.55  98 2.55  17 2.55  15 2.55
  17  0.667  0.167  0.167-  42 2.55  23 2.55  18 2.55   6 2.55  37 2.55  22 2.55 100 2.55  85 2.55
                            41 2.55  84 2.55  99 2.55  16 2.55
  18  0.667  0.333  0.333-  23 2.55  42 2.55  17 2.55  38 2.55   7 2.55  43 2.55  85 2.55  24 2.55
                           100 2.55 101 2.55  86 2.55  19 2.55
  19  0.667  0.500  0.500-  24 2.55  43 2.55   3 2.55  87 2.55   1 2.55  62 2.55  34 2.55 108 2.55
                            86 2.55 101 2.55  14 2.55  18 2.55
  20  0.833  0.667  0.833-  15 2.55  39 2.55  14 2.55   4 2.55  44 2.55  45 2.55  63 2.55  21 2.55
                            87 2.55  66 2.55  89 2.55  25 2.55
  21  0.833  0.833  0.000-   4 2.55   8 2.55  16 2.55  25 2.55   5 2.55  15 2.55  20 2.55  40 2.55
                            45 2.55  46 2.55  26 2.55  22 2.55
  22  0.833  0.000  0.167-   6 2.55   9 2.55  17 2.55   5 2.55  16 2.55  27 2.55  23 2.55  26 2.55
                            41 2.55  46 2.55  47 2.55  21 2.55
  23  0.833  0.167  0.333-  18 2.55  42 2.55  17 2.55   7 2.55  47 2.55   6 2.55  48 2.55  24 2.55
                            22 2.55  27 2.55  10 2.55  28 2.55
  24  0.833  0.333  0.500-   7 2.55  19 2.55  28 2.55  64 2.55  62 2.55  18 2.55  23 2.55  43 2.55
                            48 2.55  49 2.55  88 2.55  87 2.55
  25  0.000  0.667  0.000-  21 2.55  45 2.55  51 2.55  26 2.55  70 2.55  92 2.55  50 2.55   8 2.55
                            66 2.55  20 2.55  29 2.55  89 2.55
  26  0.000  0.833  0.167-  11 2.55  29 2.55   9 2.55   8 2.55  30 2.55  25 2.55  27 2.55  22 2.55
                            46 2.55  51 2.55  52 2.55  21 2.55
  27  0.000  0.000  0.333-  47 2.55  52 2.55  22 2.55  26 2.55  30 2.55  23 2.55  12 2.55  10 2.55
                             9 2.55  53 2.55  31 2.55  28 2.55
  28  0.000  0.167  0.500-  24 2.55  48 2.55  54 2.55  88 2.55  67 2.55  31 2.55  53 2.55  64 2.55
                            10 2.55  23 2.55  90 2.55  27 2.55
  29  0.167  0.667  0.167-  56 2.55  32 2.55  30 2.55  51 2.55  26 2.55  75 2.55  96 2.55  55 2.55
                            11 2.55  70 2.55  25 2.55  92 2.55
  30  0.167  0.833  0.333-  32 2.55  56 2.55  29 2.55  52 2.55  13 2.55  11 2.55  57 2.55  33 2.55
                            26 2.55  27 2.55  12 2.55  31 2.55
  31  0.167  0.000  0.500-  33 2.55  57 2.55  58 2.55  93 2.55  53 2.55  71 2.55  28 2.55  67 2.55
                            12 2.55  27 2.55  90 2.55  30 2.55
  32  0.333  0.667  0.333-  30 2.55  56 2.55  29 2.55  13 2.55  59 2.55  60 2.55  75 2.55  33 2.55
                            96 2.55  81 2.55 101 2.55  34 2.55
  33  0.333  0.833  0.500-  13 2.55  31 2.55  34 2.55  76 2.55  71 2.55  30 2.55  32 2.55  57 2.55
                            60 2.55  61 2.55  97 2.55  93 2.55
  34  0.500  0.667  0.500-  33 2.55  60 2.55   2 2.55  97 2.55  19 2.55 108 2.55   1 2.55  76 2.55
                            81 2.55  14 2.55  32 2.55 101 2.55
  35  0.667  0.000  0.667-  40 2.55  39 2.55  15 2.55  10 2.55  98 2.55  64 2.55  36 2.55   7 2.55
                           105 2.55  97 2.55  61 2.55   2 2.55
  36  0.667  0.167  0.833-  62 2.55  64 2.55  65 2.55  40 2.55 106 2.55 105 2.55  41 2.55  37 2.55
                            35 2.55  16 2.55  99 2.55  98 2.55
  37  0.667  0.333  0.000-  41 2.55  17 2.55  65 2.55  66 2.55  99 2.55  42 2.55  36 2.55  63 2.55
                           107 2.55 100 2.55 106 2.55  38 2.55
  38  0.667  0.500  0.167-  43 2.55  42 2.55  18 2.55  66 2.55 101 2.55   8 2.55   1 2.55   4 2.55
                            59 2.55 100 2.55 107 2.55  37 2.55
  39  0.833  0.833  0.667-  20 2.55  15 2.55  14 2.55  35 2.55  44 2.55   2 2.55  45 2.55   3 2.55
                            40 2.55  10 2.55  12 2.55  67 2.55
  40  0.833  0.000  0.833-  35 2.55  36 2.55  64 2.55  16 2.55  67 2.55  15 2.55  39 2.55  21 2.55
                            45 2.55  68 2.55  46 2.55  41 2.55
  41  0.833  0.167  0.000-  37 2.55  65 2.55  17 2.55  16 2.55  69 2.55  36 2.55  42 2.55  22 2.55
                            46 2.55  68 2.55  47 2.55  40 2.55
  42  0.833  0.333  0.167-  23 2.55  18 2.55  17 2.55  38 2.55  47 2.55  37 2.55  48 2.55  41 2.55
                            43 2.55  66 2.55  69 2.55  70 2.55
  43  0.833  0.500  0.333-  38 2.55   8 2.55   1 2.55  19 2.55  70 2.55  18 2.55  42 2.55  48 2.55
                            24 2.55  11 2.55  49 2.55   3 2.55
  44  0.000  0.667  0.667-  45 2.55  39 2.55  12 2.55  89 2.55  20 2.55  71 2.55  50 2.55 102 2.55
                            13 2.55  87 2.55   3 2.55  49 2.55
  45  0.000  0.833  0.833-  44 2.55  25 2.55  50 2.55  67 2.55  71 2.55  20 2.55  39 2.55  40 2.55
                            21 2.55  72 2.55  51 2.55  46 2.55
  46  0.000  0.000  0.000-  26 2.55  41 2.55  51 2.55  68 2.55  22 2.55  72 2.55  21 2.55  73 2.55
                            52 2.55  40 2.55  47 2.55  45 2.55
  47  0.000  0.167  0.167-  48 2.55  42 2.55  27 2.55  69 2.55  23 2.55  74 2.55  53 2.55  52 2.55
                            73 2.55  22 2.55  41 2.55  46 2.55
  48  0.000  0.333  0.333-  47 2.55  28 2.55  53 2.55  70 2.55  74 2.55  23 2.55  42 2.55  43 2.55
                            24 2.55  75 2.55  54 2.55  49 2.55
  49  0.000  0.500  0.500-   3 2.55  11 2.55  54 2.55  88 2.55  87 2.55  75 2.55  13 2.55  24 2.55
                            43 2.55 102 2.55  48 2.55  44 2.55
  50  0.167  0.667  0.833-  71 2.55  76 2.55  77 2.55  45 2.55 104 2.55  44 2.55  55 2.55  51 2.55
                           102 2.55  92 2.55  25 2.55  89 2.55
  51  0.167  0.833  0.000-  55 2.55  29 2.55  77 2.55  25 2.55  78 2.55  56 2.55  50 2.55  46 2.55
                            72 2.55  26 2.55  45 2.55  52 2.55
  52  0.167  0.000  0.167-  57 2.55  56 2.55  30 2.55  27 2.55  78 2.55  79 2.55  53 2.55  47 2.55
                            73 2.55  26 2.55  46 2.55  51 2.55
  53  0.167  0.167  0.333-  74 2.55  79 2.55  80 2.55  57 2.55  48 2.55  58 2.55  47 2.55  54 2.55
                            52 2.55  31 2.55  28 2.55  27 2.55
  54  0.167  0.333  0.500-  58 2.55  90 2.55  80 2.55  81 2.55  28 2.55 103 2.55  53 2.55  49 2.55
                            75 2.55  88 2.55  48 2.55 102 2.55
  55  0.333  0.667  0.000-  51 2.55  77 2.55  29 2.55  83 2.55  92 2.55  50 2.55  56 2.55  96 2.55
                           107 2.55  82 2.55  59 2.55 104 2.55
  56  0.333  0.833  0.167-  32 2.55  30 2.55  29 2.55  52 2.55  59 2.55  51 2.55  60 2.55  55 2.55
                            57 2.55  78 2.55  83 2.55  84 2.55
  57  0.333  0.000  0.333-  52 2.55  53 2.55  79 2.55  31 2.55  84 2.55  30 2.55  56 2.55  33 2.55
                            60 2.55  85 2.55  61 2.55  58 2.55
  58  0.333  0.167  0.500-  54 2.55  80 2.55  90 2.55  86 2.55  31 2.55  53 2.55 103 2.55  93 2.55
                            61 2.55  85 2.55 105 2.55  57 2.55
  59  0.500  0.667  0.167-  60 2.55  56 2.55  83 2.55 101 2.55  32 2.55   5 2.55   1 2.55  38 2.55
                             4 2.55  96 2.55  55 2.55 107 2.55
  60  0.500  0.833  0.333-  59 2.55  34 2.55   1 2.55  84 2.55   5 2.55  32 2.55  56 2.55  57 2.55
                            33 2.55   6 2.55   2 2.55  61 2.55
  61  0.500  0.000  0.500-   2 2.55  58 2.55  85 2.55  97 2.55  93 2.55   6 2.55   7 2.55  33 2.55
                            35 2.55  57 2.55  60 2.55 105 2.55
  62  0.667  0.333  0.667-  36 2.55  64 2.55  65 2.55  24 2.55 106 2.55 105 2.55  87 2.55   7 2.55
                            63 2.55  19 2.55 108 2.55  86 2.55
  63  0.667  0.500  0.833-  87 2.55  65 2.55  14 2.55  20 2.55  66 2.55 108 2.55  62 2.55  37 2.55
                            82 2.55 107 2.55 106 2.55   4 2.55
  64  0.833  0.167  0.667-  62 2.55  36 2.55  65 2.55  24 2.55  40 2.55  35 2.55  88 2.55  68 2.55
                             7 2.55  67 2.55  28 2.55  10 2.55
  65  0.833  0.333  0.833-  36 2.55  62 2.55  64 2.55  63 2.55  41 2.55  68 2.55  87 2.55  37 2.55
                            88 2.55  89 2.55  69 2.55  66 2.55
  66  0.833  0.500  0.000-   4 2.55  38 2.55  37 2.55  63 2.55  42 2.55  20 2.55  69 2.55  89 2.55
                            25 2.55  70 2.55  65 2.55   8 2.55
  67  0.000  0.000  0.667-  45 2.55  40 2.55  72 2.55  68 2.55  28 2.55  71 2.55  64 2.55  31 2.55
                            39 2.55  90 2.55  10 2.55  12 2.55
  68  0.000  0.167  0.833-  88 2.55  65 2.55  90 2.55  91 2.55  64 2.55  69 2.55  67 2.55  72 2.55
                            46 2.55  41 2.55  40 2.55  73 2.55
  69  0.000  0.333  0.000-  47 2.55  73 2.55  41 2.55  68 2.55  66 2.55  89 2.55  42 2.55  91 2.55
                            92 2.55  74 2.55  65 2.55  70 2.55
  70  0.000  0.500  0.167-  48 2.55  43 2.55  75 2.55  11 2.55  25 2.55  74 2.55   8 2.55  92 2.55
                            42 2.55  29 2.55  66 2.55  69 2.55
  71  0.167  0.833  0.667-  50 2.55  76 2.55  77 2.55  45 2.55  33 2.55  44 2.55  93 2.55  13 2.55
                            72 2.55  31 2.55  67 2.55  12 2.55
  72  0.167  0.000  0.833-  93 2.55  90 2.55  77 2.55  94 2.55  78 2.55  67 2.55  71 2.55  51 2.55
                            68 2.55  46 2.55  45 2.55  73 2.55
  73  0.167  0.167  0.000-  95 2.55  78 2.55  91 2.55  69 2.55  94 2.55  79 2.55  74 2.55  52 2.55
                            47 2.55  46 2.55  68 2.55  72 2.55
  74  0.167  0.333  0.167-  53 2.55  79 2.55  80 2.55  48 2.55  95 2.55  47 2.55  96 2.55  73 2.55
                            75 2.55  70 2.55  92 2.55  69 2.55
  75  0.167  0.500  0.333-  96 2.55  80 2.55  29 2.55  32 2.55  81 2.55  70 2.55  74 2.55  54 2.55
                            11 2.55  49 2.55  48 2.55  13 2.55
  76  0.333  0.667  0.667-  71 2.55  50 2.55  77 2.55  33 2.55 104 2.55 102 2.55  97 2.55  82 2.55
                            13 2.55 108 2.55  34 2.55  81 2.55
  77  0.333  0.833  0.833-  50 2.55  71 2.55  76 2.55  72 2.55  55 2.55  82 2.55  93 2.55  51 2.55
                            97 2.55  98 2.55  83 2.55  78 2.55
  78  0.333  0.000  0.000-  73 2.55  52 2.55  51 2.55  72 2.55  56 2.55  83 2.55  94 2.55  98 2.55
                            99 2.55  84 2.55  79 2.55  77 2.55
  79  0.333  0.167  0.167-  74 2.55  53 2.55  80 2.55  57 2.55  95 2.55  52 2.55 100 2.55  73 2.55
                            85 2.55  84 2.55  99 2.55  78 2.55
  80  0.333  0.333  0.333-  53 2.55  74 2.55  79 2.55  75 2.55  58 2.55  85 2.55  96 2.55  54 2.55
                           100 2.55 101 2.55  86 2.55  81 2.55
  81  0.333  0.500  0.500-  13 2.55 102 2.55  54 2.55  75 2.55  86 2.55  32 2.55 103 2.55 101 2.55
                            34 2.55 108 2.55  80 2.55  76 2.55
  82  0.500  0.667  0.833-  97 2.55  77 2.55  14 2.55  15 2.55  76 2.55  83 2.55 108 2.55 107 2.55
                            63 2.55  55 2.55 104 2.55   4 2.55
  83  0.500  0.833  0.000-   4 2.55  59 2.55  55 2.55  82 2.55  78 2.55  98 2.55  15 2.55  56 2.55
                            16 2.55  77 2.55   5 2.55  84 2.55
  84  0.500  0.000  0.167-  60 2.55  57 2.55   6 2.55  85 2.55  79 2.55   5 2.55  99 2.55  16 2.55
                            56 2.55  17 2.55  78 2.55  83 2.55
  85  0.500  0.167  0.333- 100 2.55  80 2.55  17 2.55  18 2.55  79 2.55  86 2.55  84 2.55  61 2.55
                             6 2.55  58 2.55  57 2.55   7 2.55
  86  0.500  0.333  0.500-   7 2.55 105 2.55  58 2.55  85 2.55 101 2.55  81 2.55 103 2.55  18 2.55
                            19 2.55  80 2.55  62 2.55 108 2.55
  87  0.833  0.500  0.667-  63 2.55  14 2.55  65 2.55  62 2.55  19 2.55  89 2.55  20 2.55  88 2.55
                             3 2.55  49 2.55  44 2.55  24 2.55
  88  0.000  0.333  0.667-  68 2.55  90 2.55  65 2.55  64 2.55  91 2.55  28 2.55  89 2.55  87 2.55
                            49 2.55  54 2.55 102 2.55  24 2.55
  89  0.000  0.500  0.833-  44 2.55 102 2.55  87 2.55  88 2.55  69 2.55  91 2.55  20 2.55  66 2.55
                            50 2.55  65 2.55  92 2.55  25 2.55
  90  0.167  0.167  0.667- 103 2.55  94 2.55  91 2.55  54 2.55  93 2.55  72 2.55  88 2.55  58 2.55
                            68 2.55  67 2.55  28 2.55  31 2.55
  91  0.167  0.333  0.833-  94 2.55 103 2.55  90 2.55 102 2.55  73 2.55  68 2.55 104 2.55  95 2.55
                            88 2.55  89 2.55  69 2.55  92 2.55
  92  0.167  0.500  0.000-  95 2.55 104 2.55  55 2.55  96 2.55  50 2.55  25 2.55  74 2.55  70 2.55
                            69 2.55  89 2.55  91 2.55  29 2.55
  93  0.333  0.000  0.667-  72 2.55  77 2.55  90 2.55  71 2.55  31 2.55  98 2.55  94 2.55  97 2.55
                            58 2.55  61 2.55 105 2.55  33 2.55
  94  0.333  0.167  0.833-  91 2.55 103 2.55  90 2.55  73 2.55 105 2.55  72 2.55 106 2.55  95 2.55
                            93 2.55  98 2.55  78 2.55  99 2.55
  95  0.333  0.333  0.000-  73 2.55  79 2.55  92 2.55  99 2.55  74 2.55  91 2.55  94 2.55 104 2.55
                           106 2.55 107 2.55 100 2.55  96 2.55
  96  0.333  0.500  0.167-  75 2.55  29 2.55  80 2.55  74 2.55  92 2.55 101 2.55  32 2.55 100 2.55
                            55 2.55 107 2.55  59 2.55  95 2.55
  97  0.500  0.833  0.667-  82 2.55  14 2.55  77 2.55  76 2.55  15 2.55  34 2.55  98 2.55  93 2.55
                            61 2.55   2 2.55  35 2.55  33 2.55
  98  0.500  0.000  0.833- 105 2.55  35 2.55  93 2.55  97 2.55  94 2.55  83 2.55  15 2.55  78 2.55
                            36 2.55  77 2.55  16 2.55  99 2.55
  99  0.500  0.167  0.000-  95 2.55 106 2.55  37 2.55 100 2.55  84 2.55  16 2.55  36 2.55  79 2.55
                            78 2.55  94 2.55  17 2.55  98 2.55
 100  0.500  0.333  0.167-  85 2.55  17 2.55  80 2.55  79 2.55  18 2.55  99 2.55 101 2.55  96 2.55
                           107 2.55  37 2.55  38 2.55  95 2.55
 101  0.500  0.500  0.333-  59 2.55  38 2.55  96 2.55 100 2.55  86 2.55  18 2.55  32 2.55  81 2.55
                             1 2.55  80 2.55  19 2.55  34 2.55
 102  0.167  0.500  0.667- 104 2.55 103 2.55  91 2.55  89 2.55  81 2.55  76 2.55  50 2.55  44 2.55
                            13 2.55  88 2.55  49 2.55  54 2.55
 103  0.333  0.333  0.667-  94 2.55  91 2.55  90 2.55 102 2.55 105 2.55  54 2.55 106 2.55  58 2.55
                           104 2.55  81 2.55  86 2.55 108 2.55
 104  0.333  0.500  0.833- 102 2.55  76 2.55  50 2.55  92 2.55 108 2.55  91 2.55 103 2.55 106 2.55
                            95 2.55  82 2.55 107 2.55  55 2.55
 105  0.500  0.167  0.667- 106 2.55  98 2.55 103 2.55  86 2.55  94 2.55  62 2.55  36 2.55  35 2.55
                             7 2.55  93 2.55  58 2.55  61 2.55
 106  0.500  0.333  0.833- 105 2.55  99 2.55  36 2.55 108 2.55  62 2.55  94 2.55 103 2.55 104 2.55
                            95 2.55  63 2.55  37 2.55 107 2.55
 107  0.500  0.500  0.000-  37 2.55  55 2.55  82 2.55 100 2.55  96 2.55  63 2.55   4 2.55  95 2.55
                            38 2.55 104 2.55  59 2.55 106 2.55
 108  0.500  0.500  0.667- 106 2.55 104 2.55  63 2.55  82 2.55  62 2.55  34 2.55  76 2.55  19 2.55
                            14 2.55 103 2.55  81 2.55  86 2.55
 
  LATTYP: Found a simple cubic cell.
 ALAT       =    10.7999999700
  
  Lattice vectors:
  
 A1 = (  10.7999999700,   0.0000000000,   0.0000000000)
 A2 = (   0.0000002000,  10.7999999700,   0.0000000000)
 A3 = (   0.0000002000,   0.0000002000,  10.7999999700)
 Subroutine PRICEL returns following result:
 
  LATTYP: Found a face centered cubic cell.
 ALAT       =     3.6000000953
  
  Lattice vectors:
  
 A1 = (   1.8000000643,   1.8000000310,  -0.0000001080)
 A2 = (   1.7999999977,  -0.0000000333,  -1.8000000310)
 A3 = (   0.0000000000,   1.7999999977,  -1.8000000310)
 
 108 primitive cells build up your supercell.
 

Analysis of symmetry for initial positions (statically):

 Routine SETGRP: Setting up the symmetry group for a 
 simple cubic supercell.


 Subroutine GETGRP returns: Found 48 space group operations
 (whereof 48 operations were pure point group operations)
 out of a pool of 48 trial point group operations.


The static configuration has the point symmetry O_h .

Analysis of symmetry for dynamics (positions and initial velocities):

 Subroutine DYNSYM returns: Found 48 space group operations
 (whereof 48 operations were pure point group operations)
 out of a pool of 48 trial space group operations
 (whereof 48 operations were pure point group operations)
 and found also   108 'primitive' translations


The dynamic configuration has the point symmetry O_h .
 
 
 KPOINTS: Automatic mesh                          

Automatic generation of k-mesh.
 
 Subroutine IBZKPT returns following result:
 ===========================================
 
 Found      1 irreducible k-points:
 
 Following reciprocal coordinates:
            Coordinates               Weight
  0.250000  0.250000  0.250000      8.000000
 
 Following cartesian coordinates:
            Coordinates               Weight
  0.023148  0.023148  0.023148      8.000000
 


--------------------------------------------------------------------------------------------------------




 Dimension of arrays:
   k-Points           NKPTS =      1   number of bands    NBANDS=    712
   number of dos      NEDOS =    301   number of ions     NIONS =    108
   non local maximal  LDIM  =      6   non local SUM 2l+1 LMDIM =     18
   total plane-waves  NPLWV = 110592
   max r-space proj   IRMAX =      1   max aug-charges    IRDMAX=   3280
   dimension x,y,z NGX =    48 NGY =   48 NGZ =   48
   dimension x,y,z NGXF=    96 NGYF=   96 NGZF=   96
   support grid    NGXF=    96 NGYF=   96 NGZF=   96
   ions per type =             108
 NGX,Y,Z   is equivalent  to a cutoff of   7.39,  7.39,  7.39 a.u.
 NGXF,Y,Z  is equivalent  to a cutoff of  14.78, 14.78, 14.78 a.u.


 I would recommend the setting:
   dimension x,y,z NGX =    44 NGY =   44 NGZ =   44
 SYSTEM =  No title                                
 POSCAR =  No title                                

 Startparameter for this run:
   NWRITE =      2    write-flag & timer
   PREC   = normal    medium, high low
   ISTART =      0    job   : 0-new  1-cont  2-samecut
   ICHARG =      2    charge: 1-file 2-atom 10-const
   ISPIN  =      1    spin polarized calculation?
   LNONCOLLINEAR =      F non collinear calculations
   LSORBIT =      F    spin-orbit coupling
   INIWAV =      1    electr: 0-lowe 1-rand  2-diag
   LASPH  =      F    aspherical Exc in radial PAW
   METAGGA=      F    non-selfconsistent MetaGGA calc.

 Electronic Relaxation 1
   ENCUT  =  273.2 eV  20.08 Ry    4.48 a.u.  14.56 14.56 14.56*2*pi/ulx,y,z
   ENINI  =  273.2     initial cutoff
   ENAUG  =  516.5 eV  augmentation charge cutoff
   NELM   =     60;   NELMIN=  2; NELMDL= -5     # of ELM steps 
   EDIFF  = 0.1E-04   stopping-criterion for ELM
   LREAL  =      F    real-space projection
   LCOMPAT=      F    compatible to vasp.4.4
   LREAL_COMPAT= F    compatible to vasp.4.5.1-3
   GGA_COMPAT  = T    GGA compatible to vasp.4.4-vasp.4.6
   LMAXPAW     = -100 max onsite density
   LMAXMIX     =    2 max onsite mixed and CHGCAR
   VOSKOWN=      1    Vosko Wilk Nusair interpolation
   ROPT   =    0.00000
 Ionic relaxation
   EDIFFG = -.2E-01   stopping-criterion for IOM
   NSW    =    100    number of steps for IOM
   NBLOCK =      1;   KBLOCK =    100    inner block; outer block 
   IBRION =      2    ionic relax: 0-MD 1-quasi-New 2-CG
   NFREE  =      1    steps in history (QN), initial steepest desc. (CG)
   ISIF   =      2    stress and relaxation
   IWAVPR =     11    prediction:  0-non 1-charg 2-wave 3-comb
   ISYM   =      2    0-nonsym 1-usesym 2-fastsym
   LCORR  =      T    Harris-Foulkes like correction to forces

   POTIM  =   0.50    time-step for ionic-motion
   TEIN   =    0.0    initial temperature
   TEBEG  =    0.0;   TEEND  =   0.0 temperature during run
   SMASS  =  -3.00    Nose mass-parameter (am)
   estimated Nose-frequenzy (Omega)   =  0.10E-29 period in steps =****** mass=  -0.267E-26a.u.
   NPACO  =    256;   APACO  = 16.0  distance and # of slots for P.C.
   PSTRESS=    0.0 pullay stress

  Mass of Ions in am
   POMASS =  63.55
  Ionic Valenz
   ZVAL   =  11.00
  Atomic Wigner-Seitz radii
   RWIGS  =   1.17
   NELECT =    1188.0000    total number of electrons
   NUPDOWN=      -1.0000    fix difference up-down

 DOS related values:
   EMIN   =  10.00;   EMAX   =-10.00  energy-range for DOS
   ISMEAR =     1;   SIGMA  =   0.20  broadening in eV -4-tet -1-fermi 0-gaus

 Electronic relaxation 2 (details)
   IALGO  =     38    algorithm
   LDIAG  =      T    sub-space diagonalisation
   IMIX   =      4    mixing-type and parameters
     AMIX     =   0.40;   BMIX     =  1.00
     AMIX_MAG =   1.60;   BMIX_MAG =  1.00
     AMIN     =   0.10
     WC   =   100.;   INIMIX=   1;  MIXPRE=   1

 Intra band minimization:
   WEIMIN = 0.0010     energy-eigenvalue tresh-hold
   EBREAK =  0.35E-08  absolut break condition
   DEPER  =   0.30     relativ break condition  

   TIME   =   0.10     timestep for ELM

  volume/ion in A,a.u.               =      11.66        78.71
  Fermi-wavevector in a.u.,eV,Ry     =   1.605425 35.067491  2.577388

 Second variation
   LSECVAR=     F    do a second variation
 
 Write flags
   LWAVE  =      T    write WAVECAR
   LCHARG =      F    write CHGCAR
   LVTOT  =      F    write LOCPOT, local potential
   LELF   =      F    write electronic localiz. function (ELF)
   LORBIT =      0    0 simple, 1 ext, 2 COOP (PROOUT)


 Dipole corrections
   IDIPOL =      0    1-x, 2-y, 3-z
   LDIPOL =      F    correct potential



--------------------------------------------------------------------------------------------------------


 conjugate gradient relaxation of ions
 charge density will be updated during run
 non-spin polarized calculation
 Variant of blocked Davidson
 Davidson routine will perform the subspace rotation
 performe sub-space diagonalisation
    after iterative eigenvector-optimisation
 modified Broyden-mixing scheme, WC =      100.0
 initial mixing is a Kerker type mixing with AMIX =  0.4000 and BMIX =      1.0000
 Hartree-type preconditioning will be used
 using additional bands          118
 reciprocal scheme for non local part
 use partial core corrections
 calculate Harris-corrections to forces 
   (improved forces if not selfconsistent)
 use gradient corrections 
 use of overlap-Matrix (Vanderbilt PP)
 Methfessel and Paxton  Order N= 1 SIGMA  =   0.20


--------------------------------------------------------------------------------------------------------


  energy-cutoff  :      273.21
  volume of cell :     1259.71
      direct lattice vectors                 reciprocal lattice vectors
    10.799999970  0.000000000  0.000000000     0.092592593 -0.000000002 -0.000000002
     0.000000200 10.799999970  0.000000000     0.000000000  0.092592593 -0.000000002
     0.000000200  0.000000200 10.799999970     0.000000000  0.000000000  0.092592593

  length of vectors
    10.799999970 10.799999970 10.799999970     0.092592593  0.092592593  0.092592593


 
 k-points in units of 2pi/SCALE and weight: Automatic mesh                          
   0.02314815  0.02314815  0.02314815       1.000
 
 k-points in reciprocal lattice and weights: Automatic mesh                          
   0.25000000  0.25000000  0.25000000       1.000
 
 position of ions in fractional coordinates (direct lattice) 
   0.66666667  0.66666667  0.33333333
   0.66666667  0.83333333  0.50000000
   0.83333333  0.66666667  0.50000000
   0.66666667  0.66666667  0.00000000
   0.66666667  0.83333333  0.16666667
   0.66666667  0.00000000  0.33333333
   0.66666667  0.16666667  0.50000000
   0.83333333  0.66666667  0.16666667
   0.83333333  0.83333333  0.33333333
   0.83333333  0.00000000  0.50000000
   0.00000000  0.66666667  0.33333333
   0.00000000  0.83333333  0.50000000
   0.16666667  0.66666667  0.50000000
   0.66666667  0.66666667  0.66666667
   0.66666667  0.83333333  0.83333333
   0.66666667  0.00000000  0.00000000
   0.66666667  0.16666667  0.16666667
   0.66666667  0.33333333  0.33333333
   0.66666667  0.50000000  0.50000000
   0.83333333  0.66666667  0.83333333
   0.83333333  0.83333333  0.00000000
   0.83333333  0.00000000  0.16666667
   0.83333333  0.16666667  0.33333333
   0.83333333  0.33333333  0.50000000
   0.00000000  0.66666667  0.00000000
   0.00000000  0.83333333  0.16666667
   0.00000000  0.00000000  0.33333333
   0.00000000  0.16666667  0.50000000
   0.16666667  0.66666667  0.16666667
   0.16666667  0.83333333  0.33333333
   0.16666667  0.00000000  0.50000000
   0.33333333  0.66666667  0.33333333
   0.33333333  0.83333333  0.50000000
   0.50000000  0.66666667  0.50000000
   0.66666667  0.00000000  0.66666667
   0.66666667  0.16666667  0.83333333
   0.66666667  0.33333333  0.00000000
   0.66666667  0.50000000  0.16666667
   0.83333333  0.83333333  0.66666667
   0.83333333  0.00000000  0.83333333
   0.83333333  0.16666667  0.00000000
   0.83333333  0.33333333  0.16666667
   0.83333333  0.50000000  0.33333333
   0.00000000  0.66666667  0.66666667
   0.00000000  0.83333333  0.83333333
   0.00000000  0.00000000  0.00000000
   0.00000000  0.16666667  0.16666667
   0.00000000  0.33333333  0.33333333
   0.00000000  0.50000000  0.50000000
   0.16666667  0.66666667  0.83333333
   0.16666667  0.83333333  0.00000000
   0.16666667  0.00000000  0.16666667
   0.16666667  0.16666667  0.33333333
   0.16666667  0.33333333  0.50000000
   0.33333333  0.66666667  0.00000000
   0.33333333  0.83333333  0.16666667
   0.33333333  0.00000000  0.33333333
   0.33333333  0.16666667  0.50000000
   0.50000000  0.66666667  0.16666667
   0.50000000  0.83333333  0.33333333
   0.50000000  0.00000000  0.50000000
   0.66666667  0.33333333  0.66666667
   0.66666667  0.50000000  0.83333333
   0.83333333  0.16666667  0.66666667
   0.83333333  0.33333333  0.83333333
   0.83333333  0.50000000  0.00000000
   0.00000000  0.00000000  0.66666667
   0.00000000  0.16666667  0.83333333
   0.00000000  0.33333333  0.00000000
   0.00000000  0.50000000  0.16666667
   0.16666667  0.83333333  0.66666667
   0.16666667  0.00000000  0.83333333
   0.16666667  0.16666667  0.00000000
   0.16666667  0.33333333  0.16666667
   0.16666667  0.50000000  0.33333333
   0.33333333  0.66666667  0.66666667
   0.33333333  0.83333333  0.83333333
   0.33333333  0.00000000  0.00000000
   0.33333333  0.16666667  0.16666667
   0.33333333  0.33333333  0.33333333
   0.33333333  0.50000000  0.50000000
   0.50000000  0.66666667  0.83333333
   0.50000000  0.83333333  0.00000000
   0.50000000  0.00000000  0.16666667
   0.50000000  0.16666667  0.33333333
   0.50000000  0.33333333  0.50000000
   0.83333333  0.50000000  0.66666667
   0.00000000  0.33333333  0.66666667
   0.00000000  0.50000000  0.83333333
   0.16666667  0.16666667  0.66666667
   0.16666667  0.33333333  0.83333333
   0.16666667  0.50000000  0.00000000
   0.33333333  0.00000000  0.66666667
   0.33333333  0.16666667  0.83333333
   0.33333333  0.33333333  0.00000000
   0.33333333  0.50000000  0.16666667
   0.50000000  0.83333333  0.66666667
   0.50000000  0.00000000  0.83333333
   0.50000000  0.16666667  0.00000000
   0.50000000  0.33333333  0.16666667
   0.50000000  0.50000000  0.33333333
   0.16666667  0.50000000  0.66666667
   0.33333333  0.33333333  0.66666667
   0.33333333  0.50000000  0.83333333
   0.50000000  0.16666667  0.66666667
   0.50000000  0.33333333  0.83333333
   0.50000000  0.50000000  0.00000000
   0.50000000  0.50000000  0.66666667
 
 position of ions in cartesian coordinates  (Angst):
   7.20000022  7.20000008  3.59999995
   7.20000028  9.00000004  5.39999999
   9.00000017  7.20000012  5.39999999
   7.20000015  7.20000002  0.00000000
   7.20000022  8.99999997  1.80000003
   7.20000008  0.00000007  3.59999995
   7.20000015  1.80000013  5.39999999
   9.00000011  7.20000005  1.80000003
   9.00000017  9.00000001  3.59999995
   9.00000004  0.00000010  5.39999999
   0.00000020  7.20000008  3.59999995
   0.00000027  9.00000004  5.39999999
   1.80000026  7.20000012  5.39999999
   7.20000028  7.20000015  7.20000002
   7.20000035  9.00000011  8.99999994
   7.20000002  0.00000000  0.00000000
   7.20000008  1.80000006  1.80000003
   7.20000015  3.60000002  3.59999995
   7.20000022  5.40000009  5.39999999
   9.00000024  7.20000018  8.99999994
   9.00000011  8.99999994  0.00000000
   8.99999997  0.00000003  1.80000003
   9.00000004  1.80000010  3.59999995
   9.00000011  3.60000005  5.39999999
   0.00000013  7.20000002  0.00000000
   0.00000020  8.99999997  1.80000003
   0.00000007  0.00000007  3.59999995
   0.00000013  1.80000013  5.39999999
   1.80000020  7.20000005  1.80000003
   1.80000026  9.00000001  3.59999995
   1.80000013  0.00000010  5.39999999
   3.60000015  7.20000008  3.59999995
   3.60000022  9.00000004  5.39999999
   5.40000022  7.20000012  5.39999999
   7.20000015  0.00000013  7.20000002
   7.20000022  1.80000020  8.99999994
   7.20000008  3.59999995  0.00000000
   7.20000015  5.40000002  1.80000003
   9.00000024  9.00000007  7.20000002
   9.00000011  0.00000017  8.99999994
   8.99999997  1.80000003  0.00000000
   9.00000004  3.59999999  1.80000003
   9.00000011  5.40000005  3.59999995
   0.00000027  7.20000015  7.20000002
   0.00000033  9.00000011  8.99999994
   0.00000000  0.00000000  0.00000000
   0.00000007  1.80000006  1.80000003
   0.00000013  3.60000002  3.59999995
   0.00000020  5.40000009  5.39999999
   1.80000033  7.20000018  8.99999994
   1.80000020  8.99999994  0.00000000
   1.80000006  0.00000003  1.80000003
   1.80000013  1.80000010  3.59999995
   1.80000020  3.60000005  5.39999999
   3.60000009  7.20000002  0.00000000
   3.60000015  8.99999997  1.80000003
   3.60000002  0.00000007  3.59999995
   3.60000009  1.80000013  5.39999999
   5.40000015  7.20000005  1.80000003
   5.40000022  9.00000001  3.59999995
   5.40000009  0.00000010  5.39999999
   7.20000022  3.60000009  7.20000002
   7.20000028  5.40000015  8.99999994
   9.00000011  1.80000016  7.20000002
   9.00000017  3.60000012  8.99999994
   9.00000004  5.39999999  0.00000000
   0.00000013  0.00000013  7.20000002
   0.00000020  1.80000020  8.99999994
   0.00000007  3.59999995  0.00000000
   0.00000013  5.40000002  1.80000003
   1.80000033  9.00000007  7.20000002
   1.80000020  0.00000017  8.99999994
   1.80000006  1.80000003  0.00000000
   1.80000013  3.59999999  1.80000003
   1.80000020  5.40000005  3.59999995
   3.60000022  7.20000015  7.20000002
   3.60000029  9.00000011  8.99999994
   3.59999995  0.00000000  0.00000000
   3.60000002  1.80000006  1.80000003
   3.60000009  3.60000002  3.59999995
   3.60000015  5.40000009  5.39999999
   5.40000028  7.20000018  8.99999994
   5.40000015  8.99999994  0.00000000
   5.40000002  0.00000003  1.80000003
   5.40000009  1.80000010  3.59999995
   5.40000015  3.60000005  5.39999999
   9.00000017  5.40000012  7.20000002
   0.00000020  3.60000009  7.20000002
   0.00000027  5.40000015  8.99999994
   1.80000020  1.80000016  7.20000002
   1.80000026  3.60000012  8.99999994
   1.80000013  5.39999999  0.00000000
   3.60000009  0.00000013  7.20000002
   3.60000015  1.80000020  8.99999994
   3.60000002  3.59999995  0.00000000
   3.60000009  5.40000002  1.80000003
   5.40000028  9.00000007  7.20000002
   5.40000015  0.00000017  8.99999994
   5.40000002  1.80000003  0.00000000
   5.40000009  3.59999999  1.80000003
   5.40000015  5.40000005  3.59999995
   1.80000026  5.40000012  7.20000002
   3.60000015  3.60000009  7.20000002
   3.60000022  5.40000015  8.99999994
   5.40000015  1.80000016  7.20000002
   5.40000022  3.60000012  8.99999994
   5.40000009  5.39999999  0.00000000
   5.40000022  5.40000012  7.20000002
 


--------------------------------------------------------------------------------------------------------


 k-point  1 :  0.25000.25000.2500  plane waves:  12923

 maximum and minimum number of plane-waves per node :  12923 12923

 maximum number of plane-waves:  12923
 maximal index in each direction: 
   IXMAX= 14   IYMAX= 14   IZMAX= 14
   IXMIN=-14   IYMIN=-14   IZMIN=-14

 WARNING: wrap around error must be expected set NGX to  58
 WARNING: wrap around error must be expected set NGY to  58
 WARNING: wrap around error must be expected set NGZ to  58

 parallel 3dFFT wavefunction:
    minimum data exchange during FFTs selected (reduces bandwidth)
 parallel 3dFFT charge:
    minimum data exchange during FFTs selected (reduces bandwidth)

 For storing wavefunctions  147.22 MBYTES are necessary
 For predicting wavefunctions  341.52 MBYTES are necessary
Broyden mixing: mesh for mixing (old mesh)
   NGX = 29   NGY = 29   NGZ = 29
  (NGX  = 96   NGY  = 96   NGZ  = 96)
 gives a total of  24389 points
 initial charge density was supplied:
 charge density of overlapping atoms calculated
 number of electron 1188.0000000 magnetization 
 keeping initial charge density in first step


--------------------------------------------------------------------------------------------------------


 Maximum index for augmentation-charges          717 (set IRDMAX)


--------------------------------------------------------------------------------------------------------


 First call to EWALD:  gamma=   0.164
 Maximum number of real-space cells 3x 3x 3
 Maximum number of reciprocal cells 3x 3x 3

    FEWALD:  VPU time    0.10: CPU time    0.11


----------------------------------------- Iteration    1(   1)  ---------------------------------------


    POTLOK:  VPU time    0.45: CPU time    0.45
    SETDIJ:  VPU time    0.09: CPU time    0.09
    EDDAV :  VPU time   92.88: CPU time   92.93
    DOS   :  VPU time    0.00: CPU time   -0.00
    ------------------------------------------
      LOOP:  VPU time   93.44: CPU time   93.50

 eigenvalue-minimisations  :  1424
 total energy-change (2. order) : 0.8010827E+04  (-0.3308370E+05)
 number of electron 1188.0000000 magnetization 
 augmentation part  1188.0000000 magnetization 

 Free energy of the ion-electron system (eV)
  ---------------------------------------------------
  alpha Z        PSCENC =     11829.86148747
  Ewald energy   TEWEN  =   -119828.21041182
  -1/2 Hartree   DENC   =    -34968.49533146
  -V(xc)+E(xc)   XCENC  =      4745.27081574
  PAW double counting   =    116861.64757509  -132416.31672913
  entropy T*S    EENTRO =         0.01142799
  eigenvalues    EBANDS =     11565.48290009
  atomic energy  EATOM  =    150221.57506482
  ---------------------------------------------------
  free energy    TOTEN  =      8010.82679879 eV

  energy without entropy =     8010.81537080  energy(sigma->0) =     8010.82298946


--------------------------------------------------------------------------------------------------------




----------------------------------------- Iteration    1(   2)  ---------------------------------------


    EDDAV :  VPU time   94.10: CPU time   94.13
    DOS   :  VPU time    0.00: CPU time   -0.00
    ------------------------------------------
      LOOP:  VPU time   94.14: CPU time   94.17

 eigenvalue-minimisations  :  1424
 total energy-change (2. order) :-0.7559055E+04  (-0.7252902E+04)
 number of electron 1188.0000000 magnetization 
 augmentation part  1188.0000000 magnetization 

 Free energy of the ion-electron system (eV)
  ---------------------------------------------------
  alpha Z        PSCENC =     11829.86148747
  Ewald energy   TEWEN  =   -119828.21041182
  -1/2 Hartree   DENC   =    -34968.49533146
  -V(xc)+E(xc)   XCENC  =      4745.27081574
  PAW double counting   =    116861.64757509  -132416.31672913
  entropy T*S    EENTRO =        -0.03171475
  eigenvalues    EBANDS =      4006.47137061
  atomic energy  EATOM  =    150221.57506482
  ---------------------------------------------------
  free energy    TOTEN  =       451.77212657 eV

  energy without entropy =      451.80384131  energy(sigma->0) =      451.78269815


--------------------------------------------------------------------------------------------------------




----------------------------------------- Iteration    1(   3)  ---------------------------------------


    EDDAV :  VPU time   92.68: CPU time   92.71
    DOS   :  VPU time    0.00: CPU time   -0.00
    ------------------------------------------
      LOOP:  VPU time   92.73: CPU time   92.75

 eigenvalue-minimisations  :  1424
 total energy-change (2. order) :-0.9107092E+03  (-0.8130794E+03)
 number of electron 1188.0000000 magnetization 
 augmentation part  1188.0000000 magnetization 

 Free energy of the ion-electron system (eV)
  ---------------------------------------------------
  alpha Z        PSCENC =     11829.86148747
  Ewald energy   TEWEN  =   -119828.21041182
  -1/2 Hartree   DENC   =    -34968.49533146
  -V(xc)+E(xc)   XCENC  =      4745.27081574
  PAW double counting   =    116861.64757509  -132416.31672913
  entropy T*S    EENTRO =        -0.10622900
  eigenvalues    EBANDS =      3095.83663791
  atomic energy  EATOM  =    150221.57506482
  ---------------------------------------------------
  free energy    TOTEN  =      -458.93712038 eV

  energy without entropy =     -458.83089138  energy(sigma->0) =     -458.90171072


--------------------------------------------------------------------------------------------------------




----------------------------------------- Iteration    1(   4)  ---------------------------------------


    EDDAV :  VPU time   97.86: CPU time   97.88
    DOS   :  VPU time    0.00: CPU time   -0.00
    ------------------------------------------
      LOOP:  VPU time   97.90: CPU time   97.92

 eigenvalue-minimisations  :  1504
 total energy-change (2. order) :-0.3599419E+02  (-0.3550603E+02)
 number of electron 1188.0000000 magnetization 
 augmentation part  1188.0000000 magnetization 

 Free energy of the ion-electron system (eV)
  ---------------------------------------------------
  alpha Z        PSCENC =     11829.86148747
  Ewald energy   TEWEN  =   -119828.21041182
  -1/2 Hartree   DENC   =    -34968.49533146
  -V(xc)+E(xc)   XCENC  =      4745.27081574
  PAW double counting   =    116861.64757509  -132416.31672913
  entropy T*S    EENTRO =        -0.10094603
  eigenvalues    EBANDS =      3059.83716610
  atomic energy  EATOM  =    150221.57506482
  ---------------------------------------------------
  free energy    TOTEN  =      -494.93130922 eV

  energy without entropy =     -494.83036320  energy(sigma->0) =     -494.89766055


--------------------------------------------------------------------------------------------------------




----------------------------------------- Iteration    1(   5)  ---------------------------------------


    EDDAV :  VPU time   91.86: CPU time   91.88
    DOS   :  VPU time    0.00: CPU time   -0.00
    CHARGE:  VPU time    1.11: CPU time    1.11
    MIXING:  VPU time    0.01: CPU time    0.01
    ------------------------------------------
      LOOP:  VPU time   93.02: CPU time   93.04

 eigenvalue-minimisations  :  1496
 total energy-change (2. order) :-0.2125964E+00  (-0.2122811E+00)
 number of electron 1187.9978028 magnetization 
 augmentation part   723.1197234 magnetization 

 Broyden mixing:
  rms(total) = 0.72344E+01    rms(broyden)= 0.72332E+01
  rms(prec ) = 0.89525E+01
  weight for this iteration     100.00

 Free energy of the ion-electron system (eV)
  ---------------------------------------------------
  alpha Z        PSCENC =     11829.86148747
  Ewald energy   TEWEN  =   -119828.21041182
  -1/2 Hartree   DENC   =    -34968.49533146
  -V(xc)+E(xc)   XCENC  =      4745.27081574
  PAW double counting   =    116861.64757509  -132416.31672913
  entropy T*S    EENTRO =        -0.10083836
  eigenvalues    EBANDS =      3059.62446203
  atomic energy  EATOM  =    150221.57506482
  ---------------------------------------------------
  free energy    TOTEN  =      -495.14390562 eV

  energy without entropy =     -495.04306726  energy(sigma->0) =     -495.11029283


--------------------------------------------------------------------------------------------------------




----------------------------------------- Iteration    1(   6)  ---------------------------------------


    POTLOK:  VPU time    0.41: CPU time    0.41
    SETDIJ:  VPU time    0.09: CPU time    0.09
    EDDAV :  VPU time   91.70: CPU time   91.72
    DOS   :  VPU time    0.00: CPU time   -0.00
    CHARGE:  VPU time    1.10: CPU time    1.10
    MIXING:  VPU time    0.01: CPU time    0.02
    ------------------------------------------
      LOOP:  VPU time   93.34: CPU time   93.37

 eigenvalue-minimisations  :  1512
 total energy-change (2. order) : 0.6509005E+02  (-0.8885820E+02)
 number of electron 1187.9975754 magnetization 
 augmentation part   802.8456369 magnetization 

 Broyden mixing:
  rms(total) = 0.30387E+01    rms(broyden)= 0.30353E+01
  rms(prec ) = 0.36229E+01
  weight for this iteration     100.00

 eigenvalues of (default mixing * dielectric matrix)
  average eigenvalue GAMMA=   0.7064
  0.7064

 Free energy of the ion-electron system (eV)
  ---------------------------------------------------
  alpha Z        PSCENC =     11829.86148747
  Ewald energy   TEWEN  =   -119828.21041182
  -1/2 Hartree   DENC   =    -32316.46720315
  -V(xc)+E(xc)   XCENC  =      4610.35315308
  PAW double counting   =    114471.97624008  -129176.98403079
  entropy T*S    EENTRO =         0.12636526
  eigenvalues    EBANDS =      -242.28452045
  atomic energy  EATOM  =    150221.57506482
  ---------------------------------------------------
  free energy    TOTEN  =      -430.05385551 eV

  energy without entropy =     -430.18022077  energy(sigma->0) =     -430.09597726


--------------------------------------------------------------------------------------------------------




----------------------------------------- Iteration    1(   7)  ---------------------------------------


    POTLOK:  VPU time    0.41: CPU time    0.41
    SETDIJ:  VPU time    0.09: CPU time    0.09
    EDDAV :  VPU time   94.32: CPU time   94.34
    DOS   :  VPU time   -0.00: CPU time   -0.00
    CHARGE:  VPU time    1.09: CPU time    1.09
    MIXING:  VPU time    0.01: CPU time    0.01
    ------------------------------------------
      LOOP:  VPU time   95.96: CPU time   95.99

 eigenvalue-minimisations  :  1576
 total energy-change (2. order) : 0.2922679E+02  (-0.1459604E+02)
 number of electron 1187.9976583 magnetization 
 augmentation part   773.9546576 magnetization 

 Broyden mixing:
  rms(total) = 0.62416E+00    rms(broyden)= 0.62311E+00
  rms(prec ) = 0.78749E+00
  weight for this iteration     100.00

 eigenvalues of (default mixing * dielectric matrix)
  average eigenvalue GAMMA=   1.3516
  2.0463  0.6569

 Free energy of the ion-electron system (eV)
  ---------------------------------------------------
  alpha Z        PSCENC =     11829.86148747
  Ewald energy   TEWEN  =   -119828.21041182
  -1/2 Hartree   DENC   =    -33010.88987767
  -V(xc)+E(xc)   XCENC  =      4647.34334195
  PAW double counting   =    116767.80433249  -132088.66242487
  entropy T*S    EENTRO =        -0.47114336
  eigenvalues    EBANDS =      1060.82256219
  atomic energy  EATOM  =    150221.57506482
  ---------------------------------------------------
  free energy    TOTEN  =      -400.82706880 eV

  energy without entropy =     -400.35592544  energy(sigma->0) =     -400.67002102


--------------------------------------------------------------------------------------------------------




----------------------------------------- Iteration    1(   8)  ---------------------------------------


    POTLOK:  VPU time    0.41: CPU time    0.41
    SETDIJ:  VPU time    0.09: CPU time    0.09
    EDDAV :  VPU time   89.51: CPU time   89.53
    DOS   :  VPU time    0.00: CPU time   -0.00
    CHARGE:  VPU time    1.08: CPU time    1.08
    MIXING:  VPU time    0.02: CPU time    0.02
    ------------------------------------------
      LOOP:  VPU time   91.14: CPU time   91.17

 eigenvalue-minimisations  :  1472
 total energy-change (2. order) : 0.1160309E+01  (-0.1344006E+00)
 number of electron 1187.9976579 magnetization 
 augmentation part   774.1285572 magnetization 

 Broyden mixing:
  rms(total) = 0.27131E+00    rms(broyden)= 0.27124E+00
  rms(prec ) = 0.33932E+00
  weight for this iteration     100.00

 eigenvalues of (default mixing * dielectric matrix)
  average eigenvalue GAMMA=   1.3971
  0.6759  0.9912  2.5243

 Free energy of the ion-electron system (eV)
  ---------------------------------------------------
  alpha Z        PSCENC =     11829.86148747
  Ewald energy   TEWEN  =   -119828.21041182
  -1/2 Hartree   DENC   =    -32683.08385257
  -V(xc)+E(xc)   XCENC  =      4631.83587477
  PAW double counting   =    118406.95368078  -133995.08199710
  entropy T*S    EENTRO =        -0.48244204
  eigenvalues    EBANDS =      1016.96583637
  atomic energy  EATOM  =    150221.57506482
  ---------------------------------------------------
  free energy    TOTEN  =      -399.66675931 eV

  energy without entropy =     -399.18431728  energy(sigma->0) =     -399.50594530


--------------------------------------------------------------------------------------------------------




----------------------------------------- Iteration    1(   9)  ---------------------------------------


    POTLOK:  VPU time    0.40: CPU time    0.41
    SETDIJ:  VPU time    0.09: CPU time    0.09
    EDDAV :  VPU time  101.31: CPU time  101.33
    DOS   :  VPU time    0.00: CPU time   -0.00
    CHARGE:  VPU time    1.08: CPU time    1.08
    MIXING:  VPU time    0.02: CPU time    0.02
    ------------------------------------------
      LOOP:  VPU time  102.94: CPU time  102.96

 eigenvalue-minimisations  :  1720
 total energy-change (2. order) : 0.1557837E+00  (-0.2671914E-01)
 number of electron 1187.9976533 magnetization 
 augmentation part   775.7469660 magnetization 

 Broyden mixing:
  rms(total) = 0.10602E-01    rms(broyden)= 0.10479E-01
  rms(prec ) = 0.11372E-01
  weight for this iteration     100.00

 eigenvalues of (default mixing * dielectric matrix)
  average eigenvalue GAMMA=   1.6628
  0.6774  0.9291  2.7028  2.3418

 Free energy of the ion-electron system (eV)
  ---------------------------------------------------
  alpha Z        PSCENC =     11829.86148747
  Ewald energy   TEWEN  =   -119828.21041182
  -1/2 Hartree   DENC   =    -32557.04384610
  -V(xc)+E(xc)   XCENC  =      4625.69899430
  PAW double counting   =    118757.43113030  -134388.54530025
  entropy T*S    EENTRO =        -0.49772844
  eigenvalues    EBANDS =       940.21963412
  atomic energy  EATOM  =    150221.57506482
  ---------------------------------------------------
  free energy    TOTEN  =      -399.51097560 eV

  energy without entropy =     -399.01324716  energy(sigma->0) =     -399.34506612


--------------------------------------------------------------------------------------------------------




----------------------------------------- Iteration    1(  10)  ---------------------------------------


    POTLOK:  VPU time    0.44: CPU time    0.44
    SETDIJ:  VPU time    0.09: CPU time    0.09
    EDDAV :  VPU time   89.28: CPU time   89.30
    DOS   :  VPU time    0.00: CPU time   -0.00
    CHARGE:  VPU time    1.08: CPU time    1.08
    MIXING:  VPU time    0.02: CPU time    0.02
    ------------------------------------------
      LOOP:  VPU time   90.94: CPU time   90.96

 eigenvalue-minimisations  :  1456
 total energy-change (2. order) :-0.2109267E-02  (-0.1528490E-02)
 number of electron 1187.9976531 magnetization 
 augmentation part   775.8313815 magnetization 

 Broyden mixing:
  rms(total) = 0.62400E-02    rms(broyden)= 0.62337E-02
  rms(prec ) = 0.74578E-02
  weight for this iteration     100.00

 eigenvalues of (default mixing * dielectric matrix)
  average eigenvalue GAMMA=   1.5835
  2.5940  2.5940  0.6760  1.0756  0.9777

 Free energy of the ion-electron system (eV)
  ---------------------------------------------------
  alpha Z        PSCENC =     11829.86148747
  Ewald energy   TEWEN  =   -119828.21041182
  -1/2 Hartree   DENC   =    -32558.34488034
  -V(xc)+E(xc)   XCENC  =      4625.75178641
  PAW double counting   =    118782.65304835  -134409.43304871
  entropy T*S    EENTRO =        -0.49822835
  eigenvalues    EBANDS =       937.13209731
  atomic energy  EATOM  =    150221.57506482
  ---------------------------------------------------
  free energy    TOTEN  =      -399.51308487 eV

  energy without entropy =     -399.01485651  energy(sigma->0) =     -399.34700875


--------------------------------------------------------------------------------------------------------




----------------------------------------- Iteration    1(  11)  ---------------------------------------


    POTLOK:  VPU time    0.41: CPU time    0.41
    SETDIJ:  VPU time    0.09: CPU time    0.09
    EDDAV :  VPU time   90.67: CPU time   90.69
    DOS   :  VPU time    0.00: CPU time   -0.00
    CHARGE:  VPU time    1.08: CPU time    1.08
    MIXING:  VPU time    0.02: CPU time    0.02
    ------------------------------------------
      LOOP:  VPU time   92.30: CPU time   92.32

 eigenvalue-minimisations  :  1488
 total energy-change (2. order) : 0.1261095E-03  (-0.8550544E-04)
 number of electron 1187.9976532 magnetization 
 augmentation part   775.7726082 magnetization 

 Broyden mixing:
  rms(total) = 0.15973E-02    rms(broyden)= 0.15943E-02
  rms(prec ) = 0.19546E-02
  weight for this iteration     100.00

 eigenvalues of (default mixing * dielectric matrix)
  average eigenvalue GAMMA=   1.5720
  2.6166  2.4629  0.6759  0.9777  0.9777  1.7210

 Free energy of the ion-electron system (eV)
  ---------------------------------------------------
  alpha Z        PSCENC =     11829.86148747
  Ewald energy   TEWEN  =   -119828.21041182
  -1/2 Hartree   DENC   =    -32559.76199694
  -V(xc)+E(xc)   XCENC  =      4625.82249077
  PAW double counting   =    118809.55571426  -134437.09514814
  entropy T*S    EENTRO =        -0.49792775
  eigenvalues    EBANDS =       939.23776858
  atomic energy  EATOM  =    150221.57506482
  ---------------------------------------------------
  free energy    TOTEN  =      -399.51295876 eV

  energy without entropy =     -399.01503100  energy(sigma->0) =     -399.34698284


--------------------------------------------------------------------------------------------------------




----------------------------------------- Iteration    1(  12)  ---------------------------------------


    POTLOK:  VPU time    0.41: CPU time    0.41
    SETDIJ:  VPU time    0.09: CPU time    0.09
    EDDAV :  VPU time   68.22: CPU time   68.23
    DOS   :  VPU time    0.00: CPU time   -0.00
    CHARGE:  VPU time    1.09: CPU time    1.09
    MIXING:  VPU time    0.02: CPU time    0.02
    ------------------------------------------
      LOOP:  VPU time   69.86: CPU time   69.88

 eigenvalue-minimisations  :  1024
 total energy-change (2. order) :-0.1139565E-03  (-0.3030343E-05)
 number of electron 1187.9976532 magnetization 
 augmentation part   775.7866513 magnetization 

 Broyden mixing:
  rms(total) = 0.89733E-03    rms(broyden)= 0.89717E-03
  rms(prec ) = 0.11200E-02
  weight for this iteration     100.00

 eigenvalues of (default mixing * dielectric matrix)
  average eigenvalue GAMMA=   1.6721
  2.8620  2.5647  2.5647  0.6759  0.9821  0.9821  1.0736

 Free energy of the ion-electron system (eV)
  ---------------------------------------------------
  alpha Z        PSCENC =     11829.86148747
  Ewald energy   TEWEN  =   -119828.21041182
  -1/2 Hartree   DENC   =    -32558.59889896
  -V(xc)+E(xc)   XCENC  =      4625.76509416
  PAW double counting   =    118814.64035380  -134442.65379927
  entropy T*S    EENTRO =        -0.49802470
  eigenvalues    EBANDS =       938.60606179
  atomic energy  EATOM  =    150221.57506482
  ---------------------------------------------------
  free energy    TOTEN  =      -399.51307271 eV

  energy without entropy =     -399.01504801  energy(sigma->0) =     -399.34706448


--------------------------------------------------------------------------------------------------------




----------------------------------------- Iteration    1(  13)  ---------------------------------------


    POTLOK:  VPU time    0.41: CPU time    0.41
    SETDIJ:  VPU time    0.09: CPU time    0.09
    EDDAV :  VPU time   55.79: CPU time   55.81
    DOS   :  VPU time    0.00: CPU time   -0.00
    ------------------------------------------
      LOOP:  VPU time   56.33: CPU time   56.34

 eigenvalue-minimisations  :   760
 total energy-change (2. order) : 0.2494315E-05  (-0.3307783E-06)
 number of electron 1187.9976532 magnetization 
 augmentation part   775.7866513 magnetization 

 Free energy of the ion-electron system (eV)
  ---------------------------------------------------
  alpha Z        PSCENC =     11829.86148747
  Ewald energy   TEWEN  =   -119828.21041182
  -1/2 Hartree   DENC   =    -32558.97800610
  -V(xc)+E(xc)   XCENC  =      4625.78297297
  PAW double counting   =    118815.69205145  -134443.57391222
  entropy T*S    EENTRO =        -0.49798893
  eigenvalues    EBANDS =       938.83567214
  atomic energy  EATOM  =    150221.57506482
  ---------------------------------------------------
  free energy    TOTEN  =      -399.51307022 eV

  energy without entropy =     -399.01508129  energy(sigma->0) =     -399.34707391


--------------------------------------------------------------------------------------------------------




 average (electrostatic) potential at core
  the test charge radii are     1.0053
  (the norm of the test charge is              1.0000)
       1 -39.8758       2 -39.8758       3 -39.8758       4 -39.8758       5 -39.8758
       6 -39.8758       7 -39.8758       8 -39.8758       9 -39.8758      10 -39.8758
      11 -39.8758      12 -39.8758      13 -39.8758      14 -39.8758      15 -39.8758
      16 -39.8758      17 -39.8758      18 -39.8758      19 -39.8758      20 -39.8758
      21 -39.8758      22 -39.8758      23 -39.8758      24 -39.8758      25 -39.8758
      26 -39.8758      27 -39.8758      28 -39.8758      29 -39.8758      30 -39.8758
      31 -39.8758      32 -39.8758      33 -39.8758      34 -39.8758      35 -39.8758
      36 -39.8758      37 -39.8758      38 -39.8758      39 -39.8758      40 -39.8758
      41 -39.8758      42 -39.8758      43 -39.8758      44 -39.8758      45 -39.8758
      46 -39.8758      47 -39.8758      48 -39.8758      49 -39.8758      50 -39.8758
      51 -39.8758      52 -39.8758      53 -39.8758      54 -39.8758      55 -39.8758
      56 -39.8758      57 -39.8758      58 -39.8758      59 -39.8758      60 -39.8758
      61 -39.8758      62 -39.8758      63 -39.8758      64 -39.8758      65 -39.8758
      66 -39.8758      67 -39.8758      68 -39.8758      69 -39.8758      70 -39.8758
      71 -39.8758      72 -39.8758      73 -39.8758      74 -39.8758      75 -39.8758
      76 -39.8758      77 -39.8758      78 -39.8758      79 -39.8758      80 -39.8758
      81 -39.8758      82 -39.8758      83 -39.8758      84 -39.8758      85 -39.8758
      86 -39.8758      87 -39.8758      88 -39.8758      89 -39.8758      90 -39.8758
      91 -39.8758      92 -39.8758      93 -39.8758      94 -39.8758      95 -39.8758
      96 -39.8758      97 -39.8758      98 -39.8758      99 -39.8758     100 -39.8758
     101 -39.8758     102 -39.8758     103 -39.8758     104 -39.8758     105 -39.8758
     106 -39.8758     107 -39.8758     108 -39.8758
 
 
 
 E-fermi :   3.6877     XC(G=0): -12.8751     alpha+bet : -9.7516
   add alpha+bet to get absolut eigen values

 k-point   1 :       0.2500    0.2500    0.2500
  band No.  band energies     occupation 
      1      -5.2916      2.00000
      2      -4.6277      2.00000
      3      -4.6277      2.00000
      4      -4.6277      2.00000
      5      -3.9929      2.00000
      6      -3.9929      2.00000
      7      -3.9929      2.00000
      8      -3.4085      2.00000
      9      -3.3846      2.00000
     10      -3.3846      2.00000
     11      -3.3846      2.00000
     12      -2.8211      2.00000
     13      -2.8211      2.00000
     14      -2.8211      2.00000
     15      -2.8211      2.00000
     16      -2.8211      2.00000
     17      -2.8211      2.00000
     18      -2.3703      2.00000
     19      -2.3703      2.00000
     20      -2.3703      2.00000
     21      -1.9013      2.00000
     22      -1.9013      2.00000
     23      -1.9013      2.00000
     24      -1.8422      2.00000
     25      -1.8422      2.00000
     26      -1.8422      2.00000
     27      -1.6707      2.00000
     28      -1.6707      2.00000
     29      -1.6707      2.00000
     30      -1.4657      2.00000
     31      -1.4657      2.00000
     32      -1.4657      2.00000
     33      -1.4657      2.00000
     34      -1.4657      2.00000
     35      -1.4657      2.00000
     36      -1.4389      2.00000
     37      -1.2575      2.00000
     38      -1.2575      2.00000
     39      -1.2575      2.00000
     40      -1.1564      2.00000
     41      -1.1564      2.00000
     42      -1.1564      2.00000
     43      -1.0975      2.00000
     44      -1.0975      2.00000
     45      -1.0975      2.00000
     46      -1.0208      2.00000
     47      -1.0208      2.00000
     48      -1.0208      2.00000
     49      -1.0208      2.00000
     50      -1.0208      2.00000
     51      -1.0208      2.00000
     52      -1.0045      2.00000
     53      -1.0045      2.00000
     54      -1.0045      2.00000
     55      -0.8400      2.00000
     56      -0.8400      2.00000
     57      -0.8400      2.00000
     58      -0.8400      2.00000
     59      -0.8400      2.00000
     60      -0.8400      2.00000
     61      -0.7915      2.00000
     62      -0.7915      2.00000
     63      -0.7915      2.00000
     64      -0.7641      2.00000
     65      -0.7641      2.00000
     66      -0.7641      2.00000
     67      -0.7641      2.00000
     68      -0.7641      2.00000
     69      -0.7641      2.00000
     70      -0.7193      2.00000
     71      -0.7193      2.00000
     72      -0.7193      2.00000
     73      -0.7193      2.00000
     74      -0.7193      2.00000
     75      -0.7193      2.00000
     76      -0.6274      2.00000
     77      -0.6274      2.00000
     78      -0.6274      2.00000
     79      -0.5587      2.00000
     80      -0.5587      2.00000
     81      -0.5587      2.00000
     82      -0.5223      2.00000
     83      -0.5223      2.00000
     84      -0.5223      2.00000
     85      -0.5223      2.00000
     86      -0.5223      2.00000
     87      -0.5223      2.00000
     88      -0.4997      2.00000
     89      -0.4997      2.00000
     90      -0.4997      2.00000
     91      -0.4074      2.00000
     92      -0.4074      2.00000
     93      -0.4074      2.00000
     94      -0.3900      2.00000
     95      -0.3900      2.00000
     96      -0.3900      2.00000
     97      -0.3729      2.00000
     98      -0.3729      2.00000
     99      -0.3729      2.00000
    100      -0.3729      2.00000
    101      -0.3729      2.00000
    102      -0.3729      2.00000
    103      -0.3470      2.00000
    104      -0.3470      2.00000
    105      -0.3470      2.00000
    106      -0.3470      2.00000
    107      -0.3470      2.00000
    108      -0.3470      2.00000
    109      -0.3081      2.00000
    110      -0.3081      2.00000
    111      -0.3081      2.00000
    112      -0.3081      2.00000
    113      -0.3081      2.00000
    114      -0.3081      2.00000
    115      -0.2432      2.00000
    116      -0.2432      2.00000
    117      -0.2432      2.00000
    118      -0.2276      2.00000
    119      -0.2276      2.00000
    120      -0.2276      2.00000
    121      -0.2276      2.00000
    122      -0.2276      2.00000
    123      -0.2276      2.00000
    124      -0.1948      2.00000
    125      -0.1948      2.00000
    126      -0.1948      2.00000
    127      -0.1948      2.00000
    128      -0.1948      2.00000
    129      -0.1948      2.00000
    130      -0.0928      2.00000
    131      -0.0928      2.00000
    132      -0.0928      2.00000
    133      -0.0729      2.00000
    134      -0.0729      2.00000
    135      -0.0729      2.00000
    136      -0.0729      2.00000
    137      -0.0729      2.00000
    138      -0.0729      2.00000
    139      -0.0555      2.00000
    140      -0.0555      2.00000
    141      -0.0555      2.00000
    142      -0.0150      2.00000
    143      -0.0150      2.00000
    144      -0.0150      2.00000
    145      -0.0150      2.00000
    146      -0.0150      2.00000
    147      -0.0150      2.00000
    148       0.0277      2.00000
    149       0.0277      2.00000
    150       0.0277      2.00000
    151       0.0277      2.00000
    152       0.0277      2.00000
    153       0.0277      2.00000
    154       0.0411      2.00000
    155       0.0411      2.00000
    156       0.0411      2.00000
    157       0.0411      2.00000
    158       0.0411      2.00000
    159       0.0411      2.00000
    160       0.1681      2.00000
    161       0.1681      2.00000
    162       0.1681      2.00000
    163       0.1681      2.00000
    164       0.1681      2.00000
    165       0.1681      2.00000
    166       0.2329      2.00000
    167       0.2329      2.00000
    168       0.2330      2.00000
    169       0.2574      2.00000
    170       0.2574      2.00000
    171       0.2574      2.00000
    172       0.2622      2.00000
    173       0.2622      2.00000
    174       0.2622      2.00000
    175       0.2622      2.00000
    176       0.2622      2.00000
    177       0.2622      2.00000
    178       0.2676      2.00000
    179       0.2676      2.00000
    180       0.2676      2.00000
    181       0.3021      2.00000
    182       0.3021      2.00000
    183       0.3021      2.00000
    184       0.3021      2.00000
    185       0.3021      2.00000
    186       0.3021      2.00000
    187       0.3294      2.00000
    188       0.3294      2.00000
    189       0.3294      2.00000
    190       0.4015      2.00000
    191       0.4015      2.00000
    192       0.4015      2.00000
    193       0.4015      2.00000
    194       0.4015      2.00000
    195       0.4015      2.00000
    196       0.4342      2.00000
    197       0.4342      2.00000
    198       0.4342      2.00000
    199       0.4677      2.00000
    200       0.4677      2.00000
    201       0.4677      2.00000
    202       0.4677      2.00000
    203       0.4677      2.00000
    204       0.4677      2.00000
    205       0.4874      2.00000
    206       0.4874      2.00000
    207       0.4874      2.00000
    208       0.5008      2.00000
    209       0.5008      2.00000
    210       0.5008      2.00000
    211       0.5046      2.00000
    212       0.5046      2.00000
    213       0.5046      2.00000
    214       0.5351      2.00000
    215       0.5355      2.00000
    216       0.5355      2.00000
    217       0.5355      2.00000
    218       0.5355      2.00000
    219       0.5355      2.00000
    220       0.5355      2.00000
    221       0.5657      2.00000
    222       0.5657      2.00000
    223       0.5657      2.00000
    224       0.5700      2.00000
    225       0.5700      2.00000
    226       0.5700      2.00000
    227       0.5700      2.00000
    228       0.5700      2.00000
    229       0.5700      2.00000
    230       0.5762      2.00000
    231       0.5762      2.00000
    232       0.5762      2.00000
    233       0.5762      2.00000
    234       0.5762      2.00000
    235       0.5762      2.00000
    236       0.6709      2.00000
    237       0.6709      2.00000
    238       0.6709      2.00000
    239       0.7131      2.00000
    240       0.7131      2.00000
    241       0.7131      2.00000
    242       0.7165      2.00000
    243       0.7165      2.00000
    244       0.7165      2.00000
    245       0.7165      2.00000
    246       0.7165      2.00000
    247       0.7165      2.00000
    248       0.7196      2.00000
    249       0.7196      2.00000
    250       0.7196      2.00000
    251       0.7196      2.00000
    252       0.7196      2.00000
    253       0.7196      2.00000
    254       0.7349      2.00000
    255       0.7422      2.00000
    256       0.7422      2.00000
    257       0.7422      2.00000
    258       0.7869      2.00000
    259       0.7869      2.00000
    260       0.7869      2.00000
    261       0.7904      2.00000
    262       0.7904      2.00000
    263       0.8183      2.00000
    264       0.8183      2.00000
    265       0.8183      2.00000
    266       0.8208      2.00000
    267       0.8208      2.00000
    268       0.8208      2.00000
    269       0.8353      2.00000
    270       0.8353      2.00000
    271       0.8454      2.00000
    272       0.8454      2.00000
    273       0.8454      2.00000
    274       0.8455      2.00000
    275       0.8455      2.00000
    276       0.8455      2.00000
    277       0.8455      2.00000
    278       0.8455      2.00000
    279       0.8455      2.00000
    280       0.8552      2.00000
    281       0.8552      2.00000
    282       0.8552      2.00000
    283       0.8833      2.00000
    284       0.8833      2.00000
    285       0.8833      2.00000
    286       0.8833      2.00000
    287       0.8833      2.00000
    288       0.8833      2.00000
    289       0.9097      2.00000
    290       0.9097      2.00000
    291       0.9097      2.00000
    292       0.9431      2.00000
    293       0.9431      2.00000
    294       0.9431      2.00000
    295       0.9431      2.00000
    296       0.9431      2.00000
    297       0.9431      2.00000
    298       0.9493      2.00000
    299       0.9493      2.00000
    300       0.9625      2.00000
    301       0.9625      2.00000
    302       0.9625      2.00000
    303       0.9648      2.00000
    304       0.9648      2.00000
    305       0.9648      2.00000
    306       0.9654      2.00000
    307       0.9654      2.00000
    308       0.9654      2.00000
    309       0.9691      2.00000
    310       0.9691      2.00000
    311       0.9691      2.00000
    312       0.9876      2.00000
    313       0.9876      2.00000
    314       0.9876      2.00000
    315       1.0184      2.00000
    316       1.0184      2.00000
    317       1.0184      2.00000
    318       1.0237      2.00000
    319       1.0237      2.00000
    320       1.0237      2.00000
    321       1.0387      2.00000
    322       1.0387      2.00000
    323       1.0387      2.00000
    324       1.0387      2.00000
    325       1.0387      2.00000
    326       1.0387      2.00000
    327       1.0517      2.00000
    328       1.0517      2.00000
    329       1.0517      2.00000
    330       1.0526      2.00000
    331       1.0526      2.00000
    332       1.0526      2.00000
    333       1.0701      2.00000
    334       1.0701      2.00000
    335       1.0701      2.00000
    336       1.1643      2.00000
    337       1.1643      2.00000
    338       1.1643      2.00000
    339       1.1681      2.00000
    340       1.1681      2.00000
    341       1.1681      2.00000
    342       1.1867      2.00000
    343       1.1867      2.00000
    344       1.1867      2.00000
    345       1.1867      2.00000
    346       1.1867      2.00000
    347       1.1867      2.00000
    348       1.2263      2.00000
    349       1.2263      2.00000
    350       1.2263      2.00000
    351       1.2763      2.00000
    352       1.2763      2.00000
    353       1.2763      2.00000
    354       1.2763      2.00000
    355       1.2763      2.00000
    356       1.2763      2.00000
    357       1.3171      2.00000
    358       1.3171      2.00000
    359       1.3171      2.00000
    360       1.3171      2.00000
    361       1.3171      2.00000
    362       1.3171      2.00000
    363       1.3273      2.00000
    364       1.3273      2.00000
    365       1.3273      2.00000
    366       1.3319      2.00000
    367       1.3319      2.00000
    368       1.3319      2.00000
    369       1.3319      2.00000
    370       1.3319      2.00000
    371       1.3319      2.00000
    372       1.4402      2.00000
    373       1.4402      2.00000
    374       1.4402      2.00000
    375       1.4615      2.00000
    376       1.4615      2.00000
    377       1.4615      2.00000
    378       1.4615      2.00000
    379       1.4615      2.00000
    380       1.4615      2.00000
    381       1.4635      2.00000
    382       1.4635      2.00000
    383       1.4635      2.00000
    384       1.4678      2.00000
    385       1.4678      2.00000
    386       1.4678      2.00000
    387       1.4686      2.00000
    388       1.4686      2.00000
    389       1.4686      2.00000
    390       1.5149      2.00000
    391       1.5149      2.00000
    392       1.5149      2.00000
    393       1.5149      2.00000
    394       1.5149      2.00000
    395       1.5149      2.00000
    396       1.5258      2.00000
    397       1.5258      2.00000
    398       1.5258      2.00000
    399       1.5387      2.00000
    400       1.5387      2.00000
    401       1.5387      2.00000
    402       1.5387      2.00000
    403       1.5387      2.00000
    404       1.5387      2.00000
    405       1.5435      2.00000
    406       1.5435      2.00000
    407       1.5435      2.00000
    408       1.5627      2.00000
    409       1.5627      2.00000
    410       1.5627      2.00000
    411       1.5627      2.00000
    412       1.5627      2.00000
    413       1.5627      2.00000
    414       1.5663      2.00000
    415       1.5663      2.00000
    416       1.5663      2.00000
    417       1.6123      2.00000
    418       1.6123      2.00000
    419       1.6317      2.00000
    420       1.6317      2.00000
    421       1.6317      2.00000
    422       1.6383      2.00000
    423       1.6383      2.00000
    424       1.6383      2.00000
    425       1.6383      2.00000
    426       1.6383      2.00000
    427       1.6383      2.00000
    428       1.7020      2.00000
    429       1.7020      2.00000
    430       1.7020      2.00000
    431       1.7122      2.00000
    432       1.7122      2.00000
    433       1.7122      2.00000
    434       1.7138      2.00000
    435       1.7138      2.00000
    436       1.7683      2.00000
    437       1.7683      2.00000
    438       1.7683      2.00000
    439       1.7683      2.00000
    440       1.7683      2.00000
[...]
   0.463E-12 -.311E-04 -.311E-04   -.362E-13 0.515E-04 0.515E-04   0.140E-22 0.143E-22 -.213E-22   -.699E-13 -.291E-06 -.291E-06
   -.164E-12 0.140E-11 0.161E-11   0.208E-12 -.212E-13 -.571E-12   -.182E-24 -.212E-22 0.261E-22   0.193E-12 -.235E-12 -.386E-13
   0.311E-04 0.311E-04 -.311E-04   -.515E-04 -.515E-04 0.515E-04   0.101E-22 -.288E-23 -.295E-22   0.291E-06 0.291E-06 -.291E-06
   0.311E-04 -.311E-04 0.468E-11   -.515E-04 0.515E-04 -.257E-12   -.946E-23 -.250E-23 0.194E-22   0.291E-06 -.291E-06 -.682E-12
   0.311E-04 -.128E-11 0.311E-04   -.515E-04 0.133E-11 -.515E-04   0.668E-23 -.729E-23 0.165E-22   0.291E-06 0.461E-13 0.291E-06
   0.311E-04 0.311E-04 -.311E-04   -.515E-04 -.515E-04 0.515E-04   0.157E-22 0.151E-22 0.251E-23   0.291E-06 0.291E-06 -.291E-06
   0.311E-04 -.311E-04 0.639E-11   -.515E-04 0.515E-04 -.657E-13   -.111E-22 -.884E-23 0.141E-22   0.291E-06 -.291E-06 0.383E-12
   -.311E-04 0.311E-04 -.111E-11   0.515E-04 -.515E-04 -.487E-12   -.642E-23 -.388E-23 0.459E-22   -.291E-06 0.291E-06 -.267E-12
   -.311E-04 -.311E-04 0.311E-04   0.515E-04 0.515E-04 -.515E-04   0.209E-23 0.760E-23 -.381E-22   -.291E-06 -.291E-06 0.291E-06
   -.311E-04 0.110E-11 -.311E-04   0.515E-04 -.147E-11 0.515E-04   0.781E-23 0.942E-23 0.313E-22   -.291E-06 0.206E-12 -.291E-06
   -.311E-04 0.311E-04 0.499E-11   0.515E-04 -.515E-04 0.533E-14   -.860E-23 0.415E-23 -.227E-22   -.291E-06 0.291E-06 0.951E-12
   0.953E-12 0.311E-04 0.311E-04   0.853E-12 -.515E-04 -.515E-04   -.440E-24 0.410E-23 0.331E-22   -.252E-12 0.291E-06 0.291E-06
   0.208E-11 -.311E-04 -.311E-04   -.570E-12 0.515E-04 0.515E-04   0.468E-23 0.170E-22 0.171E-22   -.435E-13 -.291E-06 -.291E-06
   0.144E-11 -.281E-12 -.138E-10   0.569E-13 -.159E-12 -.336E-12   -.183E-22 -.915E-23 0.203E-22   0.499E-13 0.584E-12 0.112E-11
   0.311E-04 -.311E-04 0.311E-04   -.515E-04 0.515E-04 -.515E-04   -.239E-23 -.459E-23 -.571E-22   0.291E-06 -.291E-06 0.291E-06
   0.311E-04 0.636E-11 -.311E-04   -.515E-04 0.793E-12 0.515E-04   0.575E-23 -.986E-23 -.319E-22   0.291E-06 -.397E-12 -.291E-06
   -.311E-04 0.311E-04 0.311E-04   0.515E-04 -.515E-04 -.515E-04   0.109E-22 0.899E-23 0.227E-22   -.291E-06 0.291E-06 0.291E-06
   -.311E-04 -.311E-04 -.311E-04   0.515E-04 0.515E-04 0.515E-04   0.221E-23 0.103E-23 -.448E-22   -.291E-06 -.291E-06 -.291E-06
   -.311E-04 0.286E-11 -.883E-10   0.515E-04 -.122E-11 -.686E-12   -.975E-23 0.368E-23 0.827E-24   -.291E-06 -.656E-12 -.265E-12
   -.506E-12 -.479E-12 0.311E-04   0.536E-12 0.442E-12 -.515E-04   0.158E-22 0.128E-22 0.182E-22   -.395E-12 0.265E-12 0.291E-06
   -.286E-12 0.311E-04 -.311E-04   -.470E-12 -.515E-04 0.515E-04   -.339E-23 -.624E-23 -.112E-22   -.737E-12 0.291E-06 -.291E-06
   -.117E-13 -.311E-04 -.927E-10   -.418E-12 0.515E-04 -.138E-11   0.162E-23 0.821E-23 -.174E-22   -.605E-12 -.291E-06 -.318E-12
   -.589E-12 0.742E-12 0.311E-04   0.384E-12 0.511E-12 -.515E-04   0.108E-22 0.816E-23 0.170E-22   0.103E-14 -.402E-12 0.291E-06
   0.311E-04 -.311E-04 0.311E-04   -.515E-04 0.515E-04 -.515E-04   -.930E-23 -.451E-23 0.178E-22   0.291E-06 -.291E-06 0.291E-06
   0.311E-04 -.825E-12 -.311E-04   -.515E-04 0.867E-12 0.515E-04   -.874E-23 0.754E-23 0.165E-22   0.291E-06 0.362E-12 -.291E-06
   0.311E-04 0.311E-04 0.190E-09   -.515E-04 -.515E-04 0.275E-11   0.401E-23 0.441E-23 -.256E-22   0.291E-06 0.291E-06 -.108E-11
   0.311E-04 -.311E-04 0.311E-04   -.515E-04 0.515E-04 -.515E-04   0.644E-23 0.131E-22 -.248E-22   0.291E-06 -.291E-06 0.291E-06
   0.311E-04 0.167E-11 -.311E-04   -.515E-04 0.101E-11 0.515E-04   -.391E-23 -.157E-22 -.474E-22   0.291E-06 -.206E-12 -.291E-06
   -.311E-04 0.311E-04 0.311E-04   0.515E-04 -.515E-04 -.515E-04   0.108E-22 0.176E-22 -.103E-22   -.291E-06 0.291E-06 0.291E-06
   -.311E-04 -.311E-04 -.311E-04   0.515E-04 0.515E-04 0.515E-04   -.610E-23 -.110E-22 0.485E-23   -.291E-06 -.291E-06 -.291E-06
   -.311E-04 0.745E-12 -.996E-10   0.515E-04 -.799E-12 -.164E-11   -.700E-23 0.662E-23 -.505E-22   -.291E-06 0.118E-13 -.108E-11
   -.311E-04 0.311E-04 0.311E-04   0.515E-04 -.515E-04 -.515E-04   0.191E-22 0.626E-23 0.488E-22   -.291E-06 0.291E-06 0.291E-06
   -.311E-04 -.311E-04 -.311E-04   0.515E-04 0.515E-04 0.515E-04   -.122E-22 -.596E-23 -.161E-23   -.291E-06 -.291E-06 -.291E-06
   -.311E-04 0.536E-11 -.928E-10   0.515E-04 -.675E-12 -.162E-11   0.635E-23 0.776E-23 0.136E-22   -.291E-06 -.628E-12 0.204E-12
   0.143E-11 0.311E-04 -.311E-04   -.257E-12 -.515E-04 0.515E-04   -.210E-22 0.504E-24 -.179E-22   0.111E-12 0.291E-06 -.291E-06
   0.171E-11 -.311E-04 -.807E-10   -.811E-12 0.515E-04 -.160E-11   0.913E-23 0.311E-23 0.190E-22   0.438E-12 -.291E-06 -.864E-12
   0.107E-11 -.430E-12 0.311E-04   0.811E-12 0.161E-12 -.515E-04   0.652E-23 0.402E-23 -.145E-22   0.804E-12 0.236E-12 0.291E-06
   0.129E-11 0.311E-04 -.311E-04   -.208E-12 -.515E-04 0.515E-04   -.791E-23 0.120E-23 0.181E-22   0.397E-12 0.291E-06 -.291E-06
   0.162E-11 -.311E-04 -.939E-10   -.529E-12 0.515E-04 -.139E-11   0.107E-22 -.104E-22 0.174E-22   -.259E-12 -.291E-06 0.547E-12
   -.311E-04 -.818E-11 0.311E-04   0.515E-04 -.138E-11 -.515E-04   -.695E-23 -.161E-22 -.248E-23   -.291E-06 -.264E-12 0.291E-06
   -.241E-12 -.311E-04 0.311E-04   0.607E-12 0.515E-04 -.515E-04   -.203E-22 -.325E-23 -.910E-23   0.867E-13 -.291E-06 0.291E-06
   0.337E-13 0.131E-11 -.311E-04   -.619E-12 -.177E-12 0.515E-04   -.312E-23 0.777E-23 -.177E-23   -.110E-12 -.408E-12 -.291E-06
   0.311E-04 0.311E-04 0.311E-04   -.515E-04 -.515E-04 -.515E-04   -.144E-22 0.184E-23 -.124E-23   0.291E-06 0.291E-06 0.291E-06
   0.311E-04 -.311E-04 -.311E-04   -.515E-04 0.515E-04 0.515E-04   -.315E-23 0.888E-23 -.600E-22   0.291E-06 -.291E-06 -.291E-06
   0.311E-04 0.173E-11 0.937E-10   -.515E-04 0.121E-11 0.169E-11   0.172E-22 0.219E-23 0.620E-23   0.291E-06 -.287E-12 -.203E-12
   -.311E-04 0.344E-12 0.311E-04   0.515E-04 -.104E-11 -.515E-04   -.153E-22 -.289E-23 -.372E-23   -.291E-06 0.554E-12 0.291E-06
   -.311E-04 0.311E-04 -.311E-04   0.515E-04 -.515E-04 0.515E-04   0.140E-23 0.102E-22 0.541E-23   -.291E-06 0.291E-06 -.291E-06
   -.311E-04 -.311E-04 -.186E-09   0.515E-04 0.515E-04 -.284E-11   0.790E-23 0.189E-22 0.538E-23   -.291E-06 -.291E-06 -.618E-12
   -.311E-04 0.440E-11 0.311E-04   0.515E-04 -.988E-12 -.515E-04   -.982E-23 -.152E-22 0.120E-22   -.291E-06 -.775E-13 0.291E-06
   0.141E-11 -.311E-04 0.311E-04   0.878E-12 0.515E-04 -.515E-04   -.148E-22 -.523E-23 0.207E-22   0.258E-12 -.291E-06 0.291E-06
   0.170E-11 0.113E-12 -.311E-04   0.345E-12 -.509E-13 0.515E-04   -.137E-22 -.181E-23 -.838E-23   0.659E-12 0.392E-12 -.291E-06
   0.110E-11 0.311E-04 0.915E-10   0.201E-12 -.515E-04 0.167E-11   0.955E-23 0.168E-22 -.236E-22   0.104E-11 0.291E-06 -.111E-11
   0.137E-11 -.311E-04 0.311E-04   0.350E-12 0.515E-04 -.515E-04   -.944E-23 0.351E-23 0.248E-22   0.420E-12 -.291E-06 0.291E-06
   0.166E-11 0.292E-11 -.311E-04   -.429E-12 -.245E-12 0.515E-04   0.793E-23 0.456E-23 -.532E-23   -.255E-12 -.446E-12 -.291E-06
   0.311E-04 -.543E-12 0.311E-04   -.515E-04 0.121E-11 -.515E-04   0.106E-22 0.712E-23 -.587E-22   0.291E-06 -.557E-12 0.291E-06
   -.311E-04 -.311E-04 0.311E-04   0.515E-04 0.515E-04 -.515E-04   0.534E-23 0.333E-23 0.161E-22   -.291E-06 -.291E-06 0.291E-06
   -.311E-04 -.147E-12 -.311E-04   0.515E-04 -.128E-11 0.515E-04   0.152E-22 0.655E-23 -.290E-23   -.291E-06 -.471E-12 -.291E-06
   0.879E-12 0.311E-04 0.311E-04   0.124E-11 -.515E-04 -.515E-04   -.119E-23 0.110E-22 -.414E-22   0.521E-13 0.291E-06 0.291E-06
   0.212E-11 -.311E-04 -.311E-04   -.275E-12 0.515E-04 0.515E-04   0.942E-23 0.114E-22 0.953E-23   0.122E-12 -.291E-06 -.291E-06
   0.158E-11 -.985E-11 -.657E-12   0.663E-12 0.691E-13 0.600E-13   -.189E-23 -.110E-22 0.558E-22   -.724E-13 -.257E-12 -.423E-12
   0.110E-11 0.220E-11 0.311E-04   0.589E-12 0.891E-12 -.515E-04   0.265E-22 0.514E-24 0.467E-22   -.204E-12 -.603E-12 0.291E-06
 -----------------------------------------------------------------------------------------------
   0.117E-09 0.153E-09 0.139E-09   -.114E-10 -.383E-11 -.807E-12   0.147E-22 0.302E-21 0.331E-22   -.274E-11 -.351E-11 0.143E-11
 
 
 POSITION                                       TOTAL-FORCE (eV/Angst)
 -----------------------------------------------------------------------------------
      7.20000      7.20000      3.60000         0.000000      0.000000      0.000000
      7.20000      9.00000      5.40000        -0.000000     -0.000000     -0.000000
      9.00000      7.20000      5.40000        -0.000000     -0.000000      0.000000
      7.20000      7.20000      0.00000        -0.000000     -0.000000     -0.000000
      7.20000      9.00000      1.80000         0.000000      0.000000      0.000000
      7.20000      0.00000      3.60000        -0.000000     -0.000000     -0.000000
      7.20000      1.80000      5.40000         0.000000     -0.000000      0.000000
      9.00000      7.20000      1.80000         0.000000      0.000000     -0.000000
      9.00000      9.00000      3.60000        -0.000000     -0.000000      0.000000
      9.00000      0.00000      5.40000        -0.000000     -0.000000     -0.000000
      0.00000      7.20000      3.60000        -0.000000     -0.000000      0.000000
      0.00000      9.00000      5.40000        -0.000000     -0.000000     -0.000000
      1.80000      7.20000      5.40000        -0.000000     -0.000000     -0.000000
      7.20000      7.20000      7.20000        -0.000000     -0.000000      0.000000
      7.20000      9.00000      9.00000        -0.000000     -0.000000     -0.000000
      7.20000      0.00000      0.00000         0.000000      0.000000      0.000000
      7.20000      1.80000      1.80000        -0.000000     -0.000000     -0.000000
      7.20000      3.60000      3.60000         0.000000     -0.000000      0.000000
      7.20000      5.40000      5.40000         0.000000      0.000000     -0.000000
      9.00000      7.20000      9.00000        -0.000000      0.000000      0.000000
      9.00000      9.00000      0.00000         0.000000      0.000000     -0.000000
      9.00000      0.00000      1.80000        -0.000000     -0.000000      0.000000
      9.00000      1.80000      3.60000        -0.000000     -0.000000     -0.000000
      9.00000      3.60000      5.40000         0.000000      0.000000     -0.000000
      0.00000      7.20000      0.00000         0.000000      0.000000     -0.000000
      0.00000      9.00000      1.80000        -0.000000     -0.000000     -0.000000
      0.00000      0.00000      3.60000        -0.000000     -0.000000     -0.000000
      0.00000      1.80000      5.40000         0.000000      0.000000      0.000000
      1.80000      7.20000      1.80000        -0.000000     -0.000000      0.000000
      1.80000      9.00000      3.60000        -0.000000     -0.000000     -0.000000
      1.80000      0.00000      5.40000         0.000000      0.000000      0.000000
      3.60000      7.20000      3.60000        -0.000000      0.000000      0.000000
      3.60000      9.00000      5.40000         0.000000      0.000000     -0.000000
      5.40000      7.20000      5.40000         0.000000      0.000000     -0.000000
      7.20000      0.00000      7.20000        -0.000000     -0.000000      0.000000
      7.20000      1.80000      9.00000         0.000000      0.000000     -0.000000
      7.20000      3.60000      0.00000        -0.000000     -0.000000      0.000000
      7.20000      5.40000      1.80000        -0.000000      0.000000     -0.000000
      9.00000      9.00000      7.20000        -0.000000      0.000000     -0.000000
      9.00000      0.00000      9.00000         0.000000      0.000000     -0.000000
      9.00000      1.80000      0.00000        -0.000000     -0.000000      0.000000
      9.00000      3.60000      1.80000         0.000000     -0.000000      0.000000
      9.00000      5.40000      3.60000         0.000000      0.000000     -0.000000
      0.00000      7.20000      7.20000        -0.000000     -0.000000      0.000000
      0.00000      9.00000      9.00000         0.000000      0.000000     -0.000000
      0.00000      0.00000      0.00000        -0.000000     -0.000000      0.000000
      0.00000      1.80000      1.80000        -0.000000     -0.000000     -0.000000
      0.00000      3.60000      3.60000         0.000000      0.000000      0.000000
      0.00000      5.40000      5.40000        -0.000000     -0.000000      0.000000
      1.80000      7.20000      9.00000         0.000000      0.000000      0.000000
      1.80000      9.00000      0.00000        -0.000000     -0.000000      0.000000
      1.80000      0.00000      1.80000        -0.000000     -0.000000     -0.000000
      1.80000      1.80000      3.60000         0.000000      0.000000     -0.000000
      1.80000      3.60000      5.40000        -0.000000     -0.000000      0.000000
      3.60000      7.20000      0.00000        -0.000000     -0.000000     -0.000000
      3.60000      9.00000      1.80000        -0.000000      0.000000     -0.000000
      3.60000      0.00000      3.60000         0.000000      0.000000     -0.000000
      3.60000      1.80000      5.40000        -0.000000     -0.000000      0.000000
      5.40000      7.20000      1.80000        -0.000000     -0.000000     -0.000000
      5.40000      9.00000      3.60000         0.000000      0.000000     -0.000000
      5.40000      0.00000      5.40000        -0.000000     -0.000000      0.000000
      7.20000      3.60000      7.20000         0.000000      0.000000     -0.000000
      7.20000      5.40000      9.00000        -0.000000     -0.000000      0.000000
      9.00000      1.80000      7.20000         0.000000      0.000000      0.000000
      9.00000      3.60000      9.00000        -0.000000     -0.000000      0.000000
      9.00000      5.40000      0.00000        -0.000000      0.000000     -0.000000
      0.00000      0.00000      7.20000         0.000000      0.000000     -0.000000
      0.00000      1.80000      9.00000        -0.000000     -0.000000     -0.000000
      0.00000      3.60000      0.00000         0.000000     -0.000000      0.000000
      0.00000      5.40000      1.80000         0.000000      0.000000      0.000000
      1.80000      9.00000      7.20000         0.000000      0.000000      0.000000
      1.80000      0.00000      9.00000        -0.000000     -0.000000      0.000000
      1.80000      1.80000      0.00000        -0.000000     -0.000000      0.000000
      1.80000      3.60000      1.80000         0.000000      0.000000     -0.000000
      1.80000      5.40000      3.60000        -0.000000     -0.000000      0.000000
      3.60000      7.20000      7.20000         0.000000      0.000000     -0.000000
      3.60000      9.00000      9.00000        -0.000000     -0.000000      0.000000
      3.60000      0.00000      0.00000        -0.000000      0.000000     -0.000000
      3.60000      1.80000      1.80000         0.000000      0.000000     -0.000000
      3.60000      3.60000      3.60000        -0.000000     -0.000000      0.000000
      3.60000      5.40000      5.40000        -0.000000      0.000000      0.000000
      5.40000      7.20000      9.00000        -0.000000     -0.000000      0.000000
      5.40000      9.00000      0.00000        -0.000000     -0.000000     -0.000000
      5.40000      0.00000      1.80000         0.000000      0.000000     -0.000000
      5.40000      1.80000      3.60000        -0.000000     -0.000000      0.000000
      5.40000      3.60000      5.40000         0.000000     -0.000000      0.000000
      9.00000      5.40000      7.20000        -0.000000     -0.000000      0.000000
      0.00000      3.60000      7.20000        -0.000000     -0.000000      0.000000
      0.00000      5.40000      9.00000        -0.000000      0.000000      0.000000
      1.80000      1.80000      7.20000        -0.000000     -0.000000     -0.000000
      1.80000      3.60000      9.00000         0.000000     -0.000000      0.000000
      1.80000      5.40000      0.00000         0.000000      0.000000     -0.000000
      3.60000      0.00000      7.20000        -0.000000     -0.000000      0.000000
      3.60000      1.80000      9.00000        -0.000000     -0.000000     -0.000000
      3.60000      3.60000      0.00000         0.000000      0.000000     -0.000000
      3.60000      5.40000      1.80000        -0.000000     -0.000000      0.000000
      5.40000      9.00000      7.20000        -0.000000     -0.000000     -0.000000
      5.40000      0.00000      9.00000        -0.000000     -0.000000      0.000000
      5.40000      1.80000      0.00000         0.000000      0.000000      0.000000
      5.40000      3.60000      1.80000        -0.000000     -0.000000      0.000000
      5.40000      5.40000      3.60000        -0.000000     -0.000000      0.000000
      1.80000      5.40000      7.20000        -0.000000     -0.000000      0.000000
      3.60000      3.60000      7.20000         0.000000     -0.000000      0.000000
      3.60000      5.40000      9.00000         0.000000      0.000000     -0.000000
      5.40000      1.80000      7.20000         0.000000     -0.000000     -0.000000
      5.40000      3.60000      9.00000         0.000000      0.000000      0.000000
      5.40000      5.40000      0.00000        -0.000000     -0.000000      0.000000
      5.40000      5.40000      7.20000         0.000000      0.000000     -0.000000
 -----------------------------------------------------------------------------------
    total drift:                                0.000000      0.000000      0.000000


--------------------------------------------------------------------------------------------------------




--------------------------------------------------------------------------------------------------------


  
 reached required accuracy - stopping structural energy minimisation
 writing wavefunctions
     LOOP+:  VPU time 1294.91: CPU time 1295.89

 ----------------------------------------------------------------------------- 
|                                                                             |
|           W    W    AA    RRRRR   N    N  II  N    N   GGGG   !!!           |
|           W    W   A  A   R    R  NN   N  II  NN   N  G    G  !!!           |
|           W    W  A    A  R    R  N N  N  II  N N  N  G       !!!           |
|           W WW W  AAAAAA  RRRRR   N  N N  II  N  N N  G  GGG   !            |
|           WW  WW  A    A  R   R   N   NN  II  N   NN  G    G                |
|           W    W  A    A  R    R  N    N  II  N    N   GGGG   !!!           |
|                                                                             |
|      The partial DOS and the PROCAR file are not evaluated for NPAR/=1      |
|      please rerun with NPAR=1                                               |
|                                                                             |
 ----------------------------------------------------------------------------- 

  
  
 General timing and accounting informations for this job:
 ========================================================
  
                  Total CPU time used (sec):     1311.601
                            User time (sec):     1275.419
                          System time (sec):       36.181
                         Elapsed time (sec):     1312.586
  
                   Maximum memory used (kb):      321052.
                   Average memory used (kb):           0.
  
                          Minor page faults:        64052
                          Major page faults:            0
                 Voluntary context switches:         2380
