   4   4   0   0
  0.1410542E+02  0.3835441E-09  0.3835441E-09  0.3835441E-09  0.5000000E-15
  1.000000000000000E-004
  CAR 
 unknown system                          
     23.17329131     -3.74992899  301      9.69776845      1.00000000
     -3.750  0.0000E+00  0.0000E+00
     -3.660  0.0000E+00  0.0000E+00
     -3.570  0.0000E+00  0.0000E+00
     -3.481  0.0000E+00  0.0000E+00
     -3.391  0.0000E+00  0.0000E+00
     -3.301  0.0000E+00  0.0000E+00
     -3.211  0.0000E+00  0.0000E+00
     -3.122  0.0000E+00  0.0000E+00
     -3.032  0.0000E+00  0.0000E+00
     -2.942  0.0000E+00  0.0000E+00
     -2.852  0.0000E+00  0.0000E+00
     -2.763  0.0000E+00  0.0000E+00
     -2.673  0.0000E+00  0.0000E+00
     -2.583  0.4295E-17  0.3855E-18
     -2.494  0.1290E-01  0.1157E-02
     -2.404  0.7855E-01  0.8207E-02
     -2.314  0.2213E+00  0.2807E-01
     -2.224  0.7733E-01  0.3819E-01
     -2.135  0.3095E+00  0.6597E-01
     -2.045  0.3095E+00  0.9375E-01
     -1.955  0.1508E+00  0.1073E+00
     -1.865  0.3869E+00  0.1424E+00
     -1.776  0.3148E+00  0.1706E+00
     -1.686  0.3845E+00  0.2051E+00
     -1.596  0.3095E+00  0.2350E+00
     -1.506  0.6190E+00  0.2905E+00
     -1.417  0.2835E-01  0.2931E+00
     -1.327  0.6159E+00  0.3527E+00
     -1.237  0.4643E+00  0.3947E+00
     -1.147  0.3369E+00  0.4249E+00
     -1.058  0.5841E+00  0.5027E+00
     -0.968  0.3095E+00  0.5336E+00
     -0.878  0.3627E-02  0.5339E+00
     -0.788  0.5981E+00  0.5876E+00
     -0.699  0.9284E+00  0.6794E+00
     -0.609  0.4127E+00  0.7164E+00
     -0.519  0.4219E+00  0.7543E+00
     -0.429  0.6178E+00  0.8552E+00
     -0.340  0.9786E-05  0.8553E+00
     -0.250  0.2804E+00  0.8805E+00
     -0.160  0.6099E+00  0.9795E+00
     -0.070  0.6190E+00  0.1036E+01
      0.019  0.4100E+00  0.1073E+01
      0.109  0.1162E+01  0.1177E+01
      0.199  0.7917E-07  0.1182E+01
      0.289  0.3390E+00  0.1212E+01
      0.378  0.1739E+01  0.1368E+01
      0.468  0.3095E+00  0.1404E+01
      0.558  0.3166E+00  0.1432E+01
      0.648  0.1383E+01  0.1556E+01
      0.737  0.2063E-09  0.1571E+01
      0.827  0.1052E+00  0.1580E+01
      0.917  0.1377E+01  0.1704E+01
      1.007  0.6189E+00  0.1795E+01
      1.096  0.3107E+00  0.1823E+01
      1.186  0.1605E+01  0.1967E+01
      1.276  0.7317E-10  0.2017E+01
      1.365  0.6195E+00  0.2073E+01
      1.455  0.7743E+00  0.2142E+01
      1.545  0.9278E+00  0.2240E+01
      1.635  0.5125E-03  0.2240E+01
      1.724  0.1513E+01  0.2375E+01
      1.814  0.2185E-10  0.2434E+01
      1.904  0.7838E-01  0.2441E+01
      1.994  0.1878E+01  0.2610E+01
      2.083  0.3093E+00  0.2691E+01
      2.173  0.6209E+00  0.2747E+01
      2.263  0.1583E+01  0.2889E+01
      2.353  0.6118E-09  0.2913E+01
      2.442  0.4660E+00  0.2955E+01
      2.532  0.1678E+01  0.3106E+01
      2.622  0.7221E+00  0.3214E+01
      2.712  0.3214E+00  0.3243E+01
      2.801  0.1712E+01  0.3397E+01
      2.891  0.2437E-07  0.3409E+01
      2.981  0.3506E+00  0.3440E+01
      3.071  0.1862E+01  0.3607E+01
      3.160  0.9286E+00  0.3693E+01
      3.250  0.6952E+00  0.3756E+01
      3.340  0.1810E+01  0.3940E+01
      3.430  0.9913E-04  0.3943E+01
      3.519  0.8378E+00  0.4018E+01
      3.609  0.1544E+01  0.4276E+01
      3.699  0.6190E+00  0.4332E+01
      3.789  0.3567E+00  0.4364E+01
      3.878  0.1238E+01  0.4499E+01
      3.968  0.1836E-01  0.4500E+01
      4.058  0.8818E+00  0.4580E+01
      4.148  0.1430E+01  0.4711E+01
      4.237  0.6935E+00  0.4797E+01
      4.327  0.2441E+01  0.5018E+01
      4.417  0.6190E+00  0.5075E+01
      4.507  0.7249E+00  0.5140E+01
      4.596  0.1238E+01  0.5274E+01
      4.686  0.1521E+01  0.5411E+01
      4.776  0.9202E+00  0.5497E+01
      4.866  0.9331E+00  0.5580E+01
      4.955  0.1543E+01  0.5719E+01
      5.045  0.3131E+00  0.5747E+01
      5.135  0.1270E+01  0.5861E+01
      5.224  0.1237E+01  0.5973E+01
      5.314  0.6508E+00  0.6032E+01
      5.404  0.2459E+01  0.6252E+01
      5.494  0.3457E-05  0.6307E+01
      5.583  0.1433E+01  0.6435E+01
      5.673  0.1185E+01  0.6559E+01
      5.763  0.3095E+00  0.6591E+01
      5.853  0.1355E+01  0.6713E+01
      5.942  0.9168E+00  0.6841E+01
      6.032  0.8352E+00  0.6916E+01
      6.122  0.2295E+01  0.7132E+01
      6.212  0.1563E+01  0.7273E+01
      6.301  0.1243E+01  0.7385E+01
      6.391  0.1204E+01  0.7493E+01
      6.481  0.4066E-01  0.7498E+01
      6.571  0.2142E+01  0.7690E+01
      6.660  0.1402E+01  0.7818E+01
      6.750  0.9814E+00  0.7919E+01
      6.840  0.2166E+01  0.8123E+01
      6.930  0.1271E+01  0.8237E+01
      7.019  0.7713E+00  0.8317E+01
      7.109  0.1098E+01  0.8416E+01
      7.199  0.1988E+01  0.8608E+01
      7.289  0.9286E+00  0.8706E+01
      7.378  0.9291E+00  0.8789E+01
      7.468  0.2971E+00  0.8816E+01
      7.558  0.2384E+01  0.9030E+01
      7.648  0.4931E-02  0.9049E+01
      7.737  0.2170E+01  0.9244E+01
      7.827  0.2411E+01  0.9460E+01
      7.917  0.6145E+00  0.9548E+01
      8.007  0.3564E+00  0.9581E+01
      8.096  0.1122E+01  0.9691E+01
      8.186  0.1403E+01  0.9817E+01
      8.276  0.1753E+01  0.9987E+01
      8.366  0.7930E+00  0.1010E+02
      8.455  0.7988E+00  0.1019E+02
      8.545  0.1986E+01  0.1037E+02
      8.635  0.1661E+01  0.1052E+02
      8.724  0.1137E+01  0.1063E+02
      8.814  0.6190E+00  0.1073E+02
      8.904  0.1250E+01  0.1084E+02
      8.994  0.1293E+01  0.1102E+02
      9.083  0.1102E+01  0.1113E+02
      9.173  0.3096E+00  0.1120E+02
      9.263  0.7273E+00  0.1126E+02
      9.353  0.1369E+01  0.1143E+02
      9.442  0.8564E+00  0.1153E+02
      9.532  0.2319E+01  0.1175E+02
      9.622  0.2094E+01  0.1194E+02
      9.712  0.1065E+01  0.1204E+02
      9.801  0.1702E+01  0.1219E+02
      9.891  0.9784E+00  0.1229E+02
      9.981  0.1232E+01  0.1243E+02
     10.071  0.1153E+01  0.1253E+02
     10.160  0.3016E+00  0.1259E+02
     10.250  0.1256E+01  0.1271E+02
     10.340  0.1911E+01  0.1288E+02
     10.430  0.1393E+01  0.1301E+02
     10.519  0.1077E+01  0.1310E+02
     10.609  0.1208E+01  0.1324E+02
     10.699  0.2180E+01  0.1344E+02
     10.789  0.2106E+01  0.1363E+02
     10.878  0.1386E+01  0.1376E+02
     10.968  0.2062E+01  0.1395E+02
     11.058  0.1547E+01  0.1414E+02
     11.148  0.9325E+00  0.1422E+02
     11.237  0.9247E+00  0.1430E+02
     11.327  0.1855E+01  0.1447E+02
     11.417  0.1158E+01  0.1457E+02
     11.507  0.6196E+00  0.1464E+02
     11.596  0.2168E+01  0.1483E+02
     11.686  0.3240E+00  0.1492E+02
     11.776  0.2208E+01  0.1511E+02
     11.866  0.1240E+01  0.1526E+02
     11.955  0.1562E+01  0.1540E+02
     12.045  0.1439E+01  0.1553E+02
     12.135  0.2311E+01  0.1574E+02
     12.225  0.1849E-04  0.1574E+02
     12.314  0.2303E+01  0.1595E+02
     12.404  0.6153E+00  0.1602E+02
     12.494  0.1548E+01  0.1616E+02
     12.583  0.2557E+01  0.1639E+02
     12.673  0.1383E+01  0.1651E+02
     12.763  0.1384E+01  0.1664E+02
     12.853  0.1999E+01  0.1682E+02
     12.942  0.1600E+01  0.1696E+02
     13.032  0.1537E+01  0.1712E+02
     13.122  0.1373E+01  0.1729E+02
     13.212  0.2154E+01  0.1750E+02
     13.301  0.5898E+00  0.1757E+02
     13.391  0.1221E+01  0.1768E+02
     13.481  0.2123E+01  0.1787E+02
     13.571  0.1712E+01  0.1803E+02
     13.660  0.1312E+01  0.1817E+02
     13.750  0.1125E+01  0.1829E+02
     13.840  0.2295E+01  0.1851E+02
     13.930  0.1237E+01  0.1862E+02
     14.019  0.2311E+01  0.1883E+02
     14.109  0.1334E+01  0.1895E+02
     14.199  0.1258E+01  0.1908E+02
     14.289  0.2164E+01  0.1927E+02
     14.378  0.1218E+01  0.1938E+02
     14.468  0.1768E-04  0.1938E+02
     14.558  0.8512E+00  0.1946E+02
     14.648  0.2947E+01  0.1972E+02
     14.737  0.3272E+01  0.2007E+02
     14.827  0.2609E+01  0.2035E+02
     14.917  0.2162E+01  0.2054E+02
     15.007  0.6310E+00  0.2060E+02
     15.096  0.2007E+01  0.2078E+02
     15.186  0.6427E+00  0.2086E+02
     15.276  0.2122E+01  0.2108E+02
     15.366  0.7130E+00  0.2117E+02
     15.455  0.1671E+01  0.2132E+02
     15.545  0.1702E+01  0.2149E+02
     15.635  0.1504E+01  0.2164E+02
     15.725  0.1080E+01  0.2175E+02
     15.814  0.1693E+01  0.2190E+02
     15.904  0.1853E+01  0.2208E+02
     15.994  0.1547E+00  0.2209E+02
     16.084  0.7719E+00  0.2216E+02
     16.173  0.1032E+00  0.2224E+02
     16.263  0.1672E+01  0.2239E+02
     16.353  0.1557E+01  0.2258E+02
     16.442  0.8897E+00  0.2267E+02
     16.532  0.7277E+00  0.2274E+02
     16.622  0.1238E+01  0.2288E+02
     16.712  0.5929E-03  0.2288E+02
     16.801  0.7049E+00  0.2294E+02
     16.891  0.1972E+00  0.2296E+02
     16.981  0.1608E-12  0.2296E+02
     17.071  0.3314E+00  0.2299E+02
     17.160  0.1225E+01  0.2310E+02
     17.250  0.9196E+00  0.2318E+02
     17.340  0.5154E+00  0.2323E+02
     17.430  0.3090E+00  0.2329E+02
     17.519  0.7738E-01  0.2330E+02
     17.609  0.1515E-10  0.2330E+02
     17.699  0.1012E+01  0.2339E+02
     17.789  0.4836E+00  0.2344E+02
     17.878  0.0000E+00  0.2348E+02
     17.968  0.6190E+00  0.2353E+02
     18.058  0.0000E+00  0.2353E+02
     18.148  0.0000E+00  0.2353E+02
     18.237  0.0000E+00  0.2353E+02
     18.327  0.6182E+00  0.2359E+02
     18.417  0.3095E+00  0.2362E+02
     18.507  0.2268E-08  0.2362E+02
     18.596  0.3095E+00  0.2364E+02
     18.686  0.2313E-03  0.2364E+02
     18.776  0.7492E+00  0.2371E+02
     18.866  0.6392E-05  0.2375E+02
     18.955  0.1032E+00  0.2376E+02
     19.045  0.3095E+00  0.2379E+02
     19.135  0.0000E+00  0.2379E+02
     19.225  0.0000E+00  0.2379E+02
     19.314  0.0000E+00  0.2379E+02
     19.404  0.0000E+00  0.2379E+02
     19.494  0.1342E+00  0.2380E+02
     19.584  0.3382E-04  0.2382E+02
     19.673  0.3480E+00  0.2385E+02
     19.763  0.5806E+00  0.2390E+02
     19.853  0.0000E+00  0.2390E+02
     19.943  0.5402E-08  0.2390E+02
     20.032  0.3095E+00  0.2393E+02
     20.122  0.0000E+00  0.2393E+02
     20.212  0.0000E+00  0.2393E+02
     20.301  0.0000E+00  0.2393E+02
     20.391  0.6987E-15  0.2393E+02
     20.481  0.1032E+00  0.2394E+02
     20.571  0.3095E+00  0.2397E+02
     20.660  0.0000E+00  0.2397E+02
     20.750  0.8484E-07  0.2397E+02
     20.840  0.3095E+00  0.2400E+02
     20.930  0.0000E+00  0.2400E+02
     21.019  0.0000E+00  0.2400E+02
     21.109  0.0000E+00  0.2400E+02
     21.199  0.0000E+00  0.2400E+02
     21.289  0.0000E+00  0.2400E+02
     21.378  0.0000E+00  0.2400E+02
     21.468  0.0000E+00  0.2400E+02
     21.558  0.0000E+00  0.2400E+02
     21.648  0.0000E+00  0.2400E+02
     21.737  0.0000E+00  0.2400E+02
     21.827  0.0000E+00  0.2400E+02
     21.917  0.1013E-06  0.2400E+02
     22.007  0.5159E-01  0.2400E+02
     22.096  0.0000E+00  0.2400E+02
     22.186  0.0000E+00  0.2400E+02
     22.276  0.0000E+00  0.2400E+02
     22.366  0.0000E+00  0.2400E+02
     22.455  0.0000E+00  0.2400E+02
     22.545  0.0000E+00  0.2400E+02
     22.635  0.0000E+00  0.2400E+02
     22.725  0.0000E+00  0.2400E+02
     22.814  0.0000E+00  0.2400E+02
     22.904  0.0000E+00  0.2400E+02
     22.994  0.0000E+00  0.2400E+02
     23.084  0.0000E+00  0.2400E+02
     23.173  0.0000E+00  0.2400E+02
