    4    4    1    1
  0.1410542E+02  0.3835441E-09  0.3835441E-09  0.3835441E-09  0.5000000E-15
  1.000000000000000E-004
  CAR 
 unknown system                          
   12   84   12
 
  0.0000000E+00  0.0000000E+00  0.0000000E+00  0.5787037E-03
   1       -2.5261
   2        6.4342
   3        6.4342
   4        6.4342
   5        8.0620
   6        8.0620
   7        8.0620
   8       15.0221
   9       15.0221
  10       15.0221
  11       16.1230
  12       16.1230
 
  0.8333333E-01  0.0000000E+00  0.0000000E+00  0.3472222E-02
   1       -2.4564
   2        5.5341
   3        6.4967
   4        6.4967
   5        8.1252
   6        8.1252
   7        9.0783
   8       14.0088
   9       14.0088
  10       15.0912
  11       15.7006
  12       15.7006
 
  0.1666667E+00  0.0000000E+00  0.0000000E+00  0.3472222E-02
   1       -2.2472
   2        4.2316
   3        6.6844
   4        6.6844
   5        8.3123
   6        8.3123
   7       10.7292
   8       12.7175
   9       12.7175
  10       14.7900
  11       14.7900
  12       15.2983
 
  0.2500000E+00  0.0000000E+00  0.0000000E+00  0.3472222E-02
   1       -1.8994
   2        2.9907
   3        6.9975
   4        6.9975
   5        8.6133
   6        8.6133
   7       11.5255
   8       11.5255
   9       12.5502
  10       13.7814
  11       13.7814
  12       15.6431
 
  0.3333333E+00  0.0000000E+00  0.0000000E+00  0.3472222E-02
   1       -1.4142
   2        1.8580
   3        7.4362
   4        7.4362
   5        9.0028
   6        9.0028
   7       10.4551
   8       10.4551
   9       12.8425
  10       12.8425
  11       14.4931
  12       16.1247
 
  0.4166667E+00  0.0000000E+00  0.0000000E+00  0.3472222E-02
   1       -0.7932
   2        0.8462
   3        8.0010
   4        8.0010
   5        9.4059
   6        9.4059
   7        9.5103
   8        9.5103
   9       12.0975
  10       12.0975
  11       16.5419
  12       16.7419
 
  0.5000000E+00  0.0000000E+00  0.0000000E+00  0.1736111E-02
   1       -0.0388
   2       -0.0388
   3        8.6923
   4        8.6923
   5        8.6923
   6        8.6923
   7        9.6099
   8        9.6099
   9       11.7778
  10       11.7778
  11       17.4923
  12       17.4923
 
  0.8333333E-01  0.8333333E-01  0.0000000E+00  0.6944444E-02
   1       -2.3866
   2        5.5983
   3        5.5983
   4        6.5593
   5        8.1869
   6        9.1390
   7        9.1390
   8       13.2044
   9       14.0738
  10       14.0738
  11       15.7605
  12       15.7605
 
  0.1666667E+00  0.8333333E-01  0.0000000E+00  0.1388889E-01
   1       -2.1776
   2        4.2971
   3        5.7905
   4        6.7470
   5        8.3674
   6        9.3181
   7       10.7852
   8       11.9940
   9       12.7816
  10       14.2690
  11       14.8562
  12       15.5908
 
  0.2500000E+00  0.8333333E-01  0.0000000E+00  0.1388889E-01
   1       -1.8300
   2        3.0571
   3        6.1099
   4        7.0602
   5        8.6445
   6        9.6037
   7       10.8591
   8       11.5892
   9       12.5969
  10       13.8590
  11       14.5856
  12       14.5937
 
  0.3333333E+00  0.8333333E-01  0.0000000E+00  0.1388889E-01
   1       -1.3450
   2        1.9252
   3        6.5547
   4        7.4990
   5        8.8933
   6        9.9595
   7        9.9657
   8       10.5185
   9       12.9491
  10       13.6198
  11       14.5149
  12       15.0472
 
  0.4166667E+00  0.8333333E-01  0.0000000E+00  0.1388889E-01
   1       -0.7245
   2        0.9140
   3        7.1209
   4        8.0639
   5        8.5279
   6        9.5735
   7        9.8742
   8       10.2613
   9       12.3048
  10       12.7933
  11       15.6283
  12       16.4344
 
  0.5000000E+00  0.8333333E-01  0.0000000E+00  0.6944444E-02
   1        0.0295
   2        0.0295
   3        7.7971
   4        7.7971
   5        8.7553
   6        8.7553
   7       10.2138
   8       10.2138
   9       12.2517
  10       12.2517
  11       16.3353
  12       16.3353
 
  0.1666667E+00  0.1666667E+00  0.0000000E+00  0.6944444E-02
   1       -1.9689
   2        4.4933
   3        4.4933
   4        6.9349
   5        8.5157
   6       10.8521
   7       10.9473
   8       10.9473
   9       12.9739
  10       12.9739
  11       15.0581
  12       15.0581
 
  0.2500000E+00  0.1666667E+00  0.0000000E+00  0.1388889E-01
   1       -1.6219
   2        3.2562
   3        4.8193
   4        7.2482
   5        8.6287
   6        9.8978
   7       11.1874
   8       11.7803
   9       12.7192
  10       13.2941
  11       14.1061
  12       15.4116
 
  0.3333333E+00  0.1666667E+00  0.0000000E+00  0.1388889E-01
   1       -1.1378
   2        2.1266
   3        5.2734
   4        7.6874
   5        8.1799
   6        9.7219
   7       10.7088
   8       11.3980
   9       13.3362
  10       13.7420
  11       14.4995
  12       15.1019
 
  0.4166667E+00  0.1666667E+00  0.0000000E+00  0.1388889E-01
   1       -0.5183
   2        1.1173
   3        5.8526
   4        7.3506
   5        8.2527
   6        9.7632
   7       10.1466
   8       11.2622
   9       13.1185
  10       14.2389
  11       14.3171
  12       15.8475
 
  0.5000000E+00  0.1666667E+00  0.0000000E+00  0.6944444E-02
   1        0.2343
   2        0.2343
   3        6.5506
   4        6.5506
   5        8.9445
   6        8.9445
   7       10.7293
   8       10.7293
   9       13.5285
  10       13.5285
  11       15.0187
  12       15.0187
 
  0.2500000E+00  0.2500000E+00  0.0000000E+00  0.6944444E-02
   1       -1.2759
   2        3.5871
   3        3.5871
   4        7.5619
   5        8.0577
   6        9.6326
   7       12.0987
   8       12.0987
   9       12.8167
  10       12.8167
  11       14.6072
  12       14.6072
 
  0.3333333E+00  0.2500000E+00  0.0000000E+00  0.1388889E-01
   1       -0.7933
   2        2.4613
   3        4.0484
   4        7.1091
   5        8.0015
   6        9.9614
   7       11.0260
   8       12.5444
   9       12.5639
  10       14.1068
  11       14.2993
  12       15.5948
 
  0.4166667E+00  0.2500000E+00  0.0000000E+00  0.1388889E-01
   1       -0.1756
   2        1.4552
   3        4.6378
   4        6.1814
   5        8.5674
   6       10.0795
   7       10.4995
   8       11.8985
   9       13.1172
  10       14.6027
  11       14.6431
  12       14.9390
 
  0.5000000E+00  0.2500000E+00  0.0000000E+00  0.6944444E-02
   1        0.5749
   2        0.5749
   3        5.3513
   4        5.3513
   5        9.2599
   6        9.2599
   7       11.1634
   8       11.1634
   9       13.8170
  10       13.8170
  11       15.1949
  12       15.1949
 
  0.3333333E+00  0.3333333E+00  0.0000000E+00  0.6944444E-02
   1       -0.3125
   2        2.9282
   3        2.9282
   4        6.0562
   5        8.4418
   6       10.3955
   7       11.4702
   8       11.4702
   9       13.3128
  10       13.3128
  11       14.5172
  12       15.9286
 
  0.4166667E+00  0.3333333E+00  0.0000000E+00  0.1388889E-01
   1        0.3026
   2        1.9265
   3        3.5252
   4        5.0960
   5        9.0084
   6       10.5225
   7       10.9692
   8       12.0415
   9       12.4573
  10       13.5652
  11       13.9820
  12       15.5300
 
  0.5000000E+00  0.3333333E+00  0.0000000E+00  0.6944444E-02
   1        1.0500
   2        1.0500
   3        4.2494
   4        4.2494
   5        9.7019
   6        9.7019
   7       11.6630
   8       11.6630
   9       12.7399
  10       12.7399
  11       14.7113
  12       14.7113
 
  0.4166667E+00  0.4166667E+00  0.0000000E+00  0.6944444E-02
   1        0.9145
   2        2.5296
   3        2.5296
   4        4.1191
   5        9.5761
   6       11.0924
   7       11.0924
   8       11.5593
   9       12.6138
  10       13.0790
  11       13.0790
  12       14.6165
 
  0.5000000E+00  0.4166667E+00  0.0000000E+00  0.6944444E-02
   1        1.6579
   2        1.6579
   3        3.2616
   4        3.2616
   5       10.2707
   6       10.2707
   7       11.7895
   8       11.7895
   9       12.2657
  10       12.2657
  11       13.7972
  12       13.7972
 
  0.5000000E+00  0.5000000E+00  0.0000000E+00  0.1736111E-02
   1        2.3962
   2        2.3962
   3        2.3962
   4        2.3962
   5       10.9665
   6       10.9665
   7       10.9665
   8       10.9665
   9       12.9783
  10       12.9783
  11       12.9783
  12       12.9783
 
  0.8333333E-01  0.8333333E-01  0.8333333E-01  0.4629630E-02
   1       -2.3169
   2        5.6623
   3        5.6623
   4        5.6623
   5        9.1976
   6        9.1976
   7        9.1976
   8       13.2708
   9       13.2708
  10       13.2708
  11       16.2954
  12       16.2954
 
  0.1666667E+00  0.8333333E-01  0.8333333E-01  0.1388889E-01
   1       -2.1080
   2        4.3625
   3        5.8542
   4        5.8542
   5        9.3665
   6        9.3665
   7       10.8354
   8       12.0664
   9       12.0664
  10       13.4724
  11       15.6532
  12       15.6532
 
  0.2500000E+00  0.8333333E-01  0.8333333E-01  0.1388889E-01
   1       -1.7606
   2        3.1235
   3        6.1727
   4        6.1727
   5        9.6010
   6        9.6010
   7       10.9642
   8       10.9642
   9       12.6142
  10       13.8297
  11       14.6549
  12       14.6549
 
  0.3333333E+00  0.8333333E-01  0.8333333E-01  0.1388889E-01
   1       -1.2759
   2        1.9924
   3        6.6151
   4        6.6151
   5        9.4993
   6        9.4993
   7       10.4048
   8       10.4048
   9       13.7033
  10       13.7033
  11       14.0663
  12       14.7583
 
  0.4166667E+00  0.8333333E-01  0.8333333E-01  0.1388889E-01
   1       -0.6557
   2        0.9818
   3        7.1706
   4        7.1706
   5        8.7325
   6        8.7325
   7       10.6785
   8       10.6785
   9       12.9232
  10       12.9232
  11       14.7407
  12       16.2835
 
  0.5000000E+00  0.8333333E-01  0.8333333E-01  0.6944444E-02
   1        0.0978
   2        0.0978
   3        7.6645
   4        7.6645
   5        8.1348
   6        8.1348
   7       10.8985
   8       10.8985
   9       12.5657
  10       12.5657
  11       15.4561
  12       15.4561
 
  0.1666667E+00  0.1666667E+00  0.8333333E-01  0.1388889E-01
   1       -1.8994
   2        4.5585
   3        4.5585
   4        6.0448
   5        9.4722
   6       10.9571
   7       10.9571
   8       10.9656
   9       12.3058
  10       12.3058
  11       15.8413
  12       15.8413
 
  0.2500000E+00  0.1666667E+00  0.8333333E-01  0.2777778E-01
   1       -1.5526
   2        3.3224
   3        4.8839
   4        6.3597
   5        9.2659
   6       10.3282
   7       10.7746
   8       11.5959
   9       12.3061
  10       13.0765
  11       14.8682
  12       16.0929
 
  0.3333333E+00  0.1666667E+00  0.8333333E-01  0.2777778E-01
   1       -1.0688
   2        2.1936
   3        5.3368
   4        6.7878
   5        8.4283
   6        9.8714
   7       10.5481
   8       11.7668
   9       12.9060
  10       13.9812
  11       14.8125
  12       15.1707
 
  0.4166667E+00  0.1666667E+00  0.8333333E-01  0.2777778E-01
   1       -0.4497
   2        1.1849
   3        5.9126
   4        7.1643
   5        7.7142
   6        8.9562
   7       11.0340
   8       11.9173
   9       13.4540
  10       13.5059
  11       14.3211
  12       15.0413
 
  0.5000000E+00  0.1666667E+00  0.8333333E-01  0.1388889E-01
   1        0.3025
   2        0.3025
   3        6.5954
   4        6.5954
   5        8.1608
   6        8.1608
   7       11.5833
   8       11.5833
   9       13.6583
  10       13.6583
  11       14.2144
  12       14.2144
 
  0.2500000E+00  0.2500000E+00  0.8333333E-01  0.1388889E-01
   1       -1.2068
   2        3.6530
   3        3.6530
   4        6.6599
   5        8.3148
   6       10.4580
   7       11.2684
   8       11.2684
   9       13.1590
  10       13.1590
  11       15.2560
  12       15.2560
 
  0.3333333E+00  0.2500000E+00  0.8333333E-01  0.2777778E-01
   1       -0.7245
   2        2.5281
   3        4.1137
   4        6.9109
   5        7.4788
   6       10.2246
   7       10.8620
   8       11.7466
   9       13.2065
  10       14.6311
  11       14.7553
  12       14.8124
 
  0.4166667E+00  0.2500000E+00  0.8333333E-01  0.2777778E-01
   1       -0.1071
   2        1.5226
   3        4.7017
   4        6.2255
   5        7.7901
   6        9.2846
   7       11.4088
   8       12.3320
   9       12.7479
  10       13.8647
  11       14.7266
  12       15.7883
 
  0.5000000E+00  0.2500000E+00  0.8333333E-01  0.1388889E-01
   1        0.6429
   2        0.6429
   3        5.4116
   4        5.4116
   5        8.4671
   6        8.4671
   7       12.0602
   8       12.0602
   9       13.0374
  10       13.0374
  11       15.2744
  12       15.2744
 
  0.3333333E+00  0.3333333E+00  0.8333333E-01  0.1388889E-01
   1       -0.2440
   2        2.9946
   3        2.9946
   4        6.1001
   5        7.6647
   6       10.6836
   7       10.6836
   8       11.3095
   9       13.7452
  10       14.1573
  11       14.1573
  12       16.0400
 
  0.4166667E+00  0.3333333E+00  0.8333333E-01  0.2777778E-01
   1        0.3708
   2        1.9937
   3        3.5909
   4        5.1565
   5        8.2165
   6        9.7362
   7       11.2637
   8       11.8807
   9       12.7955
  10       13.3434
  11       14.8583
  12       16.4046
 
  0.5000000E+00  0.3333333E+00  0.8333333E-01  0.1388889E-01
   1        1.1177
   2        1.1177
   3        4.3137
   4        4.3137
   5        8.9120
   6        8.9120
   7       11.9678
   8       11.9678
   9       12.5652
  10       12.5652
  11       15.5885
  12       15.5885
 
  0.4166667E+00  0.4166667E+00  0.8333333E-01  0.1388889E-01
   1        0.9823
   2        2.5962
   3        2.5962
   4        4.1835
   5        8.7864
   6       10.3136
   7       10.3136
   8       11.8448
   9       12.4656
  10       13.9672
  11       13.9672
  12       15.4945
 
  0.5000000E+00  0.4166667E+00  0.8333333E-01  0.1388889E-01
   1        1.7252
   2        1.7252
   3        3.3276
   4        3.3276
   5        9.4867
   6        9.4867
   7       11.0168
   8       11.0168
   9       13.1636
  10       13.1636
  11       14.6807
  12       14.6807
 
  0.5000000E+00  0.5000000E+00  0.8333333E-01  0.3472222E-02
   1        2.4630
   2        2.4630
   3        2.4630
   4        2.4630
   5       10.1889
   6       10.1889
   7       10.1889
   8       10.1889
   9       13.8691
  10       13.8691
  11       13.8691
  12       13.8691
 
  0.1666667E+00  0.1666667E+00  0.1666667E+00  0.4629630E-02
   1       -1.6912
   2        4.7535
   3        4.7535
   4        4.7535
   5       10.6667
   6       10.6667
   7       10.6667
   8       11.6012
   9       11.6012
  10       11.6012
  11       16.8133
  12       16.8137
 
  0.2500000E+00  0.1666667E+00  0.1666667E+00  0.1388889E-01
   1       -1.3450
   2        3.5208
   3        5.0770
   4        5.0770
   5        9.6946
   6        9.6946
   7       11.2073
   8       11.7175
   9       11.7175
  10       13.1884
  11       15.8310
  12       16.2793
 
  0.3333333E+00  0.1666667E+00  0.1666667E+00  0.1388889E-01
   1       -0.8621
   2        2.3944
   3        5.5248
   4        5.5248
   5        8.6696
   6        8.6696
   7       11.6979
   8       12.0887
   9       12.0887
  10       14.7710
  11       15.0685
  12       15.3824
 
  0.4166667E+00  0.1666667E+00  0.1666667E+00  0.1388889E-01
   1       -0.2440
   2        1.3877
   3        6.0808
   4        6.0808
   5        7.7529
   6        7.7529
   7       12.2883
   8       12.5366
   9       12.5366
  10       13.8243
  11       14.5964
  12       14.5964
 
  0.5000000E+00  0.1666667E+00  0.1666667E+00  0.6944444E-02
   1        0.5068
   2        0.5068
   3        6.5374
   4        6.5374
   5        7.1746
   6        7.1746
   7       12.8061
   8       12.8061
   9       12.9962
  10       12.9962
  11       14.2120
  12       14.2120
 
  0.2500000E+00  0.2500000E+00  0.1666667E+00  0.1388889E-01
   1       -0.9999
   2        3.8502
   3        3.8502
   4        5.3951
   5        8.5597
   6       10.0645
   7       10.0645
   8       12.0181
   9       13.4588
  10       13.4588
  11       14.6668
  12       16.5977
 
  0.3333333E+00  0.2500000E+00  0.1666667E+00  0.2777778E-01
   1       -0.5183
   2        2.7282
   3        4.3087
   4        5.8225
   5        7.5207
   6        9.0051
   7       10.5310
   8       12.4456
   9       13.6029
  10       13.7968
  11       15.3195
  12       15.7689
 
  0.4166667E+00  0.2500000E+00  0.1666667E+00  0.2777778E-01
   1        0.0979
   2        1.7247
   3        4.8912
   4        6.1565
   5        6.8102
   6        8.0601
   7       11.1159
   8       12.6532
   9       12.9791
  10       13.9637
  11       15.2685
  12       16.2125
 
  0.5000000E+00  0.2500000E+00  0.1666667E+00  0.1388889E-01
   1        0.8466
   2        0.8466
   3        5.5801
   4        5.5801
   5        7.2550
   6        7.2550
   7       11.8234
   8       11.8234
   9       13.5668
  10       13.5668
  11       15.5401
  12       15.5401
 
  0.3333333E+00  0.3333333E+00  0.1666667E+00  0.1388889E-01
   1       -0.0387
   2        3.1933
   3        3.1933
   4        6.0293
   5        6.6851
   6        9.4619
   7        9.4619
   8       12.5355
   9       12.9015
  10       15.3797
  11       15.3797
  12       16.5353
 
  0.4166667E+00  0.3333333E+00  0.1666667E+00  0.2777778E-01
   1        0.5750
   2        2.1948
   3        3.7872
   4        5.3258
   5        7.0005
   6        8.5086
   7       10.0441
   8       11.5831
   9       13.4655
  10       14.8439
  11       16.3492
  12       16.7337
 
  0.5000000E+00  0.3333333E+00  0.1666667E+00  0.1388889E-01
   1        1.3205
   2        1.3205
   3        4.5043
   4        4.5043
   5        7.6816
   6        7.6816
   7       10.7516
   8       10.7516
   9       14.1279
  10       14.1279
  11       17.1090
  12       17.1090
 
  0.4166667E+00  0.4166667E+00  0.1666667E+00  0.1388889E-01
   1        1.1854
   2        2.7958
   3        2.7958
   4        4.3746
   5        7.5543
   6        9.0883
   7        9.0883
   8       10.6285
   9       14.0479
  10       15.5139
  11       15.5139
  12       17.0313
 
  0.5000000E+00  0.4166667E+00  0.1666667E+00  0.1388889E-01
   1        1.9268
   2        1.9268
   3        3.5245
   4        3.5245
   5        8.2561
   6        8.2561
   7        9.7958
   8        9.7958
   9       14.7339
  10       14.7339
  11       16.2291
  12       16.2291
 
  0.5000000E+00  0.5000000E+00  0.1666667E+00  0.3472222E-02
   1        2.6629
   2        2.6629
   3        2.6629
   4        2.6629
   5        8.9626
   6        8.9626
   7        8.9626
   8        8.9626
   9       15.4328
  10       15.4328
  11       15.4328
  12       15.4328
 
  0.2500000E+00  0.2500000E+00  0.2500000E+00  0.4629630E-02
   1       -0.6557
   2        4.1773
   3        4.1773
   4        4.1773
   5        8.8969
   6        8.8969
   7        8.8969
   8       13.5001
   9       13.7952
  10       13.7952
  11       13.7952
  12       17.6787
 
  0.3333333E+00  0.2500000E+00  0.2500000E+00  0.1388889E-01
   1       -0.1755
   2        3.0604
   3        4.6298
   4        4.6298
   5        7.8287
   6        7.8287
   7        9.3550
   8       12.4327
   9       14.2169
  10       14.2169
  11       15.6984
  12       17.3072
 
  0.4166667E+00  0.2500000E+00  0.2500000E+00  0.1388889E-01
   1        0.4389
   2        2.0606
   3        5.1910
   4        5.1910
   5        6.8941
   6        6.8941
   7        9.9384
   8       11.4796
   9       14.6929
  10       14.6929
  11       16.5895
  12       16.5895
 
  0.5000000E+00  0.2500000E+00  0.2500000E+00  0.6944444E-02
   1        1.1853
   2        1.1853
   3        5.6480
   4        5.6480
   5        6.3121
   6        6.3121
   7       10.6471
   8       10.6471
   9       14.9885
  10       14.9885
  11       16.1986
  12       16.1986
 
  0.3333333E+00  0.3333333E+00  0.2500000E+00  0.1388889E-01
   1        0.3026
   2        3.5228
   3        3.5228
   4        5.0611
   5        6.7703
   6        8.2788
   7        8.2788
   8       11.3615
   9       14.6819
  10       16.0807
  11       16.0807
  12       17.7713
 
  0.4166667E+00  0.3333333E+00  0.2500000E+00  0.2777778E-01
   1        0.9146
   2        2.5289
   3        4.1107
   4        5.3933
   5        6.0550
   6        7.3224
   7        8.8604
   8       10.4051
   9       15.2307
  10       16.2691
  11       17.3430
  12       17.7927
 
  0.5000000E+00  0.3333333E+00  0.2500000E+00  0.1388889E-01
   1        1.6578
   2        1.6578
   3        4.8063
   4        4.8063
   5        6.5086
   6        6.5086
   7        9.5701
   8        9.5701
   9       15.8348
  10       15.8348
  11       17.6556
  12       17.6556
 
  0.4166667E+00  0.4166667E+00  0.2500000E+00  0.1388889E-01
   1        1.5231
   2        3.1269
   3        3.1269
   4        4.6774
   5        6.3790
   6        7.8996
   7        7.8996
   8        9.4459
   9       15.8151
  10       17.2036
  11       17.2036
  12       18.7207
 
  0.5000000E+00  0.4166667E+00  0.2500000E+00  0.1388889E-01
   1        2.2619
   2        2.2619
   3        3.8492
   4        3.8492
   5        7.0660
   6        7.0660
   7        8.6092
   8        8.6092
   9       16.4811
  10       16.4811
  11       17.9403
  12       17.9403
 
  0.5000000E+00  0.5000000E+00  0.2500000E+00  0.3472222E-02
   1        2.9944
   2        2.9944
   3        2.9944
   4        2.9944
   5        7.7721
   6        7.7721
   7        7.7721
   8        7.7721
   9       17.1739
  10       17.1739
  11       17.1739
  12       17.1739
 
  0.3333333E+00  0.3333333E+00  0.3333333E+00  0.4629630E-02
   1        0.7789
   2        3.9791
   3        3.9791
   4        3.9791
   5        7.1993
   6        7.1993
   7        7.1993
   8       10.2860
   9       16.5775
  10       16.5775
  11       16.5775
  12       18.8927
 
  0.4166667E+00  0.3333333E+00  0.3333333E+00  0.1388889E-01
   1        1.3882
   2        2.9940
   3        4.5457
   4        4.5457
   5        6.2553
   6        6.2553
   7        7.7774
   8        9.3258
   9       17.0835
  10       17.0835
  11       18.5467
  12       18.7085
 
  0.5000000E+00  0.3333333E+00  0.3333333E+00  0.6944444E-02
   1        2.1278
   2        2.1278
   3        5.0110
   4        5.0110
   5        5.6637
   6        5.6637
   7        8.4880
   8        8.4880
   9       17.4090
  10       17.4090
  11       18.3617
  12       18.3617
 
  0.4166667E+00  0.4166667E+00  0.3333333E+00  0.1388889E-01
   1        1.9938
   2        3.5854
   3        3.5854
   4        4.8836
   5        5.5317
   6        6.8148
   7        6.8148
   8        8.3625
   9       17.6881
  10       18.7815
  11       18.7815
  12       19.4950
 
  0.5000000E+00  0.4166667E+00  0.3333333E+00  0.1388889E-01
   1        2.7283
   2        2.7283
   3        4.2865
   4        4.2865
   5        5.9947
   6        5.9947
   7        7.5231
   8        7.5231
   9       18.3060
  10       18.3060
  11       19.6832
  12       19.6853
 
  0.5000000E+00  0.5000000E+00  0.3333333E+00  0.3472222E-02
   1        3.4537
   2        3.4537
   3        3.4537
   4        3.4537
   5        6.6857
   6        6.6857
   7        6.6857
   8        6.6857
   9       18.9966
  10       18.9966
  11       18.9966
  12       18.9966
 
  0.4166667E+00  0.4166667E+00  0.4166667E+00  0.4629630E-02
   1        2.5950
   2        4.1559
   3        4.1559
   4        4.1559
   5        5.8652
   6        5.8652
   7        5.8652
   8        7.3963
   9       19.6097
  10       19.6097
  11       19.6097
  12       20.4457
 
  0.5000000E+00  0.4166667E+00  0.4166667E+00  0.6944444E-02
   1        3.3216
   2        3.3216
   3        4.6287
   4        4.6287
   5        5.2656
   6        5.2656
   7        6.5577
   8        6.5577
   9       19.9815
  10       19.9815
  11       20.5237
  12       20.5237
 
  0.5000000E+00  0.5000000E+00  0.4166667E+00  0.3472222E-02
   1        4.0255
   2        4.0255
   3        4.0255
   4        4.0255
   5        5.7343
   6        5.7343
   7        5.7343
   8        5.7343
   9       20.7856
  10       20.7856
  11       20.7856
  12       20.7856
 
  0.5000000E+00  0.5000000E+00  0.5000000E+00  0.5787037E-03
   1        4.5012
   2        4.5012
   3        4.5012
   4        4.5012
   5        5.1316
   6        5.1316
   7        5.1316
   8        5.1316
   9       21.9495
  10       21.9495
  11       21.9495
  12       21.9495
