       N       E                     dE             d eps       ncg     rms          rms(c)
DAV:   1     0.144506785663E+02    0.14451E+02   -0.55337E+03  2016   0.107E+03
DAV:   2    -0.136736022163E+02   -0.28124E+02   -0.26415E+02  2444   0.121E+02
DAV:   3    -0.146316930514E+02   -0.95809E+00   -0.93168E+00  2604   0.179E+01
DAV:   4    -0.146400580977E+02   -0.83650E-02   -0.83563E-02  2320   0.184E+00
DAV:   5    -0.146401309096E+02   -0.72812E-04   -0.72809E-04  2488   0.199E-01    0.201E+00
DAV:   6    -0.145771333632E+02    0.62998E-01   -0.37665E-03  2280   0.417E-01    0.125E+00
DAV:   7    -0.145319528184E+02    0.45181E-01   -0.12518E-02  2136   0.701E-01    0.498E-02
DAV:   8    -0.145319870470E+02   -0.34229E-04   -0.11057E-04  2524   0.101E-01    0.133E-02
DAV:   9    -0.145319900608E+02   -0.30138E-05   -0.43934E-06  2364   0.121E-02    0.132E-03
DAV:  10    -0.145319897270E+02    0.33386E-06   -0.61335E-08  2496   0.275E-03    0.487E-04
DAV:  11    -0.145319896584E+02    0.68572E-07   -0.11930E-09  1476   0.306E-04    0.304E-05
DAV:  12    -0.145319896531E+02    0.52850E-08   -0.15158E-10  1400   0.101E-04
   1 F= -.14531990E+02 E0= -.14531886E+02  d E =-.207969E-03
