   4   4   0   0
  0.1763335E+02  0.4131727E-09  0.4131727E-09  0.4131727E-09  0.5000000E-15
  1.000000000000000E-004
  CAR 
 unknown system                          
     21.86330450     -5.41812952  301      5.31896469      1.00000000
     -5.418  0.0000E+00  0.0000E+00
     -5.327  0.0000E+00  0.0000E+00
     -5.236  0.0000E+00  0.0000E+00
     -5.145  0.0000E+00  0.0000E+00
     -5.054  0.0000E+00  0.0000E+00
     -4.963  0.0000E+00  0.0000E+00
     -4.873  0.0000E+00  0.0000E+00
     -4.782  0.0000E+00  0.0000E+00
     -4.691  0.0000E+00  0.0000E+00
     -4.600  0.0000E+00  0.0000E+00
     -4.509  0.0000E+00  0.0000E+00
     -4.418  0.0000E+00  0.0000E+00
     -4.327  0.0000E+00  0.0000E+00
     -4.236  0.5233E-19  0.4759E-20
     -4.145  0.1386E-01  0.1261E-02
     -4.054  0.8153E-01  0.9860E-02
     -3.963  0.1154E+00  0.2125E-01
     -3.872  0.1506E+00  0.3789E-01
     -3.781  0.1895E+00  0.5691E-01
     -3.690  0.2147E+00  0.7770E-01
     -3.599  0.2296E+00  0.1008E+00
     -3.508  0.2452E+00  0.1262E+00
     -3.417  0.3174E+00  0.1562E+00
     -3.327  0.2640E+00  0.1845E+00
     -3.236  0.3184E+00  0.2160E+00
     -3.145  0.3191E+00  0.2494E+00
     -3.054  0.3889E+00  0.2889E+00
     -2.963  0.3603E+00  0.3258E+00
     -2.872  0.3929E+00  0.3686E+00
     -2.781  0.4461E+00  0.4141E+00
     -2.690  0.4558E+00  0.4624E+00
     -2.599  0.4612E+00  0.5076E+00
     -2.508  0.5868E+00  0.5671E+00
     -2.417  0.5035E+00  0.6191E+00
     -2.326  0.5653E+00  0.6817E+00
     -2.235  0.6348E+00  0.7479E+00
     -2.144  0.6483E+00  0.8156E+00
     -2.053  0.7546E+00  0.8958E+00
     -1.962  0.8760E+00  0.9820E+00
     -1.872  0.8904E+00  0.1073E+01
     -1.781  0.1166E+01  0.1191E+01
     -1.690  0.1809E+01  0.1372E+01
     -1.599  0.2305E+01  0.1609E+01
     -1.508  0.2328E+01  0.1856E+01
     -1.417  0.3007E+01  0.2152E+01
     -1.326  0.3358E+01  0.2489E+01
     -1.235  0.4289E+01  0.2922E+01
     -1.144  0.4878E+01  0.3435E+01
     -1.053  0.5816E+01  0.4032E+01
     -0.962  0.6747E+01  0.4724E+01
     -0.871  0.7191E+01  0.5464E+01
     -0.780  0.6716E+01  0.6174E+01
     -0.689  0.6295E+01  0.6838E+01
     -0.598  0.6159E+01  0.7483E+01
     -0.507  0.5808E+01  0.8103E+01
     -0.417  0.6033E+01  0.8732E+01
     -0.326  0.5513E+01  0.9313E+01
     -0.235  0.4698E+01  0.9803E+01
     -0.144  0.4156E+01  0.1023E+02
     -0.053  0.5192E+01  0.1074E+02
      0.038  0.6375E+01  0.1140E+02
      0.129  0.6332E+01  0.1205E+02
      0.220  0.7229E+01  0.1280E+02
      0.311  0.7408E+01  0.1356E+02
      0.402  0.7391E+01  0.1433E+02
      0.493  0.7102E+01  0.1506E+02
      0.584  0.7402E+01  0.1584E+02
      0.675  0.7721E+01  0.1663E+02
      0.766  0.7953E+01  0.1746E+02
      0.857  0.9278E+01  0.1841E+02
      0.948  0.9534E+01  0.1938E+02
      1.038  0.1246E+02  0.2066E+02
      1.129  0.1298E+02  0.2201E+02
      1.220  0.8724E+01  0.2295E+02
      1.311  0.6937E+01  0.2367E+02
      1.402  0.6134E+01  0.2432E+02
      1.493  0.6388E+01  0.2499E+02
      1.584  0.5989E+01  0.2561E+02
      1.675  0.5818E+01  0.2622E+02
      1.766  0.6196E+01  0.2685E+02
      1.857  0.7325E+01  0.2760E+02
      1.948  0.7433E+01  0.2837E+02
      2.039  0.7538E+01  0.2917E+02
      2.130  0.8669E+01  0.3007E+02
      2.221  0.7459E+01  0.3083E+02
      2.312  0.7245E+01  0.3157E+02
      2.403  0.6630E+01  0.3226E+02
      2.493  0.6183E+01  0.3290E+02
      2.584  0.6107E+01  0.3354E+02
      2.675  0.6000E+01  0.3416E+02
      2.766  0.5806E+01  0.3478E+02
      2.857  0.6424E+01  0.3543E+02
      2.948  0.6552E+01  0.3610E+02
      3.039  0.6934E+01  0.3682E+02
      3.130  0.7642E+01  0.3761E+02
      3.221  0.1036E+02  0.3868E+02
      3.312  0.1158E+02  0.3988E+02
      3.403  0.8738E+01  0.4082E+02
      3.494  0.5693E+01  0.4144E+02
      3.585  0.4692E+01  0.4191E+02
      3.676  0.1370E+01  0.4209E+02
      3.767  0.1529E+01  0.4224E+02
      3.858  0.7164E+00  0.4231E+02
      3.948  0.1209E+01  0.4243E+02
      4.039  0.9464E+00  0.4253E+02
      4.130  0.1077E+01  0.4264E+02
      4.221  0.7953E+00  0.4273E+02
      4.312  0.1092E+01  0.4284E+02
      4.403  0.9209E+00  0.4293E+02
      4.494  0.1093E+01  0.4305E+02
      4.585  0.8485E+00  0.4314E+02
      4.676  0.1132E+01  0.4326E+02
      4.767  0.8921E+00  0.4335E+02
      4.858  0.1190E+01  0.4347E+02
      4.949  0.9363E+00  0.4356E+02
      5.040  0.1164E+01  0.4368E+02
      5.131  0.8858E+00  0.4377E+02
      5.222  0.1234E+01  0.4389E+02
      5.313  0.9934E+00  0.4399E+02
      5.404  0.7891E+00  0.4408E+02
      5.494  0.1130E+01  0.4420E+02
      5.585  0.9505E+00  0.4429E+02
      5.676  0.1067E+01  0.4440E+02
      5.767  0.9671E+00  0.4450E+02
      5.858  0.9361E+00  0.4460E+02
      5.949  0.1026E+01  0.4471E+02
      6.040  0.9347E+00  0.4481E+02
      6.131  0.1056E+01  0.4491E+02
      6.222  0.8864E+00  0.4501E+02
      6.313  0.1076E+01  0.4512E+02
      6.404  0.9169E+00  0.4522E+02
      6.495  0.9340E+00  0.4531E+02
      6.586  0.1054E+01  0.4542E+02
      6.677  0.1059E+01  0.4552E+02
      6.768  0.8841E+00  0.4562E+02
      6.859  0.1062E+01  0.4573E+02
      6.949  0.8928E+00  0.4581E+02
      7.040  0.1082E+01  0.4592E+02
      7.131  0.8603E+00  0.4601E+02
      7.222  0.8960E+00  0.4611E+02
      7.313  0.8765E+00  0.4620E+02
      7.404  0.8883E+00  0.4629E+02
      7.495  0.9979E+00  0.4639E+02
      7.586  0.9113E+00  0.4648E+02
      7.677  0.8389E+00  0.4657E+02
      7.768  0.8617E+00  0.4666E+02
      7.859  0.9714E+00  0.4675E+02
      7.950  0.8191E+00  0.4684E+02
      8.041  0.8210E+00  0.4692E+02
      8.132  0.7953E+00  0.4701E+02
      8.223  0.1076E+01  0.4712E+02
      8.314  0.1842E+01  0.4731E+02
      8.404  0.1705E+01  0.4748E+02
      8.495  0.1328E+01  0.4762E+02
      8.586  0.1369E+01  0.4776E+02
      8.677  0.1211E+01  0.4788E+02
      8.768  0.1324E+01  0.4802E+02
      8.859  0.1025E+01  0.4812E+02
      8.950  0.1041E+01  0.4824E+02
      9.041  0.1039E+01  0.4835E+02
      9.132  0.1010E+01  0.4846E+02
      9.223  0.1020E+01  0.4857E+02
      9.314  0.9643E+00  0.4867E+02
      9.405  0.8725E+00  0.4875E+02
      9.496  0.9617E+00  0.4885E+02
      9.587  0.8698E+00  0.4894E+02
      9.678  0.8582E+00  0.4904E+02
      9.769  0.1050E+01  0.4914E+02
      9.859  0.1110E+01  0.4926E+02
      9.950  0.9213E+00  0.4936E+02
     10.041  0.1241E+01  0.4949E+02
     10.132  0.1167E+01  0.4960E+02
     10.223  0.1110E+01  0.4972E+02
     10.314  0.1214E+01  0.4984E+02
     10.405  0.1214E+01  0.4997E+02
     10.496  0.1330E+01  0.5011E+02
     10.587  0.1193E+01  0.5024E+02
     10.678  0.1332E+01  0.5037E+02
     10.769  0.1448E+01  0.5052E+02
     10.860  0.1260E+01  0.5066E+02
     10.951  0.1334E+01  0.5079E+02
     11.042  0.1161E+01  0.5091E+02
     11.133  0.1229E+01  0.5104E+02
     11.224  0.1201E+01  0.5117E+02
     11.314  0.9930E+00  0.5128E+02
     11.405  0.1122E+01  0.5140E+02
     11.496  0.1119E+01  0.5151E+02
     11.587  0.9867E+00  0.5162E+02
     11.678  0.1126E+01  0.5172E+02
     11.769  0.9912E+00  0.5183E+02
     11.860  0.8441E+00  0.5192E+02
     11.951  0.1233E+01  0.5204E+02
     12.042  0.7187E+00  0.5212E+02
     12.133  0.1083E+01  0.5223E+02
     12.224  0.9501E+00  0.5233E+02
     12.315  0.1061E+01  0.5244E+02
     12.406  0.1277E+01  0.5257E+02
     12.497  0.1168E+01  0.5269E+02
     12.588  0.1492E+01  0.5285E+02
     12.679  0.1053E+01  0.5296E+02
     12.769  0.1199E+01  0.5308E+02
     12.860  0.1149E+01  0.5320E+02
     12.951  0.1400E+01  0.5334E+02
     13.042  0.1117E+01  0.5346E+02
     13.133  0.1345E+01  0.5360E+02
     13.224  0.1184E+01  0.5372E+02
     13.315  0.1207E+01  0.5384E+02
     13.406  0.1418E+01  0.5398E+02
     13.497  0.1367E+01  0.5412E+02
     13.588  0.1261E+01  0.5425E+02
     13.679  0.1061E+01  0.5436E+02
     13.770  0.1241E+01  0.5448E+02
     13.861  0.1691E+01  0.5465E+02
     13.952  0.1046E+01  0.5476E+02
     14.043  0.1193E+01  0.5489E+02
     14.134  0.1252E+01  0.5501E+02
     14.225  0.1294E+01  0.5515E+02
     14.315  0.1322E+01  0.5527E+02
     14.406  0.1350E+01  0.5541E+02
     14.497  0.1289E+01  0.5554E+02
     14.588  0.1261E+01  0.5568E+02
     14.679  0.1222E+01  0.5581E+02
     14.770  0.1436E+01  0.5595E+02
     14.861  0.1808E+01  0.5613E+02
     14.952  0.1429E+01  0.5627E+02
     15.043  0.1602E+01  0.5644E+02
     15.134  0.1327E+01  0.5658E+02
     15.225  0.1597E+01  0.5674E+02
     15.316  0.1809E+01  0.5693E+02
     15.407  0.1790E+01  0.5712E+02
     15.498  0.1579E+01  0.5728E+02
     15.589  0.1903E+01  0.5747E+02
     15.680  0.1588E+01  0.5764E+02
     15.770  0.1605E+01  0.5781E+02
     15.861  0.1889E+01  0.5801E+02
     15.952  0.1896E+01  0.5820E+02
     16.043  0.1353E+01  0.5834E+02
     16.134  0.1718E+01  0.5852E+02
     16.225  0.1690E+01  0.5870E+02
     16.316  0.1652E+01  0.5886E+02
     16.407  0.1535E+01  0.5904E+02
     16.498  0.1785E+01  0.5922E+02
     16.589  0.1350E+01  0.5936E+02
     16.680  0.1902E+01  0.5956E+02
     16.771  0.1346E+01  0.5970E+02
     16.862  0.1651E+01  0.5987E+02
     16.953  0.1819E+01  0.6005E+02
     17.044  0.1386E+01  0.6020E+02
     17.135  0.1905E+01  0.6038E+02
     17.225  0.1290E+01  0.6052E+02
     17.316  0.1315E+01  0.6067E+02
     17.407  0.2034E+01  0.6088E+02
     17.498  0.1266E+01  0.6101E+02
     17.589  0.1328E+01  0.6115E+02
     17.680  0.1648E+01  0.6132E+02
     17.771  0.1185E+01  0.6146E+02
     17.862  0.1432E+01  0.6162E+02
     17.953  0.1269E+01  0.6176E+02
     18.044  0.9981E+00  0.6187E+02
     18.135  0.1237E+01  0.6200E+02
     18.226  0.1051E+01  0.6211E+02
     18.317  0.1071E+01  0.6222E+02
     18.408  0.1133E+01  0.6233E+02
     18.499  0.9042E+00  0.6243E+02
     18.590  0.9218E+00  0.6252E+02
     18.680  0.9690E+00  0.6262E+02
     18.771  0.7387E+00  0.6270E+02
     18.862  0.8524E+00  0.6278E+02
     18.953  0.8957E+00  0.6288E+02
     19.044  0.7404E+00  0.6295E+02
     19.135  0.7065E+00  0.6302E+02
     19.226  0.6338E+00  0.6309E+02
     19.317  0.6111E+00  0.6315E+02
     19.408  0.6612E+00  0.6323E+02
     19.499  0.5846E+00  0.6328E+02
     19.590  0.5975E+00  0.6335E+02
     19.681  0.6143E+00  0.6341E+02
     19.772  0.6205E+00  0.6348E+02
     19.863  0.5887E+00  0.6354E+02
     19.954  0.7956E+00  0.6362E+02
     20.045  0.1434E+01  0.6376E+02
     20.135  0.9134E+00  0.6386E+02
     20.226  0.6731E+00  0.6393E+02
     20.317  0.3680E+00  0.6397E+02
     20.408  0.1728E+00  0.6399E+02
     20.499  0.3393E-01  0.6400E+02
     20.590  0.3019E-01  0.6400E+02
     20.681  0.2260E-01  0.6400E+02
     20.772  0.0000E+00  0.6400E+02
     20.863  0.0000E+00  0.6400E+02
     20.954  0.0000E+00  0.6400E+02
     21.045  0.0000E+00  0.6400E+02
     21.136  0.0000E+00  0.6400E+02
     21.227  0.0000E+00  0.6400E+02
     21.318  0.0000E+00  0.6400E+02
     21.409  0.0000E+00  0.6400E+02
     21.500  0.0000E+00  0.6400E+02
     21.590  0.0000E+00  0.6400E+02
     21.681  0.0000E+00  0.6400E+02
     21.772  0.0000E+00  0.6400E+02
     21.863  0.0000E+00  0.6400E+02
