    4    4    1    1
  0.1763335E+02  0.4131727E-09  0.4131727E-09  0.4131727E-09  0.5000000E-15
  1.000000000000000E-004
  CAR 
 unknown system                          
   44 1330   32
 
  0.0000000E+00  0.0000000E+00  0.0000000E+00  0.2143347E-04
   1       -4.1781
   2       -1.4801
   3       -1.4801
   4       -1.4801
   5       -1.1905
   6       -1.1905
   7       -1.1905
   8        0.7564
   9        0.7564
  10        0.7564
  11        2.1868
  12        2.1868
  13        3.2755
  14        3.2755
  15        3.2755
  16        3.6198
  17        3.6198
  18        3.6198
  19        3.6198
  20        3.6198
  21        3.6198
  22        6.4433
  23        6.4433
  24        6.4433
  25       10.8675
  26       10.8675
  27       10.8675
  28       15.4232
  29       15.4232
  30       15.4232
  31       15.4232
  32       15.4232
 
  0.2777778E-01  0.0000000E+00  0.0000000E+00  0.1286008E-03
   1       -4.1693
   2       -1.4771
   3       -1.4743
   4       -1.4743
   5       -1.1873
   6       -1.1857
   7       -1.1857
   8        0.7520
   9        0.7603
  10        0.7603
  11        2.1820
  12        2.1887
  13        3.2688
  14        3.2688
  15        3.2733
  16        3.5872
  17        3.5872
  18        3.6115
  19        3.6115
  20        3.6198
  21        3.6198
  22        6.3691
  23        6.4820
  24        6.4820
  25       10.8596
  26       10.8596
  27       10.9566
  28       15.4074
  29       15.4077
  30       15.4112
  31       15.4115
  32       15.4412
 
  0.5555556E-01  0.0000000E+00  0.0000000E+00  0.1286008E-03
   1       -4.1430
   2       -1.4680
   3       -1.4569
   4       -1.4569
   5       -1.1779
   6       -1.1714
   7       -1.1714
   8        0.7387
   9        0.7719
  10        0.7719
  11        2.1679
  12        2.1944
  13        3.2488
  14        3.2488
  15        3.2666
  16        3.4947
  17        3.4947
  18        3.5868
  19        3.5868
  20        3.6198
  21        3.6198
  22        6.1630
  23        6.5930
  24        6.5930
  25       10.8363
  26       10.8363
  27       11.2080
  28       15.3604
  29       15.3604
  30       15.3765
  31       15.3765
  32       15.4949
 
  0.8333333E-01  0.0000000E+00  0.0000000E+00  0.1286008E-03
   1       -4.0992
   2       -1.4533
   3       -1.4280
   4       -1.4280
   5       -1.1622
   6       -1.1476
   7       -1.1476
   8        0.7169
   9        0.7912
  10        0.7912
  11        2.1446
  12        2.2039
  13        3.2156
  14        3.2156
  15        3.2554
  16        3.3542
  17        3.3542
  18        3.5464
  19        3.5464
  20        3.6199
  21        3.6199
  22        5.8609
  23        6.7643
  24        6.7643
  25       10.7984
  26       10.7984
  27       11.5860
  28       15.2827
  29       15.2827
  30       15.3226
  31       15.3226
  32       15.5838
 
  0.1111111E+00  0.0000000E+00  0.0000000E+00  0.1286008E-03
   1       -4.0381
   2       -1.4334
   3       -1.3881
   4       -1.3881
   5       -1.1403
   6       -1.1142
   7       -1.1142
   8        0.6867
   9        0.8182
  10        0.8182
  11        2.1126
  12        2.2172
  13        3.1695
  14        3.1695
  15        3.1795
  16        3.1795
  17        3.2399
  18        3.4909
  19        3.4909
  20        3.6200
  21        3.6200
  22        5.4984
  23        6.9819
  24        6.9819
  25       10.7476
  26       10.7476
  27       12.0550
  28       15.1753
  29       15.1753
  30       15.2542
  31       15.2542
  32       15.7069
 
  0.1388889E+00  0.0000000E+00  0.0000000E+00  0.1286008E-03
   1       -3.9601
   2       -1.4092
   3       -1.3377
   4       -1.3377
   5       -1.1123
   6       -1.0713
   7       -1.0713
   8        0.6485
   9        0.8529
  10        0.8529
  11        2.0721
  12        2.2341
  13        2.9823
  14        2.9823
  15        3.1111
  16        3.1111
  17        3.2204
  18        3.4217
  19        3.4217
  20        3.6201
  21        3.6201
  22        5.1026
  23        7.2340
  24        7.2340
  25       10.6858
  26       10.6858
  27       12.5887
  28       15.0397
  29       15.0397
  30       15.1766
  31       15.1766
  32       15.8628
 
  0.1666667E+00  0.0000000E+00  0.0000000E+00  0.1286008E-03
   1       -3.8653
   2       -1.3817
   3       -1.2773
   4       -1.2773
   5       -1.0784
   6       -1.0189
   7       -1.0189
   8        0.6027
   9        0.8950
  10        0.8950
  11        2.0241
  12        2.2545
  13        2.7714
  14        2.7714
  15        3.0412
  16        3.0412
  17        3.1968
  18        3.3401
  19        3.3401
  20        3.6202
  21        3.6202
  22        4.6919
  23        7.5116
  24        7.5116
  25       10.6155
  26       10.6155
  27       13.1696
  28       14.8774
  29       14.8774
  30       15.0946
  31       15.0946
  32       16.0499
 
  0.1944444E+00  0.0000000E+00  0.0000000E+00  0.1286008E-03
   1       -3.7543
   2       -1.3525
   3       -1.2078
   4       -1.2078
   5       -1.0387
   6       -0.9571
   7       -0.9571
   8        0.5500
   9        0.9446
  10        0.9446
  11        1.9691
  12        2.2784
  13        2.5529
  14        2.5529
  15        2.9606
  16        2.9606
  17        3.1695
  18        3.2475
  19        3.2475
  20        3.6203
  21        3.6203
  22        4.2786
  23        7.8084
  24        7.8084
  25       10.5393
  26       10.5393
  27       13.7864
  28       14.6903
  29       14.6903
  30       15.0122
  31       15.0122
  32       16.2665
 
  0.2222222E+00  0.0000000E+00  0.0000000E+00  0.1286008E-03
   1       -3.6277
   2       -1.3234
   3       -1.1304
   4       -1.1304
   5       -0.9934
   6       -0.8858
   7       -0.8858
   8        0.4908
   9        1.0016
  10        1.0016
  11        1.9084
  12        2.3055
  13        2.3312
  14        2.3312
  15        2.8707
  16        2.8707
  17        3.1387
  18        3.1455
  19        3.1455
  20        3.6205
  21        3.6205
  22        3.8717
  23        8.1196
  24        8.1196
  25       10.4600
  26       10.4600
  27       14.4316
  28       14.4801
  29       14.4801
  30       14.9327
  31       14.9327
  32       16.5107
 
  0.2500000E+00  0.0000000E+00  0.0000000E+00  0.1286008E-03
   1       -3.4861
   2       -1.2969
   3       -1.0463
   4       -1.0463
   5       -0.9427
   6       -0.8052
   7       -0.8052
   8        0.4259
   9        1.0657
  10        1.0657
  11        1.8431
  12        2.1093
  13        2.1093
  14        2.3357
  15        2.7731
  16        2.7732
  17        3.0357
  18        3.0357
  19        3.1046
  20        3.4781
  21        3.6207
  22        3.6207
  23        8.4420
  24        8.4420
  25       10.3802
  26       10.3802
  27       14.2489
  28       14.2489
  29       14.8581
  30       14.8581
  31       15.1002
  32       16.7804
 
  0.2777778E+00  0.0000000E+00  0.0000000E+00  0.1286008E-03
   1       -3.3304
   2       -1.2761
   3       -0.9573
   4       -0.9573
   5       -0.8870
   6       -0.7152
   7       -0.7152
   8        0.3560
   9        1.1369
  10        1.1369
  11        1.7747
  12        1.8894
  13        1.8894
  14        2.3689
  15        2.6700
  16        2.6700
  17        2.9197
  18        2.9197
  19        3.0677
  20        3.1039
  21        3.6208
  22        3.6208
  23        8.7728
  24        8.7728
  25       10.3025
  26       10.3025
  27       13.9988
  28       13.9988
  29       14.7899
  30       14.7899
  31       15.7886
  32       17.0737
 
  0.3055556E+00  0.0000000E+00  0.0000000E+00  0.1286008E-03
   1       -3.1619
   2       -1.2651
   3       -0.8656
   4       -0.8656
   5       -0.8263
   6       -0.6160
   7       -0.6160
   8        0.2817
   9        1.2148
  10        1.2148
  11        1.6730
  12        1.6730
  13        1.7049
  14        2.4047
  15        2.5639
  16        2.5639
  17        2.7550
  18        2.7990
  19        2.7990
  20        3.0281
  21        3.6210
  22        3.6210
  23        9.1102
  24        9.1102
  25       10.2292
  26       10.2292
  27       13.7315
  28       13.7315
  29       14.7291
  30       14.7291
  31       16.4942
  32       17.3883
 
  0.3333333E+00  0.0000000E+00  0.0000000E+00  0.1286008E-03
   1       -2.9820
   2       -1.2684
   3       -0.7736
   4       -0.7736
   5       -0.7612
   6       -0.5076
   7       -0.5076
   8        0.2038
   9        1.2994
  10        1.2994
  11        1.4615
  12        1.4615
  13        1.6361
  14        2.4373
  15        2.4431
  16        2.4579
  17        2.4579
  18        2.6749
  19        2.6749
  20        2.9864
  21        3.6211
  22        3.6211
  23        9.4523
  24        9.4523
  25       10.1621
  26       10.1621
  27       13.4490
  28       13.4490
  29       14.6762
  30       14.6762
  31       17.2147
  32       17.7223
 
  0.3611111E+00  0.0000000E+00  0.0000000E+00  0.1286008E-03
   1       -2.7928
   2       -1.2915
   3       -0.6920
   4       -0.6846
   5       -0.6846
   6       -0.3900
   7       -0.3900
   8        0.1231
   9        1.2555
  10        1.2555
  11        1.3902
  12        1.3902
  13        1.5707
  14        2.1567
  15        2.3558
  16        2.3558
  17        2.4836
  18        2.5489
  19        2.5489
  20        2.9427
  21        3.6212
  22        3.6212
  23        9.7978
  24        9.7978
  25       10.1030
  26       10.1030
  27       13.1531
  28       13.1531
  29       14.6314
  30       14.6314
  31       17.9485
  32       18.0735
 
  0.3888889E+00  0.0000000E+00  0.0000000E+00  0.1286008E-03
   1       -2.5968
   2       -1.3394
   3       -0.6190
   4       -0.6025
   5       -0.6025
   6       -0.2634
   7       -0.2634
   8        0.0401
   9        1.0559
  10        1.0559
  11        1.4871
  12        1.4871
  13        1.5121
  14        1.9189
  15        2.2620
  16        2.2620
  17        2.4220
  18        2.4220
  19        2.5261
  20        2.8976
  21        3.6213
  22        3.6213
  23       10.0530
  24       10.0530
  25       10.1453
  26       10.1453
  27       12.8455
  28       12.8455
  29       14.5948
  30       14.5948
  31       18.4397
  32       18.4397
 
  0.4166667E+00  0.0000000E+00  0.0000000E+00  0.1286008E-03
   1       -2.3971
   2       -1.4165
   3       -0.5427
   4       -0.5315
   5       -0.5315
   6       -0.1279
   7       -0.1279
   8       -0.0442
   9        0.8633
  10        0.8633
  11        1.4641
  12        1.5896
  13        1.5896
  14        1.7281
  15        2.1813
  16        2.1813
  17        2.2954
  18        2.2954
  19        2.5702
  20        2.8513
  21        3.6214
  22        3.6214
  23       10.0132
  24       10.0132
  25       10.4934
  26       10.4934
  27       12.5278
  28       12.5278
  29       14.5664
  30       14.5664
  31       18.8187
  32       18.8187
 
  0.4444444E+00  0.0000000E+00  0.0000000E+00  0.1286008E-03
   1       -2.1982
   2       -1.5244
   3       -0.4762
   4       -0.4762
   5       -0.4636
   6       -0.1292
   7        0.0164
   8        0.0164
   9        0.6779
  10        0.6779
  11        1.4318
  12        1.5860
  13        1.6973
  14        1.6973
  15        2.1187
  16        2.1187
  17        2.1700
  18        2.1700
  19        2.6156
  20        2.8042
  21        3.6215
  22        3.6215
  23        9.9844
  24        9.9844
  25       10.8411
  26       10.8411
  27       12.2017
  28       12.2017
  29       14.5461
  30       14.5461
  31       19.2082
  32       19.2082
 
  0.4722222E+00  0.0000000E+00  0.0000000E+00  0.1286008E-03
   1       -2.0050
   2       -1.6617
   3       -0.4410
   4       -0.4410
   5       -0.3821
   6       -0.2143
   7        0.1693
   8        0.1693
   9        0.5003
  10        0.5003
  11        1.4208
  12        1.4910
  13        1.8098
  14        1.8098
  15        2.0468
  16        2.0468
  17        2.0790
  18        2.0790
  19        2.6621
  20        2.7567
  21        3.6215
  22        3.6215
  23        9.9668
  24        9.9668
  25       11.1870
  26       11.1870
  27       11.8686
  28       11.8686
  29       14.5340
  30       14.5340
  31       19.6057
  32       19.6057
 
  0.5000000E+00  0.0000000E+00  0.0000000E+00  0.6430041E-04
   1       -1.8239
   2       -1.8239
   3       -0.4289
   4       -0.4289
   5       -0.2988
   6       -0.2988
   7        0.3306
   8        0.3306
   9        0.3306
  10        0.3306
  11        1.4381
  12        1.4381
  13        1.9265
  14        1.9265
  15        1.9265
  16        1.9265
  17        2.0653
  18        2.0653
  19        2.7093
  20        2.7093
  21        3.6215
  22        3.6215
  23        9.9610
  24        9.9610
  25       11.5300
  26       11.5300
  27       11.5300
  28       11.5300
  29       14.5299
  30       14.5299
  31       20.0086
  32       20.0086
 
  0.2777778E-01  0.2777778E-01  0.0000000E+00  0.2572016E-03
   1       -4.1605
   2       -1.4712
   3       -1.4712
   4       -1.4685
   5       -1.1826
   6       -1.1826
   7       -1.1809
   8        0.7499
   9        0.7617
  10        0.7641
  11        2.1806
  12        2.1873
  13        3.2622
  14        3.2663
  15        3.2663
  16        3.5609
  17        3.5790
  18        3.5790
  19        3.6115
  20        3.6115
  21        3.6144
  22        6.4078
  23        6.4078
  24        6.5199
  25       10.8516
  26       10.9489
  27       10.9489
  28       15.3350
  29       15.4254
  30       15.4255
  31       15.4292
  32       15.4294
 
  0.5555556E-01  0.2777778E-01  0.0000000E+00  0.5144033E-03
   1       -4.1342
   2       -1.4622
   3       -1.4538
   4       -1.4514
   5       -1.1731
   6       -1.1683
   7       -1.1664
   8        0.7379
   9        0.7721
  10        0.7756
  11        2.1679
  12        2.1918
  13        3.2422
  14        3.2452
  15        3.2587
  16        3.4732
  17        3.4868
  18        3.5543
  19        3.5868
  20        3.6115
  21        3.6115
  22        6.2019
  23        6.5186
  24        6.6291
  25       10.8279
  26       10.9260
  27       11.2005
  28       15.2373
  29       15.3782
  30       15.3946
  31       15.4778
  32       15.4804
 
  0.8333333E-01  0.2777778E-01  0.0000000E+00  0.5144033E-03
   1       -4.0905
   2       -1.4474
   3       -1.4249
   4       -1.4230
   5       -1.1575
   6       -1.1445
   7       -1.1422
   8        0.7165
   9        0.7912
  10        0.7947
  11        2.1449
  12        2.2013
  13        3.2081
  14        3.2092
  15        3.2460
  16        3.3360
  17        3.3496
  18        3.5140
  19        3.5464
  20        3.6107
  21        3.6116
  22        5.9005
  23        6.6890
  24        6.7978
  25       10.7894
  26       10.8890
  27       11.5783
  28       15.1198
  29       15.3004
  30       15.3408
  31       15.4691
  32       15.5688
 
  0.1111111E+00  0.2777778E-01  0.0000000E+00  0.5144033E-03
   1       -4.0295
   2       -1.4275
   3       -1.3850
   4       -1.3837
   5       -1.1356
   6       -1.1111
   7       -1.1085
   8        0.6864
   9        0.8181
  10        0.8215
  11        2.1130
  12        2.2146
  13        3.1332
  14        3.1635
  15        3.1643
  16        3.2032
  17        3.2277
  18        3.4591
  19        3.4909
  20        3.6105
  21        3.6117
  22        5.5400
  23        6.9048
  24        7.0128
  25       10.7376
  26       10.8394
  27       12.0465
  28       14.9855
  29       15.1929
  30       15.2728
  31       15.4347
  32       15.6911
 
  0.1388889E+00  0.2777778E-01  0.0000000E+00  0.5144033E-03
   1       -3.9516
   2       -1.4032
   3       -1.3345
   4       -1.3340
   5       -1.1077
   6       -1.0683
   7       -1.0650
   8        0.6484
   9        0.8527
  10        0.8558
  11        2.0729
  12        2.2317
  13        2.9594
  14        2.9697
  15        3.1055
  16        3.1213
  17        3.2031
  18        3.3914
  19        3.4217
  20        3.6105
  21        3.6117
  22        5.1475
  23        7.1538
  24        7.2625
  25       10.6747
  26       10.7797
  27       12.5787
  28       14.8367
  29       15.0570
  30       15.1957
  31       15.3776
  32       15.8468
 
  0.1666667E+00  0.2777778E-01  0.0000000E+00  0.5144033E-03
   1       -3.8569
   2       -1.3757
   3       -1.2745
   4       -1.2740
   5       -1.0739
   6       -1.0160
   7       -1.0120
   8        0.6028
   9        0.8948
  10        0.8975
  11        2.0251
  12        2.2525
  13        2.7520
  14        2.7609
  15        3.0359
  16        3.0479
  17        3.1694
  18        3.3145
  19        3.3400
  20        3.6106
  21        3.6118
  22        4.7421
  23        7.4268
  24        7.5380
  25       10.6030
  26       10.7123
  27       13.1572
  28       14.6743
  29       14.8946
  30       15.1144
  31       15.3030
  32       16.0331
 
  0.1944444E+00  0.2777778E-01  0.0000000E+00  0.5144033E-03
   1       -3.7461
   2       -1.3464
   3       -1.2061
   4       -1.2045
   5       -1.0343
   6       -0.9543
   7       -0.9495
   8        0.5503
   9        0.9444
  10        0.9465
  11        1.9705
  12        2.2767
  13        2.5349
  14        2.5443
  15        2.9559
  16        2.9663
  17        3.1185
  18        3.2372
  19        3.2474
  20        3.6107
  21        3.6119
  22        4.3374
  23        7.7170
  24        7.8330
  25       10.5251
  26       10.6405
  27       13.7705
  28       14.4977
  29       14.7072
  30       15.0331
  31       15.2168
  32       16.2492
 
  0.2222222E+00  0.2777778E-01  0.0000000E+00  0.5144033E-03
   1       -3.6196
   2       -1.3172
   3       -1.1297
   4       -1.1269
   5       -0.9891
   6       -0.8831
   7       -0.8776
   8        0.4913
   9        1.0014
  10        1.0026
  11        1.9103
  12        2.3042
  13        2.3141
  14        2.3242
  15        2.8665
  16        2.8761
  17        3.0360
  18        3.1454
  19        3.1730
  20        3.6109
  21        3.6121
  22        3.9446
  23        8.0191
  24        8.1428
  25       10.4438
  26       10.5677
  27       14.3058
  28       14.4107
  29       14.4968
  30       14.9548
  31       15.1251
  32       16.4928
 
  0.2500000E+00  0.2777778E-01  0.0000000E+00  0.5144033E-03
   1       -3.4781
   2       -1.2906
   3       -1.0467
   4       -1.0427
   5       -0.9385
   6       -0.8026
   7       -0.7964
   8        0.4266
   9        1.0655
  10        1.0656
  11        1.8458
  12        2.0930
  13        2.1036
  14        2.3349
  15        2.7694
  16        2.7785
  17        2.9188
  18        3.0356
  19        3.1211
  20        3.5766
  21        3.6111
  22        3.6122
  23        8.3285
  24        8.4638
  25       10.3618
  26       10.4978
  27       14.0971
  28       14.2654
  29       14.8818
  30       15.0335
  31       15.0720
  32       16.7620
 
  0.2777778E+00  0.2777778E-01  0.0000000E+00  0.5144033E-03
   1       -3.3226
   2       -1.2697
   3       -0.9586
   4       -0.9536
   5       -0.8828
   6       -0.7128
   7       -0.7062
   8        0.3569
   9        1.1351
  10        1.1366
  11        1.7787
  12        1.8738
  13        1.8848
  14        2.3685
  15        2.6668
  16        2.6753
  17        2.7664
  18        2.9196
  19        3.0666
  20        3.2569
  21        3.6113
  22        3.6123
  23        8.6405
  24        8.7936
  25       10.2816
  26       10.4355
  27       13.8708
  28       14.0151
  29       14.8156
  30       14.9466
  31       15.7492
  32       17.0581
 
  0.3055556E+00  0.2777778E-01  0.0000000E+00  0.5144033E-03
   1       -3.1543
   2       -1.2586
   3       -0.8672
   4       -0.8617
   5       -0.8224
   6       -0.6137
   7       -0.6071
   8        0.2828
   9        1.2105
  10        1.2146
  11        1.6584
  12        1.6694
  13        1.7111
  14        2.4049
  15        2.5612
  16        2.5678
  17        2.5692
  18        2.7988
  19        2.9438
  20        3.0694
  21        3.6115
  22        3.6124
  23        8.9489
  24        9.1301
  25       10.2054
  26       10.3875
  27       13.6270
  28       13.7477
  29       14.7570
  30       14.8672
  31       16.4354
  32       17.3686
 
  0.3333333E+00  0.2777778E-01  0.0000000E+00  0.5144033E-03
   1       -2.9747
   2       -1.2619
   3       -0.7752
   4       -0.7695
   5       -0.7574
   6       -0.5055
   7       -0.4995
   8        0.2052
   9        1.2901
  10        1.2991
  11        1.4477
  12        1.4587
  13        1.6467
  14        2.3295
  15        2.4438
  16        2.4558
  17        2.4631
  18        2.6748
  19        2.7613
  20        3.0071
  21        3.6117
  22        3.6125
  23        9.2429
  24        9.4714
  25       10.1350
  26       10.3646
  27       13.3664
  28       13.4651
  29       14.7067
  30       14.7972
  31       17.1155
  32       17.7010
 
  0.3611111E+00  0.2777778E-01  0.0000000E+00  0.5144033E-03
   1       -2.7857
   2       -1.2849
   3       -0.6883
   4       -0.6857
   5       -0.6803
   6       -0.3881
   7       -0.3833
   8        0.1246
   9        1.2428
  10        1.2535
  11        1.3691
  12        1.3900
  13        1.5926
  14        2.0871
  15        2.3543
  16        2.3608
  17        2.4850
  18        2.5487
  19        2.6033
  20        2.9576
  21        3.6119
  22        3.6125
  23        9.5014
  24        9.8163
  25       10.0719
  26       10.3881
  27       13.0908
  28       13.1691
  29       14.6648
  30       14.7372
  31       17.7443
  32       18.0508
 
  0.3888889E+00  0.2777778E-01  0.0000000E+00  0.5144033E-03
   1       -2.5899
   2       -1.3329
   3       -0.6155
   4       -0.6025
   5       -0.5980
   6       -0.2617
   7       -0.2588
   8        0.0419
   9        1.0444
  10        1.0545
  11        1.4254
  12        1.4868
  13        1.5739
  14        1.8691
  15        2.2610
  16        2.2667
  17        2.4218
  18        2.4601
  19        2.5282
  20        2.9093
  21        3.6120
  22        3.6126
  23        9.6910
  24       10.0173
  25       10.1632
  26       10.4913
  27       12.8021
  28       12.8615
  29       14.6316
  30       14.6874
  31       18.2518
  32       18.4154
 
  0.4166667E+00  0.2777778E-01  0.0000000E+00  0.5144033E-03
   1       -2.3904
   2       -1.4100
   3       -0.5394
   4       -0.5302
   5       -0.5268
   6       -0.1265
   7       -0.1257
   8       -0.0422
   9        0.8530
  10        0.8624
  11        1.4243
  12        1.5893
  13        1.6288
  14        1.6899
  15        2.1810
  16        2.1855
  17        2.2952
  18        2.3246
  19        2.5730
  20        2.8609
  21        3.6122
  22        3.6126
  23        9.7953
  24        9.9715
  25       10.5109
  26       10.6903
  27       12.5026
  28       12.5439
  29       14.6071
  30       14.6476
  31       18.6767
  32       18.7924
 
  0.4444444E+00  0.2777778E-01  0.0000000E+00  0.5144033E-03
   1       -2.1916
   2       -1.5179
   3       -0.4737
   4       -0.4715
   5       -0.4605
   6       -0.1270
   7        0.0161
   8        0.0175
   9        0.6692
  10        0.6776
  11        1.4040
  12        1.5549
  13        1.6971
  14        1.7236
  15        2.1192
  16        2.1223
  17        2.1698
  18        2.1943
  19        2.6193
  20        2.8123
  21        3.6123
  22        3.6126
  23        9.8425
  24        9.9348
  25       10.8582
  26       10.9563
  27       12.1948
  28       12.2179
  29       14.5913
  30       14.6177
  31       19.0781
  32       19.1794
 
  0.4722222E+00  0.2777778E-01  0.0000000E+00  0.5144033E-03
   1       -1.9986
   2       -1.6553
   3       -0.4374
   4       -0.4364
   5       -0.3792
   6       -0.2118
   7        0.1666
   8        0.1701
   9        0.4933
  10        0.5004
  11        1.3963
  12        1.4641
  13        1.8096
  14        1.8318
  15        2.0466
  16        2.0684
  17        2.0802
  18        2.0818
  19        2.6667
  20        2.7635
  21        3.6124
  22        3.6126
  23        9.8663
  24        9.9065
  25       11.2037
  26       11.2548
  27       11.8815
  28       11.8849
  29       14.5843
  30       14.5974
  31       19.4726
  32       19.5737
 
  0.5000000E+00  0.2777778E-01  0.0000000E+00  0.2572016E-03
   1       -1.8176
   2       -1.8176
   3       -0.4246
   4       -0.4246
   5       -0.2961
   6       -0.2961
   7        0.3257
   8        0.3257
   9        0.3311
  10        0.3311
  11        1.4135
  12        1.4135
  13        1.9262
  14        1.9262
  15        1.9473
  16        1.9473
  17        2.0674
  18        2.0674
  19        2.7148
  20        2.7148
  21        3.6125
  22        3.6125
  23        9.8849
  24        9.8849
  25       11.5464
  26       11.5464
  27       11.5664
  28       11.5664
  29       14.5863
  30       14.5863
  31       19.8617
  32       19.8700
 
  0.5555556E-01  0.5555556E-01  0.0000000E+00  0.2572016E-03
   1       -4.1080
   2       -1.4447
   3       -1.4447
   4       -1.4350
   5       -1.1589
   6       -1.1589
   7       -1.1514
   8        0.7309
   9        0.7777
  10        0.7868
  11        2.1626
  12        2.1893
  13        3.2227
  14        3.2341
  15        3.2341
  16        3.4009
  17        3.4638
  18        3.4638
  19        3.5868
  20        3.5868
  21        3.5983
  22        6.3126
  23        6.3126
  24        6.7331
  25       10.8030
  26       11.1782
  27       11.1782
  28       15.0892
  29       15.4317
  30       15.4317
  31       15.4487
  32       15.4487
 
  0.8333333E-01  0.5555556E-01  0.0000000E+00  0.5144033E-03
   1       -4.0644
   2       -1.4298
   3       -1.4157
   4       -1.4078
   5       -1.1433
   6       -1.1352
   7       -1.1263
   8        0.7127
   9        0.7937
  10        0.8054
  11        2.1436
  12        2.1955
  13        3.1850
  14        3.1904
  15        3.2145
  16        3.2776
  17        3.3364
  18        3.4269
  19        3.5463
  20        3.5869
  21        3.5905
  22        6.0128
  23        6.4816
  24        6.8951
  25       10.7625
  26       11.1423
  27       11.5555
  28       14.9282
  29       15.3534
  30       15.3954
  31       15.5200
  32       15.5382
 
  0.1111111E+00  0.5555556E-01  0.0000000E+00  0.5144033E-03
   1       -4.0037
   2       -1.4098
   3       -1.3757
   4       -1.3703
   5       -1.1216
   6       -1.1020
   7       -1.0913
   8        0.6843
   9        0.8193
  10        0.8313
  11        2.1133
  12        2.2083
  13        3.0792
  14        3.1166
  15        3.1455
  16        3.1840
  17        3.2197
  18        3.3789
  19        3.4908
  20        3.5868
  21        3.5869
  22        5.6563
  23        6.6937
  24        7.1030
  25       10.7081
  26       11.0948
  27       12.0214
  28       14.7583
  29       15.2454
  30       15.3283
  31       15.6334
  32       15.6423
 
  0.1388889E+00  0.5555556E-01  0.0000000E+00  0.5144033E-03
   1       -3.9260
   2       -1.3853
   3       -1.3250
   4       -1.3229
   5       -1.0939
   6       -1.0594
   7       -1.0464
   8        0.6473
   9        0.8532
  10        0.8645
  11        2.0742
  12        2.2256
  13        2.9038
  14        2.9306
  15        3.0886
  16        3.1385
  17        3.1388
  18        3.3244
  19        3.4216
  20        3.5849
  21        3.5869
  22        5.2710
  23        6.9363
  24        7.3461
  25       10.6416
  26       11.0380
  27       12.5490
  28       14.5824
  29       15.1089
  30       15.2528
  31       15.6251
  32       15.7970
 
  0.1666667E+00  0.5555556E-01  0.0000000E+00  0.5144033E-03
   1       -3.8317
   2       -1.3576
   3       -1.2660
   4       -1.2643
   5       -1.0603
   6       -1.0073
   7       -0.9917
   8        0.6025
   9        0.8949
  10        0.9048
  11        2.0275
  12        2.2470
  13        2.6995
  14        2.7288
  15        3.0203
  16        3.0626
  17        3.0721
  18        3.2695
  19        3.3398
  20        3.5840
  21        3.5869
  22        4.8765
  23        7.1995
  24        7.6158
  25       10.5655
  26       10.9752
  27       13.1203
  28       14.4021
  29       14.9457
  30       15.1740
  31       15.5899
  32       15.9827
 
  0.1944444E+00  0.5555556E-01  0.0000000E+00  0.5144033E-03
   1       -3.7213
   2       -1.3280
   3       -1.2005
   4       -1.1945
   5       -1.0209
   6       -0.9458
   7       -0.9274
   8        0.5507
   9        0.9443
  10        0.9520
  11        1.9742
  12        2.2722
  13        2.4845
  14        2.5180
  15        2.9416
  16        2.9800
  17        2.9807
  18        3.2175
  19        3.2471
  20        3.5836
  21        3.5869
  22        4.4874
  23        7.4763
  24        7.9057
  25       10.4826
  26       10.9100
  27       13.7233
  28       14.2174
  29       14.7577
  30       15.0958
  31       15.5319
  32       16.1976
 
  0.2222222E+00  0.5555556E-01  0.0000000E+00  0.5144033E-03
   1       -3.5952
   2       -1.2986
   3       -1.1271
   4       -1.1166
   5       -0.9760
   6       -0.8750
   7       -0.8537
   8        0.4924
   9        1.0011
  10        1.0057
  11        1.9156
  12        2.2655
  13        2.3008
  14        2.3027
  15        2.8537
  16        2.8637
  17        2.8896
  18        3.1451
  19        3.1672
  20        3.5834
  21        3.5869
  22        4.1161
  23        7.7607
  24        8.2112
  25       10.3954
  26       10.8469
  27       14.0277
  28       14.3489
  29       14.5467
  30       15.0215
  31       15.4565
  32       16.4397
 
  0.2500000E+00  0.5555556E-01  0.0000000E+00  0.5144033E-03
   1       -3.4543
   2       -1.2717
   3       -1.0469
   4       -1.0320
   5       -0.9258
   6       -0.7949
   7       -0.7712
   8        0.4284
   9        1.0651
  10        1.0655
  11        1.8534