   4   4   0   0
  0.1816515E+02  0.4172852E-09  0.4172852E-09  0.4172852E-09  0.5000000E-15
  1.000000000000000E-004
  CAR 
 unknown system                          
     16.79337097     -5.24278525  301      4.92589363      1.00000000
     -5.243  0.0000E+00  0.0000E+00
     -5.169  0.0000E+00  0.0000E+00
     -5.096  0.0000E+00  0.0000E+00
     -5.022  0.0000E+00  0.0000E+00
     -4.949  0.0000E+00  0.0000E+00
     -4.876  0.0000E+00  0.0000E+00
     -4.802  0.0000E+00  0.0000E+00
     -4.729  0.0000E+00  0.0000E+00
     -4.655  0.0000E+00  0.0000E+00
     -4.582  0.0000E+00  0.0000E+00
     -4.508  0.0000E+00  0.0000E+00
     -4.435  0.0000E+00  0.0000E+00
     -4.361  0.0000E+00  0.0000E+00
     -4.288  0.3017E-12  0.2216E-13
     -4.214  0.1576E-01  0.1157E-02
     -4.141  0.9450E-01  0.8099E-02
     -4.068  0.1888E+00  0.2197E-01
     -3.994  0.1257E+00  0.3122E-01
     -3.921  0.9345E-01  0.3811E-01
     -3.847  0.3736E+00  0.6564E-01
     -3.774  0.3753E+00  0.9354E-01
     -3.700  0.6718E-15  0.9375E-01
     -3.627  0.1882E+00  0.1076E+00
     -3.553  0.4701E+00  0.1422E+00
     -3.480  0.3758E+00  0.1700E+00
     -3.406  0.3780E+00  0.1979E+00
     -3.333  0.1261E+00  0.2072E+00
     -3.260  0.3782E+00  0.2350E+00
     -3.186  0.7563E+00  0.2905E+00
     -3.113  0.6442E-08  0.2905E+00
     -3.039  0.4545E+00  0.3239E+00
     -2.966  0.4205E+00  0.3561E+00
     -2.892  0.9004E+00  0.4223E+00
     -2.819  0.2594E+00  0.4415E+00
     -2.745  0.1252E+01  0.5334E+00
     -2.672  0.1477E-11  0.5336E+00
     -2.598  0.3781E+00  0.5613E+00
     -2.525  0.1948E+00  0.5757E+00
     -2.452  0.1216E+01  0.6657E+00
     -2.378  0.1417E+01  0.7697E+00
     -2.305  0.2799E-05  0.7720E+00
     -2.231  0.1344E+01  0.8707E+00
     -2.158  0.1524E+00  0.8831E+00
     -2.084  0.1314E+01  0.9796E+00
     -2.011  0.4772E+00  0.1015E+01
     -1.937  0.1982E+01  0.1161E+01
     -1.864  0.7917E+00  0.1219E+01
     -1.790  0.2311E+01  0.1389E+01
     -1.717  0.1776E+01  0.1519E+01
     -1.644  0.4597E+01  0.1860E+01
     -1.570  0.1363E+01  0.1961E+01
     -1.497  0.4865E+01  0.2318E+01
     -1.423  0.3973E+01  0.2617E+01
     -1.350  0.3894E+01  0.2904E+01
     -1.276  0.7480E+01  0.3474E+01
     -1.203  0.3871E+01  0.3767E+01
     -1.129  0.9392E+01  0.4457E+01
     -1.056  0.9126E+01  0.5138E+01
     -0.982  0.6470E+01  0.5621E+01
     -0.909  0.6382E+01  0.6095E+01
     -0.836  0.1198E+02  0.6981E+01
     -0.762  0.5126E+01  0.7368E+01
     -0.689  0.5208E+01  0.7752E+01
     -0.615  0.1040E+02  0.8516E+01
     -0.542  0.6120E+01  0.8977E+01
     -0.468  0.5713E+01  0.9396E+01
     -0.395  0.5572E+01  0.9811E+01
     -0.321  0.4292E+01  0.1014E+02
     -0.248  0.5144E+01  0.1052E+02
     -0.174  0.8846E+01  0.1118E+02
     -0.101  0.6191E+01  0.1164E+02
     -0.028  0.5806E+01  0.1207E+02
      0.046  0.1089E+02  0.1287E+02
      0.119  0.7669E+01  0.1343E+02
      0.193  0.9646E+01  0.1414E+02
      0.266  0.9376E+01  0.1484E+02
      0.340  0.8701E+01  0.1549E+02
      0.413  0.7216E+01  0.1602E+02
      0.487  0.7609E+01  0.1658E+02
      0.560  0.1113E+02  0.1740E+02
      0.634  0.1326E+02  0.1838E+02
      0.707  0.1243E+02  0.1930E+02
      0.780  0.9687E+01  0.2003E+02
      0.854  0.1725E+02  0.2129E+02
      0.927  0.1322E+02  0.2229E+02
      1.001  0.8804E+01  0.2294E+02
      1.074  0.1076E+02  0.2374E+02
      1.148  0.6065E+01  0.2419E+02
      1.221  0.7998E+01  0.2478E+02
      1.295  0.6616E+01  0.2528E+02
      1.368  0.7037E+01  0.2580E+02
      1.442  0.7541E+01  0.2635E+02
      1.515  0.6608E+01  0.2684E+02
      1.588  0.9168E+01  0.2752E+02
      1.662  0.9721E+01  0.2825E+02
      1.735  0.8579E+01  0.2888E+02
      1.809  0.1047E+02  0.2965E+02
      1.882  0.9041E+01  0.3032E+02
      1.956  0.7017E+01  0.3084E+02
      2.029  0.9634E+01  0.3155E+02
      2.103  0.9749E+01  0.3229E+02
      2.176  0.6509E+01  0.3277E+02
      2.250  0.6366E+01  0.3324E+02
      2.323  0.6847E+01  0.3374E+02
      2.396  0.7397E+01  0.3429E+02
      2.470  0.9062E+01  0.3496E+02
      2.543  0.7450E+01  0.3551E+02
      2.617  0.4719E+01  0.3586E+02
      2.690  0.8896E+01  0.3652E+02
      2.764  0.1195E+02  0.3740E+02
      2.837  0.1034E+02  0.3816E+02
      2.911  0.9543E+01  0.3887E+02
      2.984  0.1513E+02  0.3998E+02
      3.058  0.1288E+02  0.4094E+02
      3.131  0.6864E+01  0.4145E+02
      3.204  0.6466E+01  0.4192E+02
      3.278  0.1356E+01  0.4203E+02
      3.351  0.3781E+00  0.4205E+02
      3.425  0.8723E+00  0.4212E+02
      3.498  0.1399E+01  0.4222E+02
      3.572  0.3558E+01  0.4248E+02
      3.645  0.1140E+01  0.4257E+02
      3.719  0.3782E+00  0.4260E+02
      3.792  0.3750E+00  0.4262E+02
      3.865  0.7563E+00  0.4268E+02
      3.939  0.1623E+01  0.4280E+02
      4.012  0.1031E+01  0.4288E+02
      4.086  0.1695E+01  0.4300E+02
      4.159  0.1314E+01  0.4310E+02
      4.233  0.1577E+01  0.4321E+02
      4.306  0.3755E+00  0.4324E+02
      4.380  0.7507E+00  0.4329E+02
      4.453  0.1229E+01  0.4339E+02
      4.527  0.1130E+01  0.4347E+02
      4.600  0.1290E+01  0.4356E+02
      4.673  0.1342E+01  0.4366E+02
      4.747  0.1540E+01  0.4378E+02
      4.820  0.1366E+01  0.4388E+02
      4.894  0.1039E+01  0.4396E+02
      4.967  0.8114E+00  0.4401E+02
      5.041  0.1594E+01  0.4413E+02
      5.114  0.2353E+00  0.4415E+02
      5.188  0.7563E+00  0.4420E+02
      5.261  0.1880E+01  0.4434E+02
      5.335  0.8969E+00  0.4441E+02
      5.408  0.2032E+01  0.4456E+02
      5.481  0.1609E+01  0.4468E+02
      5.555  0.5538E-02  0.4468E+02
      5.628  0.1980E+01  0.4482E+02
      5.702  0.2926E+00  0.4484E+02
      5.775  0.2090E+00  0.4486E+02
      5.849  0.1701E+01  0.4498E+02
      5.922  0.1351E+01  0.4508E+02
      5.996  0.1128E+01  0.4517E+02
      6.069  0.2268E+01  0.4534E+02
      6.143  0.7568E+00  0.4539E+02
      6.216  0.1334E+01  0.4549E+02
      6.289  0.9829E+00  0.4556E+02
      6.363  0.3772E+00  0.4559E+02
      6.436  0.2231E+01  0.4575E+02
      6.510  0.1975E+00  0.4577E+02
      6.583  0.3701E+00  0.4580E+02
      6.657  0.1847E+01  0.4593E+02
      6.730  0.1606E+01  0.4606E+02
      6.804  0.4107E+00  0.4609E+02
      6.877  0.1965E+00  0.4610E+02
      6.951  0.2072E+01  0.4626E+02
      7.024  0.1871E+01  0.4639E+02
      7.097  0.3915E+00  0.4642E+02
      7.171  0.5180E+00  0.4646E+02
      7.244  0.1190E+01  0.4655E+02
      7.318  0.1316E+01  0.4665E+02
      7.391  0.5409E+00  0.4669E+02
      7.465  0.1606E+01  0.4681E+02
      7.538  0.8821E+00  0.4688E+02
      7.612  0.1009E+01  0.4695E+02
      7.685  0.7570E+00  0.4701E+02
      7.759  0.2033E+01  0.4716E+02
      7.832  0.1818E+01  0.4729E+02
      7.905  0.1268E+01  0.4738E+02
      7.979  0.6665E+00  0.4743E+02
      8.052  0.2622E+01  0.4762E+02
      8.126  0.2751E+01  0.4783E+02
      8.199  0.1388E+00  0.4784E+02
      8.273  0.1653E+01  0.4797E+02
      8.346  0.1583E+01  0.4808E+02
      8.420  0.2066E+01  0.4823E+02
      8.493  0.7398E+00  0.4829E+02
      8.567  0.3247E+00  0.4831E+02
      8.640  0.1107E+01  0.4840E+02
      8.713  0.5663E+00  0.4844E+02
      8.787  0.1970E+01  0.4859E+02
      8.860  0.1194E+01  0.4867E+02
      8.934  0.9954E+00  0.4875E+02
      9.007  0.1889E+01  0.4889E+02
      9.081  0.9442E+00  0.4896E+02
      9.154  0.1668E+00  0.4897E+02
      9.228  0.6497E+00  0.4902E+02
      9.301  0.1831E+01  0.4915E+02
      9.375  0.5564E+00  0.4919E+02
      9.448  0.1057E+01  0.4927E+02
      9.521  0.1546E+01  0.4938E+02
      9.595  0.1592E+01  0.4950E+02
      9.668  0.2250E+01  0.4967E+02
      9.742  0.1482E+01  0.4977E+02
      9.815  0.1114E+01  0.4986E+02
      9.889  0.1318E+01  0.4996E+02
      9.962  0.2266E+01  0.5012E+02
     10.036  0.1583E-01  0.5013E+02
     10.109  0.3702E+00  0.5015E+02
     10.183  0.1027E+01  0.5023E+02
     10.256  0.2271E+01  0.5040E+02
     10.329  0.2415E+01  0.5057E+02
     10.403  0.1141E+01  0.5066E+02
     10.476  0.2581E+01  0.5085E+02
     10.550  0.1048E+01  0.5093E+02
     10.623  0.1910E+01  0.5107E+02
     10.697  0.1493E+01  0.5118E+02
     10.770  0.7564E+00  0.5124E+02
     10.844  0.7563E+00  0.5130E+02
     10.917  0.4985E+00  0.5133E+02
     10.991  0.2911E+01  0.5155E+02
     11.064  0.1625E+01  0.5167E+02
     11.137  0.1052E+01  0.5174E+02
     11.211  0.2458E+00  0.5176E+02
     11.284  0.1140E+01  0.5185E+02
     11.358  0.9170E+00  0.5191E+02
     11.431  0.4130E-04  0.5191E+02
     11.505  0.1442E+01  0.5202E+02
     11.578  0.1469E+01  0.5213E+02
     11.652  0.2608E+01  0.5233E+02
     11.725  0.5809E+00  0.5237E+02
     11.799  0.1053E+01  0.5245E+02
     11.872  0.1744E+01  0.5258E+02
     11.945  0.1759E+01  0.5270E+02
     12.019  0.8631E+00  0.5277E+02
     12.092  0.1612E+01  0.5289E+02
     12.166  0.8924E+00  0.5295E+02
     12.239  0.1295E+01  0.5305E+02
     12.313  0.1163E+01  0.5314E+02
     12.386  0.1426E+01  0.5324E+02
     12.460  0.1572E+01  0.5336E+02
     12.533  0.2005E+01  0.5351E+02
     12.607  0.1371E+01  0.5361E+02
     12.680  0.6142E+00  0.5365E+02
     12.753  0.3793E+00  0.5368E+02
     12.827  0.2128E+01  0.5384E+02
     12.900  0.1841E+01  0.5397E+02
     12.974  0.2102E+01  0.5413E+02
     13.047  0.9851E+00  0.5420E+02
     13.121  0.1876E+01  0.5434E+02
     13.194  0.2763E+01  0.5454E+02
     13.268  0.2199E+01  0.5471E+02
     13.341  0.1134E+01  0.5479E+02
     13.414  0.7562E+00  0.5485E+02
     13.488  0.7881E+00  0.5490E+02
     13.561  0.3463E+00  0.5493E+02
     13.635  0.8704E+00  0.5499E+02
     13.708  0.2072E+01  0.5515E+02
     13.782  0.5348E+00  0.5519E+02
     13.855  0.8696E+00  0.5525E+02
     13.929  0.2258E+01  0.5542E+02
     14.002  0.3726E+00  0.5544E+02
     14.076  0.8713E+00  0.5551E+02
     14.149  0.1017E+01  0.5558E+02
     14.222  0.7916E+00  0.5564E+02
     14.296  0.9594E+00  0.5571E+02
     14.369  0.7998E+00  0.5577E+02
     14.443  0.5970E+00  0.5582E+02
     14.516  0.8879E-08  0.5582E+02
     14.590  0.7563E+00  0.5587E+02
     14.663  0.7601E-13  0.5587E+02
     14.737  0.3778E+00  0.5590E+02
     14.810  0.3537E+00  0.5593E+02
     14.884  0.6331E+00  0.5598E+02
     14.957  0.1916E+00  0.5599E+02
     15.030  0.7212E-02  0.5599E+02
     15.104  0.0000E+00  0.5599E+02
     15.177  0.0000E+00  0.5599E+02
     15.251  0.0000E+00  0.5599E+02
     15.324  0.0000E+00  0.5599E+02
     15.398  0.0000E+00  0.5599E+02
     15.471  0.0000E+00  0.5599E+02
     15.545  0.0000E+00  0.5599E+02
     15.618  0.0000E+00  0.5599E+02
     15.692  0.0000E+00  0.5599E+02
     15.765  0.9987E-05  0.5599E+02
     15.838  0.1260E+00  0.5600E+02
     15.912  0.0000E+00  0.5600E+02
     15.985  0.0000E+00  0.5600E+02
     16.059  0.0000E+00  0.5600E+02
     16.132  0.0000E+00  0.5600E+02
     16.206  0.0000E+00  0.5600E+02
     16.279  0.0000E+00  0.5600E+02
     16.353  0.0000E+00  0.5600E+02
     16.426  0.0000E+00  0.5600E+02
     16.500  0.0000E+00  0.5600E+02
     16.573  0.0000E+00  0.5600E+02
     16.646  0.0000E+00  0.5600E+02
     16.720  0.0000E+00  0.5600E+02
     16.793  0.0000E+00  0.5600E+02
