    4    4    1    1
  0.1816515E+02  0.4172852E-09  0.4172852E-09  0.4172852E-09  0.5000000E-15
  1.000000000000000E-004
  CAR 
 unknown system                          
   44   84   28
 
  0.0000000E+00  0.0000000E+00  0.0000000E+00  0.5787037E-03
   1       -4.2411
   2       -1.5824
   3       -1.5824
   4       -1.5824
   5       -1.3076
   6       -1.3076
   7       -1.3076
   8        0.5441
   9        0.5441
  10        0.5441
  11        1.9009
  12        1.9009
  13        2.9333
  14        2.9333
  15        2.9333
  16        3.2602
  17        3.2602
  18        3.2602
  19        3.2602
  20        3.2602
  21        3.2602
  22        6.1591
  23        6.1591
  24        6.1591
  25       10.2756
  26       10.2756
  27       10.2756
  28       14.9563
 
  0.8333333E-01  0.0000000E+00  0.0000000E+00  0.3472222E-02
   1       -4.1644
   2       -1.5570
   3       -1.5323
   4       -1.5323
   5       -1.2805
   6       -1.2665
   7       -1.2665
   8        0.5067
   9        0.5773
  10        0.5773
  11        1.8613
  12        1.9172
  13        2.8770
  14        2.8770
  15        2.9143
  16        3.0167
  17        3.0167
  18        3.1912
  19        3.1912
  20        3.2603
  21        3.2603
  22        5.5678
  23        6.4578
  24        6.4578
  25       10.2128
  26       10.2128
  27       11.0007
  28       14.8125
 
  0.1666667E+00  0.0000000E+00  0.0000000E+00  0.3472222E-02
   1       -3.9367
   2       -1.4894
   3       -1.3875
   4       -1.3875
   5       -1.2004
   6       -1.1436
   7       -1.1436
   8        0.3988
   9        0.6763
  10        0.6763
  11        1.7478
  12        1.9653
  13        2.4720
  14        2.4720
  15        2.7134
  16        2.7134
  17        2.8588
  18        2.9971
  19        2.9971
  20        3.2606
  21        3.2606
  22        4.4030
  23        7.1663
  24        7.1663
  25       10.0456
  26       10.0456
  27       12.5732
  28       14.4001
 
  0.2500000E+00  0.0000000E+00  0.0000000E+00  0.3472222E-02
   1       -3.5671
   2       -1.4101
   3       -1.1656
   4       -1.1656
   5       -1.0708
   6       -0.9393
   7       -0.9393
   8        0.2315
   9        0.8391
  10        0.8391
  11        1.5774
  12        1.8449
  13        1.8449
  14        2.0425
  15        2.4615
  16        2.4615
  17        2.7101
  18        2.7101
  19        2.7716
  20        3.2060
  21        3.2610
  22        3.2610
  23        8.0607
  24        8.0607
  25        9.8282
  26        9.8282
  27       13.7661
  28       13.7661
 
  0.3333333E+00  0.0000000E+00  0.0000000E+00  0.3472222E-02
   1       -3.0754
   2       -1.3870
   3       -0.9037
   4       -0.9037
   5       -0.8975
   6       -0.6547
   7       -0.6547
   8        0.0209
   9        1.0618
  10        1.0618
  11        1.2276
  12        1.2276
  13        1.3828
  14        2.1444
  15        2.1645
  16        2.1645
  17        2.1836
  18        2.3689
  19        2.3689
  20        2.6597
  21        3.2614
  22        3.2614
  23        9.0398
  24        9.0398
  25        9.6245
  26        9.6245
  27       12.9663
  28       12.9663
 
  0.4166667E+00  0.0000000E+00  0.0000000E+00  0.3472222E-02
   1       -2.5034
   2       -1.5370
   3       -0.6890
   4       -0.6713
   5       -0.6713
   6       -0.2916
   7       -0.2916
   8       -0.2146
   9        0.6562
  10        0.6562
  11        1.2219
  12        1.3382
  13        1.3382
  14        1.4876
  15        1.9031
  16        1.9031
  17        2.0091
  18        2.0091
  19        2.2651
  20        2.5317
  21        3.2617
  22        3.2617
  23        9.4842
  24        9.4842
  25       10.0544
  26       10.0544
  27       12.0528
  28       12.0528
 
  0.5000000E+00  0.0000000E+00  0.0000000E+00  0.1736111E-02
   1       -1.9404
   2       -1.9404
   3       -0.5727
   4       -0.5727
   5       -0.4567
   6       -0.4567
   7        0.1470
   8        0.1470
   9        0.1470
  10        0.1470
  11        1.2015
  12        1.2015
  13        1.6587
  14        1.6587
  15        1.6587
  16        1.6587
  17        1.7933
  18        1.7933
  19        2.3971
  20        2.3971
  21        3.2618
  22        3.2618
  23        9.4347
  24        9.4347
  25       11.0698
  26       11.0698
  27       11.0698
  28       11.0698
 
  0.8333333E-01  0.8333333E-01  0.0000000E+00  0.6944444E-02
   1       -4.0884
   2       -1.5064
   3       -1.5064
   4       -1.4890
   5       -1.2400
   6       -1.2400
   7       -1.2209
   8        0.4912
   9        0.5898
  10        0.6076
  11        1.8507
  12        1.9081
  13        2.8131
  14        2.8131
  15        2.8241
  16        2.8511
  17        2.9794
  18        2.9794
  19        3.1912
  20        3.1912
  21        3.2148
  22        5.8641
  23        5.8641
  24        6.7245
  25       10.1406
  26       10.9417
  27       10.9417
  28       14.2539
 
  0.1666667E+00  0.8333333E-01  0.0000000E+00  0.1388889E-01
   1       -3.8631
   2       -1.4374
   3       -1.3630
   4       -1.3601
   5       -1.1615
   6       -1.1186
   7       -1.0854
   8        0.3966
   9        0.6784
  10        0.6973
  11        1.7527
  12        1.9522
  13        2.3304
  14        2.3804
  15        2.5990
  16        2.6693
  17        2.7485
  18        2.8935
  19        2.9966
  20        3.1908
  21        3.1909
  22        4.7445
  23        6.5239
  24        7.3844
  25        9.9448
  26       10.7934
  27       12.4755
  28       13.6513
 
  0.2500000E+00  0.8333333E-01  0.0000000E+00  0.1388889E-01
   1       -3.4976
   2       -1.3558
   3       -1.1651
   4       -1.1354
   5       -1.0344
   6       -0.9171
   7       -0.8680
   8        0.2362
   9        0.8387
  10        0.8391
  11        1.5972
  12        1.7161
  13        1.7952
  14        2.0385
  15        2.2238
  16        2.4296
  17        2.4965
  18        2.7090
  19        2.7658
  20        3.1856
  21        3.1904
  22        3.6829
  23        7.2877
  24        8.2444
  25        9.6790
  26       10.6375
  27       13.0698
  28       13.9069
 
  0.3333333E+00  0.8333333E-01  0.0000000E+00  0.1388889E-01
   1       -3.0112
   2       -1.3303
   3       -0.9146
   4       -0.8692
   5       -0.8647
   6       -0.6367
   7       -0.5886
   8        0.0319
   9        1.0004
  10        1.0604
  11        1.1169
  12        1.2035
  13        1.4525
  14        1.7098
  15        2.1460
  16        2.1549
  17        2.2017
  18        2.3673
  19        2.5421
  20        2.9550
  21        3.1850
  22        3.1896
  23        8.0078
  24        9.2017
  25        9.4048
  26       10.5957
  27       12.4873
  28       13.1036
 
  0.4166667E+00  0.8333333E-01  0.0000000E+00  0.1388889E-01
   1       -2.4449
   2       -1.4807
   3       -0.6624
   4       -0.6607
   5       -0.6318
   6       -0.2795
   7       -0.2700
   8       -0.1974
   9        0.5724
  10        0.6488
  11        1.0480
  12        1.2410
  13        1.3364
  14        1.5025
  15        1.8997
  16        1.9347
  17        2.0072
  18        2.1547
  19        2.2949
  20        2.6392
  21        3.1859
  22        3.1885
  23        8.5593
  24        9.1552
  25       10.2027
  26       10.7983
  27       11.8757
  28       12.1897
 
  0.5000000E+00  0.8333333E-01  0.0000000E+00  0.6944444E-02
   1       -1.8851
   2       -1.8851
   3       -0.5371
   4       -0.5371
   5       -0.4337
   6       -0.4337
   7        0.1063
   8        0.1063
   9        0.1510
  10        0.1510
  11        1.0398
  12        1.0398
  13        1.6567
  14        1.6567
  15        1.7803
  16        1.7803
  17        1.8086
  18        1.8086
  19        2.4539
  20        2.4539
  21        3.1872
  22        3.1872
  23        8.9065
  24        8.9065
  25       11.2102
  26       11.2102
  27       11.2699
  28       11.2699
 
  0.1666667E+00  0.1666667E+00  0.0000000E+00  0.6944444E-02
   1       -3.6452
   2       -1.2864
   3       -1.2864
   4       -1.2806
   5       -1.0449
   6       -1.0449
   7       -0.9254
   8        0.3534
   9        0.7241
  10        0.7579
  11        1.7188
  12        1.9672
  13        2.0218
  14        2.0218
  15        2.0863
  16        2.5387
  17        2.7435
  18        2.7435
  19        2.9949
  20        2.9949
  21        3.0810
  22        5.4034
  23        5.4034
  24        7.9570
  25        9.6622
  26       12.2159
  27       12.2159
  28       12.9549
 
  0.2500000E+00  0.1666667E+00  0.0000000E+00  0.1388889E-01
   1       -3.2919
   2       -1.1973
   3       -1.1302
   4       -1.0531
   5       -0.9258
   6       -0.8517
   7       -0.6930
   8        0.2331
   9        0.8454
  10        0.8569
  11        1.4166
  12        1.6105
  13        1.6167
  14        1.6344
  15        2.0691
  16        2.3324
  17        2.5204
  18        2.6473
  19        2.7058
  20        2.9923
  21        3.0196
  22        4.3615
  23        6.1129
  24        8.7455
  25        9.2598
  26       11.8922
  27       12.4234
  28       13.7027
 
  0.3333333E+00  0.1666667E+00  0.0000000E+00  0.1388889E-01
   1       -2.8222
   2       -1.1649
   3       -0.9123
   4       -0.7726
   5       -0.7672
   6       -0.5838
   7       -0.4291
   8        0.0566
   9        0.8529
  10        0.9100
  11        1.0663
  12        1.1251
  13        1.1826
  14        1.5260
  15        2.0853
  16        2.2308
  17        2.2466
  18        2.3632
  19        2.4493
  20        2.9891
  21        2.9942
  22        3.5590
  23        6.7891
  24        8.8149
  25        9.6533
  26       11.6246
  27       12.0239
  28       13.4977
 
  0.4166667E+00  0.1666667E+00  0.0000000E+00  0.1388889E-01
   1       -2.2740
   2       -1.3175
   3       -0.6459
   4       -0.5772
   5       -0.5173
   6       -0.2444
   7       -0.1940
   8       -0.1502
   9        0.3636
  10        0.6231
  11        0.8680
  12        0.8685
  13        1.3364
  14        1.6046
  15        1.8777
  16        1.9818
  17        2.0031
  18        2.1579
  19        2.4361
  20        2.9854
  21        2.9859
  22        3.0300
  23        7.3904
  24        8.3686
  25       10.6219
  26       11.4984
  27       11.7268
  28       12.5816
 
  0.5000000E+00  0.1666667E+00  0.0000000E+00  0.6944444E-02
   1       -1.7254
   2       -1.7254
   3       -0.4401
   4       -0.4401
   5       -0.3670
   6       -0.3670
   7        0.0091
   8        0.0091
   9        0.1610
  10        0.1610
  11        0.7935
  12        0.7935
  13        1.6538
  14        1.6538
  15        1.8287
  16        1.8287
  17        1.8449
  18        1.8449
  19        2.6890
  20        2.6890
  21        2.9840
  22        2.9840
  23        7.9077
  24        7.9077
  25       11.5400
  26       11.5400
  27       11.6101
  28       11.6101
 
  0.2500000E+00  0.2500000E+00  0.0000000E+00  0.6944444E-02
   1       -2.9596
   2       -1.0329
   3       -0.9497
   4       -0.9497
   5       -0.7466
   6       -0.7466
   7       -0.4613
   8        0.1832
   9        0.8609
  10        0.9386
  11        1.0479
  12        1.0479
  13        1.3519
  14        1.5526
  15        2.1721
  16        2.2050
  17        2.4555
  18        2.4555
  19        2.7014
  20        2.7014
  21        2.8668
  22        5.0430
  23        5.0430
  24        8.6748
  25        9.4655
  26       12.0258
  27       13.0512
  28       13.0512
 
  0.3333333E+00  0.2500000E+00  0.0000000E+00  0.1388889E-01
   1       -2.5192
   2       -0.9057
   3       -0.8665
   4       -0.6441
   5       -0.6076
   6       -0.4998
   7       -0.2214
   8        0.0704
   9        0.5372
  10        0.7050
  11        0.8496
  12        0.9784
  13        1.1080
  14        1.4908
  15        1.9730
  16        2.2128
  17        2.2820
  18        2.3586
  19        2.4335
  20        2.6972
  21        2.7713
  22        4.1793
  23        5.6965
  24        8.0525
  25       10.3206
  26       11.8107
  27       12.4744
  28       14.0742
 
  0.4166667E+00  0.2500000E+00  0.0000000E+00  0.1388889E-01
   1       -2.0051
   2       -1.0684
   3       -0.6312
   4       -0.4431
   5       -0.3451
   6       -0.1909
   7       -0.0870
   8       -0.0558
   9        0.1023
  10        0.5371
  11        0.5698
  12        0.7470
  13        1.3544
  14        1.5523
  15        1.8106
  16        1.9656
  17        2.0012
  18        2.0242
  19        2.6959
  20        2.7227
  21        2.7249
  22        3.5422
  23        6.3093
  24        7.4577
  25       11.2526
  26       11.7384
  27       12.0541
  28       13.1820
 
  0.5000000E+00  0.2500000E+00  0.0000000E+00  0.6944444E-02
   1       -1.4813
   2       -1.4813
   3       -0.3443
   4       -0.3443
   5       -0.2646
   6       -0.2646
   7       -0.0570
   8       -0.0570
   9        0.1709
  10        0.1709
  11        0.5960
  12        0.5960
  13        1.6588
  14        1.6588
  15        1.7529
  16        1.7529
  17        1.8001
  18        1.8001
  19        2.7019
  20        2.7019
  21        3.0812
  22        3.0812
  23        6.8874
  24        6.8874
  25       11.8124
  26       11.8124
  27       12.2187
  28       12.2187
 
  0.3333333E+00  0.3333333E+00  0.0000000E+00  0.6944444E-02
   1       -2.1224
   2       -0.7669
   3       -0.5842
   4       -0.5842
   5       -0.3911
   6       -0.3911
   7       -0.0116
   8        0.0448
   9        0.2907
  10        0.2907
  11        0.7566
  12        0.7993
  13        1.2196
  14        1.4097
  15        1.8178
  16        2.0672
  17        2.0672
  18        2.3577
  19        2.3577
  20        2.5857
  21        2.7369
  22        4.7900
  23        4.7900
  24        7.2927
  25       11.1319
  26       11.7734
  27       13.2519
  28       13.2519
 
  0.4166667E+00  0.3333333E+00  0.0000000E+00  0.1388889E-01
   1       -1.6640
   2       -0.7830
   3       -0.6096
   4       -0.2870
   5       -0.2671
   6       -0.1268
   7       -0.0301
   8       -0.0212
   9        0.1173
  10        0.2944
  11        0.4758
  12        0.6819
  13        1.4164
  14        1.4230
  15        1.6839
  16        1.8330
  17        1.8438
  18        2.0103
  19        2.3671
  20        2.4639
  21        3.1058
  22        4.0843
  23        5.3861
  24        6.6041
  25       11.8852
  26       12.0319
  27       12.6096
  28       13.9439
 
  0.5000000E+00  0.3333333E+00  0.0000000E+00  0.6944444E-02
   1       -1.1920
   2       -1.1920
   3       -0.3978
   4       -0.3978
   5       -0.1409
   6       -0.1409
   7        0.0616
   8        0.0616
   9        0.1701
  10        0.1701
  11        0.4815
  12        0.4815
  13        1.5865
  14        1.5865
  15        1.6858
  16        1.6858
  17        1.6874
  18        1.6874
  19        2.3972
  20        2.3972
  21        3.5423
  22        3.5423
  23        5.9804
  24        5.9804
  25       12.1573
  26       12.1573
  27       12.9784
  28       12.9784
 
  0.4166667E+00  0.4166667E+00  0.0000000E+00  0.6944444E-02
   1       -1.2875
   2       -0.5709
   3       -0.5709
   4       -0.5709
   5       -0.0638
   6       -0.0638
   7       -0.0034
   8        0.2035
   9        0.2035
  10        0.2544
  11        0.3321
  12        0.6134
  13        1.3406
  14        1.5420
  15        1.5484
  16        1.6343
  17        1.6343
  18        2.0434
  19        2.0434
  20        2.2566
  21        3.5432
  22        4.6399
  23        4.6399
  24        5.8630
  25       12.1723
  26       12.9075
  27       13.2404
  28       13.2404
 
  0.5000000E+00  0.4166667E+00  0.0000000E+00  0.6944444E-02
   1       -0.9147
   2       -0.9147
   3       -0.5301
   4       -0.5301
   5       -0.0172
   6       -0.0172
   7        0.1449
   8        0.1449
   9        0.2612
  10        0.2612
  11        0.4471
  12        0.4471
  13        1.4245
  14        1.4245
  15        1.5079
  16        1.5079
  17        1.7614
  18        1.7614
  19        2.1191
  20        2.1191
  21        4.0424
  22        4.0424
  23        5.2215
  24        5.2215
  25       12.6186
  26       12.6186
  27       13.8382
  28       13.8383
 
  0.5000000E+00  0.5000000E+00  0.0000000E+00  0.1736111E-02
   1       -0.6950
   2       -0.6950
   3       -0.6950
   4       -0.6950
   5        0.0829
   6        0.0829
   7        0.0829
   8        0.0829
   9        0.4071
  10        0.4071
  11        0.4071
  12        0.4071
  13        1.3800
  14        1.3800
  15        1.3800
  16        1.3800
  17        1.9024
  18        1.9024
  19        1.9024
  20        1.9024
  21        4.5903
  22        4.5903
  23        4.5903
  24        4.5903
  25       13.2205
  26       13.2205
  27       13.2205
  28       13.2205
 
  0.8333333E-01  0.8333333E-01  0.8333333E-01  0.4629630E-02
   1       -4.0134
   2       -1.4631
   3       -1.4631
   4       -1.4631
   5       -1.1944
   6       -1.1944
   7       -1.1944
   8        0.4784
   9        0.6179
  10        0.6179
  11        1.8714
  12        1.8714
  13        2.7572
  14        2.7572
  15        2.7572
  16        2.7765
  17        2.7765
  18        2.7765
  19        3.1811
  20        3.1811
  21        3.1811
  22        6.1191
  23        6.1191
  24        6.1191
  25       10.8676
  26       10.8676
  27       10.8676
  28       14.4273
 
  0.1666667E+00  0.8333333E-01  0.8333333E-01  0.1388889E-01
   1       -3.7909
   2       -1.3942
   3       -1.3373
   4       -1.3373
   5       -1.1162
   6       -1.0592
   7       -1.0592
   8        0.3961
   9        0.6937
  10        0.7018
  11        1.7682
  12        1.9323
  13        2.2602
  14        2.2602
  15        2.4832
  16        2.6353
  17        2.6477
  18        2.6477
  19        3.0907
  20        3.1594
  21        3.1594
  22        5.0055
  23        6.7200
  24        6.7200
  25       10.6717
  26       10.6717
  27       12.3360
  28       13.8703
 
  0.2500000E+00  0.8333333E-01  0.8333333E-01  0.1388889E-01
   1       -3.4301
   2       -1.3125
   3       -1.1397
   4       -1.1397
   5       -0.9899
   6       -0.8425
   7       -0.8425
   8        0.2444
   9        0.8330
  10        0.8399
  11        1.6255
  12        1.6771
  13        1.6771
  14        2.0299
  15        2.0513
  16        2.4123
  17        2.4334
  18        2.4334
  19        2.9632
  20        3.1416
  21        3.1416
  22        3.9423
  23        7.4403
  24        7.4403
  25       10.4321
  26       10.4321
  27       13.3669
  28       13.3669
 
  0.3333333E+00  0.8333333E-01  0.8333333E-01  0.1388889E-01
   1       -2.9503
   2       -1.2862
   3       -0.8878
   4       -0.8878
   5       -0.8225
   6       -0.5665
   7       -0.5665
   8        0.0478
   9        0.9718
  10        1.0294
  11        1.1026
  12        1.1026
  13        1.5253
  14        1.5321
  15        2.1346
  16        2.1583
  17        2.1642
  18        2.1642
  19        2.8122
  20        3.0924
  21        3.1314
  22        3.1314
  23        8.1178
  24        8.1178
  25       10.2617
  26       10.2617
  27       12.9006
  28       12.9006
 
  0.4166667E+00  0.8333333E-01  0.8333333E-01  0.1388889E-01
   1       -2.3916
   2       -1.4358
   3       -0.6287
   4       -0.6287
   5       -0.6235
   6       -0.2645
   7       -0.2645
   8       -0.1740
   9        0.5833
  10        0.5833
  11        0.9791
  12        1.1094
  13        1.2648
  14        1.6457
  15        1.8341
  16        1.9172
  17        1.9172
  18        2.3101
  19        2.4594
  20        2.6468
  21        3.1264
  22        3.1264
  23        8.5845
  24        8.5845
  25       10.2564
  26       10.2564
  27       12.4858
  28       12.4858
 
  0.5000000E+00  0.8333333E-01  0.8333333E-01  0.6944444E-02
   1       -1.8381
   2       -1.8381
   3       -0.5017
   4       -0.5017
   5       -0.4030
   6       -0.4030
   7       -0.0112
   8       -0.0112
   9        0.2384
  10        0.2384
  11        0.9494
  12        0.9494
  13        1.5376
  14        1.5376
  15        1.8106
  16        1.8106
  17        1.9835
  18        1.9835
  19        2.4762
  20        2.4762
  21        3.1250
  22        3.1250
  23        8.7362
  24        8.7362
  25       10.3177
  26       10.3177
  27       12.2910
  28       12.2910
 
  0.1666667E+00  0.1666667E+00  0.8333333E-01  0.1388889E-01
   1       -3.5770
   2       -1.2691
   3       -1.2691
   4       -1.2587
   5       -0.9815
   6       -0.9815
   7       -0.8972
   8        0.3609
   9        0.7338
  10        0.7546
  11        1.7555
  12        1.9378
  13        1.9631
  14        1.9631
  15        1.9890
  16        2.4594
  17        2.5284
  18        2.5284
  19        3.0801
  20        3.0801
  21        3.0962
  22        5.5832
  23        5.5832
  24        7.2148
  25       10.3366
  26       11.9582
  27       11.9582
  28       13.2980
 
  0.2500000E+00  0.1666667E+00  0.8333333E-01  0.2777778E-01
   1       -3.2308
   2       -1.1883
   3       -1.1127
   4       -1.0730
   5       -0.8563
   6       -0.7655
   7       -0.6642
   8        0.2524
   9        0.8366
  10        0.8469
  11        1.3920
  12        1.5420
  13        1.5574
  14        1.6620
  15        2.0484
  16        2.2709
  17        2.3030
  18        2.3761
  19        2.9615
  20        3.0321
  21        3.0340
  22        4.5090
  23        6.2503
  24        7.8318
  25        9.8995
  26       11.4634
  27       12.9507
  28       13.2003
 
  0.3333333E+00  0.1666667E+00  0.8333333E-01  0.2777778E-01
   1       -2.7715
   2       -1.1615
   3       -0.8991
   4       -0.8201
   5       -0.6945
   6       -0.4963
   7       -0.4053
   8        0.0875
   9        0.8598
  10        0.8966
  11        1.0121
  12        1.0525
  13        1.1258
  14        1.6213
  15        2.0221
  16        2.0538
  17        2.1570
  18        2.2164
  19        2.7849
  20        2.9896
  21        2.9918
  22        3.6303
  23        6.9047
  24        8.3417
  25        9.5771
  26       10.9759
  27       12.7962
  28       13.8836
 
  0.4166667E+00  0.1666667E+00  0.8333333E-01  0.2777778E-01
   1       -2.2371
   2       -1.3099
   3       -0.6321
   4       -0.5413
   5       -0.5100
   6       -0.2472
   7       -0.2031
   8       -0.1072
   9        0.4304
  10        0.6074
  11        0.8237
  12        0.8448
  13        1.2161
  14        1.7311
  15        1.7797
  16        1.8565
  17        1.9266
  18        2.4206
  19        2.5037
  20        2.9664
  21        2.9686
  22        3.0171
  23        7.4942
  24        8.3582
  25        9.7137
  26       10.5413
  27       12.8293
  28       13.4625
 
  0.5000000E+00  0.1666667E+00  0.8333333E-01  0.1388889E-01
   1       -1.7044
   2       -1.7044
   3       -0.4061
   4       -0.4061
   5       -0.3114
   6       -0.3114
   7       -0.1648
   8       -0.1648
   9        0.3203
  10        0.3203
  11        0.7616
  12        0.7616
  13        1.4575
  14        1.4575
  15        1.7956
  16        1.7956
  17        2.1160
  18        2.1160
  19        2.6645
  20        2.6645
  21        2.9603
  22        2.9603
  23        7.9926
  24        7.9926
  25       10.1254
  26       10.1254
  27       13.0666
  28       13.0666
 
  0.2500000E+00  0.2500000E+00  0.8333333E-01  0.1388889E-01
   1       -2.9097
   2       -1.0246
   3       -0.9970
   4       -0.9970
   5       -0.6393
   6       -0.6393
   7       -0.4334
   8        0.2200
   9        0.8517
  10        0.9024
  11        1.0349
  12        1.0349
  13        1.2867
  14        1.6311
  15        2.0771
  16        2.1804
  17        2.1996
  18        2.1996
  19        2.8855
  20        2.8855
  21        2.9190
  22        5.1487
  23        5.1487
  24        8.2547
  25        9.3318
  26       12.3933
  27       12.3933
  28       12.8158
 
  0.3333333E+00  0.2500000E+00  0.8333333E-01  0.2777778E-01
   1       -2.4866
   2       -0.9774
   3       -0.8696
   4       -0.7539
   5       -0.4799
   6       -0.3692
   7       -0.2052
   8        0.1268
   9        0.5706
  10        0.7012
  11        0.8410
  12        0.9502
  13        1.0204
  14        1.6197
  15        1.8899
  16        1.9392
  17        2.0448
  18        2.4088
  19        2.6848
  20        2.8061
  21        2.8227
  22        4.2312
  23        5.7859
  24        8.1194
  25        9.3796
  26       11.6525
  27       12.8954
  28       13.2934
 
  0.4166667E+00  0.2500000E+00  0.8333333E-01  0.2777778E-01
   1       -1.9972
   2       -1.1300
   3       -0.6507
   4       -0.4799
   5       -0.3177
   6       -0.1834
   7       -0.0866
   8       -0.0092
   9        0.2792
  10        0.5336
  11        0.6276
  12        0.7390
  13        1.1852
  14        1.6575
  15        1.7406
  16        1.7686
  17        1.8568
  18        2.4020
  19        2.6979
  20        2.7549
  21        2.7613
  22        3.5404
  23        6.3969
  24        7.5656
  25        9.8898
  26       11.0108
  27       13.1777
  28       14.2103
 
  0.5000000E+00  0.2500000E+00  0.8333333E-01  0.1388889E-01
   1       -1.5068
   2       -1.5068
   3       -0.3919
   4       -0.3919
   5       -0.1930
   6       -0.1930
   7       -0.1621
   8       -0.1621
   9        0.3884
  10        0.3884
  11        0.5892
  12        0.5892
  13        1.3987
  14        1.3987
  15        1.7214
  16        1.7214
  17        2.0646
  18        2.0646
  19        2.7395
  20        2.7395
  21        3.0556
  22        3.0556
  23        6.9841
  24        6.9841
  25       10.4400
  26       10.4400
  27       13.6539
  28       13.6539
 
  0.3333333E+00  0.3333333E+00  0.8333333E-01  0.1388889E-01
   1       -2.1176
   2       -0.7920
   3       -0.7635
   4       -0.7635
   5       -0.1969
   6       -0.1969
   7       -0.0223
   8        0.1331
   9        0.3370
  10        0.3370
  11        0.7963
  12        0.7969
  13        1.0626
  14        1.6023
  15        1.7142
  16        1.8286
  17        1.8286
  18        2.5793
  19        2.5793
  20        2.6679
  21        2.7094
  22        4.8351
  23        4.8351
  24        7.4031
  25        9.8048
  26       12.3902
  27       12.3902
  28       13.1730
 
  0.4166667E+00  0.3333333E+00  0.8333333E-01  0.2777778E-01
   1       -1.6990
   2       -0.9394
   3       -0.6709
   4       -0.5735
   5       -0.0537
   6       -0.0094
   7        0.0456
   8        0.0936
   9        0.2067
  10        0.3086
  11        0.6347
  12        0.6846
  13        1.1569
  14        1.5699
  15        1.5806
  16        1.6866
  17        1.7181
  18        2.2938
  19        2.5084
  20        2.5517
  21        3.0775
  22        4.0864
  23        5.4342
  24        6.6892
  25       10.3536
  26       11.6142
  27       13.2017
  28       13.6323
 
  0.5000000E+00  0.3333333E+00  0.8333333E-01  0.1388889E-01
   1       -1.2813
   2       -1.2813
   3       -0.5469
   4       -0.5469
   5       -0.0236
   6       -0.0236
   7        0.0264
   8        0.0264
   9        0.4516
  10        0.4516
  11        0.4862
  12        0.4862
  13        1.3313
  14        1.3313
  15        1.5708
  16        1.5708
  17        1.9787
  18        1.9787
  19        2.4965
  20        2.4965
  21        3.5205
  22        3.5205
  23        6.0418
  24        6.0418
  25       10.9481
  26       10.9481
  27       14.0780
  28       14.0781
 
  0.4166667E+00  0.4166667E+00  0.8333333E-01  0.1388889E-01
   1       -1.3773
   2       -0.7887
   3       -0.7887
   4       -0.6849
   5        0.1239
   6        0.1539
   7        0.1539
   8        0.1630
   9        0.2749
  10        0.2749
  11        0.6228
  12        0.6350
  13        1.1500
  14        1.4281
  15        1.4608
  16        1.4608
  17        1.7652
  18        2.2302
  19        2.2302
  20        2.3681
  21        3.5171
  22        4.6489
  23        4.6489
  24        5.9133
  25       10.9204
  26       12.3243
  27       12.3243
  28       14.0239
 
  0.5000000E+00  0.4166667E+00  0.8333333E-01  0.1388889E-01
   1       -1.0658
   2       -1.0658
   3       -0.7102
   4       -0.7102
   5        0.1335
   6        0.1335
   7        0.1803
   8        0.1803
   9        0.4888
  10        0.4888
  11        0.5166
  12        0.5166
  13        1.2543
  14        1.2543
  15        1.3807
  16        1.3807
  17        1.9558
  18        1.9558
  19        2.2517
  20        2.2517
  21        4.0265
  22        4.0265
  23        5.2455
  24        5.2455
  25       11.5708
  26       11.5708
  27       13.1286
  28       13.1286
 
  0.5000000E+00  0.5000000E+00  0.8333333E-01  0.3472222E-02
   1       -0.8780
   2       -0.8780
   3       -0.8780
   4       -0.8780
   5        0.2092
   6        0.2092
   7        0.2092
   8        0.2092
   9        0.5474
  10        0.5474
  11        0.5474
  12        0.5474
  13        1.2446
  14        1.2446
  15        1.2446
  16        1.2446
  17        2.0512
  18        2.0512
  19        2.0512
  20        2.0512
  21        4.5881
  22        4.5881
  23        4.5881
  24        4.5881
  25       12.2956
  26       12.2956
  27       12.2956
  28       12.2956
 
  0.1666667E+00  0.1666667E+00  0.1666667E+00  0.4629630E-02
   1       -3.3755
   2       -1.2023
   3       -1.2023
   4       -1.2023
   5       -0.8127
   6       -0.8127
   7       -0.8127
   8        0.3581
   9        0.7669
  10        0.7669
  11        1.7190
  12        1.7190
  13        1.7190
  14        1.8600
  15        1.8600
  16        2.2660
  17        2.2660
  18        2.2660
  19        3.1041
  20        3.1041
  21        3.1041
  22        6.0362
  23        6.0362
  24        6.0362
  25       11.3236
  26       11.3236
  27       11.3236
  28       14.2934
 
  0.2500000E+00  0.1666667E+00  0.1666667E+00  0.1388889E-01