   4   4   0   0
  0.1984955E+02  0.4298038E-09  0.4298038E-09  0.4298038E-09  0.5000000E-15
  1.000000000000000E-004
  CAR 
 unknown system                          
     15.10477061     -5.33667164  301      3.91191247      1.00000000
     -5.337  0.0000E+00  0.0000E+00
     -5.269  0.0000E+00  0.0000E+00
     -5.200  0.0000E+00  0.0000E+00
     -5.132  0.0000E+00  0.0000E+00
     -5.064  0.0000E+00  0.0000E+00
     -4.996  0.0000E+00  0.0000E+00
     -4.928  0.0000E+00  0.0000E+00
     -4.860  0.0000E+00  0.0000E+00
     -4.792  0.0000E+00  0.0000E+00
     -4.723  0.0000E+00  0.0000E+00
     -4.655  0.0000E+00  0.0000E+00
     -4.587  0.0000E+00  0.0000E+00
     -4.519  0.0000E+00  0.0000E+00
     -4.451  0.7365E-11  0.5018E-12
     -4.383  0.1698E-01  0.1157E-02
     -4.315  0.1018E+00  0.8095E-02
     -4.246  0.2033E+00  0.2196E-01
     -4.178  0.1353E+00  0.3121E-01
     -4.110  0.1007E+00  0.3811E-01
     -4.042  0.4027E+00  0.6564E-01
     -3.974  0.4045E+00  0.9353E-01
     -3.906  0.2142E-12  0.9375E-01
     -3.838  0.2029E+00  0.1076E+00
     -3.769  0.5071E+00  0.1422E+00
     -3.701  0.4053E+00  0.1700E+00
     -3.633  0.4075E+00  0.1979E+00
     -3.565  0.1359E+00  0.2072E+00
     -3.497  0.4078E+00  0.2350E+00
     -3.429  0.8152E+00  0.2905E+00
     -3.361  0.7836E-07  0.2905E+00
     -3.293  0.4789E+00  0.3231E+00
     -3.224  0.4952E+00  0.3569E+00
     -3.156  0.9569E+00  0.4221E+00
     -3.088  0.2727E+00  0.4410E+00
     -3.020  0.1348E+01  0.5329E+00
     -2.952  0.1994E-11  0.5336E+00
     -2.884  0.4067E+00  0.5613E+00
     -2.816  0.1537E+00  0.5718E+00
     -2.747  0.1341E+01  0.6632E+00
     -2.679  0.1385E+01  0.7576E+00
     -2.611  0.2118E+00  0.7720E+00
     -2.543  0.1028E+01  0.8421E+00
     -2.475  0.6023E+00  0.8831E+00
     -2.407  0.1266E+01  0.9694E+00
     -2.339  0.6088E+00  0.1011E+01
     -2.270  0.2123E+01  0.1156E+01
     -2.202  0.8679E+00  0.1215E+01
     -2.134  0.1847E+01  0.1341E+01
     -2.066  0.2217E+01  0.1492E+01
     -1.998  0.4373E+01  0.1790E+01
     -1.930  0.1933E+01  0.1922E+01
     -1.862  0.4710E+01  0.2243E+01
     -1.793  0.4126E+01  0.2525E+01
     -1.725  0.2092E+01  0.2668E+01
     -1.657  0.9466E+01  0.3313E+01
     -1.589  0.5755E+01  0.3707E+01
     -1.521  0.6035E+01  0.4121E+01
     -1.453  0.1124E+02  0.4887E+01
     -1.385  0.8535E+01  0.5468E+01
     -1.317  0.7420E+01  0.5974E+01
     -1.248  0.1356E+02  0.6898E+01
     -1.180  0.5472E+01  0.7272E+01
     -1.112  0.6803E+01  0.7736E+01
     -1.044  0.1095E+02  0.8483E+01
     -0.976  0.7293E+01  0.8982E+01
     -0.908  0.6204E+01  0.9406E+01
     -0.840  0.7012E+01  0.9886E+01
     -0.771  0.5288E+01  0.1025E+02
     -0.703  0.5083E+01  0.1060E+02
     -0.635  0.1166E+02  0.1140E+02
     -0.567  0.5197E+01  0.1175E+02
     -0.499  0.1078E+02  0.1249E+02
     -0.431  0.9641E+01  0.1315E+02
     -0.363  0.1187E+02  0.1396E+02
     -0.294  0.1069E+02  0.1469E+02
     -0.226  0.1024E+02  0.1539E+02
     -0.158  0.8367E+01  0.1596E+02
     -0.090  0.1055E+02  0.1668E+02
     -0.022  0.1196E+02  0.1750E+02
      0.046  0.1329E+02  0.1840E+02
      0.114  0.1619E+02  0.1951E+02
      0.183  0.1243E+02  0.2036E+02
      0.251  0.1998E+02  0.2172E+02
      0.319  0.1153E+02  0.2251E+02
      0.387  0.1194E+02  0.2332E+02
      0.455  0.9623E+01  0.2398E+02
      0.523  0.8268E+01  0.2454E+02
      0.591  0.8583E+01  0.2513E+02
      0.659  0.9030E+01  0.2574E+02
      0.728  0.8245E+01  0.2630E+02
      0.796  0.7627E+01  0.2682E+02
      0.864  0.1228E+02  0.2766E+02
      0.932  0.1030E+02  0.2837E+02
      1.000  0.1273E+02  0.2923E+02
      1.068  0.1017E+02  0.2993E+02
      1.136  0.9934E+01  0.3061E+02
      1.205  0.9168E+01  0.3124E+02
      1.273  0.1231E+02  0.3207E+02
      1.341  0.8718E+01  0.3267E+02
      1.409  0.7436E+01  0.3318E+02
      1.477  0.8718E+01  0.3377E+02
      1.545  0.9346E+01  0.3441E+02
      1.613  0.9167E+01  0.3503E+02
      1.682  0.9688E+01  0.3569E+02
      1.750  0.7238E+01  0.3619E+02
      1.818  0.1266E+02  0.3705E+02
      1.886  0.1321E+02  0.3796E+02
      1.954  0.1206E+02  0.3878E+02
      2.022  0.1541E+02  0.3983E+02
      2.090  0.1507E+02  0.4086E+02
      2.159  0.8235E+01  0.4142E+02
      2.227  0.7297E+01  0.4192E+02
      2.295  0.1398E+01  0.4202E+02
      2.363  0.3595E+00  0.4204E+02
      2.431  0.1080E+00  0.4205E+02
      2.499  0.2077E+01  0.4219E+02
      2.567  0.3169E+01  0.4241E+02
      2.635  0.1517E+01  0.4251E+02
      2.704  0.8142E+00  0.4257E+02
      2.772  0.2395E-06  0.4257E+02
      2.840  0.8121E+00  0.4262E+02
      2.908  0.1717E-02  0.4262E+02
      2.976  0.2824E+01  0.4282E+02
      3.044  0.1727E+01  0.4294E+02
      3.112  0.1983E+01  0.4307E+02
      3.181  0.7334E+00  0.4312E+02
      3.249  0.1631E+01  0.4323E+02
      3.317  0.0000E+00  0.4323E+02
      3.385  0.1298E+00  0.4324E+02
      3.453  0.1110E+01  0.4332E+02
      3.521  0.1309E+01  0.4341E+02
      3.589  0.2856E+01  0.4360E+02
      3.658  0.1458E+01  0.4370E+02
      3.726  0.1002E+01  0.4377E+02
      3.794  0.1444E+01  0.4387E+02
      3.862  0.2961E+00  0.4389E+02
      3.930  0.2135E+01  0.4404E+02
      3.998  0.3378E+00  0.4406E+02
      4.066  0.1688E+00  0.4407E+02
      4.135  0.2232E+01  0.4422E+02
      4.203  0.1689E+01  0.4434E+02
      4.271  0.1121E+01  0.4442E+02
      4.339  0.1012E+01  0.4449E+02
      4.407  0.1793E+01  0.4461E+02
      4.475  0.1656E+01  0.4472E+02
      4.543  0.4241E+00  0.4475E+02
      4.611  0.1385E+01  0.4484E+02
      4.680  0.8023E+00  0.4490E+02
      4.748  0.1061E+01  0.4497E+02
      4.816  0.8843E+00  0.4503E+02
      4.884  0.4822E+00  0.4506E+02
      4.952  0.2397E+01  0.4523E+02
      5.020  0.1761E+01  0.4535E+02
      5.088  0.1038E+01  0.4542E+02
      5.157  0.1600E+01  0.4553E+02
      5.225  0.7455E+00  0.4558E+02
      5.293  0.1698E+01  0.4570E+02
      5.361  0.8166E+00  0.4575E+02
      5.429  0.3010E+00  0.4577E+02
      5.497  0.1816E+01  0.4590E+02
      5.565  0.1194E+01  0.4598E+02
      5.634  0.6011E+00  0.4602E+02
      5.702  0.1167E+01  0.4610E+02
      5.770  0.2242E+01  0.4625E+02
      5.838  0.1469E+01  0.4635E+02
      5.906  0.4266E+00  0.4638E+02
      5.974  0.1891E+00  0.4640E+02
      6.042  0.2352E+01  0.4656E+02
      6.111  0.5630E+00  0.4659E+02
      6.179  0.9980E+00  0.4666E+02
      6.247  0.1333E+01  0.4675E+02
      6.315  0.2643E+01  0.4693E+02
      6.383  0.1731E+01  0.4705E+02
      6.451  0.1795E+01  0.4718E+02
      6.519  0.1298E+01  0.4726E+02
      6.588  0.1153E+01  0.4734E+02
      6.656  0.1753E+01  0.4746E+02
      6.724  0.1939E+01  0.4759E+02
      6.792  0.1528E+01  0.4770E+02
      6.860  0.1043E+01  0.4777E+02
      6.928  0.1170E+01  0.4785E+02
      6.996  0.1768E+01  0.4797E+02
      7.064  0.2192E+01  0.4812E+02
      7.133  0.3932E+00  0.4815E+02
      7.201  0.1281E+01  0.4823E+02
      7.269  0.1632E+01  0.4835E+02
      7.337  0.1235E+01  0.4843E+02
      7.405  0.1413E+01  0.4853E+02
      7.473  0.4045E+00  0.4855E+02
      7.541  0.4068E+00  0.4858E+02
      7.610  0.1721E+01  0.4870E+02
      7.678  0.1540E+01  0.4880E+02
      7.746  0.2009E+01  0.4894E+02
      7.814  0.3985E+00  0.4897E+02
      7.882  0.4078E+00  0.4900E+02
      7.950  0.5590E+00  0.4904E+02
      8.018  0.1172E+01  0.4912E+02
      8.087  0.1358E+01  0.4921E+02
      8.155  0.1732E+01  0.4933E+02
      8.223  0.2312E+01  0.4949E+02
      8.291  0.7943E+00  0.4954E+02
      8.359  0.6791E+00  0.4959E+02
      8.427  0.3002E+01  0.4979E+02
      8.495  0.7691E+00  0.4984E+02
      8.564  0.1273E+01  0.4993E+02
      8.632  0.3500E+01  0.5017E+02
      8.700  0.1127E-01  0.5017E+02
      8.768  0.2740E-12  0.5017E+02
      8.836  0.8982E+00  0.5023E+02
      8.904  0.1290E+01  0.5032E+02
      8.972  0.2344E+01  0.5048E+02
      9.040  0.3043E+01  0.5069E+02
      9.109  0.2647E+01  0.5087E+02
      9.177  0.1432E+01  0.5097E+02
      9.245  0.2203E+01  0.5112E+02
      9.313  0.1458E+01  0.5122E+02
      9.381  0.1642E+01  0.5133E+02
      9.449  0.4364E+00  0.5136E+02
      9.517  0.9454E-01  0.5136E+02
      9.586  0.1954E+01  0.5150E+02
      9.654  0.2360E+01  0.5166E+02
      9.722  0.1036E+00  0.5167E+02
      9.790  0.9614E+00  0.5173E+02
      9.858  0.2338E+00  0.5175E+02
      9.926  0.1708E+01  0.5186E+02
      9.994  0.9100E+00  0.5193E+02
     10.063  0.1025E+01  0.5200E+02
     10.131  0.1301E+01  0.5209E+02
     10.199  0.2374E+01  0.5225E+02
     10.267  0.1331E+01  0.5234E+02
     10.335  0.1450E+01  0.5244E+02
     10.403  0.2098E+01  0.5258E+02
     10.471  0.1407E+01  0.5268E+02
     10.540  0.1212E+01  0.5276E+02
     10.608  0.8943E+00  0.5282E+02
     10.676  0.1596E+01  0.5293E+02
     10.744  0.1165E+01  0.5301E+02
     10.812  0.2865E+00  0.5303E+02
     10.880  0.3172E+01  0.5325E+02
     10.948  0.9810E+00  0.5331E+02
     11.016  0.1654E+01  0.5343E+02
     11.085  0.1657E+01  0.5354E+02
     11.153  0.1233E+01  0.5362E+02
     11.221  0.7094E+00  0.5367E+02
     11.289  0.5426E+00  0.5371E+02
     11.357  0.2817E+01  0.5390E+02
     11.425  0.8410E+00  0.5396E+02
     11.493  0.2459E+01  0.5413E+02
     11.562  0.1038E+01  0.5420E+02
     11.630  0.1911E+01  0.5433E+02
     11.698  0.2937E+01  0.5453E+02
     11.766  0.2583E+01  0.5471E+02
     11.834  0.8153E+00  0.5476E+02
     11.902  0.4077E+00  0.5479E+02
     11.970  0.1293E+01  0.5488E+02
     12.039  0.3378E+00  0.5490E+02
     12.107  0.1367E+01  0.5499E+02
     12.175  0.1894E+01  0.5512E+02
     12.243  0.7182E+00  0.5517E+02
     12.311  0.8483E+00  0.5523E+02
     12.379  0.1571E+01  0.5534E+02
     12.447  0.3162E+00  0.5536E+02
     12.516  0.1283E+01  0.5545E+02
     12.584  0.1717E+01  0.5556E+02
     12.652  0.4666E+00  0.5560E+02
     12.720  0.1422E+01  0.5569E+02
     12.788  0.9397E+00  0.5576E+02
     12.856  0.4077E+00  0.5579E+02
     12.924  0.1943E+00  0.5580E+02
     12.992  0.8248E+00  0.5586E+02
     13.061  0.1299E+00  0.5586E+02
     13.129  0.3147E+00  0.5589E+02
     13.197  0.2031E+00  0.5590E+02
     13.265  0.4068E+00  0.5593E+02
     13.333  0.8140E+00  0.5598E+02
     13.401  0.0000E+00  0.5598E+02
     13.469  0.5796E-03  0.5598E+02
     13.538  0.1013E+00  0.5599E+02
     13.606  0.2178E-06  0.5599E+02
     13.674  0.1699E-01  0.5599E+02
     13.742  0.0000E+00  0.5599E+02
     13.810  0.0000E+00  0.5599E+02
     13.878  0.0000E+00  0.5599E+02
     13.946  0.0000E+00  0.5599E+02
     14.015  0.0000E+00  0.5599E+02
     14.083  0.0000E+00  0.5599E+02
     14.151  0.3113E-04  0.5599E+02
     14.219  0.1359E+00  0.5600E+02
     14.287  0.0000E+00  0.5600E+02
     14.355  0.0000E+00  0.5600E+02
     14.423  0.0000E+00  0.5600E+02
     14.492  0.0000E+00  0.5600E+02
     14.560  0.0000E+00  0.5600E+02
     14.628  0.0000E+00  0.5600E+02
     14.696  0.0000E+00  0.5600E+02
     14.764  0.0000E+00  0.5600E+02
     14.832  0.0000E+00  0.5600E+02
     14.900  0.0000E+00  0.5600E+02
     14.968  0.0000E+00  0.5600E+02
     15.037  0.0000E+00  0.5600E+02
     15.105  0.0000E+00  0.5600E+02
