    4    4    1    1
  0.1984955E+02  0.4298037E-09  0.4298037E-09  0.4298037E-09  0.5000000E-15
  1.000000000000000E-004
  CAR 
 unknown system                          
   44   84   28
 
  0.0000000E+00  0.0000000E+00  0.0000000E+00  0.5787037E-03
   1       -4.4075
   2       -1.8827
   3       -1.8827
   4       -1.8827
   5       -1.6504
   6       -1.6504
   7       -1.6504
   8       -0.0605
   9       -0.0605
  10       -0.0605
  11        1.0964
  12        1.0964
  13        1.9762
  14        1.9762
  15        1.9762
  16        2.2561
  17        2.2561
  18        2.2561
  19        2.2561
  20        2.2561
  21        2.2561
  22        5.3750
  23        5.3750
  24        5.3750
  25        8.6262
  26        8.6262
  27        8.6262
  28       13.6355
 
  0.8333333E-01  0.0000000E+00  0.0000000E+00  0.3472222E-02
   1       -4.3366
   2       -1.8609
   3       -1.8383
   4       -1.8383
   5       -1.6267
   6       -1.6145
   7       -1.6145
   8       -0.0919
   9       -0.0316
  10       -0.0316
  11        1.0634
  12        1.1105
  13        1.9298
  14        1.9298
  15        1.9601
  16        2.0681
  17        2.0681
  18        2.1989
  19        2.1989
  20        2.2562
  21        2.2562
  22        4.7494
  23        5.6170
  24        5.6170
  25        8.5788
  26        8.5788
  27        9.3781
  28       13.4874
 
  0.1666667E+00  0.0000000E+00  0.0000000E+00  0.3472222E-02
   1       -4.1261
   2       -1.8034
   3       -1.7100
   4       -1.7100
   5       -1.5569
   6       -1.5070
   7       -1.5070
   8       -0.1830
   9        0.0543
  10        0.0543
  11        0.9688
  12        1.1517
  13        1.6256
  14        1.6256
  15        1.7947
  16        1.7947
  17        1.9132
  18        2.0373
  19        2.0373
  20        2.2564
  21        2.2564
  22        3.5953
  23        6.2200
  24        6.2200
  25        8.4509
  26        8.4509
  27       10.9166
  28       13.0532
 
  0.2500000E+00  0.0000000E+00  0.0000000E+00  0.3472222E-02
   1       -3.7837
   2       -1.7376
   3       -1.5136
   4       -1.5136
   5       -1.4441
   6       -1.3283
   7       -1.3283
   8       -0.3246
   9        0.1953
  10        0.1953
  11        0.8270
  12        1.0958
  13        1.0958
  14        1.2179
  15        1.5856
  16        1.5856
  17        1.7966
  18        1.7966
  19        1.8394
  20        2.2568
  21        2.2568
  22        2.4460
  23        7.0125
  24        7.0125
  25        8.2804
  26        8.2804
  27       12.4081
  28       12.4081
 
  0.3333333E+00  0.0000000E+00  0.0000000E+00  0.3472222E-02
   1       -3.3267
   2       -1.7250
   3       -1.2936
   4       -1.2821
   5       -1.2821
   6       -1.0793
   7       -1.0793
   8       -0.5037
   9        0.3880
  10        0.3880
  11        0.5639
  12        0.5639
  13        0.6655
  14        1.3052
  15        1.3374
  16        1.3374
  17        1.4736
  18        1.5083
  19        1.5083
  20        1.7445
  21        2.2571
  22        2.2571
  23        7.9015
  24        7.9015
  25        8.1161
  26        8.1161
  27       11.6145
  28       11.6145
 
  0.4166667E+00  0.0000000E+00  0.0000000E+00  0.3472222E-02
   1       -2.7919
   2       -1.8745
   3       -1.1132
   4       -1.0766
   5       -1.0766
   6       -0.7615
   7       -0.7615
   8       -0.7049
   9        0.0670
  10        0.0670
  11        0.5350
  12        0.6265
  13        0.6265
  14        0.8107
  15        1.1173
  16        1.1173
  17        1.2021
  18        1.2021
  19        1.4084
  20        1.6357
  21        2.2573
  22        2.2573
  23        8.0002
  24        8.0002
  25        8.8388
  26        8.8388
  27       10.7278
  28       10.7278
 
  0.5000000E+00  0.0000000E+00  0.0000000E+00  0.1736111E-02
   1       -2.2607
   2       -2.2607
   3       -0.9895
   4       -0.9895
   5       -0.9128
   6       -0.9128
   7       -0.3778
   8       -0.3778
   9       -0.3778
  10       -0.3778
  11        0.5316
  12        0.5316
  13        0.9022
  14        0.9022
  15        0.9022
  16        0.9022
  17        1.0243
  18        1.0243
  19        1.5210
  20        1.5210
  21        2.2574
  22        2.2574
  23        7.9588
  24        7.9588
  25        9.7911
  26        9.7911
  27        9.7911
  28        9.7911
 
  0.8333333E-01  0.8333333E-01  0.0000000E+00  0.6944444E-02
   1       -4.2664
   2       -1.8161
   3       -1.8161
   4       -1.8003
   5       -1.5913
   6       -1.5913
   7       -1.5741
   8       -0.1044
   9       -0.0209
  10       -0.0052
  11        1.0548
  12        1.1032
  13        1.8818
  14        1.8818
  15        1.8860
  16        1.9387
  17        2.0337
  18        2.0337
  19        2.1989
  20        2.1989
  21        2.2179
  22        4.9820
  23        4.9820
  24        5.8391
  25        8.5247
  26        9.3394
  27        9.3394
  28       12.9125
 
  0.1666667E+00  0.8333333E-01  0.0000000E+00  0.1388889E-01
   1       -4.0580
   2       -1.7572
   3       -1.6899
   4       -1.6864
   5       -1.5229
   6       -1.4852
   7       -1.4543
   8       -0.1840
   9        0.0560
  10        0.0726
  11        0.9732
  12        1.1411
  13        1.5026
  14        1.5513
  15        1.7162
  16        1.7578
  17        1.8295
  18        1.9554
  19        2.0368
  20        2.1981
  21        2.1986
  22        3.8580
  23        5.5272
  24        6.4080
  25        8.3753
  26        9.2444
  27       10.8465
  28       12.2879
 
  0.2500000E+00  0.8333333E-01  0.0000000E+00  0.1388889E-01
   1       -3.7192
   2       -1.6891
   3       -1.5165
   4       -1.4875
   5       -1.4123
   6       -1.3090
   7       -1.2624
   8       -0.3199
   9        0.1949
  10        0.1958
  11        0.8439
  12        0.9840
  13        1.0543
  14        1.2152
  15        1.4178
  16        1.5586
  17        1.6177
  18        1.7956
  19        1.8479
  20        2.1939
  21        2.1981
  22        2.8061
  23        6.1755
  24        7.1737
  25        8.1667
  26        9.1575
  27       11.6846
  28       12.5344
 
  0.3333333E+00  0.8333333E-01  0.0000000E+00  0.1388889E-01
   1       -3.2670
   2       -1.6742
   3       -1.2960
   4       -1.2649
   5       -1.2520
   6       -1.0636
   7       -1.0168
   8       -0.4936
   9        0.3360
  10        0.3867
  11        0.4673
  12        0.5434
  13        0.7251
  14        0.9924
  15        1.3149
  16        1.3214
  17        1.3703
  18        1.5069
  19        1.6740
  20        2.0581
  21        2.1935
  22        2.1974
  23        6.7832
  24        7.9431
  25        8.0447
  26        9.1839
  27       11.0959
  28       11.7355
 
  0.4166667E+00  0.8333333E-01  0.0000000E+00  0.1388889E-01
   1       -2.7377
   2       -1.8234
   3       -1.0884
   4       -1.0721
   5       -1.0422
   6       -0.7509
   7       -0.7394
   8       -0.6896
   9       -0.0064
  10        0.0606
  11        0.3815
  12        0.5755
  13        0.6249
  14        0.7724
  15        1.1140
  16        1.1447
  17        1.2004
  18        1.3460
  19        1.4347
  20        1.7349
  21        2.1942
  22        2.1965
  23        7.2370
  24        7.7330
  25        8.9702
  26        9.4336
  27       10.4975
  28       10.8488
 
  0.5000000E+00  0.8333333E-01  0.0000000E+00  0.6944444E-02
   1       -2.2099
   2       -2.2099
   3       -0.9591
   4       -0.9591
   5       -0.8926
   6       -0.8926
   7       -0.4126
   8       -0.4126
   9       -0.3743
  10       -0.3743
  11        0.3844
  12        0.3844
  13        0.9004
  14        0.9004
  15        1.0153
  16        1.0153
  17        1.0371
  18        1.0371
  19        1.5712
  20        1.5712
  21        2.1954
  22        2.1954
  23        7.5225
  24        7.5225
  25        9.9107
  26        9.9107
  27        9.9154
  28        9.9154
 
  0.1666667E+00  0.1666667E+00  0.0000000E+00  0.6944444E-02
   1       -3.8561
   2       -1.6232
   3       -1.6232
   4       -1.6200
   5       -1.4210
   6       -1.4210
   7       -1.3110
   8       -0.2192
   9        0.0953
  10        0.1257
  11        0.9451
  12        1.1553
  13        1.2433
  14        1.2433
  15        1.3054
  16        1.6489
  17        1.8283
  18        1.8283
  19        2.0354
  20        2.0354
  21        2.1054
  22        4.4072
  23        4.4072
  24        6.9110
  25        8.1588
  26       10.6547
  27       10.6547
  28       11.5656
 
  0.2500000E+00  0.1666667E+00  0.0000000E+00  0.1388889E-01
   1       -3.5282
   2       -1.5480
   3       -1.4900
   4       -1.4164
   5       -1.3174
   6       -1.2520
   7       -1.1045
   8       -0.3206
   9        0.2025
  10        0.2103
  11        0.7259
  12        0.8553
  13        0.9008
  14        0.9181
  15        1.2433
  16        1.4765
  17        1.6412
  18        1.7509
  19        1.7928
  20        2.0330
  21        2.0542
  22        3.3886
  23        5.0220
  24        7.6186
  25        7.8356
  26       10.4037
  27       11.0004
  28       12.1079
 
  0.3333333E+00  0.1666667E+00  0.0000000E+00  0.1388889E-01
   1       -3.0912
   2       -1.5260
   3       -1.2999
   4       -1.1797
   5       -1.1681
   6       -1.0176
   7       -0.8712
   8       -0.4708
   9        0.2370
  10        0.2600
  11        0.3914
  12        0.4763
  13        0.5241
  14        0.7874
  15        1.2692
  16        1.3824
  17        1.4106
  18        1.5032
  19        1.5891
  20        2.0302
  21        2.0334
  22        2.6059
  23        5.6192
  24        7.4562
  25        8.4473
  26       10.1853
  27       10.5816
  28       12.0847
 
  0.4166667E+00  0.1666667E+00  0.0000000E+00  0.1388889E-01
   1       -2.5790
   2       -1.6757
   3       -1.0653
   4       -1.0153
   5       -0.9426
   6       -0.7205
   7       -0.6653
   8       -0.6477
   9       -0.1893
  10        0.0385
  11        0.2268
  12        0.2416
  13        0.6245
  14        0.8604
  15        1.0943
  16        1.1857
  17        1.1966
  18        1.3442
  19        1.5599
  20        2.0264
  21        2.0274
  22        2.0963
  23        6.1592
  24        7.0557
  25        9.3443
  26       10.0771
  27       10.2864
  28       11.1971
 
  0.5000000E+00  0.1666667E+00  0.0000000E+00  0.6944444E-02
   1       -2.0631
   2       -2.0631
   3       -0.8781
   4       -0.8781
   5       -0.8339
   6       -0.8339
   7       -0.4945
   8       -0.4945
   9       -0.3656
  10       -0.3656
  11        0.1677
  12        0.1677
  13        0.8975
  14        0.8975
  15        1.0540
  16        1.0540
  17        1.0724
  18        1.0724
  19        1.7827
  20        1.7827
  21        2.0255
  22        2.0255
  23        6.6321
  24        6.6321
  25       10.1127
  26       10.1127
  27       10.2719
  28       10.2719
 
  0.2500000E+00  0.2500000E+00  0.0000000E+00  0.6944444E-02
   1       -3.2192
   2       -1.4078
   3       -1.3278
   4       -1.3278
   5       -1.1606
   6       -1.1606
   7       -0.8978
   8       -0.3612
   9        0.2180
  10        0.2805
  11        0.4061
  12        0.4061
  13        0.6749
  14        0.8067
  15        1.3412
  16        1.3620
  17        1.5899
  18        1.5899
  19        1.7888
  20        1.7888
  21        1.9250
  22        3.9915
  23        3.9915
  24        7.3430
  25        8.2677
  26       10.5655
  27       11.5378
  28       11.5378
 
  0.3333333E+00  0.2500000E+00  0.0000000E+00  0.1388889E-01
   1       -2.8091
   2       -1.2941
   3       -1.2644
   4       -1.0566
   5       -1.0400
   6       -0.9447
   7       -0.6845
   8       -0.4566
   9       -0.0403
  10        0.1033
  11        0.2108
  12        0.3497
  13        0.4267
  14        0.7566
  15        1.1733
  16        1.3847
  17        1.4465
  18        1.4989
  19        1.5603
  20        1.7850
  21        1.8448
  22        3.1632
  23        4.5804
  24        6.7847
  25        9.0497
  26       10.3371
  27       11.0077
  28       12.5266
 
  0.4166667E+00  0.2500000E+00  0.0000000E+00  0.1388889E-01
   1       -2.3292
   2       -1.4507
   3       -1.0598
   4       -0.8977
   5       -0.7921
   6       -0.6742
   7       -0.5911
   8       -0.5373
   9       -0.4201
  10       -0.0497
  11       -0.0077
  12        0.1249
  13        0.6394
  14        0.8142
  15        1.0363
  16        1.1735
  17        1.1945
  18        1.2277
  19        1.7834
  20        1.8046
  21        1.8151
  22        2.5585
  23        5.1438
  24        6.2281
  25        9.9132
  26       10.2718
  27       10.6042
  28       11.7358
 
  0.5000000E+00  0.2500000E+00  0.0000000E+00  0.6944444E-02
   1       -1.8391
   2       -1.8391
   3       -0.8069
   4       -0.8069
   5       -0.7437
   6       -0.7437
   7       -0.5411
   8       -0.5411
   9       -0.3572
  10       -0.3572
  11       -0.0028
  12       -0.0028
  13        0.9012
  14        0.9012
  15        0.9919
  16        0.9919
  17        1.0298
  18        1.0298
  19        1.7879
  20        1.7879
  21        2.1332
  22        2.1332
  23        5.6868
  24        5.6868
  25       10.3587
  26       10.3587
  27       10.8196
  28       10.8196
 
  0.3333333E+00  0.3333333E+00  0.0000000E+00  0.6944444E-02
   1       -2.4394
   2       -1.1808
   3       -1.0073
   4       -1.0073
   5       -0.8504
   6       -0.8504
   7       -0.4968
   8       -0.4765
   9       -0.2601
  10       -0.2601
  11        0.1564
  12        0.1716
  13        0.5224
  14        0.6876
  15        1.0412
  16        1.2635
  17        1.2635
  18        1.4976
  19        1.4976
  20        1.6875
  21        1.8258
  22        3.7176
  23        3.7176
  24        6.0820
  25        9.7915
  26       10.2946
  27       11.7518
  28       11.7518
 
  0.4166667E+00  0.3333333E+00  0.0000000E+00  0.1388889E-01
   1       -2.0125
   2       -1.1946
   3       -1.0458
   4       -0.7486
   5       -0.7432
   6       -0.6187
   7       -0.5396
   8       -0.5259
   9       -0.3813
  10       -0.2586
  11       -0.0898
  12        0.0739
  13        0.6917
  14        0.7023
  15        0.9278
  16        1.0635
  17        1.0712
  18        1.2014
  19        1.5047
  20        1.5848
  21        2.1518
  22        3.0492
  23        4.2688
  24        5.4271
  25       10.4131
  26       10.6246
  27       11.1351
  28       12.4641
 
  0.5000000E+00  0.3333333E+00  0.0000000E+00  0.6944444E-02
   1       -1.5740
   2       -1.5740
   3       -0.8617
   4       -0.8617
   5       -0.6344
   6       -0.6344
   7       -0.4318
   8       -0.4318
   9       -0.3581
  10       -0.3581
  11       -0.0973
  12       -0.0973
  13        0.8481
  14        0.8481
  15        0.9248
  16        0.9248
  17        0.9325
  18        0.9325
  19        1.5293
  20        1.5293
  21        2.5460
  22        2.5460
  23        4.8302
  24        4.8302
  25       10.6900
  26       10.6900
  27       11.5112
  28       11.5112
 
  0.4166667E+00  0.4166667E+00  0.0000000E+00  0.6944444E-02
   1       -1.6641
   2       -1.0145
   3       -1.0093
   4       -1.0093
   5       -0.5644
   6       -0.5644
   7       -0.5144
   8       -0.3262
   9       -0.3262
  10       -0.2596
  11       -0.2159
  12        0.0222
  13        0.6309
  14        0.8045
  15        0.8058
  16        0.8911
  17        0.8911
  18        1.2286
  19        1.2286
  20        1.4085
  21        2.5433
  22        3.5604
  23        3.5604
  24        4.7196
  25       10.6986
  26       11.4334
  27       11.7379
  28       11.7379
 
  0.5000000E+00  0.4166667E+00  0.0000000E+00  0.6944444E-02
   1       -1.3216
   2       -1.3216
   3       -0.9784
   4       -0.9784
   5       -0.5249
   6       -0.5249
   7       -0.3808
   8       -0.3808
   9       -0.2600
  10       -0.2600
  11       -0.1167
  12       -0.1167
  13        0.7067
  14        0.7067
  15        0.7786
  16        0.7786
  17        0.9871
  18        0.9871
  19        1.2920
  20        1.2920
  21        3.0002
  22        3.0002
  23        4.1071
  24        4.1071
  25       11.1366
  26       11.1366
  27       12.3036
  28       12.3044
 
  0.5000000E+00  0.5000000E+00  0.0000000E+00  0.1736111E-02
   1       -1.1244
   2       -1.1244
   3       -1.1244
   4       -1.1244
   5       -0.4359
   6       -0.4359
   7       -0.4359
   8       -0.4359
   9       -0.1389
  10       -0.1389
  11       -0.1389
  12       -0.1389
  13        0.6663
  14        0.6663
  15        0.6663
  16        0.6663
  17        1.1070
  18        1.1070
  19        1.1070
  20        1.1070
  21        3.5091
  22        3.5091
  23        3.5091
  24        3.5091
  25       11.7168
  26       11.7168
  27       11.7168
  28       11.7168
 
  0.8333333E-01  0.8333333E-01  0.8333333E-01  0.4629630E-02
   1       -4.1970
   2       -1.7781
   3       -1.7781
   4       -1.7781
   5       -1.5510
   6       -1.5510
   7       -1.5510
   8       -0.1144
   9        0.0035
  10        0.0035
  11        1.0725
  12        1.0725
  13        1.8466
  14        1.8466
  15        1.8466
  16        1.8626
  17        1.8626
  18        1.8626
  19        2.1894
  20        2.1894
  21        2.1894
  22        5.1887
  23        5.1887
  24        5.1887
  25        9.2898
  26        9.2898
  27        9.2898
  28       13.0640
 
  0.1666667E+00  0.8333333E-01  0.8333333E-01  0.1388889E-01
   1       -3.9910
   2       -1.7194
   3       -1.6679
   4       -1.6679
   5       -1.4828
   6       -1.4314
   7       -1.4314
   8       -0.1834
   9        0.0694
  10        0.0763
  11        0.9866
  12        1.1248
  13        1.4481
  14        1.4481
  15        1.6395
  16        1.7290
  17        1.7433
  18        1.7433
  19        2.1125
  20        2.1714
  21        2.1714
  22        4.0718
  23        5.6910
  24        5.6910
  25        9.1592
  26        9.1592
  27       10.7444
  28       12.4776
 
  0.2500000E+00  0.8333333E-01  0.8333333E-01  0.1388889E-01
   1       -3.6565
   2       -1.6510
   3       -1.4948
   4       -1.4948
   5       -1.3728
   6       -1.2398
   7       -1.2398
   8       -0.3119
   9        0.1907
  10        0.1960
  11        0.8682
  12        0.9518
  13        0.9518
  14        1.2083
  15        1.2826
  16        1.5421
  17        1.5641
  18        1.5641
  19        2.0040
  20        2.1570
  21        2.1570
  22        3.0309
  23        6.3021
  24        6.3021
  25        9.0058
  26        9.0058
  27       11.9441
  28       11.9441
 
  0.3333333E+00  0.8333333E-01  0.8333333E-01  0.1388889E-01
   1       -3.2102
   2       -1.6349
   3       -1.2733
   4       -1.2733
   5       -1.2276
   6       -0.9970
   7       -0.9970
   8       -0.4792
   9        0.3120
  10        0.3599
  11        0.4553
  12        0.4553
  13        0.7876
  14        0.8375
  15        1.3075
  16        1.3182
  17        1.3381
  18        1.3381
  19        1.8755
  20        2.1487
  21        2.1487
  22        2.2112
  23        6.8674
  24        6.8674
  25        8.9243
  26        8.9243
  27       11.4654
  28       11.4654
 
  0.4166667E+00  0.8333333E-01  0.8333333E-01  0.1388889E-01
   1       -2.6880
   2       -1.7828
   3       -1.0554
   4       -1.0432
   5       -1.0432
   6       -0.7343
   7       -0.7343
   8       -0.6688
   9        0.0033
  10        0.0033
  11        0.3222
  12        0.4572
  13        0.5631
  14        0.8969
  15        1.0517
  16        1.1293
  17        1.1293
  18        1.4478
  19        1.6220
  20        1.7347
  21        2.1447
  22        2.1447
  23        7.2389
  24        7.2389
  25        8.9897
  26        8.9897
  27       11.0566
  28       11.0566
 
  0.5000000E+00  0.8333333E-01  0.8333333E-01  0.6944444E-02
   1       -2.1665
   2       -2.1665
   3       -0.9289
   4       -0.9289
   5       -0.8654
   6       -0.8654
   7       -0.5164
   8       -0.5164
   9       -0.2965
  10       -0.2965
  11        0.3045
  12        0.3045
  13        0.7977
  14        0.7977
  15        1.0386
  16        1.0386
  17        1.1950
  18        1.1950
  19        1.5894
  20        1.5894
  21        2.1435
  22        2.1435
  23        7.3556
  24        7.3556
  25        9.0745
  26        9.0745
  27       10.8678
  28       10.8678
 
  0.1666667E+00  0.1666667E+00  0.8333333E-01  0.1388889E-01
   1       -3.7927
   2       -1.6098
   3       -1.6098
   4       -1.6015
   5       -1.3633
   6       -1.3633
   7       -1.2861
   8       -0.2114
   9        0.1038
  10        0.1225
  11        0.9766
  12        1.1307
  13        1.1977
  14        1.1977
  15        1.2234
  16        1.5822
  17        1.6454
  18        1.6454
  19        2.1043
  20        2.1043
  21        2.1176
  22        4.5618
  23        4.5618
  24        6.1078
  25        8.9182
  26       10.4551
  27       10.4551
  28       11.8623
 
  0.2500000E+00  0.1666667E+00  0.8333333E-01  0.2777778E-01
   1       -3.4710
   2       -1.5420
   3       -1.4754
   4       -1.4383
   5       -1.2541
   6       -1.1719
   7       -1.0790
   8       -0.3026
   9        0.1945
  10        0.2019
  11        0.7058
  12        0.8383
  13        0.8525
  14        0.8995
  15        1.2259
  16        1.4253
  17        1.4547
  18        1.5186
  19        2.0053
  20        2.0651
  21        2.0658
  22        3.5234
  23        5.1421
  24        6.6227
  25        8.5943
  26       10.0480
  27       11.4728
  28       11.6848
 
  0.3333333E+00  0.1666667E+00  0.8333333E-01  0.2777778E-01
   1       -3.0433
   2       -1.5243
   3       -1.2893
   4       -1.2166
   5       -1.1138
   6       -0.9342
   7       -0.8499
   8       -0.4428
   9        0.2432
  10        0.2485
  11        0.3448
  12        0.4128
  13        0.4754
  14        0.8695
  15        1.2148
  16        1.2433
  17        1.3340
  18        1.3700
  19        1.8605
  20        2.0293
  21        2.0319
  22        2.6826
  23        5.7204
  24        7.0193
  25        8.3720
  26        9.6202
  27       11.3020
  28       12.3714
 
  0.4166667E+00  0.1666667E+00  0.8333333E-01  0.2777778E-01
   1       -2.5438
   2       -1.6690
   3       -1.0546
   4       -0.9697
   5       -0.9548
   6       -0.7179
   7       -0.6731
   8       -0.6091
   9       -0.1304
  10        0.0251
  11        0.2024
  12        0.2068
  13        0.5212
  14        0.9651
  15        1.0122
  16        1.0764
  17        1.1382
  18        1.5459
  19        1.6344
  20        2.0103
  21        2.0126
  22        2.0935
  23        6.2479
  24        7.0151
  25        8.5018
  26        9.2244
  27       11.3403
  28       11.9689
 
  0.5000000E+00  0.1666667E+00  0.8333333E-01  0.1388889E-01
   1       -2.0431
   2       -2.0431
   3       -0.8492
   4       -0.8492
   5       -0.7841
   6       -0.7841
   7       -0.6496
   8       -0.6496
   9       -0.2232
  10       -0.2232
  11        0.1398
  12        0.1398
  13        0.7296
  14        0.7296
  15        1.0255
  16        1.0255
  17        1.3073
  18        1.3073
  19        1.7609
  20        1.7609
  21        2.0056
  22        2.0056
  23        6.6958
  24        6.6958
  25        8.8504
  26        8.8504
  27       11.5830
  28       11.5830
 
  0.2500000E+00  0.2500000E+00  0.8333333E-01  0.1388889E-01
   1       -3.1719
   2       -1.4013
   3       -1.3746
   4       -1.3746
   5       -1.0611
   6       -1.0611
   7       -0.8731
   8       -0.3276
   9        0.2095
  10        0.2495
  11        0.3955
  12        0.3955
  13        0.6185
  14        0.8737
  15        1.2605
  16        1.3411
  17        1.3699
  18        1.3699
  19        1.9432
  20        1.9432
  21        1.9687
  22        4.0900
  23        4.0900
  24        6.9404
  25        8.1511
  26       10.9524
  27       10.9524
  28       11.3071
 
  0.3333333E+00  0.2500000E+00  0.8333333E-01  0.2777778E-01
   1       -2.7772
   2       -1.3619
   3       -1.2680
   4       -1.1621
   5       -0.9227
   6       -0.8215
   7       -0.6705
   8       -0.4056
   9       -0.0109
  10        0.1001
  11        0.2032
  12        0.3251
  13        0.3517
  14        0.8669
  15        1.1025
  16        1.1472
  17        1.2400
  18        1.5391
  19        1.7780
  20        1.8766
  21        1.8880
  22        3.2181
  23        4.6645
  24        6.8123
  25        8.1767
  26       10.2570
  27       11.3832
  28       11.8017
 
  0.4166667E+00  0.2500000E+00  0.8333333E-01  0.2777778E-01
   1       -2.3199
   2       -1.5072
   3       -1.0780
   4       -0.9224
   5       -0.7836
   6       -0.6596
   7       -0.5665
   8       -0.5212
   9       -0.2620
  10       -0.0531
  11        0.0448
  12        0.1177
  13        0.4949
  14        0.9044
  15        0.9765
  16        0.9996
  17        1.0798
  18        1.5438
  19        1.7918
  20        1.8331
  21        1.8371
  22        2.5638
  23        5.2263
  24        6.3202
  25        8.6007
  26        9.6444
  27       11.6685
  28       12.6620
 
  0.5000000E+00  0.2500000E+00  0.8333333E-01  0.1388889E-01
   1       -1.8609
   2       -1.8609
   3       -0.8526
   4       -0.8526
   5       -0.6634
   6       -0.6634
   7       -0.6513
   8       -0.6513
   9       -0.1609
  10       -0.1609
  11       -0.0091
  12       -0.0091
  13        0.6803
  14        0.6803
  15        0.9620
  16        0.9620
  17        1.2572
  18        1.2572
  19        1.8194
  20        1.8194
  21        2.1130
  22        2.1130
  23        5.7760
  24        5.7760
  25        9.1023
  26        9.1023
  27       12.1377
  28       12.1377
 
  0.3333333E+00  0.3333333E+00  0.8333333E-01  0.1388889E-01
   1       -2.4326
   2       -1.2035
   3       -1.1745
   4       -1.1745
   5       -0.6703
   6       -0.6703
   7       -0.5084
   8       -0.3970
   9       -0.2197
  10       -0.2197
  11        0.1695
  12        0.1923
  13        0.3885
  14        0.8515
  15        0.9524
  16        1.0552
  17        1.0552
  18        1.6879
  19        1.6879
  20        1.7570
  21        1.8022
  22        3.7654
  23        3.7654
  24        6.1799
  25        8.5090
  26       10.9425
  27       10.9425
  28       11.6573
 
  0.4166667E+00  0.3333333E+00  0.8333333E-01  0.2777778E-01
   1       -2.0420
   2       -1.3373
   3       -1.0998
   4       -1.0098
   5       -0.5484
   6       -0.5116
   7       -0.4523
   8       -0.4288
   9       -0.3216
  10       -0.2480
  11        0.0558
  12        0.0766
  13        0.4714
  14        0.8318
  15        0.8389
  16        0.9346
  17        0.9529
  18        1.4486
  19        1.6258
  20        1.6593
  21        2.1281
  22        3.0577
  23        4.3194
  24        5.5101
  25        9.0000
  26       10.1982
  27       11.6999
  28       12.1074
 
  0.5000000E+00  0.3333333E+00  0.8333333E-01  0.1388889E-01
   1       -1.6537
   2       -1.6537
   3       -0.9910
   4       -0.9910
   5       -0.5207
   6       -0.5207
   7       -0.4842
   8       -0.4842
   9       -0.1004
  10       -0.1004
  11       -0.0933
  12       -0.0933
  13        0.6243
  14        0.6243
  15        0.8332
  16        0.8332
  17        1.1793
  18        1.1793
  19        1.6138
  20        1.6138
  21        2.5300
  22        2.5300
  23        4.8931
  24        4.8931
  25        9.5593
  26        9.5593
  27       12.5273
  28       12.5273
 
  0.4166667E+00  0.4166667E+00  0.8333333E-01  0.1388889E-01
   1       -1.7436
   2       -1.2045
   3       -1.2045
   4       -1.1140
   5       -0.3914
   6       -0.3812
   7       -0.3812
   8       -0.3674
   9       -0.2526
  10       -0.2526
  11        0.0443
  12        0.0537
  13        0.4660
  14        0.7076
  15        0.7398
  16        0.7398
  17        0.9909
  18        1.3905
  19        1.3905
  20        1.5034
  21        2.5227
  22        3.5757
  23        3.5757
  24        4.7738
  25        9.5226
  26       10.8605
  27       10.8605
  28       12.4731
 
  0.5000000E+00  0.4166667E+00  0.8333333E-01  0.1388889E-01
   1       -1.4568
   2       -1.4568
   3       -1.1364
   4       -1.1364
   5       -0.3924
   6       -0.3924
   7       -0.3541
   8       -0.3541
   9       -0.0740
  10       -0.0740
  11       -0.0357
  12       -0.0357
  13        0.5588
  14        0.5588
  15        0.6687
  16        0.6687
  17        1.1552
  18        1.1552
  19        1.4056
  20        1.4056
  21        2.9908
  22        2.9908
  23        4.1371
  24        4.1371
  25       10.1394
  26       10.1394
  27       11.6197
  28       11.6197
 
  0.5000000E+00  0.5000000E+00  0.8333333E-01  0.3472222E-02
   1       -1.2869
   2       -1.2869
   3       -1.2869
   4       -1.2869
   5       -0.3322
   6       -0.3322
   7       -0.3322
   8       -0.3322
   9       -0.0066
  10       -0.0066
  11       -0.0066
  12       -0.0066
  13        0.5493
  14        0.5493
  15        0.5493
  16        0.5493
  17        1.2345
  18        1.2345
  19        1.2345
  20        1.2345
  21        3.5140
  22        3.5140
  23        3.5140
  24        3.5140
  25       10.8255
  26       10.8255
  27       10.8255
  28       10.8255
 
  0.1666667E+00  0.1666667E+00  0.1666667E+00  0.4629630E-02
   1       -3.6051
   2       -1.5540
   3       -1.5540
   4       -1.5540
   5       -1.2118
   6       -1.2118
   7       -1.2118
   8       -0.2104
   9        0.1325
  10        0.1325
  11        0.9940
  12        0.9940
  13        0.9940
  14        1.0659
  15        1.0659
  16        1.4191
  17        1.4191
  18        1.4191
  19        2.1233
  20        2.1233
  21        2.1233
  22        4.9548
  23        4.9548
  24        4.9548
  25        9.9279
  26        9.9279
  27        9.9279
  28       12.7494
 
  0.2500000E+00  0.1666667E+00  0.1666667E+00  0.1388889E-01