 vasp.4.6.28 25Jul05 complex 
 executed on             LinuxIFC date 2017.01.06  05:31:27
 running on    4 nodes
 distr:  one band on    1 nodes,    4 groups


--------------------------------------------------------------------------------------------------------


 INCAR:
 POTCAR:   PAW_PBE Au 06Sep2000                   
 POTCAR:   PAW_PBE Au 06Sep2000                   
   VRHFIN =Au: s1d10                                                            
   LEXCH  = PE                                                                  
   EATOM  =   926.0567 eV,   68.0632 Ry                                         
                                                                                
   TITEL  = PAW_PBE Au 06Sep2000                                                
   LULTRA =        F    use ultrasoft PP ?                                      
   IUNSCR =        1    unscreen: 0-lin 1-nonlin 2-no                           
   RPACOR =    2.330    partial core radius                                     
   POMASS =  196.966; ZVAL   =   11.000    mass and valenz                      
   RCORE  =    2.500    outmost cutoff radius                                   
   RWIGS  =    2.840; RWIGS  =    1.503    wigner-seitz radius (au A)           
   ENMAX  =  229.948; ENMIN  =  172.461 eV                                      
   RCLOC  =    1.964    cutoff for local pot                                    
   LCOR   =        T    correct aug charges                                     
   LPAW   =        T    paw PP                                                  
   EAUG   =  356.670                                                            
   DEXC   =    -.025                                                            
   RMAX   =    3.041    core radius for proj-oper                               
   RAUG   =    1.300    factor for augmentation sphere                          
   RDEP   =    2.598    radius for radial grids                                 
   QCUT   =   -4.111; QGAM   =    8.222    optimization parameters              
                                                                                
   Description                                                                  
     l     E      TYP  RCUT    TYP  RCUT                                        
     2   .000     23  2.500                                                     
     2   .000     23  2.500                                                     
     0   .000     23  2.500                                                     
     0   .000     23  2.500                                                     
     1  -.200     23  2.500                                                     
     1   .000     23  2.500                                                     
     3   .000      7   .000                                                     
  local pseudopotential read in
  partial core-charges read in
  atomic valenz-charges read in
  non local Contribution for L=           2  read in
    real space projection operators read in
  non local Contribution for L=           2  read in
    real space projection operators read in
  non local Contribution for L=           0  read in
    real space projection operators read in
  non local Contribution for L=           0  read in
    real space projection operators read in
  non local Contribution for L=           1  read in
    real space projection operators read in
  non local Contribution for L=           1  read in
    real space projection operators read in
    PAW grid and wavefunctions read in
 
   number of l-projection  operators is LMAX  =           6
   number of lm-projection operators is LMMAX =          18
 
 PAW_PBE Au 06Sep2000                   :
 energy of atom  1       EATOM= -926.0567
 kinetic energy error for atom=    0.0008 (will be added to EATOM!!)
 
 EXHCAR: internal setup
 exchange correlation table for  LEXCH =        8
   RHO(1)=    0.500       N(1)  =     2000
   RHO(2)=  100.500       N(2)  =     4000
 
 POSCAR: Au                                      
  positions in direct lattice
  velocities in cartesian coordinates
 


--------------------------------------------------------------------------------------------------------


 ion  position               nearest neighbor table
   1  0.000  0.000  0.000-   2 3.04   3 3.04   4 3.04   3 3.04   4 3.04   2 3.04   4 3.04   4 3.04
                             2 3.04   3 3.04   3 3.04   2 3.04
   2  0.500  0.500  0.000-   1 3.04   3 3.04   4 3.04   3 3.04   4 3.04   1 3.04   3 3.04   3 3.04
                             1 3.04   4 3.04   4 3.04   1 3.04
   3  0.500  0.000  0.500-   1 3.04   2 3.04   4 3.04   1 3.04   2 3.04   2 3.04   4 3.04   2 3.04
                             1 3.04   4 3.04   1 3.04   4 3.04
   4  0.000  0.500  0.500-   1 3.04   2 3.04   3 3.04   1 3.04   2 3.04   1 3.04   3 3.04   1 3.04
                             2 3.04   3 3.04   2 3.04   3 3.04
 
  LATTYP: Found a simple cubic cell.
 ALAT       =     4.2980374594
  
  Lattice vectors:
  
 A1 = (   4.2980374594,   0.0000000000,   0.0000000000)
 A2 = (   0.0000000000,   4.2980374594,   0.0000000000)
 A3 = (   0.0000000000,   0.0000000000,   4.2980374594)
 Subroutine PRICEL returns following result:
 
  LATTYP: Found a face centered cubic cell.
 ALAT       =     4.2980374594
  
  Lattice vectors:
  
 A1 = (   2.1490187297,   2.1490187297,   0.0000000000)
 A2 = (   2.1490187297,   0.0000000000,  -2.1490187297)
 A3 = (   0.0000000000,   2.1490187297,  -2.1490187297)
 
   4 primitive cells build up your supercell.
 

Analysis of symmetry for initial positions (statically):

 Routine SETGRP: Setting up the symmetry group for a 
 simple cubic supercell.


 Subroutine GETGRP returns: Found 48 space group operations
 (whereof 48 operations were pure point group operations)
 out of a pool of 48 trial point group operations.


The static configuration has the point symmetry O_h .

Analysis of symmetry for dynamics (positions and initial velocities):

 Subroutine DYNSYM returns: Found 48 space group operations
 (whereof 48 operations were pure point group operations)
 out of a pool of 48 trial space group operations
 (whereof 48 operations were pure point group operations)
 and found also     4 'primitive' translations


The dynamic configuration has the point symmetry O_h .
 
 
 KPOINTS: Automatic mesh                          

Automatic generation of k-mesh.
 
 Subroutine IBZKPT returns following result:
 ===========================================
 
 Found     84 irreducible k-points:
 
 Following reciprocal coordinates:
            Coordinates               Weight
  0.000000  0.000000  0.000000      1.000000
  0.083333  0.000000  0.000000      6.000000
  0.166667  0.000000  0.000000      6.000000
  0.250000  0.000000  0.000000      6.000000
  0.333333  0.000000  0.000000      6.000000
  0.416667  0.000000  0.000000      6.000000
  0.500000  0.000000  0.000000      3.000000
  0.083333  0.083333  0.000000     12.000000
  0.166667  0.083333  0.000000     24.000000
  0.250000  0.083333  0.000000     24.000000
  0.333333  0.083333  0.000000     24.000000
  0.416667  0.083333  0.000000     24.000000
  0.500000  0.083333  0.000000     12.000000
  0.166667  0.166667  0.000000     12.000000
  0.250000  0.166667  0.000000     24.000000
  0.333333  0.166667  0.000000     24.000000
  0.416667  0.166667  0.000000     24.000000
  0.500000  0.166667  0.000000     12.000000
  0.250000  0.250000  0.000000     12.000000
  0.333333  0.250000  0.000000     24.000000
  0.416667  0.250000  0.000000     24.000000
  0.500000  0.250000  0.000000     12.000000
  0.333333  0.333333  0.000000     12.000000
  0.416667  0.333333  0.000000     24.000000
  0.500000  0.333333  0.000000     12.000000
  0.416667  0.416667  0.000000     12.000000
  0.500000  0.416667  0.000000     12.000000
  0.500000  0.500000  0.000000      3.000000
  0.083333  0.083333  0.083333      8.000000
  0.166667  0.083333  0.083333     24.000000
  0.250000  0.083333  0.083333     24.000000
  0.333333  0.083333  0.083333     24.000000
  0.416667  0.083333  0.083333     24.000000
  0.500000  0.083333  0.083333     12.000000
  0.166667  0.166667  0.083333     24.000000
  0.250000  0.166667  0.083333     48.000000
  0.333333  0.166667  0.083333     48.000000
  0.416667  0.166667  0.083333     48.000000
  0.500000  0.166667  0.083333     24.000000
  0.250000  0.250000  0.083333     24.000000
  0.333333  0.250000  0.083333     48.000000
  0.416667  0.250000  0.083333     48.000000
  0.500000  0.250000  0.083333     24.000000
  0.333333  0.333333  0.083333     24.000000
  0.416667  0.333333  0.083333     48.000000
  0.500000  0.333333  0.083333     24.000000
  0.416667  0.416667  0.083333     24.000000
  0.500000  0.416667  0.083333     24.000000
  0.500000  0.500000  0.083333      6.000000
  0.166667  0.166667  0.166667      8.000000
  0.250000  0.166667  0.166667     24.000000
  0.333333  0.166667  0.166667     24.000000
  0.416667  0.166667  0.166667     24.000000
  0.500000  0.166667  0.166667     12.000000
  0.250000  0.250000  0.166667     24.000000
  0.333333  0.250000  0.166667     48.000000
  0.416667  0.250000  0.166667     48.000000
  0.500000  0.250000  0.166667     24.000000
  0.333333  0.333333  0.166667     24.000000
  0.416667  0.333333  0.166667     48.000000
  0.500000  0.333333  0.166667     24.000000
  0.416667  0.416667  0.166667     24.000000
  0.500000  0.416667  0.166667     24.000000
  0.500000  0.500000  0.166667      6.000000
  0.250000  0.250000  0.250000      8.000000
  0.333333  0.250000  0.250000     24.000000
  0.416667  0.250000  0.250000     24.000000
  0.500000  0.250000  0.250000     12.000000
  0.333333  0.333333  0.250000     24.000000
  0.416667  0.333333  0.250000     48.000000
  0.500000  0.333333  0.250000     24.000000
  0.416667  0.416667  0.250000     24.000000
  0.500000  0.416667  0.250000     24.000000
  0.500000  0.500000  0.250000      6.000000
  0.333333  0.333333  0.333333      8.000000
  0.416667  0.333333  0.333333     24.000000
  0.500000  0.333333  0.333333     12.000000
  0.416667  0.416667  0.333333     24.000000
  0.500000  0.416667  0.333333     24.000000
  0.500000  0.500000  0.333333      6.000000
  0.416667  0.416667  0.416667      8.000000
  0.500000  0.416667  0.416667     12.000000
  0.500000  0.500000  0.416667      6.000000
  0.500000  0.500000  0.500000      1.000000
 
 Following cartesian coordinates:
            Coordinates               Weight
  0.000000  0.000000  0.000000      1.000000
  0.019970  0.000000  0.000000      6.000000
  0.039941  0.000000  0.000000      6.000000
  0.059911  0.000000  0.000000      6.000000
  0.079881  0.000000  0.000000      6.000000
  0.099852  0.000000  0.000000      6.000000
  0.119822  0.000000  0.000000      3.000000
  0.019970  0.019970  0.000000     12.000000
  0.039941  0.019970  0.000000     24.000000
  0.059911  0.019970  0.000000     24.000000
  0.079881  0.019970  0.000000     24.000000
  0.099852  0.019970  0.000000     24.000000
  0.119822  0.019970  0.000000     12.000000
  0.039941  0.039941  0.000000     12.000000
  0.059911  0.039941  0.000000     24.000000
  0.079881  0.039941  0.000000     24.000000
  0.099852  0.039941  0.000000     24.000000
  0.119822  0.039941  0.000000     12.000000
  0.059911  0.059911  0.000000     12.000000
  0.079881  0.059911  0.000000     24.000000
  0.099852  0.059911  0.000000     24.000000
  0.119822  0.059911  0.000000     12.000000
  0.079881  0.079881  0.000000     12.000000
  0.099852  0.079881  0.000000     24.000000
  0.119822  0.079881  0.000000     12.000000
  0.099852  0.099852  0.000000     12.000000
  0.119822  0.099852  0.000000     12.000000
  0.119822  0.119822  0.000000      3.000000
  0.019970  0.019970  0.019970      8.000000
  0.039941  0.019970  0.019970     24.000000
  0.059911  0.019970  0.019970     24.000000
  0.079881  0.019970  0.019970     24.000000
  0.099852  0.019970  0.019970     24.000000
  0.119822  0.019970  0.019970     12.000000
  0.039941  0.039941  0.019970     24.000000
  0.059911  0.039941  0.019970     48.000000
  0.079881  0.039941  0.019970     48.000000
  0.099852  0.039941  0.019970     48.000000
  0.119822  0.039941  0.019970     24.000000
  0.059911  0.059911  0.019970     24.000000
  0.079881  0.059911  0.019970     48.000000
  0.099852  0.059911  0.019970     48.000000
  0.119822  0.059911  0.019970     24.000000
  0.079881  0.079881  0.019970     24.000000
  0.099852  0.079881  0.019970     48.000000
  0.119822  0.079881  0.019970     24.000000
  0.099852  0.099852  0.019970     24.000000
  0.119822  0.099852  0.019970     24.000000
  0.119822  0.119822  0.019970      6.000000
  0.039941  0.039941  0.039941      8.000000
  0.059911  0.039941  0.039941     24.000000
  0.079881  0.039941  0.039941     24.000000
  0.099852  0.039941  0.039941     24.000000
  0.119822  0.039941  0.039941     12.000000
  0.059911  0.059911  0.039941     24.000000
  0.079881  0.059911  0.039941     48.000000
  0.099852  0.059911  0.039941     48.000000
  0.119822  0.059911  0.039941     24.000000
  0.079881  0.079881  0.039941     24.000000
  0.099852  0.079881  0.039941     48.000000
  0.119822  0.079881  0.039941     24.000000
  0.099852  0.099852  0.039941     24.000000
  0.119822  0.099852  0.039941     24.000000
  0.119822  0.119822  0.039941      6.000000
  0.059911  0.059911  0.059911      8.000000
  0.079881  0.059911  0.059911     24.000000
  0.099852  0.059911  0.059911     24.000000
  0.119822  0.059911  0.059911     12.000000
  0.079881  0.079881  0.059911     24.000000
  0.099852  0.079881  0.059911     48.000000
  0.119822  0.079881  0.059911     24.000000
  0.099852  0.099852  0.059911     24.000000
  0.119822  0.099852  0.059911     24.000000
  0.119822  0.119822  0.059911      6.000000
  0.079881  0.079881  0.079881      8.000000
  0.099852  0.079881  0.079881     24.000000
  0.119822  0.079881  0.079881     12.000000
  0.099852  0.099852  0.079881     24.000000
  0.119822  0.099852  0.079881     24.000000
  0.119822  0.119822  0.079881      6.000000
  0.099852  0.099852  0.099852      8.000000
  0.119822  0.099852  0.099852     12.000000
  0.119822  0.119822  0.099852      6.000000
  0.119822  0.119822  0.119822      1.000000
 


--------------------------------------------------------------------------------------------------------




 Dimension of arrays:
   k-Points           NKPTS =     84   number of bands    NBANDS=     28
   number of dos      NEDOS =    301   number of ions     NIONS =      4
   non local maximal  LDIM  =      6   non local SUM 2l+1 LMDIM =     18
   total plane-waves  NPLWV =  64000
   max r-space proj   IRMAX =      1   max aug-charges    IRDMAX= 394500
   dimension x,y,z NGX =    40 NGY =   40 NGZ =   40
   dimension x,y,z NGXF=    80 NGYF=   80 NGZF=   80
   support grid    NGXF=   160 NGYF=  160 NGZF=  160
   ions per type =               4
 NGX,Y,Z   is equivalent  to a cutoff of  15.47, 15.47, 15.47 a.u.
 NGXF,Y,Z  is equivalent  to a cutoff of  30.94, 30.94, 30.94 a.u.


 I would recommend the setting:
   dimension x,y,z NGX =    38 NGY =   38 NGZ =   38
 SYSTEM =  unknown system                          
 POSCAR =  Au                                      

 Startparameter for this run:
   NWRITE =      2    write-flag & timer
   PREC   = accura    medium, high low
   ISTART =      0    job   : 0-new  1-cont  2-samecut
   ICHARG =      2    charge: 1-file 2-atom 10-const
   ISPIN  =      1    spin polarized calculation?
   LNONCOLLINEAR =      F non collinear calculations
   LSORBIT =      F    spin-orbit coupling
   INIWAV =      1    electr: 0-lowe 1-rand  2-diag
   LASPH  =      F    aspherical Exc in radial PAW
   METAGGA=      F    non-selfconsistent MetaGGA calc.

 Electronic Relaxation 1
   ENCUT  =  750.0 eV  55.12 Ry    7.42 a.u.   9.60  9.60  9.60*2*pi/ulx,y,z
   ENINI  =  750.0     initial cutoff
   ENAUG  =  356.7 eV  augmentation charge cutoff
   NELM   =     60;   NELMIN=  2; NELMDL=  0     # of ELM steps 
   EDIFF  = 0.1E-07   stopping-criterion for ELM
   LREAL  =      F    real-space projection
   LCOMPAT=      F    compatible to vasp.4.4
   LREAL_COMPAT= F    compatible to vasp.4.5.1-3
   GGA_COMPAT  = T    GGA compatible to vasp.4.4-vasp.4.6
   LMAXPAW     = -100 max onsite density
   LMAXMIX     =    2 max onsite mixed and CHGCAR
   VOSKOWN=      0    Vosko Wilk Nusair interpolation
   ROPT   =    0.00000
 Ionic relaxation
   EDIFFG = 0.1E-06   stopping-criterion for IOM
   NSW    =      0    number of steps for IOM
   NBLOCK =      1;   KBLOCK =      1    inner block; outer block 
   IBRION =     -1    ionic relax: 0-MD 1-quasi-New 2-CG
   NFREE  =      0    steps in history (QN), initial steepest desc. (CG)
   ISIF   =      2    stress and relaxation
   IWAVPR =     10    prediction:  0-non 1-charg 2-wave 3-comb
   ISYM   =      2    0-nonsym 1-usesym 2-fastsym
   LCORR  =      T    Harris-Foulkes like correction to forces

   POTIM  =   0.50    time-step for ionic-motion
   TEIN   =    0.0    initial temperature
   TEBEG  =    0.0;   TEEND  =   0.0 temperature during run
   SMASS  =  -3.00    Nose mass-parameter (am)
   estimated Nose-frequenzy (Omega)   =  0.10E-29 period in steps =****** mass=  -0.422E-27a.u.
   NPACO  =    256;   APACO  = 16.0  distance and # of slots for P.C.
   PSTRESS=    0.0 pullay stress

  Mass of Ions in am
   POMASS = 196.97
  Ionic Valenz
   ZVAL   =  11.00
  Atomic Wigner-Seitz radii
   RWIGS  =  -1.00
   NELECT =      44.0000    total number of electrons
   NUPDOWN=      -1.0000    fix difference up-down

 DOS related values:
   EMIN   =  10.00;   EMAX   =-10.00  energy-range for DOS
   ISMEAR =     0;   SIGMA  =   0.01  broadening in eV -4-tet -1-fermi 0-gaus

 Electronic relaxation 2 (details)
   IALGO  =     38    algorithm
   LDIAG  =      T    sub-space diagonalisation
   IMIX   =      4    mixing-type and parameters
     AMIX     =   0.40;   BMIX     =  1.00
     AMIX_MAG =   1.60;   BMIX_MAG =  1.00
     AMIN     =   0.10
     WC   =   100.;   INIMIX=   1;  MIXPRE=   1

 Intra band minimization:
   WEIMIN = 0.0000     energy-eigenvalue tresh-hold
   EBREAK =  0.96E-10  absolut break condition
   DEPER  =   0.30     relativ break condition  

   TIME   =   0.10     timestep for ELM

  volume/ion in A,a.u.               =      19.85       133.95
  Fermi-wavevector in a.u.,eV,Ry     =   1.344690 24.601937  1.808191

 Second variation
   LSECVAR=     F    do a second variation
 
 Write flags
   LWAVE  =      F    write WAVECAR
   LCHARG =      F    write CHGCAR
   LVTOT  =      F    write LOCPOT, local potential
   LELF   =      F    write electronic localiz. function (ELF)
   LORBIT =      0    0 simple, 1 ext, 2 COOP (PROOUT)


 Dipole corrections
   IDIPOL =      0    1-x, 2-y, 3-z
   LDIPOL =      F    correct potential



--------------------------------------------------------------------------------------------------------


 Static calculation
 charge density will be updated during run
 non-spin polarized calculation
 Variant of blocked Davidson
 Davidson routine will perform the subspace rotation
 performe sub-space diagonalisation
    after iterative eigenvector-optimisation
 modified Broyden-mixing scheme, WC =      100.0
 initial mixing is a Kerker type mixing with AMIX =  0.4000 and BMIX =      1.0000
 Hartree-type preconditioning will be used
 using additional bands            6
 reciprocal scheme for non local part
 use partial core corrections
 calculate Harris-corrections to forces 
   (improved forces if not selfconsistent)
 use gradient corrections 
 use of overlap-Matrix (Vanderbilt PP)
 Gauss-broadening in eV      SIGMA  =   0.01


--------------------------------------------------------------------------------------------------------


  energy-cutoff  :      750.00
  volume of cell :       79.40
      direct lattice vectors                 reciprocal lattice vectors
     4.298037459  0.000000000  0.000000000     0.232664329  0.000000000  0.000000000
     0.000000000  4.298037459  0.000000000     0.000000000  0.232664329  0.000000000
     0.000000000  0.000000000  4.298037459     0.000000000  0.000000000  0.232664329

  length of vectors
     4.298037459  4.298037459  4.298037459     0.232664329  0.232664329  0.232664329


 
 k-points in units of 2pi/SCALE and weight: Automatic mesh                          
   0.00000000  0.00000000  0.00000000       0.001
   0.01997035  0.00000000  0.00000000       0.003
   0.03994071  0.00000000  0.00000000       0.003
   0.05991106  0.00000000  0.00000000       0.003
   0.07988142  0.00000000  0.00000000       0.003
   0.09985177  0.00000000  0.00000000       0.003
   0.11982213  0.00000000  0.00000000       0.002
   0.01997035  0.01997035  0.00000000       0.007
   0.03994071  0.01997035  0.00000000       0.014
   0.05991106  0.01997035  0.00000000       0.014
   0.07988142  0.01997035  0.00000000       0.014
   0.09985177  0.01997035  0.00000000       0.014
   0.11982213  0.01997035  0.00000000       0.007
   0.03994071  0.03994071  0.00000000       0.007
   0.05991106  0.03994071  0.00000000       0.014
   0.07988142  0.03994071  0.00000000       0.014
   0.09985177  0.03994071  0.00000000       0.014
   0.11982213  0.03994071  0.00000000       0.007
   0.05991106  0.05991106  0.00000000       0.007
   0.07988142  0.05991106  0.00000000       0.014
   0.09985177  0.05991106  0.00000000       0.014
   0.11982213  0.05991106  0.00000000       0.007
   0.07988142  0.07988142  0.00000000       0.007
   0.09985177  0.07988142  0.00000000       0.014
   0.11982213  0.07988142  0.00000000       0.007
   0.09985177  0.09985177  0.00000000       0.007
   0.11982213  0.09985177  0.00000000       0.007
   0.11982213  0.11982213  0.00000000       0.002
   0.01997035  0.01997035  0.01997035       0.005
   0.03994071  0.01997035  0.01997035       0.014
   0.05991106  0.01997035  0.01997035       0.014
   0.07988142  0.01997035  0.01997035       0.014
   0.09985177  0.01997035  0.01997035       0.014
   0.11982213  0.01997035  0.01997035       0.007
   0.03994071  0.03994071  0.01997035       0.014
   0.05991106  0.03994071  0.01997035       0.028
   0.07988142  0.03994071  0.01997035       0.028
   0.09985177  0.03994071  0.01997035       0.028
   0.11982213  0.03994071  0.01997035       0.014
   0.05991106  0.05991106  0.01997035       0.014
   0.07988142  0.05991106  0.01997035       0.028
   0.09985177  0.05991106  0.01997035       0.028
   0.11982213  0.05991106  0.01997035       0.014
   0.07988142  0.07988142  0.01997035       0.014
   0.09985177  0.07988142  0.01997035       0.028
   0.11982213  0.07988142  0.01997035       0.014
   0.09985177  0.09985177  0.01997035       0.014
   0.11982213  0.09985177  0.01997035       0.014
   0.11982213  0.11982213  0.01997035       0.003
   0.03994071  0.03994071  0.03994071       0.005
   0.05991106  0.03994071  0.03994071       0.014
   0.07988142  0.03994071  0.03994071       0.014
   0.09985177  0.03994071  0.03994071       0.014
   0.11982213  0.03994071  0.03994071       0.007
   0.05991106  0.05991106  0.03994071       0.014
   0.07988142  0.05991106  0.03994071       0.028
   0.09985177  0.05991106  0.03994071       0.028
   0.11982213  0.05991106  0.03994071       0.014
   0.07988142  0.07988142  0.03994071       0.014
   0.09985177  0.07988142  0.03994071       0.028
   0.11982213  0.07988142  0.03994071       0.014
   0.09985177  0.09985177  0.03994071       0.014
   0.11982213  0.09985177  0.03994071       0.014
   0.11982213  0.11982213  0.03994071       0.003
   0.05991106  0.05991106  0.05991106       0.005
   0.07988142  0.05991106  0.05991106       0.014
   0.09985177  0.05991106  0.05991106       0.014
   0.11982213  0.05991106  0.05991106       0.007
   0.07988142  0.07988142  0.05991106       0.014
   0.09985177  0.07988142  0.05991106       0.028
   0.11982213  0.07988142  0.05991106       0.014
   0.09985177  0.09985177  0.05991106       0.014
   0.11982213  0.09985177  0.05991106       0.014
   0.11982213  0.11982213  0.05991106       0.003
   0.07988142  0.07988142  0.07988142       0.005
   0.09985177  0.07988142  0.07988142       0.014
   0.11982213  0.07988142  0.07988142       0.007
   0.09985177  0.09985177  0.07988142       0.014
   0.11982213  0.09985177  0.07988142       0.014
   0.11982213  0.11982213  0.07988142       0.003
   0.09985177  0.09985177  0.09985177       0.005
   0.11982213  0.09985177  0.09985177       0.007
   0.11982213  0.11982213  0.09985177       0.003
   0.11982213  0.11982213  0.11982213       0.001
 
 k-points in reciprocal lattice and weights: Automatic mesh                          
   0.00000000  0.00000000  0.00000000       0.001
   0.08333333  0.00000000  0.00000000       0.003
   0.16666667  0.00000000  0.00000000       0.003
   0.25000000  0.00000000  0.00000000       0.003
   0.33333333  0.00000000  0.00000000       0.003
   0.41666667  0.00000000  0.00000000       0.003
   0.50000000  0.00000000  0.00000000       0.002
   0.08333333  0.08333333  0.00000000       0.007
   0.16666667  0.08333333  0.00000000       0.014
   0.25000000  0.08333333  0.00000000       0.014
   0.33333333  0.08333333  0.00000000       0.014
   0.41666667  0.08333333  0.00000000       0.014
   0.50000000  0.08333333  0.00000000       0.007
   0.16666667  0.16666667  0.00000000       0.007
   0.25000000  0.16666667  0.00000000       0.014
   0.33333333  0.16666667  0.00000000       0.014
   0.41666667  0.16666667  0.00000000       0.014
   0.50000000  0.16666667  0.00000000       0.007
   0.25000000  0.25000000  0.00000000       0.007
   0.33333333  0.25000000  0.00000000       0.014
   0.41666667  0.25000000  0.00000000       0.014
   0.50000000  0.25000000  0.00000000       0.007
   0.33333333  0.33333333  0.00000000       0.007
   0.41666667  0.33333333  0.00000000       0.014
   0.50000000  0.33333333  0.00000000       0.007
   0.41666667  0.41666667  0.00000000       0.007
   0.50000000  0.41666667  0.00000000       0.007
   0.50000000  0.50000000  0.00000000       0.002
   0.08333333  0.08333333  0.08333333       0.005
   0.16666667  0.08333333  0.08333333       0.014
   0.25000000  0.08333333  0.08333333       0.014
   0.33333333  0.08333333  0.08333333       0.014
   0.41666667  0.08333333  0.08333333       0.014
   0.50000000  0.08333333  0.08333333       0.007
   0.16666667  0.16666667  0.08333333       0.014
   0.25000000  0.16666667  0.08333333       0.028
   0.33333333  0.16666667  0.08333333       0.028
   0.41666667  0.16666667  0.08333333       0.028
   0.50000000  0.16666667  0.08333333       0.014
   0.25000000  0.25000000  0.08333333       0.014
   0.33333333  0.25000000  0.08333333       0.028
   0.41666667  0.25000000  0.08333333       0.028
   0.50000000  0.25000000  0.08333333       0.014
   0.33333333  0.33333333  0.08333333       0.014
   0.41666667  0.33333333  0.08333333       0.028
   0.50000000  0.33333333  0.08333333       0.014
   0.41666667  0.41666667  0.08333333       0.014
   0.50000000  0.41666667  0.08333333       0.014
   0.50000000  0.50000000  0.08333333       0.003
   0.16666667  0.16666667  0.16666667       0.005
   0.25000000  0.16666667  0.16666667       0.014
   0.33333333  0.16666667  0.16666667       0.014
   0.41666667  0.16666667  0.16666667       0.014
   0.50000000  0.16666667  0.16666667       0.007
   0.25000000  0.25000000  0.16666667       0.014
   0.33333333  0.25000000  0.16666667       0.028
   0.41666667  0.25000000  0.16666667       0.028
   0.50000000  0.25000000  0.16666667       0.014
   0.33333333  0.33333333  0.16666667       0.014
   0.41666667  0.33333333  0.16666667       0.028
   0.50000000  0.33333333  0.16666667       0.014
   0.41666667  0.41666667  0.16666667       0.014
   0.50000000  0.41666667  0.16666667       0.014
   0.50000000  0.50000000  0.16666667       0.003
   0.25000000  0.25000000  0.25000000       0.005
   0.33333333  0.25000000  0.25000000       0.014
   0.41666667  0.25000000  0.25000000       0.014
   0.50000000  0.25000000  0.25000000       0.007
   0.33333333  0.33333333  0.25000000       0.014
   0.41666667  0.33333333  0.25000000       0.028
   0.50000000  0.33333333  0.25000000       0.014
   0.41666667  0.41666667  0.25000000       0.014
   0.50000000  0.41666667  0.25000000       0.014
   0.50000000  0.50000000  0.25000000       0.003
   0.33333333  0.33333333  0.33333333       0.005
   0.41666667  0.33333333  0.33333333       0.014
   0.50000000  0.33333333  0.33333333       0.007
   0.41666667  0.41666667  0.33333333       0.014
   0.50000000  0.41666667  0.33333333       0.014
   0.50000000  0.50000000  0.33333333       0.003
   0.41666667  0.41666667  0.41666667       0.005
   0.50000000  0.41666667  0.41666667       0.007
   0.50000000  0.50000000  0.41666667       0.003
   0.50000000  0.50000000  0.50000000       0.001
 
 position of ions in fractional coordinates (direct lattice) 
   0.00000000  0.00000000  0.00000000
   0.50000000  0.50000000  0.00000000
   0.50000000  0.00000000  0.50000000
   0.00000000  0.50000000  0.50000000
 
 position of ions in cartesian coordinates  (Angst):
   0.00000000  0.00000000  0.00000000
   2.14901873  2.14901873  0.00000000
   2.14901873  0.00000000  2.14901873
   0.00000000  2.14901873  2.14901873
 


--------------------------------------------------------------------------------------------------------


 k-point  1 :  0.00000.00000.0000  plane waves:   3743
 k-point  2 :  0.08330.00000.0000  plane waves:   3743
 k-point  3 :  0.16670.00000.0000  plane waves:   3755
 k-point  4 :  0.25000.00000.0000  plane waves:   3719
 k-point  5 :  0.33330.00000.0000  plane waves:   3727
 k-point  6 :  0.41670.00000.0000  plane waves:   3708
 k-point  7 :  0.50000.00000.0000  plane waves:   3668
 k-point  8 :  0.08330.08330.0000  plane waves:   3751
 k-point  9 :  0.16670.08330.0000  plane waves:   3733
 k-point 10 :  0.25000.08330.0000  plane waves:   3716
 k-point 11 :  0.33330.08330.0000  plane waves:   3701
 k-point 12 :  0.41670.08330.0000  plane waves:   3693
 k-point 13 :  0.50000.08330.0000  plane waves:   3698
 k-point 14 :  0.16670.16670.0000  plane waves:   3731
 k-point 15 :  0.25000.16670.0000  plane waves:   3710
 k-point 16 :  0.33330.16670.0000  plane waves:   3692
 k-point 17 :  0.41670.16670.0000  plane waves:   3700
 k-point 18 :  0.50000.16670.0000  plane waves:   3700
 k-point 19 :  0.25000.25000.0000  plane waves:   3708
 k-point 20 :  0.33330.25000.0000  plane waves:   3700
 k-point 21 :  0.41670.25000.0000  plane waves:   3698
 k-point 22 :  0.50000.25000.0000  plane waves:   3712
 k-point 23 :  0.33330.33330.0000  plane waves:   3696
 k-point 24 :  0.41670.33330.0000  plane waves:   3690
 k-point 25 :  0.50000.33330.0000  plane waves:   3702
 k-point 26 :  0.41670.41670.0000  plane waves:   3684
 k-point 27 :  0.50000.41670.0000  plane waves:   3694
 k-point 28 :  0.50000.50000.0000  plane waves:   3676
 k-point 29 :  0.08330.08330.0833  plane waves:   3737
 k-point 30 :  0.16670.08330.0833  plane waves:   3729
 k-point 31 :  0.25000.08330.0833  plane waves:   3718
 k-point 32 :  0.33330.08330.0833  plane waves:   3704
 k-point 33 :  0.41670.08330.0833  plane waves:   3697
 k-point 34 :  0.50000.08330.0833  plane waves:   3694
 k-point 35 :  0.16670.16670.0833  plane waves:   3715
 k-point 36 :  0.25000.16670.0833  plane waves:   3705
 k-point 37 :  0.33330.16670.0833  plane waves:   3696
 k-point 38 :  0.41670.16670.0833  plane waves:   3701
 k-point 39 :  0.50000.16670.0833  plane waves:   3696
 k-point 40 :  0.25000.25000.0833  plane waves:   3706
 k-point 41 :  0.33330.25000.0833  plane waves:   3705
 k-point 42 :  0.41670.25000.0833  plane waves:   3701
 k-point 43 :  0.50000.25000.0833  plane waves:   3698
 k-point 44 :  0.33330.33330.0833  plane waves:   3706
 k-point 45 :  0.41670.33330.0833  plane waves:   3698
 k-point 46 :  0.50000.33330.0833  plane waves:   3706
 k-point 47 :  0.41670.41670.0833  plane waves:   3694
 k-point 48 :  0.50000.41670.0833  plane waves:   3698
 k-point 49 :  0.50000.50000.0833  plane waves:   3688
 k-point 50 :  0.16670.16670.1667  plane waves:   3713
 k-point 51 :  0.25000.16670.1667  plane waves:   3699
 k-point 52 :  0.33330.16670.1667  plane waves:   3697
 k-point 53 :  0.41670.16670.1667  plane waves:   3706
 k-point 54 :  0.50000.16670.1667  plane waves:   3712
 k-point 55 :  0.25000.25000.1667  plane waves:   3708
 k-point 56 :  0.33330.25000.1667  plane waves:   3706
 k-point 57 :  0.41670.25000.1667  plane waves:   3705
 k-point 58 :  0.50000.25000.1667  plane waves:   3716
 k-point 59 :  0.33330.33330.1667  plane waves:   3702
 k-point 60 :  0.41670.33330.1667  plane waves:   3702
 k-point 61 :  0.50000.33330.1667  plane waves:   3714
 k-point 62 :  0.41670.41670.1667  plane waves:   3699
 k-point 63 :  0.50000.41670.1667  plane waves:   3688
 k-point 64 :  0.50000.50000.1667  plane waves:   3688
 k-point 65 :  0.25000.25000.2500  plane waves:   3683
 k-point 66 :  0.33330.25000.2500  plane waves:   3705
 k-point 67 :  0.41670.25000.2500  plane waves:   3704
 k-point 68 :  0.50000.25000.2500  plane waves:   3708
 k-point 69 :  0.33330.33330.2500  plane waves:   3692
 k-point 70 :  0.41670.33330.2500  plane waves:   3694
 k-point 71 :  0.50000.33330.2500  plane waves:   3702
 k-point 72 :  0.41670.41670.2500  plane waves:   3710
 k-point 73 :  0.50000.41670.2500  plane waves:   3698
 k-point 74 :  0.50000.50000.2500  plane waves:   3700
 k-point 75 :  0.33330.33330.3333  plane waves:   3710
 k-point 76 :  0.41670.33330.3333  plane waves:   3696
 k-point 77 :  0.50000.33330.3333  plane waves:   3680
 k-point 78 :  0.41670.41670.3333  plane waves:   3690
 k-point 79 :  0.50000.41670.3333  plane waves:   3696
 k-point 80 :  0.50000.50000.3333  plane waves:   3708
 k-point 81 :  0.41670.41670.4167  plane waves:   3695
 k-point 82 :  0.50000.41670.4167  plane waves:   3692
 k-point 83 :  0.50000.50000.4167  plane waves:   3700
 k-point 84 :  0.50000.50000.5000  plane waves:   3648

 maximum and minimum number of plane-waves per node :   3755  3648

 maximum number of plane-waves:   3755
 maximal index in each direction: 
   IXMAX=  9   IYMAX=  9   IZMAX=  9
   IXMIN=-10   IYMIN=-10   IZMIN=-10

 NGX is ok and might be reduce to  40
 NGY is ok and might be reduce to  40
 NGZ is ok and might be reduce to  40

 parallel 3dFFT wavefunction:
    minimum data exchange during FFTs selected (reduces bandwidth)
 parallel 3dFFT charge:
    minimum data exchange during FFTs selected (reduces bandwidth)

 For storing wavefunctions  139.38 MBYTES are necessary
 For predicting wavefunctions    4.72 MBYTES are necessary
Broyden mixing: mesh for mixing (old mesh)
   NGX = 19   NGY = 19   NGZ = 19
  (NGX  = 80   NGY  = 80   NGZ  = 80)
 gives a total of   6859 points
 initial charge density was supplied:
 charge density of overlapping atoms calculated
 number of electron   44.0000000 magnetization 
 keeping initial charge density in first step


--------------------------------------------------------------------------------------------------------


 Maximum index for augmentation-charges        95759 (set IRDMAX)


--------------------------------------------------------------------------------------------------------


 First call to EWALD:  gamma=   0.412
 Maximum number of real-space cells 3x 3x 3
 Maximum number of reciprocal cells 3x 3x 3

    FEWALD:  VPU time    0.00: CPU time    0.00


----------------------------------------- Iteration    1(   1)  ---------------------------------------


    POTLOK:  VPU time    0.23: CPU time    0.23
    SETDIJ:  VPU time    0.88: CPU time    0.88
    EDDAV :  VPU time   20.02: CPU time   20.08
    DOS   :  VPU time    0.00: CPU time   -0.00
    ------------------------------------------
      LOOP:  VPU time   21.15: CPU time   21.21

 eigenvalue-minimisations  :  4704
 total energy-change (2. order) : 0.5262524E+03  (-0.2661958E+04)
 number of electron   44.0000000 magnetization 
 augmentation part    44.0000000 magnetization 

 Free energy of the ion-electron system (eV)
  ---------------------------------------------------
  alpha Z        PSCENC =       377.40315396
  Ewald energy   TEWEN  =     -3717.29923953
  -1/2 Hartree   DENC   =      -576.26572815
  -V(xc)+E(xc)   XCENC  =        59.47452155
  PAW double counting   =      2990.04966927    -2896.51663641
  entropy T*S    EENTRO =        -0.00022181
  eigenvalues    EBANDS =       585.18318233
  atomic energy  EATOM  =      3704.22372399
  ---------------------------------------------------
  free energy    TOTEN  =       526.25242519 eV

  energy without entropy =      526.25264700  energy(sigma->0) =      526.25253610


--------------------------------------------------------------------------------------------------------




----------------------------------------- Iteration    1(   2)  ---------------------------------------


    EDDAV :  VPU time   20.05: CPU time   20.13
    DOS   :  VPU time    0.00: CPU time   -0.00
    ------------------------------------------
      LOOP:  VPU time   20.07: CPU time   20.16

 eigenvalue-minimisations  :  4732
 total energy-change (2. order) :-0.5151893E+03  (-0.4899869E+03)
 number of electron   44.0000000 magnetization 
 augmentation part    44.0000000 magnetization 

 Free energy of the ion-electron system (eV)
  ---------------------------------------------------
  alpha Z        PSCENC =       377.40315396
  Ewald energy   TEWEN  =     -3717.29923953
  -1/2 Hartree   DENC   =      -576.26572815
  -V(xc)+E(xc)   XCENC  =        59.47452155
  PAW double counting   =      2990.04966927    -2896.51663641
  entropy T*S    EENTRO =        -0.00002455
  eigenvalues    EBANDS =        69.99364670
  atomic energy  EATOM  =      3704.22372399
  ---------------------------------------------------
  free energy    TOTEN  =        11.06308682 eV

  energy without entropy =       11.06311137  energy(sigma->0) =       11.06309910


--------------------------------------------------------------------------------------------------------




----------------------------------------- Iteration    1(   3)  ---------------------------------------


    EDDAV :  VPU time   21.62: CPU time   21.73
    DOS   :  VPU time   -0.00: CPU time   -0.00
    ------------------------------------------
      LOOP:  VPU time   21.63: CPU time   21.74

 eigenvalue-minimisations  :  5304
 total energy-change (2. order) :-0.2437824E+02  (-0.2331825E+02)
 number of electron   44.0000000 magnetization 
 augmentation part    44.0000000 magnetization 

 Free energy of the ion-electron system (eV)
  ---------------------------------------------------
  alpha Z        PSCENC =       377.40315396
  Ewald energy   TEWEN  =     -3717.29923953
  -1/2 Hartree   DENC   =      -576.26572815
  -V(xc)+E(xc)   XCENC  =        59.47452155
  PAW double counting   =      2990.04966927    -2896.51663641
  entropy T*S    EENTRO =        -0.00014406
  eigenvalues    EBANDS =        45.61552347
  atomic energy  EATOM  =      3704.22372399
  ---------------------------------------------------
  free energy    TOTEN  =       -13.31515591 eV

  energy without entropy =      -13.31501185  energy(sigma->0) =      -13.31508388


--------------------------------------------------------------------------------------------------------




----------------------------------------- Iteration    1(   4)  ---------------------------------------


    EDDAV :  VPU time   21.21: CPU time   21.30
    DOS   :  VPU time    0.00: CPU time   -0.00
    ------------------------------------------
      LOOP:  VPU time   21.23: CPU time   21.32

 eigenvalue-minimisations  :  4988
 total energy-change (2. order) :-0.4844050E+00  (-0.4826477E+00)
 number of electron   44.0000000 magnetization 
 augmentation part    44.0000000 magnetization 

 Free energy of the ion-electron system (eV)
  ---------------------------------------------------
  alpha Z        PSCENC =       377.40315396
  Ewald energy   TEWEN  =     -3717.29923953
  -1/2 Hartree   DENC   =      -576.26572815
  -V(xc)+E(xc)   XCENC  =        59.47452155
  PAW double counting   =      2990.04966927    -2896.51663641
  entropy T*S    EENTRO =        -0.00008545
  eigenvalues    EBANDS =        45.13105988
  atomic energy  EATOM  =      3704.22372399
  ---------------------------------------------------
  free energy    TOTEN  =       -13.79956089 eV

  energy without entropy =      -13.79947544  energy(sigma->0) =      -13.79951817


--------------------------------------------------------------------------------------------------------




----------------------------------------- Iteration    1(   5)  ---------------------------------------


    EDDAV :  VPU time   21.19: CPU time   21.23
    DOS   :  VPU time    0.00: CPU time   -0.00
    CHARGE:  VPU time    1.62: CPU time    1.62
    MIXING:  VPU time    0.01: CPU time    0.01
    ------------------------------------------
      LOOP:  VPU time   22.83: CPU time   22.88

 eigenvalue-minimisations  :  5012
 total energy-change (2. order) :-0.4595972E-02  (-0.4595403E-02)
 number of electron   44.0000001 magnetization 
 augmentation part    15.5836067 magnetization 

 Broyden mixing:
  rms(total) = 0.54517E+00    rms(broyden)= 0.54517E+00
  rms(prec ) = 0.13740E+01
  weight for this iteration     100.00

 Free energy of the ion-electron system (eV)
  ---------------------------------------------------
  alpha Z        PSCENC =       377.40315396
  Ewald energy   TEWEN  =     -3717.29923953
  -1/2 Hartree   DENC   =      -576.26572815
  -V(xc)+E(xc)   XCENC  =        59.47452155
  PAW double counting   =      2990.04966927    -2896.51663641
  entropy T*S    EENTRO =        -0.00008444
  eigenvalues    EBANDS =        45.12646291
  atomic energy  EATOM  =      3704.22372399
  ---------------------------------------------------
  free energy    TOTEN  =       -13.80415686 eV

  energy without entropy =      -13.80407242  energy(sigma->0) =      -13.80411464


--------------------------------------------------------------------------------------------------------




----------------------------------------- Iteration    1(   6)  ---------------------------------------


    POTLOK:  VPU time    0.23: CPU time    0.23
    SETDIJ:  VPU time    0.88: CPU time    0.88
    EDDAV :  VPU time   21.12: CPU time   21.17
    DOS   :  VPU time    0.00: CPU time   -0.00
    CHARGE:  VPU time    1.60: CPU time    1.60
    MIXING:  VPU time    0.01: CPU time    0.01
    ------------------------------------------
      LOOP:  VPU time   23.85: CPU time   23.90

 eigenvalue-minimisations  :  4972
 total energy-change (2. order) : 0.8829765E+00  (-0.2502018E+00)
 number of electron   44.0000001 magnetization 
 augmentation part    16.1366628 magnetization 

 Broyden mixing:
  rms(total) = 0.13464E+00    rms(broyden)= 0.13464E+00
  rms(prec ) = 0.31036E+00
  weight for this iteration     100.00

 eigenvalues of (default mixing * dielectric matrix)
  average eigenvalue GAMMA=   1.1637
  1.1637

 Free energy of the ion-electron system (eV)
  ---------------------------------------------------
  alpha Z        PSCENC =       377.40315396
  Ewald energy   TEWEN  =     -3717.29923953
  -1/2 Hartree   DENC   =      -545.12174957
  -V(xc)+E(xc)   XCENC  =        58.09309566
  PAW double counting   =      2943.27381798    -2853.59035969
  entropy T*S    EENTRO =        -0.00013907
  eigenvalues    EBANDS =        20.09651590
  atomic energy  EATOM  =      3704.22372399
  ---------------------------------------------------
  free energy    TOTEN  =       -12.92118037 eV

  energy without entropy =      -12.92104130  energy(sigma->0) =      -12.92111084


--------------------------------------------------------------------------------------------------------




----------------------------------------- Iteration    1(   7)  ---------------------------------------


    POTLOK:  VPU time    0.23: CPU time    0.23
    SETDIJ:  VPU time    0.88: CPU time    0.88
    EDDAV :  VPU time   21.16: CPU time   21.24
    DOS   :  VPU time    0.00: CPU time   -0.00
    CHARGE:  VPU time    1.59: CPU time    1.59
    MIXING:  VPU time    0.01: CPU time    0.01
    ------------------------------------------
      LOOP:  VPU time   23.88: CPU time   23.96

 eigenvalue-minimisations  :  5024
 total energy-change (2. order) : 0.3892025E-01  (-0.1201815E-01)
 number of electron   44.0000001 magnetization 
 augmentation part    16.2458214 magnetization 

 Broyden mixing:
  rms(total) = 0.62627E-01    rms(broyden)= 0.62627E-01
  rms(prec ) = 0.99343E-01
  weight for this iteration     100.00

 eigenvalues of (default mixing * dielectric matrix)
  average eigenvalue GAMMA=   1.8164
  1.1681  2.4647

 Free energy of the ion-electron system (eV)
  ---------------------------------------------------
  alpha Z        PSCENC =       377.40315396
  Ewald energy   TEWEN  =     -3717.29923953
  -1/2 Hartree   DENC   =      -537.18304425
  -V(xc)+E(xc)   XCENC  =        57.72299107
  PAW double counting   =      2941.38405734    -2853.91589692
  entropy T*S    EENTRO =        -0.00013909
  eigenvalues    EBANDS =        14.78213330
  atomic energy  EATOM  =      3704.22372399
  ---------------------------------------------------
  free energy    TOTEN  =       -12.88226013 eV

  energy without entropy =      -12.88212104  energy(sigma->0) =      -12.88219058


--------------------------------------------------------------------------------------------------------




----------------------------------------- Iteration    1(   8)  ---------------------------------------


    POTLOK:  VPU time    0.23: CPU time    0.23
    SETDIJ:  VPU time    0.88: CPU time    0.88
    EDDAV :  VPU time   20.66: CPU time   20.67
    DOS   :  VPU time    0.00: CPU time   -0.00
    CHARGE:  VPU time    1.61: CPU time    1.61
    MIXING:  VPU time    0.01: CPU time    0.01
    ------------------------------------------
      LOOP:  VPU time   23.40: CPU time   23.41

 eigenvalue-minimisations  :  4808
 total energy-change (2. order) : 0.7399124E-02  (-0.6691939E-03)
 number of electron   44.0000001 magnetization 
 augmentation part    16.2450885 magnetization 

 Broyden mixing:
  rms(total) = 0.43264E-02    rms(broyden)= 0.43263E-02
  rms(prec ) = 0.71397E-02
  weight for this iteration     100.00

 eigenvalues of (default mixing * dielectric matrix)
  average eigenvalue GAMMA=   1.7671
  2.6054  1.1874  1.5084

 Free energy of the ion-electron system (eV)
  ---------------------------------------------------
  alpha Z        PSCENC =       377.40315396
  Ewald energy   TEWEN  =     -3717.29923953
  -1/2 Hartree   DENC   =      -534.12046929
  -V(xc)+E(xc)   XCENC  =        57.55905674
  PAW double counting   =      2953.99619386    -2868.53918113
  entropy T*S    EENTRO =        -0.00013909
  eigenvalues    EBANDS =        13.90203949
  atomic energy  EATOM  =      3704.22372399
  ---------------------------------------------------
  free energy    TOTEN  =       -12.87486100 eV

  energy without entropy =      -12.87472191  energy(sigma->0) =      -12.87479146


--------------------------------------------------------------------------------------------------------




----------------------------------------- Iteration    1(   9)  ---------------------------------------


    POTLOK:  VPU time    0.23: CPU time    0.23
    SETDIJ:  VPU time    0.88: CPU time    0.88
    EDDAV :  VPU time   21.50: CPU time   21.51
    DOS   :  VPU time    0.00: CPU time   -0.00
    CHARGE:  VPU time    1.60: CPU time    1.60
    MIXING:  VPU time    0.01: CPU time    0.01
    ------------------------------------------
      LOOP:  VPU time   24.23: CPU time   24.24

 eigenvalue-minimisations  :  5092
 total energy-change (2. order) :-0.6238165E-04  (-0.2993915E-04)
 number of electron   44.0000001 magnetization 
 augmentation part    16.2506943 magnetization 

 Broyden mixing:
  rms(total) = 0.24719E-02    rms(broyden)= 0.24719E-02
  rms(prec ) = 0.49170E-02
  weight for this iteration     100.00

 eigenvalues of (default mixing * dielectric matrix)
  average eigenvalue GAMMA=   1.7905
  0.9820  1.1341  2.5229  2.5229

 Free energy of the ion-electron system (eV)
  ---------------------------------------------------
  alpha Z        PSCENC =       377.40315396
  Ewald energy   TEWEN  =     -3717.29923953
  -1/2 Hartree   DENC   =      -533.89742773
  -V(xc)+E(xc)   XCENC  =        57.54784971
  PAW double counting   =      2955.05628997    -2869.54527704
  entropy T*S    EENTRO =        -0.00013910
  eigenvalues    EBANDS =        13.63614238
  atomic energy  EATOM  =      3704.22372399
  ---------------------------------------------------
  free energy    TOTEN  =       -12.87492338 eV

  energy without entropy =      -12.87478429  energy(sigma->0) =      -12.87485384


--------------------------------------------------------------------------------------------------------




----------------------------------------- Iteration    1(  10)  ---------------------------------------


    POTLOK:  VPU time    0.23: CPU time    0.23
    SETDIJ:  VPU time    0.88: CPU time    0.88
    EDDAV :  VPU time   20.50: CPU time   20.51
    DOS   :  VPU time    0.00: CPU time   -0.00
    CHARGE:  VPU time    1.61: CPU time    1.61
    MIXING:  VPU time    0.01: CPU time    0.01
    ------------------------------------------
      LOOP:  VPU time   23.24: CPU time   23.25

 eigenvalue-minimisations  :  4828
 total energy-change (2. order) :-0.8093549E-05  (-0.3040713E-05)
 number of electron   44.0000001 magnetization 
 augmentation part    16.2497247 magnetization 

 Broyden mixing:
  rms(total) = 0.27852E-03    rms(broyden)= 0.27852E-03
  rms(prec ) = 0.50023E-03
  weight for this iteration     100.00

 eigenvalues of (default mixing * dielectric matrix)
  average eigenvalue GAMMA=   1.7847
  2.9250  2.4147  1.0243  1.1245  1.4350

 Free energy of the ion-electron system (eV)
  ---------------------------------------------------
  alpha Z        PSCENC =       377.40315396
  Ewald energy   TEWEN  =     -3717.29923953
  -1/2 Hartree   DENC   =      -534.05875604
  -V(xc)+E(xc)   XCENC  =        57.55410063
  PAW double counting   =      2956.24075956    -2870.62967245
  entropy T*S    EENTRO =        -0.00013910
  eigenvalues    EBANDS =        13.69113750
  atomic energy  EATOM  =      3704.22372399
  ---------------------------------------------------
  free energy    TOTEN  =       -12.87493148 eV

  energy without entropy =      -12.87479238  energy(sigma->0) =      -12.87486193


--------------------------------------------------------------------------------------------------------




----------------------------------------- Iteration    1(  11)  ---------------------------------------


    POTLOK:  VPU time    0.22: CPU time    0.22
    SETDIJ:  VPU time    0.88: CPU time    0.88
    EDDAV :  VPU time   21.11: CPU time   21.11
    DOS   :  VPU time    0.00: CPU time   -0.00
    CHARGE:  VPU time    1.61: CPU time    1.62
    MIXING:  VPU time    0.01: CPU time    0.01
    ------------------------------------------
      LOOP:  VPU time   23.85: CPU time   23.86

 eigenvalue-minimisations  :  5024
 total energy-change (2. order) :-0.1400273E-05  (-0.8791875E-07)
 number of electron   44.0000001 magnetization 
 augmentation part    16.2495551 magnetization 

 Broyden mixing:
  rms(total) = 0.99342E-04    rms(broyden)= 0.99342E-04
  rms(prec ) = 0.16265E-03
  weight for this iteration     100.00

 eigenvalues of (default mixing * dielectric matrix)
  average eigenvalue GAMMA=   1.8537
  2.9348  2.5326  2.5326  1.1201  1.0012  1.0012

 Free energy of the ion-electron system (eV)
  ---------------------------------------------------
  alpha Z        PSCENC =       377.40315396
  Ewald energy   TEWEN  =     -3717.29923953
  -1/2 Hartree   DENC   =      -534.06176867
  -V(xc)+E(xc)   XCENC  =        57.55397982
  PAW double counting   =      2956.35901110    -2870.74704690
  entropy T*S    EENTRO =        -0.00013910
  eigenvalues    EBANDS =        13.69339246
  atomic energy  EATOM  =      3704.22372399
  ---------------------------------------------------
  free energy    TOTEN  =       -12.87493288 eV

  energy without entropy =      -12.87479378  energy(sigma->0) =      -12.87486333


--------------------------------------------------------------------------------------------------------




----------------------------------------- Iteration    1(  12)  ---------------------------------------


    POTLOK:  VPU time    0.23: CPU time    0.23
    SETDIJ:  VPU time    0.88: CPU time    0.88
    EDDAV :  VPU time   20.72: CPU time   20.73
    DOS   :  VPU time    0.00: CPU time   -0.00
    CHARGE:  VPU time    1.59: CPU time    1.59
    MIXING:  VPU time    0.01: CPU time    0.01
    ------------------------------------------
      LOOP:  VPU time   23.45: CPU time   23.46

 eigenvalue-minimisations  :  4848
 total energy-change (2. order) : 0.5599854E-06  (-0.6713518E-08)
 number of electron   44.0000001 magnetization 
 augmentation part    16.2495686 magnetization 

 Broyden mixing:
  rms(total) = 0.53969E-05    rms(broyden)= 0.53967E-05
  rms(prec ) = 0.99278E-05
  weight for this iteration     100.00

 eigenvalues of (default mixing * dielectric matrix)
  average eigenvalue GAMMA=   1.7610
  2.9503  2.5453  2.5453  0.9986  1.1371  1.0752  1.0752

 Free energy of the ion-electron system (eV)
  ---------------------------------------------------
  alpha Z        PSCENC =       377.40315396
  Ewald energy   TEWEN  =     -3717.29923953
  -1/2 Hartree   DENC   =      -534.06219482
  -V(xc)+E(xc)   XCENC  =        57.55404916
  PAW double counting   =      2956.23411505    -2870.62233055
  entropy T*S    EENTRO =        -0.00013910
  eigenvalues    EBANDS =        13.69392952
  atomic energy  EATOM  =      3704.22372399
  ---------------------------------------------------
  free energy    TOTEN  =       -12.87493232 eV

  energy without entropy =      -12.87479322  energy(sigma->0) =      -12.87486277


--------------------------------------------------------------------------------------------------------




----------------------------------------- Iteration    1(  13)  ---------------------------------------


    POTLOK:  VPU time    0.22: CPU time    0.23
    SETDIJ:  VPU time    0.88: CPU time    0.88
    EDDAV :  VPU time   14.22: CPU time   14.23
    DOS   :  VPU time   -0.00: CPU time   -0.00
    ------------------------------------------
      LOOP:  VPU time   15.34: CPU time   15.34

 eigenvalue-minimisations  :  2592
 total energy-change (2. order) : 0.5832590E-08  (-0.4739087E-10)
 number of electron   44.0000001 magnetization 
 augmentation part    16.2495686 magnetization 

 Free energy of the ion-electron system (eV)
  ---------------------------------------------------
  alpha Z        PSCENC =       377.40315396
  Ewald energy   TEWEN  =     -3717.29923953
  -1/2 Hartree   DENC   =      -534.06236395
  -V(xc)+E(xc)   XCENC  =        57.55405767
  PAW double counting   =      2956.23499211    -2870.62318761
  entropy T*S    EENTRO =        -0.00013910
  eigenvalues    EBANDS =        13.69407014
  atomic energy  EATOM  =      3704.22372399
  ---------------------------------------------------
  free energy    TOTEN  =       -12.87493231 eV

  energy without entropy =      -12.87479322  energy(sigma->0) =      -12.87486276


--------------------------------------------------------------------------------------------------------




 average (electrostatic) potential at core
  the test charge radii are     1.2098
  (the norm of the test charge is              1.0000)
       1 -46.8733       2 -46.8733       3 -46.8733       4 -46.8733
 
 
 
 E-fermi :   3.9119     XC(G=0): -11.8227     alpha+bet : -8.7429
   add alpha+bet to get absolut eigen values

 k-point   1 :       0.0000    0.0000    0.0000
  band No.  band energies     occupation 
      1      -4.4075      2.00000
      2      -1.8827      2.00000
      3      -1.8827      2.00000
      4      -1.8827      2.00000
      5      -1.6504      2.00000
      6      -1.6504      2.00000
      7      -1.6504      2.00000
      8      -0.0605      2.00000
      9      -0.0605      2.00000
     10      -0.0605      2.00000
     11       1.0964      2.00000
     12       1.0964      2.00000
     13       1.9762      2.00000
     14       1.9762      2.00000
     15       1.9762      2.00000
     16       2.2561      2.00000
     17       2.2561      2.00000
     18       2.2561      2.00000
     19       2.2561      2.00000
     20       2.2561      2.00000
     21       2.2561      2.00000
     22       5.3750      0.00000
     23       5.3750      0.00000
     24       5.3750      0.00000
     25       8.6262      0.00000
     26       8.6262      0.00000
     27       8.6262      0.00000
     28      13.6355      0.00000

 k-point   2 :       0.0833    0.0000    0.0000
  band No.  band energies     occupation 
      1      -4.3366      2.00000
      2      -1.8609      2.00000
      3      -1.8383      2.00000
      4      -1.8383      2.00000
      5      -1.6267      2.00000
      6      -1.6145      2.00000
      7      -1.6145      2.00000
      8      -0.0919      2.00000
      9      -0.0316      2.00000
     10      -0.0316      2.00000
     11       1.0634      2.00000
     12       1.1105      2.00000
     13       1.9298      2.00000
     14       1.9298      2.00000
     15       1.9601      2.00000
     16       2.0681      2.00000
     17       2.0681      2.00000
     18       2.1989      2.00000
     19       2.1989      2.00000
     20       2.2562      2.00000
     21       2.2562      2.00000
     22       4.7494      0.00000
     23       5.6170      0.00000
     24       5.6170      0.00000
     25       8.5788      0.00000
     26       8.5788      0.00000
     27       9.3781      0.00000
     28      13.4874      0.00000

 k-point   3 :       0.1667    0.0000    0.0000
  band No.  band energies     occupation 
      1      -4.1261      2.00000
      2      -1.8034      2.00000
      3      -1.7100      2.00000
      4      -1.7100      2.00000
      5      -1.5569      2.00000
      6      -1.5070      2.00000
      7      -1.5070      2.00000
      8      -0.1830      2.00000
      9       0.0543      2.00000
     10       0.0543      2.00000
     11       0.9688      2.00000
     12       1.1517      2.00000
     13       1.6256      2.00000
     14       1.6256      2.00000
     15       1.7947      2.00000
     16       1.7947      2.00000
     17       1.9132      2.00000
     18       2.0373      2.00000
     19       2.0373      2.00000
     20       2.2564      2.00000
     21       2.2564      2.00000
     22       3.5953      2.00000
     23       6.2200      0.00000
     24       6.2200      0.00000
     25       8.4509      0.00000
     26       8.4509      0.00000
     27      10.9166      0.00000
     28      13.0532      0.00000

 k-point   4 :       0.2500    0.0000    0.0000
  band No.  band energies     occupation 
      1      -3.7837      2.00000
      2      -1.7376      2.00000
      3      -1.5136      2.00000
      4      -1.5136      2.00000
      5      -1.4441      2.00000
      6      -1.3283      2.00000
      7      -1.3283      2.00000
      8      -0.3246      2.00000
      9       0.1953      2.00000
     10       0.1953      2.00000
     11       0.8270      2.00000
     12       1.0958      2.00000
     13       1.0958      2.00000
     14       1.2179      2.00000
     15       1.5856      2.00000
     16       1.5856      2.00000
     17       1.7966      2.00000
     18       1.7966      2.00000
     19       1.8394      2.00000
     20       2.2568      2.00000
     21       2.2568      2.00000
     22       2.4460      2.00000
     23       7.0125      0.00000
     24       7.0125      0.00000
     25       8.2804      0.00000
     26       8.2804      0.00000
     27      12.4081      0.00000
     28      12.4081      0.00000

 k-point   5 :       0.3333    0.0000    0.0000
  band No.  band energies     occupation 
      1      -3.3267      2.00000
      2      -1.7250      2.00000
      3      -1.2936      2.00000
      4      -1.2821      2.00000
      5      -1.2821      2.00000
      6      -1.0793      2.00000
      7      -1.0793      2.00000
      8      -0.5037      2.00000
      9       0.3880      2.00000
     10       0.3880      2.00000
     11       0.5639      2.00000
     12       0.5639      2.00000
     13       0.6655      2.00000
     14       1.3052      2.00000
     15       1.3374      2.00000
     16       1.3374      2.00000
     17       1.4736      2.00000
     18       1.5083      2.00000
     19       1.5083      2.00000
     20       1.7445      2.00000
     21       2.2571      2.00000
     22       2.2571      2.00000
     23       7.9015      0.00000
     24       7.9015      0.00000
     25       8.1161      0.00000
     26       8.1161      0.00000
     27      11.6145      0.00000
     28      11.6145      0.00000

 k-point   6 :       0.4167    0.0000    0.0000
  band No.  band energies     occupation 
      1      -2.7919      2.00000
      2      -1.8745      2.00000
      3      -1.1132      2.00000
      4      -1.0766      2.00000
      5      -1.0766      2.00000
      6      -0.7615      2.00000
      7      -0.7615      2.00000
      8      -0.7049      2.00000
      9       0.0670      2.00000
     10       0.0670      2.00000
     11       0.5350      2.00000
     12       0.6265      2.00000
     13       0.6265      2.00000
     14       0.8107      2.00000
     15       1.1173      2.00000
     16       1.1173      2.00000
     17       1.2021      2.00000
     18       1.2021      2.00000
     19       1.4084      2.00000
     20       1.6357      2.00000
     21       2.2573      2.00000
     22       2.2573      2.00000
     23       8.0002      0.00000
     24       8.0002      0.00000
     25       8.8388      0.00000
     26       8.8388      0.00000
     27      10.7278      0.00000
     28      10.7278      0.00000

 k-point   7 :       0.5000    0.0000    0.0000
  band No.  band energies     occupation 
      1      -2.2607      2.00000
      2      -2.2607      2.00000
      3      -0.9895      2.00000
      4      -0.9895      2.00000
      5      -0.9128      2.00000
      6      -0.9128      2.00000
      7      -0.3778      2.00000
      8      -0.3778      2.00000
      9      -0.3778      2.00000
     10      -0.3778      2.00000
     11       0.5316      2.00000
     12       0.5316      2.00000
     13       0.9022      2.00000
     14       0.9022      2.00000
     15       0.9022      2.00000
     16       0.9022      2.00000
     17       1.0243      2.00000
     18       1.0243      2.00000
     19       1.5210      2.00000
     20       1.5210      2.00000
     21       2.2574      2.00000
     22       2.2574      2.00000
     23       7.9588      0.00000
     24       7.9588      0.00000
     25       9.7911      0.00000
     26       9.7911      0.00000
     27       9.7911      0.00000
     28       9.7911      0.00000

 k-point   8 :       0.0833    0.0833    0.0000
  band No.  band energies     occupation 
      1      -4.2664      2.00000
      2      -1.8161      2.00000
      3      -1.8161      2.00000
      4      -1.8003      2.00000
      5      -1.5913      2.00000
      6      -1.5913      2.00000
      7      -1.5741      2.00000
      8      -0.1044      2.00000
      9      -0.0209      2.00000
     10      -0.0052      2.00000
     11       1.0548      2.00000
     12       1.1032      2.00000
     13       1.8818      2.00000
     14       1.8818      2.00000
     15       1.8860      2.00000
     16       1.9387      2.00000
     17       2.0337      2.00000
     18       2.0337      2.00000
     19       2.1989      2.00000
     20       2.1989      2.00000
     21       2.2179      2.00000
     22       4.9820      0.00000
     23       4.9820      0.00000
     24       5.8391      0.00000
     25       8.5247      0.00000
     26       9.3394      0.00000
     27       9.3394      0.00000
     28      12.9125      0.00000

 k-point   9 :       0.1667    0.0833    0.0000
  band No.  band energies     occupation 
      1      -4.0580      2.00000
      2      -1.7572      2.00000
      3      -1.6899      2.00000
      4      -1.6864      2.00000
      5      -1.5229      2.00000
      6      -1.4852      2.00000
      7      -1.4543      2.00000
      8      -0.1840      2.00000
      9       0.0560      2.00000
     10       0.0726      2.00000
     11       0.9732      2.00000
     12       1.1411      2.00000
     13       1.5026      2.00000
     14       1.5513      2.00000
     15       1.7162      2.00000
     16       1.7578      2.00000
     17       1.8295      2.00000
     18       1.9554      2.00000
     19       2.0368      2.00000
     20       2.1981      2.00000
     21       2.1986      2.00000
     22       3.8580      2.00000
     23       5.5272      0.00000
     24       6.4080      0.00000
     25       8.3753      0.00000
     26       9.2444      0.00000
     27      10.8465      0.00000
     28      12.2879      0.00000

 k-point  10 :       0.2500    0.0833    0.0000
  band No.  band energies     occupation 
      1      -3.7192      2.00000
      2      -1.6891      2.00000
      3      -1.5165      2.00000
      4      -1.4875      2.00000
      5      -1.4123      2.00000
      6      -1.3090      2.00000
      7      -1.2624      2.00000
      8      -0.3199      2.00000
      9       0.1949      2.00000
     10       0.1958      2.00000
     11       0.8439      2.00000
     12       0.9840      2.00000
     13       1.0543      2.00000
     14       1.2152      2.00000
     15       1.4178      2.00000
     16       1.5586      2.00000
     17       1.6177      2.00000
     18       1.7956      2.00000
     19       1.8479      2.00000
     20       2.1939      2.00000
     21       2.1981      2.00000
     22       2.8061      2.00000
     23       6.1755      0.00000
     24       7.1737      0.00000
     25       8.1667      0.00000
     26       9.1575      0.00000
     27      11.6846      0.00000
     28      12.5344      0.00000

 k-point  11 :       0.3333    0.0833    0.0000
  band No.  band energies     occupation 
      1      -3.2670      2.00000
      2      -1.6742      2.00000
      3      -1.2960      2.00000
      4      -1.2649      2.00000
      5      -1.2520      2.00000
      6      -1.0636      2.00000
      7      -1.0168      2.00000
      8      -0.4936      2.00000
      9       0.3360      2.00000
     10       0.3867      2.00000
     11       0.4673      2.00000
     12       0.5434      2.00000
     13       0.7251      2.00000
     14       0.9924      2.00000
     15       1.3149      2.00000
     16       1.3214      2.00000
     17       1.3703      2.00000
     18       1.5069      2.00000
     19       1.6740      2.00000
     20       2.0581      2.00000
     21       2.1935      2.00000
     22       2.1974      2.00000
     23       6.7832      0.00000
     24       7.9431      0.00000
     25       8.0447      0.00000
     26       9.1839      0.00000
     27      11.0959      0.00000
     28      11.7355      0.00000

 k-point  12 :       0.4167    0.0833    0.0000
  band No.  band energies     occupation 
      1      -2.7377      2.00000
      2      -1.8234      2.00000
      3      -1.0884      2.00000
      4      -1.0721      2.00000
      5      -1.0422      2.00000
      6      -0.7509      2.00000
      7      -0.7394      2.00000
      8      -0.6896      2.00000
      9      -0.0064      2.00000
     10       0.0606      2.00000
     11       0.3815      2.00000
     12       0.5755      2.00000
     13       0.6249      2.00000
     14       0.7724      2.00000
     15       1.1140      2.00000
     16       1.1447      2.00000
     17       1.2004      2.00000
     18       1.3460      2.00000
     19       1.4347      2.00000
     20       1.7349      2.00000
     21       2.1942      2.00000
     22       2.1965      2.00000
     23       7.2370      0.00000
     24       7.7330      0.00000
     25       8.9702      0.00000
     26       9.4336      0.00000
     27      10.4975      0.00000
     28      10.8488      0.00000

 k-point  13 :       0.5000    0.0833    0.0000
  band No.  band energies     occupation 
      1      -2.2099      2.00000
      2      -2.2099      2.00000
      3      -0.9591      2.00000
      4      -0.9591      2.00000
      5      -0.8926      2.00000
      6      -0.8926      2.00000
      7      -0.4126      2.00000
      8      -0.4126      2.00000
      9      -0.3743      2.00000
     10      -0.3743      2.00000
     11       0.3844      2.00000
     12       0.3844      2.00000
     13       0.9004      2.00000
     14       0.9004      2.00000
     15       1.0153      2.00000
     16       1.0153      2.00000
     17       1.0371      2.00000
     18       1.0371      2.00000
     19       1.5712      2.00000
     20       1.5712      2.00000
     21       2.1954      2.00000
     22       2.1954      2.00000
     23       7.5225      0.00000
     24       7.5225      0.00000
     25       9.9107      0.00000
     26       9.9107      0.00000
     27       9.9154      0.00000
     28       9.9154      0.00000

 k-point  14 :       0.1667    0.1667    0.0000
  band No.  band energies     occupation 
      1      -3.8561      2.00000
      2      -1.6232      2.00000
      3      -1.6232      2.00000
      4      -1.6200      2.00000
      5      -1.4210      2.00000
      6      -1.4210      2.00000
      7      -1.3110      2.00000
      8      -0.2192      2.00000
      9       0.0953      2.00000
     10       0.1257      2.00000
     11       0.9451      2.00000
     12       1.1553      2.00000
     13       1.2433      2.00000
     14       1.2433      2.00000
     15       1.3054      2.00000
     16       1.6489      2.00000
     17       1.8283      2.00000
     18       1.8283      2.00000
     19       2.0354      2.00000
     20       2.0354      2.00000
     21       2.1054      2.00000
     22       4.4072      0.00000
     23       4.4072      0.00000
     24       6.9110      0.00000
     25       8.1588      0.00000
     26      10.6547      0.00000
     27      10.6547      0.00000
     28      11.5656      0.00000

 k-point  15 :       0.2500    0.1667    0.0000
  band No.  band energies     occupation 
      1      -3.5282      2.00000
      2      -1.5480      2.00000
      3      -1.4900      2.00000
      4      -1.4164      2.00000
      5      -1.3174      2.00000
      6      -1.2520      2.00000
      7      -1.1045      2.00000
      8      -0.3206      2.00000
      9       0.2025      2.00000
     10       0.2103      2.00000
     11       0.7259      2.00000
     12       0.8553      2.00000
     13       0.9008      2.00000
     14       0.9181      2.00000
     15       1.2433      2.00000
     16       1.4765      2.00000
     17       1.6412      2.00000
     18       1.7509      2.00000
     19       1.7928      2.00000
     20       2.0330      2.00000
     21       2.0542      2.00000
     22       3.3886      2.00000
     23       5.0220      0.00000
     24       7.6186      0.00000
     25       7.8356      0.00000
     26      10.4037      0.00000
     27      11.0004      0.00000
     28      12.1079      0.00000

 k-point  16 :       0.3333    0.1667    0.0000
  band No.  band energies     occupation 
      1      -3.0912      2.00000
      2      -1.5260      2.00000
      3      -1.2999      2.00000
      4      -1.1797      2.00000
      5      -1.1681      2.00000
      6      -1.0176      2.00000
      7      -0.8712      2.00000
      8      -0.4708      2.00000
      9       0.2370      2.00000
     10       0.2600      2.00000
     11       0.3914      2.00000
     12       0.4763      2.00000
     13       0.5241      2.00000
     14       0.7874      2.00000
     15       1.2692      2.00000
     16       1.3824      2.00000
     17       1.4106      2.00000
     18       1.5032      2.00000
     19       1.5891      2.00000
     20       2.0302      2.00000
     21       2.0334      2.00000
     22       2.6059      2.00000
     23       5.6192      0.00000
     24       7.4562      0.00000
     25       8.4473      0.00000
     26      10.1853      0.00000
     27      10.5816      0.00000
     28      12.0847      0.00000

 k-point  17 :       0.4167    0.1667    0.0000
  band No.  band energies     occupation 
      1      -2.5790      2.00000
      2      -1.6757      2.00000
      3      -1.0653      2.00000
      4      -1.0153      2.00000
      5      -0.9426      2.00000
      6      -0.7205      2.00000
      7      -0.6653      2.00000
      8      -0.6477      2.00000
      9      -0.1893      2.00000
     10       0.0385      2.00000
     11       0.2268      2.00000
     12       0.2416      2.00000
     13       0.6245      2.00000
     14       0.8604      2.00000
     15       1.0943      2.00000
     16       1.1857      2.00000
     17       1.1966      2.00000
     18       1.3442      2.00000
     19       1.5599      2.00000
     20       2.0264      2.00000
     21       2.0274      2.00000
     22       2.0963      2.00000
     23       6.1592      0.00000
     24       7.0557      0.00000
     25       9.3443      0.00000
     26      10.0771      0.00000
     27      10.2864      0.00000
     28      11.1971      0.00000

 k-point  18 :       0.5000    0.1667    0.0000
  band No.  band energies     occupation 
      1      -2.0631      2.00000
      2      -2.0631      2.00000
      3      -0.8781      2.00000
      4      -0.8781      2.00000
      5      -0.8339      2.00000
      6      -0.8339      2.00000
      7      -0.4945      2.00000
      8      -0.4945      2.00000
      9      -0.3656      2.00000
     10      -0.3656      2.00000
     11       0.1677      2.00000
     12       0.1677      2.00000
     13       0.8975      2.00000
     14       0.8975      2.00000
     15       1.0540      2.00000
     16       1.0540      2.00000
     17       1.0724      2.00000
     18       1.0724      2.00000
     19       1.7827      2.00000
     20       1.7827      2.00000
     21       2.0255      2.00000
     22       2.0255      2.00000
     23       6.6321      0.00000
     24       6.6321      0.00000
     25      10.1127      0.00000
     26      10.1127      0.00000
     27      10.2719      0.00000
     28      10.2719      0.00000

 k-point  19 :       0.2500    0.2500    0.0000
  band No.  band energies     occupation 
      1      -3.2192      2.00000
      2      -1.4078      2.00000
      3      -1.3278      2.00000
      4      -1.3278      2.00000
      5      -1.1606      2.00000
      6      -1.1606      2.00000
      7      -0.8978      2.00000
      8      -0.3612      2.00000
      9       0.2180      2.00000
     10       0.2805      2.00000
     11       0.4061      2.00000
     12       0.4061      2.00000
     13       0.6749      2.00000
     14       0.8067      2.00000
     15       1.3412      2.00000
     16       1.3620      2.00000
     17       1.5899      2.00000
     18       1.5899      2.00000
     19       1.7888      2.00000
     20       1.7888      2.00000
     21       1.9250      2.00000
     22       3.9915      0.00000
     23       3.9915      0.00000
     24       7.3430      0.00000
     25       8.2677      0.00000
     26      10.5655      0.00000
     27      11.5378      0.00000
     28      11.5378      0.00000

 k-point  20 :       0.3333    0.2500    0.0000
  band No.  band energies     occupation 
      1      -2.8091      2.00000
      2      -1.2941      2.00000
      3      -1.2644      2.00000
      4      -1.0566      2.00000
      5      -1.0400      2.00000
      6      -0.9447      2.00000
      7      -0.6845      2.00000
      8      -0.4566      2.00000
      9      -0.0403      2.00000
     10       0.1033      2.00000
     11       0.2108      2.00000
     12       0.3497      2.00000
     13       0.4267      2.00000
     14       0.7566      2.00000
     15       1.1733      2.00000
     16       1.3847      2.00000
     17       1.4465      2.00000
     18       1.4989      2.00000
     19       1.5603      2.00000
     20       1.7850      2.00000
     21       1.8448      2.00000
     22       3.1632      2.00000
     23       4.5804      0.00000
     24       6.7847      0.00000
     25       9.0497      0.00000
     26      10.3371      0.00000
     27      11.0077      0.00000
     28      12.5266      0.00000

 k-point  21 :       0.4167    0.2500    0.0000
  band No.  band energies     occupation 
      1      -2.3292      2.00000
      2      -1.4507      2.00000
      3      -1.0598      2.00000
      4      -0.8977      2.00000
      5      -0.7921      2.00000
      6      -0.6742      2.00000
      7      -0.5911      2.00000
      8      -0.5373      2.00000
      9      -0.4201      2.00000
     10      -0.0497      2.00000
     11      -0.0077      2.00000
     12       0.1249      2.00000
     13       0.6394      2.00000
     14       0.8142      2.00000
     15       1.0363      2.00000
     16       1.1735      2.00000
     17       1.1945      2.00000
     18       1.2277      2.00000
     19       1.7834      2.00000
     20       1.8046      2.00000
     21       1.8151      2.00000
     22       2.5585      2.00000
     23       5.1438      0.00000
     24       6.2281      0.00000
     25       9.9132      0.00000
     26      10.2718      0.00000
     27      10.6042      0.00000
     28      11.7358      0.00000

 k-point  22 :       0.5000    0.2500    0.0000
  band No.  band energies     occupation 
      1      -1.8391      2.00000
      2      -1.8391      2.00000
      3      -0.8069      2.00000
      4      -0.8069      2.00000
      5      -0.7437      2.00000
      6      -0.7437      2.00000
      7      -0.5411      2.00000
      8      -0.5411      2.00000
      9      -0.3572      2.00000
     10      -0.3572      2.00000
     11      -0.0028      2.00000
     12      -0.0028      2.00000
     13       0.9012      2.00000
     14       0.9012      2.00000
     15       0.9919      2.00000
     16       0.9919      2.00000
     17       1.0298      2.00000
     18       1.0298      2.00000
     19       1.7879      2.00000
     20       1.7879      2.00000
     21       2.1332      2.00000
     22       2.1332      2.00000
     23       5.6868      0.00000
     24       5.6868      0.00000
     25      10.3587      0.00000
     26      10.3587      0.00000
     27      10.8196      0.00000
     28      10.8196      0.00000

 k-point  23 :       0.3333    0.3333    0.0000
  band No.  band energies     occupation 
      1      -2.4394      2.00000
      2      -1.1808      2.00000
      3      -1.0073      2.00000
      4      -1.0073      2.00000
      5      -0.8504      2.00000
      6      -0.8504      2.00000
      7      -0.4968      2.00000
      8      -0.4765      2.00000
      9      -0.2601      2.00000
     10      -0.2601      2.00000
     11       0.1564      2.00000
     12       0.1716      2.00000
     13       0.5224      2.00000
     14       0.6876      2.00000
     15       1.0412      2.00000
     16       1.2635      2.00000
     17       1.2635      2.00000
     18       1.4976      2.00000
     19       1.4976      2.00000
     20       1.6875      2.00000
     21       1.8258      2.00000
     22       3.7176      2.00000
     23       3.7176      2.00000
     24       6.0820      0.00000
     25       9.7915      0.00000
     26      10.2946      0.00000
     27      11.7518      0.00000
     28      11.7518      0.00000

 k-point  24 :       0.4167    0.3333    0.0000
[...]
     14       0.9028      2.00000
     15       0.9028      2.00000
     16       0.9028      2.00000
     17       1.6790      2.00000
     18       1.6790      2.00000
     19       1.6790      2.00000
     20       1.6790      2.00000
     21       3.5515      2.00000
     22       3.5515      2.00000
     23       3.5515      2.00000
     24       3.5515      2.00000
     25       8.3548      0.00000
     26       8.3548      0.00000
     27       8.3548      0.00000
     28       8.3548      0.00000

 k-point  75 :       0.3333    0.3333    0.3333
  band No.  band energies     occupation 
      1      -2.2786      2.00000
      2      -1.6287      2.00000
      3      -1.6287      2.00000
      4      -1.6287      2.00000
      5      -0.3350      2.00000
      6      -0.3350      2.00000
      7      -0.3350      2.00000
      8       0.0646      2.00000
      9       0.0646      2.00000
     10       0.3694      2.00000
     11       0.3694      2.00000
     12       0.3694      2.00000
     13       0.5454      2.00000
     14       0.5454      2.00000
     15       0.5454      2.00000
     16       0.6894      2.00000
     17       1.5761      2.00000
     18       1.5761      2.00000
     19       2.0451      2.00000
     20       2.0451      2.00000
     21       2.0451      2.00000
     22       4.5417      0.00000
     23       4.5417      0.00000
     24       4.5417      0.00000
     25       7.5623      0.00000
     26       7.5623      0.00000
     27       7.5623      0.00000
     28      10.9870      0.00000

 k-point  76 :       0.4167    0.3333    0.3333
  band No.  band energies     occupation 
      1      -2.1614      2.00000
      2      -1.8269      2.00000
      3      -1.6942      2.00000
      4      -1.6942      2.00000
      5      -0.3149      2.00000
      6      -0.3149      2.00000
      7      -0.2089      2.00000
      8       0.0012      2.00000
      9       0.0609      2.00000
     10       0.2177      2.00000
     11       0.2716      2.00000
     12       0.2716      2.00000
     13       0.7043      2.00000
     14       0.8184      2.00000
     15       0.8184      2.00000
     16       0.9391      2.00000
     17       1.7794      2.00000
     18       1.8266      2.00000
     19       1.9964      2.00000
     20       1.9964      2.00000
     21       2.0250      2.00000
     22       3.4653      2.00000
     23       4.9734      0.00000
     24       4.9734      0.00000
     25       6.7283      0.00000
     26       6.7283      0.00000
     27       8.2761      0.00000
     28       9.9950      0.00000

 k-point  77 :       0.5000    0.3333    0.3333
  band No.  band energies     occupation 
      1      -2.0089      2.00000
      2      -2.0089      2.00000
      3      -1.7160      2.00000
      4      -1.7160      2.00000
      5      -0.3104      2.00000
      6      -0.3104      2.00000
      7      -0.0920      2.00000
      8      -0.0920      2.00000
      9       0.1128      2.00000
     10       0.1128      2.00000
     11       0.2401      2.00000
     12       0.2401      2.00000
     13       0.8620      2.00000
     14       0.8620      2.00000
     15       0.9350      2.00000
     16       0.9350      2.00000
     17       1.9337      2.00000
     18       1.9337      2.00000
     19       1.9589      2.00000
     20       1.9589      2.00000
     21       2.5352      2.00000
     22       2.5352      2.00000
     23       5.2572      0.00000
     24       5.2572      0.00000
     25       6.3085      0.00000
     26       6.3085      0.00000
     27       9.0902      0.00000
     28       9.0902      0.00000

 k-point  78 :       0.4167    0.4167    0.3333
  band No.  band energies     occupation 
      1      -2.1210      2.00000
      2      -1.8827      2.00000
      3      -1.8827      2.00000
      4      -1.8159      2.00000
      5      -0.2497      2.00000
      6      -0.2010      2.00000
      7      -0.2010      2.00000
      8      -0.0211      2.00000
      9       0.0097      2.00000
     10       0.1322      2.00000
     11       0.1322      2.00000
     12       0.1556      2.00000
     13       1.0628      2.00000
     14       1.0628      2.00000
     15       1.1095      2.00000
     16       1.3646      2.00000
     17       1.7181      2.00000
     18       1.9724      2.00000
     19       1.9876      2.00000
     20       1.9876      2.00000
     21       2.2178      2.00000
     22       3.8794      2.00000
     23       3.8794      2.00000
     24       4.9480      0.00000
     25       6.2990      0.00000
     26       7.3763      0.00000
     27       7.3763      0.00000
     28       9.0165      0.00000

 k-point  79 :       0.5000    0.4167    0.3333
  band No.  band energies     occupation 
      1      -2.0274      2.00000
      2      -2.0274      2.00000
      3      -1.8790      2.00000
      4      -1.8790      2.00000
      5      -0.2109      2.00000
      6      -0.2109      2.00000
      7      -0.0980      2.00000
      8      -0.0980      2.00000
      9       0.0421      2.00000
     10       0.0421      2.00000
     11       0.1079      2.00000
     12       0.1079      2.00000
     13       1.2298      2.00000
     14       1.2298      2.00000
     15       1.2841      2.00000
     16       1.2841      2.00000
     17       1.8839      2.00000
     18       1.8839      2.00000
     19       1.9393      2.00000
     20       1.9393      2.00000
     21       2.9303      2.00000
     22       2.9303      2.00000
     23       4.4274      0.00000
     24       4.4274      0.00000
     25       6.6640      0.00000
     26       6.6640      0.00000
     27       8.1424      0.00000
     28       8.1424      0.00000

 k-point  80 :       0.5000    0.5000    0.3333
  band No.  band energies     occupation 
      1      -1.9839      2.00000
      2      -1.9839      2.00000
      3      -1.9839      2.00000
      4      -1.9839      2.00000
      5      -0.1323      2.00000
      6      -0.1323      2.00000
      7      -0.1323      2.00000
      8      -0.1323      2.00000
      9       0.0350      2.00000
     10       0.0350      2.00000
     11       0.0350      2.00000
     12       0.0350      2.00000
     13       1.4209      2.00000
     14       1.4209      2.00000
     15       1.4209      2.00000
     16       1.4209      2.00000
     17       1.8571      2.00000
     18       1.8571      2.00000
     19       1.8571      2.00000
     20       1.8571      2.00000
     21       3.5839      2.00000
     22       3.5839      2.00000
     23       3.5839      2.00000
     24       3.5839      2.00000
     25       7.3265      0.00000
     26       7.3265      0.00000
     27       7.3265      0.00000
     28       7.3265      0.00000

 k-point  81 :       0.4167    0.4167    0.4167
  band No.  band energies     occupation 
      1      -2.1426      2.00000
      2      -1.9871      2.00000
      3      -1.9871      2.00000
      4      -1.9871      2.00000
      5      -0.1599      2.00000
      6      -0.1599      2.00000
      7      -0.1599      2.00000
      8      -0.0394      2.00000
      9      -0.0394      2.00000
     10       0.0360      2.00000
     11       0.0360      2.00000
     12       0.0360      2.00000
     13       1.4298      2.00000
     14       1.4298      2.00000
     15       1.4298      2.00000
     16       1.8883      2.00000
     17       1.8883      2.00000
     18       2.0216      2.00000
     19       2.0216      2.00000
     20       2.0216      2.00000
     21       2.2886      2.00000
     22       4.0809      0.00000
     23       4.0809      0.00000
     24       4.0809      0.00000
     25       6.6024      0.00000
     26       6.6024      0.00000
     27       6.6024      0.00000
     28       8.0622      0.00000

 k-point  82 :       0.5000    0.4167    0.4167
  band No.  band energies     occupation 
      1      -2.0976      2.00000
      2      -2.0976      2.00000
      3      -2.0221      2.00000
      4      -2.0221      2.00000
      5      -0.1426      2.00000
      6      -0.1426      2.00000
      7      -0.0866      2.00000
      8      -0.0866      2.00000
      9      -0.0303      2.00000
     10      -0.0303      2.00000
     11       0.0005      2.00000
     12       0.0005      2.00000
     13       1.5971      2.00000
     14       1.5971      2.00000
     15       1.7101      2.00000
     16       1.7101      2.00000
     17       1.9929      2.00000
     18       1.9929      2.00000
     19       1.9988      2.00000
     20       1.9988      2.00000
     21       3.1186      2.00000
     22       3.1186      2.00000
     23       4.1950      0.00000
     24       4.1950      0.00000
     25       6.2879      0.00000
     26       6.2879      0.00000
     27       7.2468      0.00000
     28       7.2468      0.00000

 k-point  83 :       0.5000    0.5000    0.4167
  band No.  band energies     occupation 
      1      -2.0958      2.00000
      2      -2.0958      2.00000
      3      -2.0958      2.00000
      4      -2.0958      2.00000
      5      -0.0944      2.00000
      6      -0.0944      2.00000
      7      -0.0944      2.00000
      8      -0.0944      2.00000
      9      -0.0513      2.00000
     10      -0.0513      2.00000
     11      -0.0513      2.00000
     12      -0.0513      2.00000
     13       1.8423      2.00000
     14       1.8423      2.00000
     15       1.8423      2.00000
     16       1.8423      2.00000
     17       1.9730      2.00000
     18       1.9730      2.00000
     19       1.9730      2.00000
     20       1.9730      2.00000
     21       3.6231      2.00000
     22       3.6231      2.00000
     23       3.6231      2.00000
     24       3.6231      2.00000
     25       6.5776      0.00000
     26       6.5776      0.00000
     27       6.5776      0.00000
     28       6.5776      0.00000

 k-point  84 :       0.5000    0.5000    0.5000
  band No.  band energies     occupation 
      1      -2.1335      2.00000
      2      -2.1335      2.00000
      3      -2.1335      2.00000
      4      -2.1335      2.00000
      5      -0.0806      2.00000
      6      -0.0806      2.00000
      7      -0.0806      2.00000
      8      -0.0806      2.00000
      9      -0.0806      2.00000
     10      -0.0806      2.00000
     11      -0.0806      2.00000
     12      -0.0806      2.00000
     13       2.0132      2.00000
     14       2.0132      2.00000
     15       2.0132      2.00000
     16       2.0132      2.00000
     17       2.0132      2.00000
     18       2.0132      2.00000
     19       2.0132      2.00000
     20       2.0132      2.00000
     21       3.6454      2.00000
     22       3.6454      2.00000
     23       3.6454      2.00000
     24       3.6454      2.00000
     25       6.2879      0.00000
     26       6.2879      0.00000
     27       6.2879      0.00000
     28       6.2879      0.00000


--------------------------------------------------------------------------------------------------------


 soft charge-density along one line, spin component           1
         0         1         2         3         4         5         6         7         8         9
 total charge-density along one line
 
 pseudopotential strength for first ion, spin component:           1
-10.376  -0.000  -0.000  -0.000  -0.000  -0.021   0.000   0.000
 -0.000 -10.376   0.000  -0.000   0.000   0.000  -0.021  -0.000
 -0.000   0.000 -10.363   0.000  -0.000   0.000  -0.000  -0.023
 -0.000  -0.000   0.000 -10.376  -0.000   0.000   0.000  -0.000
 -0.000   0.000  -0.000  -0.000 -10.363   0.000  -0.000   0.000
 -0.021   0.000   0.000   0.000   0.000   0.273  -0.000   0.000
  0.000  -0.021  -0.000   0.000  -0.000  -0.000   0.273   0.000
  0.000  -0.000  -0.023  -0.000   0.000   0.000   0.000   0.273
  0.000   0.000  -0.000  -0.021   0.000  -0.000  -0.000   0.000
  0.000  -0.000   0.000   0.000  -0.023  -0.000   0.000  -0.000
  0.000   0.000  -0.000   0.000  -0.000   0.000   0.000  -0.000
 -0.000  -0.000   0.000  -0.000   0.000   0.000   0.000  -0.000
  0.000  -0.000   0.000   0.000   0.000  -0.000   0.000  -0.000
  0.000  -0.000  -0.000   0.000  -0.000  -0.000   0.000   0.000
 -0.000   0.000  -0.000  -0.000   0.000   0.000  -0.000   0.000
 -0.000   0.000  -0.000  -0.000  -0.000   0.000  -0.000   0.000
 -0.000   0.000   0.000  -0.000   0.000   0.000  -0.000  -0.000
  0.000  -0.000   0.000   0.000  -0.000  -0.000   0.000  -0.000
 total augmentation occupancy for first ion, spin component:           1
  1.853  -0.013  -0.008  -0.001  -0.017  -0.045   0.011  -0.016   0.002   0.015   0.022  -0.017  -0.000   0.000  -0.000  -0.000
 -0.013   1.957  -0.003  -0.016  -0.003   0.011  -0.105   0.007   0.016  -0.011   0.066   0.006  -0.000  -0.000   0.000  -0.000
 -0.008  -0.003   1.924   0.006  -0.024  -0.016   0.007  -0.075  -0.002   0.023  -0.068  -0.058  -0.000  -0.000  -0.000   0.000
 -0.001  -0.016   0.006   1.924  -0.003   0.002   0.016  -0.002  -0.054   0.013   0.026  -0.003  -0.000   0.000  -0.000  -0.000
 -0.017  -0.003  -0.024  -0.003   1.986   0.015  -0.011   0.023   0.013  -0.129   0.101   0.039   0.000   0.000  -0.000   0.000
 -0.045   0.011  -0.016   0.002   0.015   0.162  -0.007   0.033  -0.000  -0.011   0.028   0.033  -0.000  -0.000  -0.000  -0.000
  0.011  -0.105   0.007   0.016  -0.011  -0.007   0.146  -0.010  -0.011   0.020  -0.022   0.017  -0.000  -0.000  -0.000  -0.000
 -0.016   0.007  -0.075  -0.002   0.023   0.033  -0.010   0.123  -0.002  -0.002   0.109   0.003  -0.000  -0.000  -0.000  -0.000
  0.002   0.016  -0.002  -0.054   0.013  -0.000  -0.011  -0.002   0.103  -0.019   0.002   0.016  -0.000  -0.000  -0.000   0.000
  0.015  -0.011   0.023   0.013  -0.129  -0.011   0.020  -0.002  -0.019   0.093  -0.084   0.012  -0.000   0.000  -0.000  -0.000
  0.022   0.066  -0.068   0.026   0.101   0.028  -0.022   0.109   0.002  -0.084   1.009  -0.297   0.000  -0.000   0.000   0.000
 -0.017   0.006  -0.058  -0.003   0.039   0.033   0.017   0.003   0.016   0.012  -0.297   0.170  -0.000   0.000  -0.000  -0.000
 -0.000  -0.000  -0.000  -0.000   0.000  -0.000  -0.000  -0.000  -0.000  -0.000   0.000  -0.000   0.105   0.014  -0.005  -0.008
  0.000  -0.000  -0.000   0.000   0.000  -0.000  -0.000  -0.000  -0.000   0.000  -0.000   0.000   0.014   0.086   0.000  -0.001
 -0.000   0.000  -0.000  -0.000  -0.000  -0.000  -0.000  -0.000  -0.000  -0.000   0.000  -0.000  -0.005   0.000   0.156  -0.000
 -0.000  -0.000   0.000  -0.000   0.000  -0.000  -0.000  -0.000   0.000  -0.000   0.000  -0.000  -0.008  -0.001  -0.000   0.001
  0.000  -0.000  -0.000  -0.000   0.000   0.000  -0.000  -0.000   0.000  -0.000  -0.000   0.000  -0.001  -0.006  -0.000   0.000
 -0.000   0.000  -0.000  -0.000  -0.000  -0.000  -0.000   0.000  -0.000  -0.000   0.000  -0.000  -0.000  -0.000  -0.011   0.000


------------------------ aborting loop because EDIFF is reached ----------------------------------------




--------------------------------------------------------------------------------------------------------


    CHARGE:  VPU time    1.36: CPU time    1.36
    FORLOC:  VPU time    0.01: CPU time    0.01
    FORNL :  VPU time    8.64: CPU time    8.64
    STRESS:  VPU time    9.91: CPU time    9.91
    FORCOR:  VPU time    0.13: CPU time    0.13
    FORHAR:  VPU time    0.03: CPU time    0.03
    MIXING:  VPU time    0.00: CPU time    0.00


--------------------------------------------------------------------------------------------------------



  FREE ENERGIE OF THE ION-ELECTRON SYSTEM (eV)
  ---------------------------------------------------
  free  energy   TOTEN  =       -12.874932 eV

  energy  without entropy=      -12.874793  energy(sigma->0) =      -12.874863
 

  FORCE on cell =-STRESS in cart. coord.  units (eV/reduce length):
  Direction    X        Y        Z        XY       YZ       ZX
  --------------------------------------------------------------------------------------
  Alpha Z    377.40    377.40    377.40
  Ewald    -1239.10  -1239.10  -1239.10      0.00     -0.00      0.00
  Hartree    178.02    178.02    178.02     -0.00     -0.00     -0.00
  E(xc)     -197.28   -197.28   -197.28      0.00     -0.00     -0.00
  Local      301.12    301.12    301.12      0.00     -0.00      0.00
  n-local   -195.18   -211.39   -215.14      1.23      5.16      1.96
  augment    172.10    172.10    172.10     -0.00     -0.00     -0.00
  Kinetic    614.59    610.30    606.26     -3.71     -1.38     -2.26
  -------------------------------------------------------------------------------------
  Total       -4.60     -4.60     -4.60     -0.00      0.00      0.00
  in kB      -92.78    -92.78    -92.78     -0.00      0.00      0.00
  external pressure =      -92.78 kB  Pullay stress =        0.00 kB


 VOLUME and BASIS-vectors are now :
 -----------------------------------------------------------------------------
  energy-cutoff  :      750.00
  volume of cell :       79.40
      direct lattice vectors                 reciprocal lattice vectors
     4.298037459  0.000000000  0.000000000     0.232664329  0.000000000  0.000000000
     0.000000000  4.298037459  0.000000000     0.000000000  0.232664329  0.000000000
     0.000000000  0.000000000  4.298037459     0.000000000  0.000000000  0.232664329

  length of vectors
     4.298037459  4.298037459  4.298037459     0.232664329  0.232664329  0.232664329


 FORCES acting on ions
    electron-ion (+dipol)            ewald-force                    non-local-force                 convergence-correction
 -----------------------------------------------------------------------------------------------
   0.805E-14 0.104E-13 0.430E-14   -.645E-14 -.668E-14 -.484E-14   0.000E+00 0.258E-25 -.982E-24   -.532E-13 -.521E-13 -.541E-13
   -.531E-13 -.722E-12 -.201E-11   0.582E-14 0.330E-14 -.473E-14   0.000E+00 0.000E+00 0.310E-24   0.316E-13 0.350E-13 -.559E-13
   -.531E-13 0.102E-13 -.273E-11   0.411E-14 -.176E-14 0.576E-14   -.103E-24 0.103E-24 0.129E-25   0.300E-13 -.564E-13 0.412E-13
   0.784E-14 -.511E-13 -.574E-13   0.447E-15 0.822E-14 0.587E-14   0.000E+00 0.000E+00 0.517E-25   -.524E-13 0.349E-13 0.390E-13
 -----------------------------------------------------------------------------------------------
   -.903E-13 -.753E-12 -.480E-11   0.393E-14 0.308E-14 0.206E-14   -.103E-24 0.129E-24 -.607E-24   -.440E-13 -.386E-13 -.298E-13
 
 
 POSITION                                       TOTAL-FORCE (eV/Angst)
 -----------------------------------------------------------------------------------
      0.00000      0.00000      0.00000         0.000000      0.000000      0.000000
      2.14902      2.14902      0.00000         0.000000     -0.000000      0.000000
      2.14902      0.00000      2.14902         0.000000      0.000000     -0.000000
      0.00000      2.14902      2.14902         0.000000     -0.000000     -0.000000
 -----------------------------------------------------------------------------------
    total drift:                               -0.000000     -0.000000     -0.000000


--------------------------------------------------------------------------------------------------------



 mean value of Nose-termostat <S>:     1.000 mean value of <T> :     0.000
 mean temperature <T/S>/<1/S>  :     0.000

     LOOP+:  VPU time  308.28: CPU time  308.89
  
  
 General timing and accounting informations for this job:
 ========================================================
  
                  Total CPU time used (sec):      313.322
                            User time (sec):      278.806
                          System time (sec):       34.517
                         Elapsed time (sec):      314.055
  
                   Maximum memory used (kb):      488884.
                   Average memory used (kb):           0.
  
                          Minor page faults:       172815
                          Major page faults:            0
                 Voluntary context switches:          803
