<?xml version="1.0" encoding="ISO-8859-1"?>
<modeling>
 <generator>
  <i name="program" type="string">vasp</i>
  <i name="version" type="string">4.6.28 </i>
  <i name="subversion" type="string">25Jul05 complex  parallel</i>
  <i name="platform" type="string">LinuxIFC</i>
  <i name="date" type="string">2017 01 06</i>
  <i name="time" type="string">05:31:27</i>
 </generator>
 <incar>
  <i type="string" name="PREC">accurate</i>
  <i type="int" name="IALGO">    38</i>
  <i type="logical" name="ADDGRID"> T  </i>
  <i name="EDIFF">      0.00000001</i>
  <i type="int" name="IBRION">    -1</i>
  <i name="ENCUT">    750.00000000</i>
  <i type="logical" name="LREAL"> F  </i>
  <i type="int" name="ISMEAR">     0</i>
  <i name="SIGMA">      0.01000000</i>
  <i type="logical" name="LWAVE"> F  </i>
  <i type="logical" name="LCHARG"> F  </i>
 </incar>
 <kpoints>
  <generation param="Gamma">
   <v type="int" name="divisions">      12      12      12</v>
   <v name="usershift">      0.00000000      0.00000000      0.00000000</v>
   <v name="genvec1">      0.08333333      0.00000000      0.00000000</v>
   <v name="genvec2">      0.00000000      0.08333333      0.00000000</v>
   <v name="genvec3">      0.00000000      0.00000000      0.08333333</v>
   <v name="shift">      0.00000000      0.00000000      0.00000000</v>
  </generation>
  <varray name="kpointlist" >
   <v>       0.00000000      0.00000000      0.00000000</v>
   <v>       0.08333333      0.00000000      0.00000000</v>
   <v>       0.16666667      0.00000000      0.00000000</v>
   <v>       0.25000000      0.00000000      0.00000000</v>
   <v>       0.33333333      0.00000000      0.00000000</v>
   <v>       0.41666667      0.00000000      0.00000000</v>
   <v>       0.50000000      0.00000000      0.00000000</v>
   <v>       0.08333333      0.08333333      0.00000000</v>
   <v>       0.16666667      0.08333333      0.00000000</v>
   <v>       0.25000000      0.08333333      0.00000000</v>
   <v>       0.33333333      0.08333333      0.00000000</v>
   <v>       0.41666667      0.08333333      0.00000000</v>
   <v>       0.50000000      0.08333333      0.00000000</v>
   <v>       0.16666667      0.16666667      0.00000000</v>
   <v>       0.25000000      0.16666667      0.00000000</v>
   <v>       0.33333333      0.16666667      0.00000000</v>
   <v>       0.41666667      0.16666667      0.00000000</v>
   <v>       0.50000000      0.16666667      0.00000000</v>
   <v>       0.25000000      0.25000000      0.00000000</v>
   <v>       0.33333333      0.25000000      0.00000000</v>
   <v>       0.41666667      0.25000000      0.00000000</v>
   <v>       0.50000000      0.25000000      0.00000000</v>
   <v>       0.33333333      0.33333333      0.00000000</v>
   <v>       0.41666667      0.33333333      0.00000000</v>
   <v>       0.50000000      0.33333333      0.00000000</v>
   <v>       0.41666667      0.41666667      0.00000000</v>
   <v>       0.50000000      0.41666667      0.00000000</v>
   <v>       0.50000000      0.50000000      0.00000000</v>
   <v>       0.08333333      0.08333333      0.08333333</v>
   <v>       0.16666667      0.08333333      0.08333333</v>
   <v>       0.25000000      0.08333333      0.08333333</v>
   <v>       0.33333333      0.08333333      0.08333333</v>
   <v>       0.41666667      0.08333333      0.08333333</v>
   <v>       0.50000000      0.08333333      0.08333333</v>
   <v>       0.16666667      0.16666667      0.08333333</v>
   <v>       0.25000000      0.16666667      0.08333333</v>
   <v>       0.33333333      0.16666667      0.08333333</v>
   <v>       0.41666667      0.16666667      0.08333333</v>
   <v>       0.50000000      0.16666667      0.08333333</v>
   <v>       0.25000000      0.25000000      0.08333333</v>
   <v>       0.33333333      0.25000000      0.08333333</v>
   <v>       0.41666667      0.25000000      0.08333333</v>
   <v>       0.50000000      0.25000000      0.08333333</v>
   <v>       0.33333333      0.33333333      0.08333333</v>
   <v>       0.41666667      0.33333333      0.08333333</v>
   <v>       0.50000000      0.33333333      0.08333333</v>
   <v>       0.41666667      0.41666667      0.08333333</v>
   <v>       0.50000000      0.41666667      0.08333333</v>
   <v>       0.50000000      0.50000000      0.08333333</v>
   <v>       0.16666667      0.16666667      0.16666667</v>
   <v>       0.25000000      0.16666667      0.16666667</v>
   <v>       0.33333333      0.16666667      0.16666667</v>
   <v>       0.41666667      0.16666667      0.16666667</v>
   <v>       0.50000000      0.16666667      0.16666667</v>
   <v>       0.25000000      0.25000000      0.16666667</v>
   <v>       0.33333333      0.25000000      0.16666667</v>
   <v>       0.41666667      0.25000000      0.16666667</v>
   <v>       0.50000000      0.25000000      0.16666667</v>
   <v>       0.33333333      0.33333333      0.16666667</v>
   <v>       0.41666667      0.33333333      0.16666667</v>
   <v>       0.50000000      0.33333333      0.16666667</v>
   <v>       0.41666667      0.41666667      0.16666667</v>
   <v>       0.50000000      0.41666667      0.16666667</v>
   <v>       0.50000000      0.50000000      0.16666667</v>
   <v>       0.25000000      0.25000000      0.25000000</v>
   <v>       0.33333333      0.25000000      0.25000000</v>
   <v>       0.41666667      0.25000000      0.25000000</v>
   <v>       0.50000000      0.25000000      0.25000000</v>
   <v>       0.33333333      0.33333333      0.25000000</v>
   <v>       0.41666667      0.33333333      0.25000000</v>
   <v>       0.50000000      0.33333333      0.25000000</v>
   <v>       0.41666667      0.41666667      0.25000000</v>
   <v>       0.50000000      0.41666667      0.25000000</v>
   <v>       0.50000000      0.50000000      0.25000000</v>
   <v>       0.33333333      0.33333333      0.33333333</v>
   <v>       0.41666667      0.33333333      0.33333333</v>
   <v>       0.50000000      0.33333333      0.33333333</v>
   <v>       0.41666667      0.41666667      0.33333333</v>
   <v>       0.50000000      0.41666667      0.33333333</v>
   <v>       0.50000000      0.50000000      0.33333333</v>
   <v>       0.41666667      0.41666667      0.41666667</v>
   <v>       0.50000000      0.41666667      0.41666667</v>
   <v>       0.50000000      0.50000000      0.41666667</v>
   <v>       0.50000000      0.50000000      0.50000000</v>
  </varray>
  <varray name="weights" >
   <v>       0.00057870</v>
   <v>       0.00347222</v>
   <v>       0.00347222</v>
   <v>       0.00347222</v>
   <v>       0.00347222</v>
   <v>       0.00347222</v>
   <v>       0.00173611</v>
   <v>       0.00694444</v>
   <v>       0.01388889</v>
   <v>       0.01388889</v>
   <v>       0.01388889</v>
   <v>       0.01388889</v>
   <v>       0.00694444</v>
   <v>       0.00694444</v>
   <v>       0.01388889</v>
   <v>       0.01388889</v>
   <v>       0.01388889</v>
   <v>       0.00694444</v>
   <v>       0.00694444</v>
   <v>       0.01388889</v>
   <v>       0.01388889</v>
   <v>       0.00694444</v>
   <v>       0.00694444</v>
   <v>       0.01388889</v>
   <v>       0.00694444</v>
   <v>       0.00694444</v>
   <v>       0.00694444</v>
   <v>       0.00173611</v>
   <v>       0.00462963</v>
   <v>       0.01388889</v>
   <v>       0.01388889</v>
   <v>       0.01388889</v>
   <v>       0.01388889</v>
   <v>       0.00694444</v>
   <v>       0.01388889</v>
   <v>       0.02777778</v>
   <v>       0.02777778</v>
   <v>       0.02777778</v>
   <v>       0.01388889</v>
   <v>       0.01388889</v>
   <v>       0.02777778</v>
   <v>       0.02777778</v>
   <v>       0.01388889</v>
   <v>       0.01388889</v>
   <v>       0.02777778</v>
   <v>       0.01388889</v>
   <v>       0.01388889</v>
   <v>       0.01388889</v>
   <v>       0.00347222</v>
   <v>       0.00462963</v>
   <v>       0.01388889</v>
   <v>       0.01388889</v>
   <v>       0.01388889</v>
   <v>       0.00694444</v>
   <v>       0.01388889</v>
   <v>       0.02777778</v>
   <v>       0.02777778</v>
   <v>       0.01388889</v>
   <v>       0.01388889</v>
   <v>       0.02777778</v>
   <v>       0.01388889</v>
   <v>       0.01388889</v>
   <v>       0.01388889</v>
   <v>       0.00347222</v>
   <v>       0.00462963</v>
   <v>       0.01388889</v>
   <v>       0.01388889</v>
   <v>       0.00694444</v>
   <v>       0.01388889</v>
   <v>       0.02777778</v>
   <v>       0.01388889</v>
   <v>       0.01388889</v>
   <v>       0.01388889</v>
   <v>       0.00347222</v>
   <v>       0.00462963</v>
   <v>       0.01388889</v>
   <v>       0.00694444</v>
   <v>       0.01388889</v>
   <v>       0.01388889</v>
   <v>       0.00347222</v>
   <v>       0.00462963</v>
   <v>       0.00694444</v>
   <v>       0.00347222</v>
   <v>       0.00057870</v>
  </varray>
 </kpoints>
 <parameters>
  <separator name="general" >
   <i type="string" name="SYSTEM">unknown system</i>
   <i type="logical" name="LCOMPAT"> F  </i>
  </separator>
  <separator name="electronic" >
   <i type="string" name="PREC">accura</i>
   <i name="ENMAX">    750.00000000</i>
   <i name="ENAUG">    356.67000000</i>
   <i name="EDIFF">      0.00000001</i>
   <i type="int" name="IALGO">    38</i>
   <i type="int" name="IWAVPR">    10</i>
   <i type="int" name="NBANDS">    26</i>
   <i name="NELECT">     44.00000000</i>
   <separator name="electronic smearing" >
    <i type="int" name="ISMEAR">     0</i>
    <i name="SIGMA">      0.01000000</i>
   </separator>
   <separator name="electronic projectors" >
    <i type="logical" name="LREAL"> F  </i>
    <v name="ROPT">      0.00000000</v>
    <i type="int" name="LMAXPAW">  -100</i>
    <i type="int" name="LMAXMIX">     2</i>
   </separator>
   <separator name="electronic startup" >
    <i type="int" name="ISTART">     0</i>
    <i type="int" name="ICHARG">     2</i>
    <i type="int" name="INIWAV">     1</i>
   </separator>
   <separator name="electronic spin" >
    <i type="int" name="ISPIN">     1</i>
    <i type="logical" name="LNONCOLLINEAR"> F  </i>
    <v name="MAGMOM">      1.00000000      1.00000000      1.00000000      1.00000000</v>
    <i name="NUPDOWN">     -1.00000000</i>
    <i type="logical" name="LSORBIT"> F  </i>
    <v name="SAXIS">      0.00000000      0.00000000      1.00000000</v>
    <i type="logical" name="LSPIRAL"> F  </i>
    <v name="QSPIRAL">      0.00000000      0.00000000      0.00000000</v>
    <i type="logical" name="LZEROZ"> F  </i>
   </separator>
   <separator name="electronic exchange-correlation" >
    <i type="string" name="GGA">--</i>
    <i type="int" name="VOSKOWN">     0</i>
    <i type="logical" name="LASPH"> F  </i>
    <i type="logical" name="LMETAGGA"> F  </i>
    <i type="string" name="GGA2">--</i>
   </separator>
   <separator name="electronic convergence" >
    <i type="int" name="NELM">    60</i>
    <i type="int" name="NELMDL">     0</i>
    <i type="int" name="NELMIN">     2</i>
    <i name="ENINI">    750.00000000</i>
    <separator name="electronic convergence detail" >
     <i type="logical" name="LDIAG"> T  </i>
     <i name="WEIMIN">      0.00000000</i>
     <i name="EBREAK">      0.00000000</i>
     <i name="DEPER">      0.30000000</i>
     <i type="int" name="NRMM">     4</i>
     <i name="TIME">      0.10000000</i>
    </separator>
   </separator>
   <separator name="electronic mixer" >
    <i name="AMIX">      0.40000000</i>
    <i name="BMIX">      1.00000000</i>
    <i name="AMIN">      0.10000000</i>
    <i name="AMIX_MAG">      1.60000000</i>
    <i name="BMIX_MAG">      1.00000000</i>
    <separator name="electronic mixer details" >
     <i type="int" name="IMIX">     4</i>
     <i type="int" name="MAXMIX">   -45</i>
     <i name="WC">    100.00000000</i>
     <i type="int" name="INIMIX">     1</i>
     <i type="int" name="MIXPRE">     1</i>
     <i type="int" name="MREMOVE">     5</i>
    </separator>
   </separator>
   <separator name="electronic dipolcorrection" >
    <i type="int" name="IDIPOL">     0</i>
    <i type="logical" name="LDIPOL"> F  </i>
    <v name="DIPOL">   -100.00000000</v>
    <i name="EFIELD">      0.00000000</i>
   </separator>
  </separator>
  <separator name="grids" >
   <i type="int" name="NGX">    40</i>
   <i type="int" name="NGY">    40</i>
   <i type="int" name="NGZ">    40</i>
   <i type="int" name="NGXF">    80</i>
   <i type="int" name="NGYF">    80</i>
   <i type="int" name="NGZF">    80</i>
   <i type="logical" name="ADDGRID"> T  </i>
  </separator>
  <separator name="ionic" >
   <i type="int" name="NSW">     0</i>
   <i type="int" name="IBRION">    -1</i>
   <i type="int" name="ISIF">     2</i>
   <i name="PSTRESS">      0.00000000</i>
   <i name="EDIFFG">      0.00000010</i>
   <i type="int" name="NFREE">     0</i>
   <i name="POTIM">      0.50000000</i>
   <i name="SMASS">     -3.00000000</i>
  </separator>
  <separator name="ionic md" >
   <i name="TEBEG">      0.00010000</i>
   <i name="TEEND">      0.00010000</i>
   <i type="int" name="NBLOCK">     1</i>
   <i type="int" name="KBLOCK">     1</i>
   <i type="int" name="NPACO">   256</i>
   <i name="APACO">     16.00000000</i>
  </separator>
  <separator name="symmetry" >
   <i type="int" name="ISYM">     2</i>
   <i name="SYMPREC">      0.00001000</i>
  </separator>
  <separator name="dos" >
   <i type="logical" name="LORBIT"> F  </i>
   <v name="RWIGS">     -1.00000000</v>
   <i type="int" name="NEDOS">   301</i>
   <i name="EMIN">     10.00000000</i>
   <i name="EMAX">    -10.00000000</i>
  </separator>
  <separator name="writing" >
   <i type="int" name="NWRITE">     2</i>
   <i type="logical" name="LWAVE"> F  </i>
   <i type="logical" name="LCHARG"> F  </i>
   <i type="logical" name="LPARD"> F  </i>
   <i type="logical" name="LVTOT"> F  </i>
   <i type="logical" name="LELF"> F  </i>
   <i type="logical" name="LOPTICS"> F  </i>
   <i name="STM">      0.00000000</i>
  </separator>
  <separator name="performance" >
   <i type="int" name="NPAR">     4</i>
   <i type="int" name="NSIM">     4</i>
   <i type="int" name="NBLK">   256</i>
   <i type="logical" name="LPLANE"> T  </i>
   <i type="logical" name="LCRITICAL_MEM"> F  </i>
   <i type="logical" name="LSCALAPACK"> F  </i>
   <i type="logical" name="LSCALU"> F  </i>
   <i type="logical" name="LASYNC"> F  </i>
  </separator>
  <separator name="miscellaneous" >
   <i type="int" name="IDIOT">     3</i>
   <i type="logical" name="LMUSIC"> F  </i>
   <v name="POMASS">    196.96600000</v>
   <i type="logical" name="LCORR"> T  </i>
  </separator>
  <i type="logical" name="LREAL_COMPAT"> F  </i>
  <i type="logical" name="GGA_COMPAT"> T  </i>
  <i type="logical" name="LBERRY"> F  </i>
  <i type="int" name="ICORELEVEL">     0</i>
  <i type="logical" name="LDAU"> F  </i>
  <i type="int" name="I_CONSTRAINED_M">     0</i>
 </parameters>
 <atominfo>
  <atoms>       4</atoms>
  <types>       1</types>
  <array name="atoms" >
   <dimension dim="1">ion</dimension>
   <field type="string">element</field>
   <field type="int">atomtype</field>
   <set>
    <rc><c>Au</c><c>   1</c></rc>
    <rc><c>Au</c><c>   1</c></rc>
    <rc><c>Au</c><c>   1</c></rc>
    <rc><c>Au</c><c>   1</c></rc>
   </set>
  </array>
  <array name="atomtypes" >
   <dimension dim="1">type</dimension>
   <field type="int">atomspertype</field>
   <field type="string">element</field>
   <field>mass</field>
   <field>valence</field>
   <field type="string">pseudopotential</field>
   <set>
    <rc><c>   4</c><c>Au</c><c>    196.96600000</c><c>     11.00000000</c><c> PAW_PBE Au 06Sep2000                   </c></rc>
   </set>
  </array>
 </atominfo>
 <structure name="initialpos" >
  <crystal>
   <varray name="basis" >
    <v>       4.29803746      0.00000000      0.00000000</v>
    <v>       0.00000000      4.29803746      0.00000000</v>
    <v>       0.00000000      0.00000000      4.29803746</v>
   </varray>
   <i name="volume">     79.39818755</i>
   <varray name="rec_basis" >
    <v>       0.23266433      0.00000000      0.00000000</v>
    <v>       0.00000000      0.23266433      0.00000000</v>
    <v>       0.00000000      0.00000000      0.23266433</v>
   </varray>
  </crystal>
  <varray name="positions" >
   <v>       0.00000000      0.00000000      0.00000000</v>
   <v>       0.50000000      0.50000000      0.00000000</v>
   <v>       0.50000000      0.00000000      0.50000000</v>
   <v>       0.00000000      0.50000000      0.50000000</v>
  </varray>
 </structure>
 <calculation>
  <scstep>
   <time name="dav">   20.02   20.08</time>
   <time name="total">   21.15   21.21</time>
   <energy>
    <i name="alphaZ">    377.40315396</i>
    <i name="ewald">  -3717.29923953</i>
    <i name="hartreedc">   -576.26572815</i>
    <i name="XCdc">     59.47452155</i>
    <i name="pawpsdc">   2990.04966927</i>
    <i name="pawaedc">  -2896.51663641</i>
    <i name="eentropy">     -0.00022181</i>
    <i name="bandstr">    585.18318233</i>
    <i name="atom">   3704.22372399</i>
    <i name="e_fr_energy">    526.25242519</i>
    <i name="e_wo_entrp">    526.25264700</i>
    <i name="e_0_energy">    526.25253610</i>
   </energy>
  </scstep>
  <scstep>
   <time name="dav">   20.05   20.13</time>
   <time name="total">   20.07   20.16</time>
   <energy>
    <i name="e_fr_energy">     11.06308682</i>
    <i name="e_wo_entrp">     11.06311137</i>
    <i name="e_0_energy">     11.06309910</i>
   </energy>
  </scstep>
  <scstep>
   <time name="dav">   21.62   21.73</time>
   <time name="total">   21.63   21.74</time>
   <energy>
    <i name="e_fr_energy">    -13.31515591</i>
    <i name="e_wo_entrp">    -13.31501185</i>
    <i name="e_0_energy">    -13.31508388</i>
   </energy>
  </scstep>
  <scstep>
   <time name="dav">   21.21   21.30</time>
   <time name="total">   21.23   21.32</time>
   <energy>
    <i name="e_fr_energy">    -13.79956089</i>
    <i name="e_wo_entrp">    -13.79947544</i>
    <i name="e_0_energy">    -13.79951817</i>
   </energy>
  </scstep>
  <scstep>
   <time name="dav">   21.19   21.23</time>
   <time name="total">   22.83   22.88</time>
   <energy>
    <i name="e_fr_energy">    -13.80415686</i>
    <i name="e_wo_entrp">    -13.80407242</i>
    <i name="e_0_energy">    -13.80411464</i>
   </energy>
  </scstep>
  <scstep>
   <time name="dav">   21.12   21.17</time>
   <time name="total">   23.85   23.90</time>
   <energy>
    <i name="e_fr_energy">    -12.92118037</i>
    <i name="e_wo_entrp">    -12.92104130</i>
    <i name="e_0_energy">    -12.92111084</i>
   </energy>
  </scstep>
  <scstep>
   <time name="dav">   21.16   21.24</time>
   <time name="total">   23.88   23.96</time>
   <energy>
    <i name="e_fr_energy">    -12.88226013</i>
    <i name="e_wo_entrp">    -12.88212104</i>
    <i name="e_0_energy">    -12.88219058</i>
   </energy>
  </scstep>
  <scstep>
   <time name="dav">   20.66   20.67</time>
   <time name="total">   23.40   23.41</time>
   <energy>
    <i name="e_fr_energy">    -12.87486100</i>
    <i name="e_wo_entrp">    -12.87472191</i>
    <i name="e_0_energy">    -12.87479146</i>
   </energy>
  </scstep>
  <scstep>
   <time name="dav">   21.50   21.51</time>
   <time name="total">   24.23   24.24</time>
   <energy>
    <i name="e_fr_energy">    -12.87492338</i>
    <i name="e_wo_entrp">    -12.87478429</i>
    <i name="e_0_energy">    -12.87485384</i>
   </energy>
  </scstep>
  <scstep>
   <time name="dav">   20.50   20.51</time>
   <time name="total">   23.24   23.25</time>
   <energy>
    <i name="e_fr_energy">    -12.87493148</i>
    <i name="e_wo_entrp">    -12.87479238</i>
    <i name="e_0_energy">    -12.87486193</i>
   </energy>
  </scstep>
  <scstep>
   <time name="dav">   21.11   21.11</time>
   <time name="total">   23.85   23.86</time>
   <energy>
    <i name="e_fr_energy">    -12.87493288</i>
    <i name="e_wo_entrp">    -12.87479378</i>
    <i name="e_0_energy">    -12.87486333</i>
   </energy>
  </scstep>
  <scstep>
   <time name="dav">   20.72   20.73</time>
   <time name="total">   23.45   23.46</time>
   <energy>
    <i name="e_fr_energy">    -12.87493232</i>
    <i name="e_wo_entrp">    -12.87479322</i>
    <i name="e_0_energy">    -12.87486277</i>
   </energy>
  </scstep>
  <scstep>
   <time name="dav">   14.22   14.23</time>
   <time name="total">   15.34   15.34</time>
   <energy>
    <i name="alphaZ">    377.40315396</i>
    <i name="ewald">  -3717.29923953</i>
    <i name="hartreedc">   -534.06236395</i>
    <i name="XCdc">     57.55405767</i>
    <i name="pawpsdc">   2956.23499211</i>
    <i name="pawaedc">  -2870.62318761</i>
    <i name="eentropy">     -0.00013910</i>
    <i name="bandstr">     13.69407014</i>
    <i name="atom">   3704.22372399</i>
    <i name="e_fr_energy">    -12.87493231</i>
    <i name="e_wo_entrp">    -12.87479322</i>
    <i name="e_0_energy">    -12.87486276</i>
   </energy>
  </scstep>
  <structure>
   <crystal>
    <varray name="basis" >
     <v>       4.29803746      0.00000000      0.00000000</v>
     <v>       0.00000000      4.29803746      0.00000000</v>
     <v>       0.00000000      0.00000000      4.29803746</v>
    </varray>
    <i name="volume">     79.39818755</i>
    <varray name="rec_basis" >
     <v>       0.23266433      0.00000000      0.00000000</v>
     <v>       0.00000000      0.23266433      0.00000000</v>
     <v>       0.00000000      0.00000000      0.23266433</v>
    </varray>
   </crystal>
   <varray name="positions" >
    <v>       0.00000000      0.00000000      0.00000000</v>
    <v>       0.50000000      0.50000000      0.00000000</v>
    <v>       0.50000000      0.00000000      0.50000000</v>
    <v>       0.00000000      0.50000000      0.50000000</v>
   </varray>
  </structure>
  <varray name="forces" >
   <v>       0.00000000      0.00000000      0.00000000</v>
   <v>       0.00000000     -0.00000000      0.00000000</v>
   <v>       0.00000000      0.00000000     -0.00000000</v>
   <v>       0.00000000     -0.00000000     -0.00000000</v>
  </varray>
  <varray name="stress" >
   <v>     -92.78259453     -0.00000000      0.00000000</v>
   <v>      -0.00000000    -92.78259453      0.00000000</v>
   <v>       0.00000000      0.00000000    -92.78259453</v>
  </varray>
  <energy>
   <i name="e_fr_energy">    -12.87493231</i>
   <i name="e_wo_entrp">    -12.87486276</i>
   <i name="e_0_energy">     -0.00013910</i>
  </energy>
  <eigenvalues>
   <array>
    <dimension dim="1">band</dimension>
    <dimension dim="2">kpoint</dimension>
    <dimension dim="3">spin</dimension>
    <field>eigene</field>
    <field>occ</field>
    <set>
     <set comment="spin 1">
      <set comment="kpoint 1">
       <r>  -4.4075  1.0000</r>
       <r>  -1.8827  1.0000</r>
       <r>  -1.8827  1.0000</r>
       <r>  -1.8827  1.0000</r>
       <r>  -1.6504  1.0000</r>
       <r>  -1.6504  1.0000</r>
       <r>  -1.6504  1.0000</r>
       <r>  -0.0605  1.0000</r>
       <r>  -0.0605  1.0000</r>
       <r>  -0.0605  1.0000</r>
       <r>   1.0964  1.0000</r>
       <r>   1.0964  1.0000</r>
       <r>   1.9762  1.0000</r>
       <r>   1.9762  1.0000</r>
       <r>   1.9762  1.0000</r>
       <r>   2.2561  1.0000</r>
       <r>   2.2561  1.0000</r>
       <r>   2.2561  1.0000</r>
       <r>   2.2561  1.0000</r>
       <r>   2.2561  1.0000</r>
       <r>   2.2561  1.0000</r>
       <r>   5.3750  0.0000</r>
       <r>   5.3750  0.0000</r>
       <r>   5.3750  0.0000</r>
       <r>   8.6262  0.0000</r>
       <r>   8.6262  0.0000</r>
       <r>   8.6262  0.0000</r>
       <r>  13.6355  0.0000</r>
      </set>
      <set comment="kpoint 2">
       <r>  -4.3366  1.0000</r>
       <r>  -1.8609  1.0000</r>
       <r>  -1.8383  1.0000</r>
       <r>  -1.8383  1.0000</r>
       <r>  -1.6267  1.0000</r>
       <r>  -1.6145  1.0000</r>
       <r>  -1.6145  1.0000</r>
       <r>  -0.0919  1.0000</r>
       <r>  -0.0316  1.0000</r>
       <r>  -0.0316  1.0000</r>
       <r>   1.0634  1.0000</r>
       <r>   1.1105  1.0000</r>
       <r>   1.9298  1.0000</r>
       <r>   1.9298  1.0000</r>
       <r>   1.9601  1.0000</r>
       <r>   2.0681  1.0000</r>
       <r>   2.0681  1.0000</r>
       <r>   2.1989  1.0000</r>
       <r>   2.1989  1.0000</r>
       <r>   2.2562  1.0000</r>
       <r>   2.2562  1.0000</r>
       <r>   4.7494  0.0000</r>
       <r>   5.6170  0.0000</r>
       <r>   5.6170  0.0000</r>
       <r>   8.5788  0.0000</r>
       <r>   8.5788  0.0000</r>
       <r>   9.3781  0.0000</r>
       <r>  13.4874  0.0000</r>
      </set>
      <set comment="kpoint 3">
       <r>  -4.1261  1.0000</r>
       <r>  -1.8034  1.0000</r>
       <r>  -1.7100  1.0000</r>
       <r>  -1.7100  1.0000</r>
       <r>  -1.5569  1.0000</r>
       <r>  -1.5070  1.0000</r>
       <r>  -1.5070  1.0000</r>
       <r>  -0.1830  1.0000</r>
       <r>   0.0543  1.0000</r>
       <r>   0.0543  1.0000</r>
       <r>   0.9688  1.0000</r>
       <r>   1.1517  1.0000</r>
       <r>   1.6256  1.0000</r>
       <r>   1.6256  1.0000</r>
       <r>   1.7947  1.0000</r>
       <r>   1.7947  1.0000</r>
       <r>   1.9132  1.0000</r>
       <r>   2.0373  1.0000</r>
       <r>   2.0373  1.0000</r>
       <r>   2.2564  1.0000</r>
       <r>   2.2564  1.0000</r>
       <r>   3.5953  1.0000</r>
       <r>   6.2200  0.0000</r>
       <r>   6.2200  0.0000</r>
       <r>   8.4509  0.0000</r>
       <r>   8.4509  0.0000</r>
       <r>  10.9166  0.0000</r>
       <r>  13.0532  0.0000</r>
      </set>
      <set comment="kpoint 4">
       <r>  -3.7837  1.0000</r>
       <r>  -1.7376  1.0000</r>
       <r>  -1.5136  1.0000</r>
       <r>  -1.5136  1.0000</r>
       <r>  -1.4441  1.0000</r>
       <r>  -1.3283  1.0000</r>
       <r>  -1.3283  1.0000</r>
       <r>  -0.3246  1.0000</r>
       <r>   0.1953  1.0000</r>
       <r>   0.1953  1.0000</r>
       <r>   0.8270  1.0000</r>
       <r>   1.0958  1.0000</r>
       <r>   1.0958  1.0000</r>
       <r>   1.2179  1.0000</r>
       <r>   1.5856  1.0000</r>
       <r>   1.5856  1.0000</r>
       <r>   1.7966  1.0000</r>
       <r>   1.7966  1.0000</r>
       <r>   1.8394  1.0000</r>
       <r>   2.2568  1.0000</r>
       <r>   2.2568  1.0000</r>
       <r>   2.4460  1.0000</r>
       <r>   7.0125  0.0000</r>
       <r>   7.0125  0.0000</r>
       <r>   8.2804  0.0000</r>
       <r>   8.2804  0.0000</r>
       <r>  12.4081  0.0000</r>
       <r>  12.4081  0.0000</r>
      </set>
      <set comment="kpoint 5">
       <r>  -3.3267  1.0000</r>
       <r>  -1.7250  1.0000</r>
       <r>  -1.2936  1.0000</r>
       <r>  -1.2821  1.0000</r>
       <r>  -1.2821  1.0000</r>
       <r>  -1.0793  1.0000</r>
       <r>  -1.0793  1.0000</r>
       <r>  -0.5037  1.0000</r>
       <r>   0.3880  1.0000</r>
       <r>   0.3880  1.0000</r>
       <r>   0.5639  1.0000</r>
       <r>   0.5639  1.0000</r>
       <r>   0.6655  1.0000</r>
       <r>   1.3052  1.0000</r>
       <r>   1.3374  1.0000</r>
       <r>   1.3374  1.0000</r>
       <r>   1.4736  1.0000</r>
       <r>   1.5083  1.0000</r>
       <r>   1.5083  1.0000</r>
       <r>   1.7445  1.0000</r>
       <r>   2.2571  1.0000</r>
       <r>   2.2571  1.0000</r>
       <r>   7.9015  0.0000</r>
       <r>   7.9015  0.0000</r>
       <r>   8.1161  0.0000</r>
       <r>   8.1161  0.0000</r>
       <r>  11.6145  0.0000</r>
       <r>  11.6145  0.0000</r>
      </set>
      <set comment="kpoint 6">
       <r>  -2.7919  1.0000</r>
       <r>  -1.8745  1.0000</r>
       <r>  -1.1132  1.0000</r>
       <r>  -1.0766  1.0000</r>
       <r>  -1.0766  1.0000</r>
       <r>  -0.7615  1.0000</r>
       <r>  -0.7615  1.0000</r>
       <r>  -0.7049  1.0000</r>
       <r>   0.0670  1.0000</r>
       <r>   0.0670  1.0000</r>
       <r>   0.5350  1.0000</r>
       <r>   0.6265  1.0000</r>
       <r>   0.6265  1.0000</r>
       <r>   0.8107  1.0000</r>
       <r>   1.1173  1.0000</r>
       <r>   1.1173  1.0000</r>
       <r>   1.2021  1.0000</r>
       <r>   1.2021  1.0000</r>
       <r>   1.4084  1.0000</r>
       <r>   1.6357  1.0000</r>
       <r>   2.2573  1.0000</r>
       <r>   2.2573  1.0000</r>
       <r>   8.0002  0.0000</r>
       <r>   8.0002  0.0000</r>
       <r>   8.8388  0.0000</r>
       <r>   8.8388  0.0000</r>
       <r>  10.7278  0.0000</r>
       <r>  10.7278  0.0000</r>
      </set>
      <set comment="kpoint 7">
       <r>  -2.2607  1.0000</r>
       <r>  -2.2607  1.0000</r>
       <r>  -0.9895  1.0000</r>
       <r>  -0.9895  1.0000</r>
       <r>  -0.9128  1.0000</r>
       <r>  -0.9128  1.0000</r>
       <r>  -0.3778  1.0000</r>
       <r>  -0.3778  1.0000</r>
       <r>  -0.3778  1.0000</r>
       <r>  -0.3778  1.0000</r>
       <r>   0.5316  1.0000</r>
       <r>   0.5316  1.0000</r>
       <r>   0.9022  1.0000</r>
       <r>   0.9022  1.0000</r>
       <r>   0.9022  1.0000</r>
       <r>   0.9022  1.0000</r>
       <r>   1.0243  1.0000</r>
       <r>   1.0243  1.0000</r>
       <r>   1.5210  1.0000</r>
       <r>   1.5210  1.0000</r>
       <r>   2.2574  1.0000</r>
       <r>   2.2574  1.0000</r>
       <r>   7.9588  0.0000</r>
       <r>   7.9588  0.0000</r>
       <r>   9.7911  0.0000</r>
       <r>   9.7911  0.0000</r>
       <r>   9.7911  0.0000</r>
       <r>   9.7911  0.0000</r>
      </set>
      <set comment="kpoint 8">
       <r>  -4.2664  1.0000</r>
       <r>  -1.8161  1.0000</r>
       <r>  -1.8161  1.0000</r>
       <r>  -1.8003  1.0000</r>
       <r>  -1.5913  1.0000</r>
       <r>  -1.5913  1.0000</r>
       <r>  -1.5741  1.0000</r>
       <r>  -0.1044  1.0000</r>
       <r>  -0.0209  1.0000</r>
       <r>  -0.0052  1.0000</r>
       <r>   1.0548  1.0000</r>
       <r>   1.1032  1.0000</r>
       <r>   1.8818  1.0000</r>
       <r>   1.8818  1.0000</r>
       <r>   1.8860  1.0000</r>
       <r>   1.9387  1.0000</r>
       <r>   2.0337  1.0000</r>
       <r>   2.0337  1.0000</r>
       <r>   2.1989  1.0000</r>
       <r>   2.1989  1.0000</r>
       <r>   2.2179  1.0000</r>
       <r>   4.9820  0.0000</r>
       <r>   4.9820  0.0000</r>
       <r>   5.8391  0.0000</r>
       <r>   8.5247  0.0000</r>
       <r>   9.3394  0.0000</r>
       <r>   9.3394  0.0000</r>
       <r>  12.9125  0.0000</r>
      </set>
      <set comment="kpoint 9">
       <r>  -4.0580  1.0000</r>
       <r>  -1.7572  1.0000</r>
       <r>  -1.6899  1.0000</r>
       <r>  -1.6864  1.0000</r>
       <r>  -1.5229  1.0000</r>
       <r>  -1.4852  1.0000</r>
       <r>  -1.4543  1.0000</r>
       <r>  -0.1840  1.0000</r>
       <r>   0.0560  1.0000</r>
       <r>   0.0726  1.0000</r>
       <r>   0.9732  1.0000</r>
       <r>   1.1411  1.0000</r>
       <r>   1.5026  1.0000</r>
       <r>   1.5513  1.0000</r>
       <r>   1.7162  1.0000</r>
       <r>   1.7578  1.0000</r>
       <r>   1.8295  1.0000</r>
       <r>   1.9554  1.0000</r>
       <r>   2.0368  1.0000</r>
       <r>   2.1981  1.0000</r>
       <r>   2.1986  1.0000</r>
       <r>   3.8580  1.0000</r>
       <r>   5.5272  0.0000</r>
       <r>   6.4080  0.0000</r>
       <r>   8.3753  0.0000</r>
       <r>   9.2444  0.0000</r>
       <r>  10.8465  0.0000</r>
       <r>  12.2879  0.0000</r>
      </set>
      <set comment="kpoint 10">
       <r>  -3.7192  1.0000</r>
       <r>  -1.6891  1.0000</r>
       <r>  -1.5165  1.0000</r>
       <r>  -1.4875  1.0000</r>
       <r>  -1.4123  1.0000</r>
       <r>  -1.3090  1.0000</r>
       <r>  -1.2624  1.0000</r>
       <r>  -0.3199  1.0000</r>
       <r>   0.1949  1.0000</r>
       <r>   0.1958  1.0000</r>
       <r>   0.8439  1.0000</r>
       <r>   0.9840  1.0000</r>
       <r>   1.0543  1.0000</r>
       <r>   1.2152  1.0000</r>
       <r>   1.4178  1.0000</r>
       <r>   1.5586  1.0000</r>
       <r>   1.6177  1.0000</r>
       <r>   1.7956  1.0000</r>
       <r>   1.8479  1.0000</r>
       <r>   2.1939  1.0000</r>
       <r>   2.1981  1.0000</r>
       <r>   2.8061  1.0000</r>
       <r>   6.1755  0.0000</r>
       <r>   7.1737  0.0000</r>
       <r>   8.1667  0.0000</r>
       <r>   9.1575  0.0000</r>
       <r>  11.6846  0.0000</r>
       <r>  12.5344  0.0000</r>
      </set>
      <set comment="kpoint 11">
       <r>  -3.2670  1.0000</r>
       <r>  -1.6742  1.0000</r>
       <r>  -1.2960  1.0000</r>
       <r>  -1.2649  1.0000</r>
       <r>  -1.2520  1.0000</r>
       <r>  -1.0636  1.0000</r>
       <r>  -1.0168  1.0000</r>
       <r>  -0.4936  1.0000</r>
       <r>   0.3360  1.0000</r>
       <r>   0.3867  1.0000</r>
       <r>   0.4673  1.0000</r>
       <r>   0.5434  1.0000</r>
       <r>   0.7251  1.0000</r>
       <r>   0.9924  1.0000</r>
       <r>   1.3149  1.0000</r>
       <r>   1.3214  1.0000</r>
       <r>   1.3703  1.0000</r>
       <r>   1.5069  1.0000</r>
       <r>   1.6740  1.0000</r>
       <r>   2.0581  1.0000</r>
       <r>   2.1935  1.0000</r>
       <r>   2.1974  1.0000</r>
       <r>   6.7832  0.0000</r>
       <r>   7.9431  0.0000</r>
       <r>   8.0447  0.0000</r>
       <r>   9.1839  0.0000</r>
       <r>  11.0959  0.0000</r>
       <r>  11.7355  0.0000</r>
      </set>
      <set comment="kpoint 12">
       <r>  -2.7377  1.0000</r>
       <r>  -1.8234  1.0000</r>
       <r>  -1.0884  1.0000</r>
       <r>  -1.0721  1.0000</r>
       <r>  -1.0422  1.0000</r>
       <r>  -0.7509  1.0000</r>
       <r>  -0.7394  1.0000</r>
       <r>  -0.6896  1.0000</r>
       <r>  -0.0064  1.0000</r>
       <r>   0.0606  1.0000</r>
       <r>   0.3815  1.0000</r>
       <r>   0.5755  1.0000</r>
       <r>   0.6249  1.0000</r>
       <r>   0.7724  1.0000</r>
       <r>   1.1140  1.0000</r>
       <r>   1.1447  1.0000</r>
       <r>   1.2004  1.0000</r>
       <r>   1.3460  1.0000</r>
       <r>   1.4347  1.0000</r>
       <r>   1.7349  1.0000</r>
       <r>   2.1942  1.0000</r>
       <r>   2.1965  1.0000</r>
       <r>   7.2370  0.0000</r>
       <r>   7.7330  0.0000</r>
       <r>   8.9702  0.0000</r>
       <r>   9.4336  0.0000</r>
       <r>  10.4975  0.0000</r>
       <r>  10.8488  0.0000</r>
      </set>
      <set comment="kpoint 13">
       <r>  -2.2099  1.0000</r>
       <r>  -2.2099  1.0000</r>
       <r>  -0.9591  1.0000</r>
       <r>  -0.9591  1.0000</r>
       <r>  -0.8926  1.0000</r>
       <r>  -0.8926  1.0000</r>
       <r>  -0.4126  1.0000</r>
       <r>  -0.4126  1.0000</r>
       <r>  -0.3743  1.0000</r>
       <r>  -0.3743  1.0000</r>
       <r>   0.3844  1.0000</r>
       <r>   0.3844  1.0000</r>
       <r>   0.9004  1.0000</r>
       <r>   0.9004  1.0000</r>
       <r>   1.0153  1.0000</r>
       <r>   1.0153  1.0000</r>
       <r>   1.0371  1.0000</r>
       <r>   1.0371  1.0000</r>
       <r>   1.5712  1.0000</r>
       <r>   1.5712  1.0000</r>
       <r>   2.1954  1.0000</r>
       <r>   2.1954  1.0000</r>
       <r>   7.5225  0.0000</r>
       <r>   7.5225  0.0000</r>
       <r>   9.9107  0.0000</r>
       <r>   9.9107  0.0000</r>
       <r>   9.9154  0.0000</r>
       <r>   9.9154  0.0000</r>
      </set>
      <set comment="kpoint 14">
       <r>  -3.8561  1.0000</r>
       <r>  -1.6232  1.0000</r>
       <r>  -1.6232  1.0000</r>
       <r>  -1.6200  1.0000</r>
       <r>  -1.4210  1.0000</r>
       <r>  -1.4210  1.0000</r>
       <r>  -1.3110  1.0000</r>
       <r>  -0.2192  1.0000</r>
       <r>   0.0953  1.0000</r>
       <r>   0.1257  1.0000</r>
       <r>   0.9451  1.0000</r>
       <r>   1.1553  1.0000</r>
       <r>   1.2433  1.0000</r>
       <r>   1.2433  1.0000</r>
       <r>   1.3054  1.0000</r>
       <r>   1.6489  1.0000</r>
       <r>   1.8283  1.0000</r>
       <r>   1.8283  1.0000</r>
       <r>   2.0354  1.0000</r>
       <r>   2.0354  1.0000</r>
       <r>   2.1054  1.0000</r>
       <r>   4.4072  0.0000</r>
       <r>   4.4072  0.0000</r>
       <r>   6.9110  0.0000</r>
       <r>   8.1588  0.0000</r>
       <r>  10.6547  0.0000</r>
       <r>  10.6547  0.0000</r>
       <r>  11.5656  0.0000</r>
      </set>
      <set comment="kpoint 15">
       <r>  -3.5282  1.0000</r>
       <r>  -1.5480  1.0000</r>
       <r>  -1.4900  1.0000</r>
       <r>  -1.4164  1.0000</r>
       <r>  -1.3174  1.0000</r>
       <r>  -1.2520  1.0000</r>
       <r>  -1.1045  1.0000</r>
       <r>  -0.3206  1.0000</r>
       <r>   0.2025  1.0000</r>
       <r>   0.2103  1.0000</r>
       <r>   0.7259  1.0000</r>
       <r>   0.8553  1.0000</r>
       <r>   0.9008  1.0000</r>
       <r>   0.9181  1.0000</r>
       <r>   1.2433  1.0000</r>
       <r>   1.4765  1.0000</r>
       <r>   1.6412  1.0000</r>
       <r>   1.7509  1.0000</r>
       <r>   1.7928  1.0000</r>
       <r>   2.0330  1.0000</r>
       <r>   2.0542  1.0000</r>
       <r>   3.3886  1.0000</r>
       <r>   5.0220  0.0000</r>
       <r>   7.6186  0.0000</r>
       <r>   7.8356  0.0000</r>
       <r>  10.4037  0.0000</r>
       <r>  11.0004  0.0000</r>
       <r>  12.1079  0.0000</r>
      </set>
      <set comment="kpoint 16">
       <r>  -3.0912  1.0000</r>
       <r>  -1.5260  1.0000</r>
       <r>  -1.2999  1.0000</r>
       <r>  -1.1797  1.0000</r>
       <r>  -1.1681  1.0000</r>
       <r>  -1.0176  1.0000</r>
       <r>  -0.8712  1.0000</r>
       <r>  -0.4708  1.0000</r>
       <r>   0.2370  1.0000</r>
       <r>   0.2600  1.0000</r>
       <r>   0.3914  1.0000</r>
       <r>   0.4763  1.0000</r>
       <r>   0.5241  1.0000</r>
       <r>   0.7874  1.0000</r>
       <r>   1.2692  1.0000</r>
       <r>   1.3824  1.0000</r>
       <r>   1.4106  1.0000</r>
       <r>   1.5032  1.0000</r>
       <r>   1.5891  1.0000</r>
       <r>   2.0302  1.0000</r>
       <r>   2.0334  1.0000</r>
       <r>   2.6059  1.0000</r>
       <r>   5.6192  0.0000</r>
       <r>   7.4562  0.0000</r>
       <r>   8.4473  0.0000</r>
       <r>  10.1853  0.0000</r>
       <r>  10.5816  0.0000</r>
       <r>  12.0847  0.0000</r>
      </set>
      <set comment="kpoint 17">
       <r>  -2.5790  1.0000</r>
       <r>  -1.6757  1.0000</r>
       <r>  -1.0653  1.0000</r>
       <r>  -1.0153  1.0000</r>
       <r>  -0.9426  1.0000</r>
       <r>  -0.7205  1.0000</r>
       <r>  -0.6653  1.0000</r>
       <r>  -0.6477  1.0000</r>
       <r>  -0.1893  1.0000</r>
       <r>   0.0385  1.0000</r>
       <r>   0.2268  1.0000</r>
       <r>   0.2416  1.0000</r>
       <r>   0.6245  1.0000</r>
       <r>   0.8604  1.0000</r>
       <r>   1.0943  1.0000</r>
       <r>   1.1857  1.0000</r>
       <r>   1.1966  1.0000</r>
       <r>   1.3442  1.0000</r>
       <r>   1.5599  1.0000</r>
       <r>   2.0264  1.0000</r>
       <r>   2.0274  1.0000</r>
       <r>   2.0963  1.0000</r>
       <r>   6.1592  0.0000</r>
       <r>   7.0557  0.0000</r>
       <r>   9.3443  0.0000</r>
       <r>  10.0771  0.0000</r>
       <r>  10.2864  0.0000</r>
       <r>  11.1971  0.0000</r>
      </set>
      <set comment="kpoint 18">
       <r>  -2.0631  1.0000</r>
       <r>  -2.0631  1.0000</r>
       <r>  -0.8781  1.0000</r>
       <r>  -0.8781  1.0000</r>
       <r>  -0.8339  1.0000</r>
       <r>  -0.8339  1.0000</r>
       <r>  -0.4945  1.0000</r>
       <r>  -0.4945  1.0000</r>
       <r>  -0.3656  1.0000</r>
       <r>  -0.3656  1.0000</r>
       <r>   0.1677  1.0000</r>
       <r>   0.1677  1.0000</r>
       <r>   0.8975  1.0000</r>
       <r>   0.8975  1.0000</r>
       <r>   1.0540  1.0000</r>
       <r>   1.0540  1.0000</r>
       <r>   1.0724  1.0000</r>
       <r>   1.0724  1.0000</r>
       <r>   1.7827  1.0000</r>
       <r>   1.7827  1.0000</r>
       <r>   2.0255  1.0000</r>
       <r>   2.0255  1.0000</r>
       <r>   6.6321  0.0000</r>
       <r>   6.6321  0.0000</r>
       <r>  10.1127  0.0000</r>
       <r>  10.1127  0.0000</r>
       <r>  10.2719  0.0000</r>
       <r>  10.2719  0.0000</r>
      </set>
      <set comment="kpoint 19">
       <r>  -3.2192  1.0000</r>
       <r>  -1.4078  1.0000</r>
       <r>  -1.3278  1.0000</r>
       <r>  -1.3278  1.0000</r>
       <r>  -1.1606  1.0000</r>
       <r>  -1.1606  1.0000</r>
       <r>  -0.8978  1.0000</r>
       <r>  -0.3612  1.0000</r>
       <r>   0.2180  1.0000</r>
       <r>   0.2805  1.0000</r>
       <r>   0.4061  1.0000</r>
       <r>   0.4061  1.0000</r>
       <r>   0.6749  1.0000</r>
       <r>   0.8067  1.0000</r>
       <r>   1.3412  1.0000</r>
       <r>   1.3620  1.0000</r>
       <r>   1.5899  1.0000</r>
       <r>   1.5899  1.0000</r>
       <r>   1.7888  1.0000</r>
       <r>   1.7888  1.0000</r>
       <r>   1.9250  1.0000</r>
       <r>   3.9915  0.0000</r>
       <r>   3.9915  0.0000</r>
       <r>   7.3430  0.0000</r>
       <r>   8.2677  0.0000</r>
       <r>  10.5655  0.0000</r>
       <r>  11.5378  0.0000</r>
       <r>  11.5378  0.0000</r>
      </set>
      <set comment="kpoint 20">
       <r>  -2.8091  1.0000</r>
       <r>  -1.2941  1.0000</r>
       <r>  -1.2644  1.0000</r>
       <r>  -1.0566  1.0000</r>
       <r>  -1.0400  1.0000</r>
       <r>  -0.9447  1.0000</r>
       <r>  -0.6845  1.0000</r>
       <r>  -0.4566  1.0000</r>
       <r>  -0.0403  1.0000</r>
       <r>   0.1033  1.0000</r>
       <r>   0.2108  1.0000</r>
       <r>   0.3497  1.0000</r>
       <r>   0.4267  1.0000</r>
       <r>   0.7566  1.0000</r>
       <r>   1.1733  1.0000</r>
       <r>   1.3847  1.0000</r>
       <r>   1.4465  1.0000</r>
       <r>   1.4989  1.0000</r>
       <r>   1.5603  1.0000</r>
       <r>   1.7850  1.0000</r>
       <r>   1.8448  1.0000</r>
       <r>   3.1632  1.0000</r>
       <r>   4.5804  0.0000</r>
       <r>   6.7847  0.0000</r>
       <r>   9.0497  0.0000</r>
       <r>  10.3371  0.0000</r>
       <r>  11.0077  0.0000</r>
       <r>  12.5266  0.0000</r>
      </set>
      <set comment="kpoint 21">
       <r>  -2.3292  1.0000</r>
       <r>  -1.4507  1.0000</r>
       <r>  -1.0598  1.0000</r>
       <r>  -0.8977  1.0000</r>
       <r>  -0.7921  1.0000</r>
       <r>  -0.6742  1.0000</r>
       <r>  -0.5911  1.0000</r>
       <r>  -0.5373  1.0000</r>
       <r>  -0.4201  1.0000</r>
       <r>  -0.0497  1.0000</r>
       <r>  -0.0077  1.0000</r>
       <r>   0.1249  1.0000</r>
       <r>   0.6394  1.0000</r>
       <r>   0.8142  1.0000</r>
       <r>   1.0363  1.0000</r>
       <r>   1.1735  1.0000</r>
       <r>   1.1945  1.0000</r>
       <r>   1.2277  1.0000</r>
       <r>   1.7834  1.0000</r>
       <r>   1.8046  1.0000</r>
       <r>   1.8151  1.0000</r>
       <r>   2.5585  1.0000</r>
       <r>   5.1438  0.0000</r>
       <r>   6.2281  0.0000</r>
       <r>   9.9132  0.0000</r>
       <r>  10.2718  0.0000</r>
       <r>  10.6042  0.0000</r>
       <r>  11.7358  0.0000</r>
      </set>
      <set comment="kpoint 22">
       <r>  -1.8391  1.0000</r>
       <r>  -1.8391  1.0000</r>
       <r>  -0.8069  1.0000</r>
       <r>  -0.8069  1.0000</r>
       <r>  -0.7437  1.0000</r>
       <r>  -0.7437  1.0000</r>
       <r>  -0.5411  1.0000</r>
       <r>  -0.5411  1.0000</r>
       <r>  -0.3572  1.0000</r>
       <r>  -0.3572  1.0000</r>
       <r>  -0.0028  1.0000</r>
       <r>  -0.0028  1.0000</r>
       <r>   0.9012  1.0000</r>
       <r>   0.9012  1.0000</r>
       <r>   0.9919  1.0000</r>
       <r>   0.9919  1.0000</r>
       <r>   1.0298  1.0000</r>
       <r>   1.0298  1.0000</r>
       <r>   1.7879  1.0000</r>
       <r>   1.7879  1.0000</r>
       <r>   2.1332  1.0000</r>
       <r>   2.1332  1.0000</r>
       <r>   5.6868  0.0000</r>
       <r>   5.6868  0.0000</r>
       <r>  10.3587  0.0000</r>
       <r>  10.3587  0.0000</r>
       <r>  10.8196  0.0000</r>
       <r>  10.8196  0.0000</r>
      </set>
      <set comment="kpoint 23">
       <r>  -2.4394  1.0000</r>
       <r>  -1.1808  1.0000</r>
       <r>  -1.0073  1.0000</r>
       <r>  -1.0073  1.0000</r>
       <r>  -0.8504  1.0000</r>
       <r>  -0.8504  1.0000</r>
       <r>  -0.4968  1.0000</r>
       <r>  -0.4765  1.0000</r>
       <r>  -0.2601  1.0000</r>
       <r>  -0.2601  1.0000</r>
       <r>   0.1564  1.0000</r>
       <r>   0.1716  1.0000</r>
       <r>   0.5224  1.0000</r>
       <r>   0.6876  1.0000</r>
       <r>   1.0412  1.0000</r>
       <r>   1.2635  1.0000</r>
       <r>   1.2635  1.0000</r>
       <r>   1.4976  1.0000</r>
       <r>   1.4976  1.0000</r>
       <r>   1.6875  1.0000</r>
       <r>   1.8258  1.0000</r>
       <r>   3.7176  1.0000</r>
       <r>   3.7176  1.0000</r>
       <r>   6.0820  0.0000</r>
       <r>   9.7915  0.0000</r>
       <r>  10.2946  0.0000</r>
       <r>  11.7518  0.0000</r>
       <r>  11.7518  0.0000</r>
      </set>
      <set comment="kpoint 24">
       <r>  -2.0125  1.0000</r>
       <r>  -1.1946  1.0000</r>
       <r>  -1.0458  1.0000</r>
       <r>  -0.7486  1.0000</r>
       <r>  -0.7432  1.0000</r>
       <r>  -0.6187  1.0000</r>
       <r>  -0.5396  1.0000</r>
       <r>  -0.5259  1.0000</r>
       <r>  -0.3813  1.0000</r>
       <r>  -0.2586  1.0000</r>
       <r>  -0.0898  1.0000</r>
       <r>   0.0739  1.0000</r>
       <r>   0.6917  1.0000</r>
       <r>   0.7023  1.0000</r>
       <r>   0.9278  1.0000</r>
       <r>   1.0635  1.0000</r>
       <r>   1.0712  1.0000</r>
       <r>   1.2014  1.0000</r>
       <r>   1.5047  1.0000</r>
       <r>   1.5848  1.0000</r>
       <r>   2.1518  1.0000</r>
       <r>   3.0492  1.0000</r>
       <r>   4.2688  0.0000</r>
       <r>   5.4271  0.0000</r>
       <r>  10.4131  0.0000</r>
       <r>  10.6246  0.0000</r>
       <r>  11.1351  0.0000</r>
       <r>  12.4641  0.0000</r>
      </set>
      <set comment="kpoint 25">
       <r>  -1.5740  1.0000</r>
       <r>  -1.5740  1.0000</r>
       <r>  -0.8617  1.0000</r>
       <r>  -0.8617  1.0000</r>
       <r>  -0.6344  1.0000</r>
       <r>  -0.6344  1.0000</r>
       <r>  -0.4318  1.0000</r>
       <r>  -0.4318  1.0000</r>
       <r>  -0.3581  1.0000</r>
       <r>  -0.3581  1.0000</r>
       <r>  -0.0973  1.0000</r>
       <r>  -0.0973  1.0000</r>
       <r>   0.8481  1.0000</r>
       <r>   0.8481  1.0000</r>
       <r>   0.9248  1.0000</r>
       <r>   0.9248  1.0000</r>
       <r>   0.9325  1.0000</r>
       <r>   0.9325  1.0000</r>
       <r>   1.5293  1.0000</r>
       <r>   1.5293  1.0000</r>
       <r>   2.5460  1.0000</r>
       <r>   2.5460  1.0000</r>
       <r>   4.8302  0.0000</r>
       <r>   4.8302  0.0000</r>
       <r>  10.6900  0.0000</r>
       <r>  10.6900  0.0000</r>
       <r>  11.5112  0.0000</r>
       <r>  11.5112  0.0000</r>
      </set>
      <set comment="kpoint 26">
       <r>  -1.6641  1.0000</r>
       <r>  -1.0145  1.0000</r>
       <r>  -1.0093  1.0000</r>
       <r>  -1.0093  1.0000</r>
       <r>  -0.5644  1.0000</r>
       <r>  -0.5644  1.0000</r>
       <r>  -0.5144  1.0000</r>
       <r>  -0.3262  1.0000</r>
       <r>  -0.3262  1.0000</r>
       <r>  -0.2596  1.0000</r>
       <r>  -0.2159  1.0000</r>
       <r>   0.0222  1.0000</r>
       <r>   0.6309  1.0000</r>
       <r>   0.8045  1.0000</r>
       <r>   0.8058  1.0000</r>
       <r>   0.8911  1.0000</r>
       <r>   0.8911  1.0000</r>
       <r>   1.2286  1.0000</r>
       <r>   1.2286  1.0000</r>
       <r>   1.4085  1.0000</r>
       <r>   2.5433  1.0000</r>
       <r>   3.5604  1.0000</r>
       <r>   3.5604  1.0000</r>
       <r>   4.7196  0.0000</r>
       <r>  10.6986  0.0000</r>
       <r>  11.4334  0.0000</r>
       <r>  11.7379  0.0000</r>
       <r>  11.7379  0.0000</r>
      </set>
      <set comment="kpoint 27">
       <r>  -1.3216  1.0000</r>
       <r>  -1.3216  1.0000</r>
       <r>  -0.9784  1.0000</r>
       <r>  -0.9784  1.0000</r>
       <r>  -0.5249  1.0000</r>
       <r>  -0.5249  1.0000</r>
       <r>  -0.3808  1.0000</r>
       <r>  -0.3808  1.0000</r>
       <r>  -0.2600  1.0000</r>
       <r>  -0.2600  1.0000</r>
       <r>  -0.1167  1.0000</r>
       <r>  -0.1167  1.0000</r>
       <r>   0.7067  1.0000</r>
       <r>   0.7067  1.0000</r>
       <r>   0.7786  1.0000</r>
       <r>   0.7786  1.0000</r>
       <r>   0.9871  1.0000</r>
       <r>   0.9871  1.0000</r>
       <r>   1.2920  1.0000</r>
       <r>   1.2920  1.0000</r>
       <r>   3.0002  1.0000</r>
       <r>   3.0002  1.0000</r>
       <r>   4.1071  0.0000</r>
       <r>   4.1071  0.0000</r>
       <r>  11.1366  0.0000</r>
       <r>  11.1366  0.0000</r>
       <r>  12.3036  0.0000</r>
       <r>  12.3044  0.0000</r>
      </set>
      <set comment="kpoint 28">
       <r>  -1.1244  1.0000</r>
       <r>  -1.1244  1.0000</r>
       <r>  -1.1244  1.0000</r>
       <r>  -1.1244  1.0000</r>
       <r>  -0.4359  1.0000</r>
       <r>  -0.4359  1.0000</r>
       <r>  -0.4359  1.0000</r>
       <r>  -0.4359  1.0000</r>
       <r>  -0.1389  1.0000</r>
       <r>  -0.1389  1.0000</r>
       <r>  -0.1389  1.0000</r>
       <r>  -0.1389  1.0000</r>
       <r>   0.6663  1.0000</r>
       <r>   0.6663  1.0000</r>
       <r>   0.6663  1.0000</r>
       <r>   0.6663  1.0000</r>
       <r>   1.1070  1.0000</r>
       <r>   1.1070  1.0000</r>
       <r>   1.1070  1.0000</r>
       <r>   1.1070  1.0000</r>
       <r>   3.5091  1.0000</r>
       <r>   3.5091  1.0000</r>
       <r>   3.5091  1.0000</r>
       <r>   3.5091  1.0000</r>
       <r>  11.7168  0.0000</r>
       <r>  11.7168  0.0000</r>
       <r>  11.7168  0.0000</r>
       <r>  11.7168  0.0000</r>
      </set>
      <set comment="kpoint 29">
       <r>  -4.1970  1.0000</r>
       <r>  -1.7781  1.0000</r>
       <r>  -1.7781  1.0000</r>
       <r>  -1.7781  1.0000</r>
       <r>  -1.5510  1.0000</r>
       <r>  -1.5510  1.0000</r>
       <r>  -1.5510  1.0000</r>
       <r>  -0.1144  1.0000</r>
       <r>   0.0035  1.0000</r>
       <r>   0.0035  1.0000</r>
       <r>   1.0725  1.0000</r>
       <r>   1.0725  1.0000</r>
       <r>   1.8466  1.0000</r>
       <r>   1.8466  1.0000</r>
       <r>   1.8466  1.0000</r>
       <r>   1.8626  1.0000</r>
       <r>   1.8626  1.0000</r>
       <r>   1.8626  1.0000</r>
       <r>   2.1894  1.0000</r>
       <r>   2.1894  1.0000</r>
       <r>   2.1894  1.0000</r>
       <r>   5.1887  0.0000</r>
       <r>   5.1887  0.0000</r>
       <r>   5.1887  0.0000</r>
       <r>   9.2898  0.0000</r>
       <r>   9.2898  0.0000</r>
       <r>   9.2898  0.0000</r>
       <r>  13.0640  0.0000</r>
      </set>
      <set comment="kpoint 30">
       <r>  -3.9910  1.0000</r>
       <r>  -1.7194  1.0000</r>
       <r>  -1.6679  1.0000</r>
       <r>  -1.6679  1.0000</r>
       <r>  -1.4828  1.0000</r>
       <r>  -1.4314  1.0000</r>
       <r>  -1.4314  1.0000</r>
       <r>  -0.1834  1.0000</r>
       <r>   0.0694  1.0000</r>
       <r>   0.0763  1.0000</r>
       <r>   0.9866  1.0000</r>
       <r>   1.1248  1.0000</r>
       <r>   1.4481  1.0000</r>
       <r>   1.4481  1.0000</r>
       <r>   1.6395  1.0000</r>
       <r>   1.7290  1.0000</r>
       <r>   1.7433  1.0000</r>
       <r>   1.7433  1.0000</r>
       <r>   2.1125  1.0000</r>
       <r>   2.1714  1.0000</r>
       <r>   2.1714  1.0000</r>
       <r>   4.0718  0.0000</r>
       <r>   5.6910  0.0000</r>
       <r>   5.6910  0.0000</r>
       <r>   9.1592  0.0000</r>
       <r>   9.1592  0.0000</r>
       <r>  10.7444  0.0000</r>
       <r>  12.4776  0.0000</r>
      </set>
      <set comment="kpoint 31">
       <r>  -3.6565  1.0000</r>
       <r>  -1.6510  1.0000</r>
       <r>  -1.4948  1.0000</r>
       <r>  -1.4948  1.0000</r>
       <r>  -1.3728  1.0000</r>
       <r>  -1.2398  1.0000</r>
       <r>  -1.2398  1.0000</r>
       <r>  -0.3119  1.0000</r>
       <r>   0.1907  1.0000</r>
       <r>   0.1960  1.0000</r>
       <r>   0.8682  1.0000</r>
       <r>   0.9518  1.0000</r>
       <r>   0.9518  1.0000</r>
       <r>   1.2083  1.0000</r>
       <r>   1.2826  1.0000</r>
       <r>   1.5421  1.0000</r>
       <r>   1.5641  1.0000</r>
       <r>   1.5641  1.0000</r>
       <r>   2.0040  1.0000</r>
       <r>   2.1570  1.0000</r>
       <r>   2.1570  1.0000</r>
       <r>   3.0309  1.0000</r>
       <r>   6.3021  0.0000</r>
       <r>   6.3021  0.0000</r>
       <r>   9.0058  0.0000</r>
       <r>   9.0058  0.0000</r>
       <r>  11.9441  0.0000</r>
       <r>  11.9441  0.0000</r>
      </set>
      <set comment="kpoint 32">
       <r>  -3.2102  1.0000</r>
       <r>  -1.6349  1.0000</r>
       <r>  -1.2733  1.0000</r>
       <r>  -1.2733  1.0000</r>
       <r>  -1.2276  1.0000</r>
       <r>  -0.9970  1.0000</r>
       <r>  -0.9970  1.0000</r>
       <r>  -0.4792  1.0000</r>
       <r>   0.3120  1.0000</r>
       <r>   0.3599  1.0000</r>
       <r>   0.4553  1.0000</r>
       <r>   0.4553  1.0000</r>
       <r>   0.7876  1.0000</r>
       <r>   0.8375  1.0000</r>
       <r>   1.3075  1.0000</r>
       <r>   1.3182  1.0000</r>
       <r>   1.3381  1.0000</r>
       <r>   1.3381  1.0000</r>
       <r>   1.8755  1.0000</r>
       <r>   2.1487  1.0000</r>
       <r>   2.1487  1.0000</r>
       <r>   2.2112  1.0000</r>
       <r>   6.8674  0.0000</r>
       <r>   6.8674  0.0000</r>
       <r>   8.9243  0.0000</r>
       <r>   8.9243  0.0000</r>
       <r>  11.4654  0.0000</r>
       <r>  11.4654  0.0000</r>
      </set>
      <set comment="kpoint 33">
       <r>  -2.6880  1.0000</r>
       <r>  -1.7828  1.0000</r>
       <r>  -1.0554  1.0000</r>
       <r>  -1.0432  1.0000</r>
       <r>  -1.0432  1.0000</r>
       <r>  -0.7343  1.0000</r>
       <r>  -0.7343  1.0000</r>
       <r>  -0.6688  1.0000</r>
       <r>   0.0033  1.0000</r>
       <r>   0.0033  1.0000</r>
       <r>   0.3222  1.0000</r>
       <r>   0.4572  1.0000</r>
       <r>   0.5631  1.0000</r>
       <r>   0.8969  1.0000</r>
       <r>   1.0517  1.0000</r>
       <r>   1.1293  1.0000</r>
       <r>   1.1293  1.0000</r>
       <r>   1.4478  1.0000</r>
       <r>   1.6220  1.0000</r>
       <r>   1.7347  1.0000</r>
       <r>   2.1447  1.0000</r>
       <r>   2.1447  1.0000</r>
       <r>   7.2389  0.0000</r>
       <r>   7.2389  0.0000</r>
       <r>   8.9897  0.0000</r>
       <r>   8.9897  0.0000</r>
       <r>  11.0566  0.0000</r>
       <r>  11.0566  0.0000</r>
      </set>
      <set comment="kpoint 34">
       <r>  -2.1665  1.0000</r>
       <r>  -2.1665  1.0000</r>
       <r>  -0.9289  1.0000</r>
       <r>  -0.9289  1.0000</r>
       <r>  -0.8654  1.0000</r>
       <r>  -0.8654  1.0000</r>
       <r>  -0.5164  1.0000</r>
       <r>  -0.5164  1.0000</r>
       <r>  -0.2965  1.0000</r>
       <r>  -0.2965  1.0000</r>
       <r>   0.3045  1.0000</r>
       <r>   0.3045  1.0000</r>
       <r>   0.7977  1.0000</r>
       <r>   0.7977  1.0000</r>
       <r>   1.0386  1.0000</r>
       <r>   1.0386  1.0000</r>
       <r>   1.1950  1.0000</r>
       <r>   1.1950  1.0000</r>
       <r>   1.5894  1.0000</r>
       <r>   1.5894  1.0000</r>
       <r>   2.1435  1.0000</r>
       <r>   2.1435  1.0000</r>
       <r>   7.3556  0.0000</r>
       <r>   7.3556  0.0000</r>
       <r>   9.0745  0.0000</r>
       <r>   9.0745  0.0000</r>
       <r>  10.8678  0.0000</r>
       <r>  10.8678  0.0000</r>
      </set>
      <set comment="kpoint 35">
       <r>  -3.7927  1.0000</r>
       <r>  -1.6098  1.0000</r>
       <r>  -1.6098  1.0000</r>
       <r>  -1.6015  1.0000</r>
       <r>  -1.3633  1.0000</r>
       <r>  -1.3633  1.0000</r>
       <r>  -1.2861  1.0000</r>
       <r>  -0.2114  1.0000</r>
       <r>   0.1038  1.0000</r>
       <r>   0.1225  1.0000</r>
       <r>   0.9766  1.0000</r>
       <r>   1.1307  1.0000</r>
       <r>   1.1977  1.0000</r>
       <r>   1.1977  1.0000</r>
       <r>   1.2234  1.0000</r>
       <r>   1.5822  1.0000</r>
       <r>   1.6454  1.0000</r>
       <r>   1.6454  1.0000</r>
       <r>   2.1043  1.0000</r>
       <r>   2.1043  1.0000</r>
       <r>   2.1176  1.0000</r>
       <r>   4.5618  0.0000</r>
       <r>   4.5618  0.0000</r>
       <r>   6.1078  0.0000</r>
       <r>   8.9182  0.0000</r>
       <r>  10.4551  0.0000</r>
       <r>  10.4551  0.0000</r>
       <r>  11.8623  0.0000</r>
      </set>
      <set comment="kpoint 36">
       <r>  -3.4710  1.0000</r>
       <r>  -1.5420  1.0000</r>
       <r>  -1.4754  1.0000</r>
       <r>  -1.4383  1.0000</r>
       <r>  -1.2541  1.0000</r>
       <r>  -1.1719  1.0000</r>
       <r>  -1.0790  1.0000</r>
       <r>  -0.3026  1.0000</r>
       <r>   0.1945  1.0000</r>
       <r>   0.2019  1.0000</r>
       <r>   0.7058  1.0000</r>
       <r>   0.8383  1.0000</r>
       <r>   0.8525  1.0000</r>
       <r>   0.8995  1.0000</r>
       <r>   1.2259  1.0000</r>
       <r>   1.4253  1.0000</r>
       <r>   1.4547  1.0000</r>
       <r>   1.5186  1.0000</r>
       <r>   2.0053  1.0000</r>
       <r>   2.0651  1.0000</r>
       <r>   2.0658  1.0000</r>
       <r>   3.5234  1.0000</r>
       <r>   5.1421  0.0000</r>
       <r>   6.6227  0.0000</r>
       <r>   8.5943  0.0000</r>
       <r>  10.0480  0.0000</r>
       <r>  11.4728  0.0000</r>
       <r>  11.6848  0.0000</r>
      </set>
      <set comment="kpoint 37">
       <r>  -3.0433  1.0000</r>
       <r>  -1.5243  1.0000</r>
       <r>  -1.2893  1.0000</r>
       <r>  -1.2166  1.0000</r>
       <r>  -1.1138  1.0000</r>
       <r>  -0.9342  1.0000</r>
       <r>  -0.8499  1.0000</r>
       <r>  -0.4428  1.0000</r>
       <r>   0.2432  1.0000</r>
       <r>   0.2485  1.0000</r>
       <r>   0.3448  1.0000</r>
       <r>   0.4128  1.0000</r>
       <r>   0.4754  1.0000</r>
       <r>   0.8695  1.0000</r>
       <r>   1.2148  1.0000</r>
       <r>   1.2433  1.0000</r>
       <r>   1.3340  1.0000</r>
       <r>   1.3700  1.0000</r>
       <r>   1.8605  1.0000</r>
       <r>   2.0293  1.0000</r>
       <r>   2.0319  1.0000</r>
       <r>   2.6826  1.0000</r>
       <r>   5.7204  0.0000</r>
       <r>   7.0193  0.0000</r>
       <r>   8.3720  0.0000</r>
       <r>   9.6202  0.0000</r>
       <r>  11.3020  0.0000</r>
       <r>  12.3714  0.0000</r>
      </set>
      <set comment="kpoint 38">
       <r>  -2.5438  1.0000</r>
       <r>  -1.6690  1.0000</r>
       <r>  -1.0546  1.0000</r>
       <r>  -0.9697  1.0000</r>
       <r>  -0.9548  1.0000</r>
       <r>  -0.7179  1.0000</r>
       <r>  -0.6731  1.0000</r>
       <r>  -0.6091  1.0000</r>
       <r>  -0.1304  1.0000</r>
       <r>   0.0251  1.0000</r>
       <r>   0.2024  1.0000</r>
       <r>   0.2068  1.0000</r>
       <r>   0.5212  1.0000</r>
       <r>   0.9651  1.0000</r>
       <r>   1.0122  1.0000</r>
       <r>   1.0764  1.0000</r>
       <r>   1.1382  1.0000</r>
       <r>   1.5459  1.0000</r>
       <r>   1.6344  1.0000</r>
       <r>   2.0103  1.0000</r>
       <r>   2.0126  1.0000</r>
       <r>   2.0935  1.0000</r>
       <r>   6.2479  0.0000</r>
       <r>   7.0151  0.0000</r>
       <r>   8.5018  0.0000</r>
       <r>   9.2244  0.0000</r>
       <r>  11.3403  0.0000</r>
       <r>  11.9689  0.0000</r>
      </set>
      <set comment="kpoint 39">
       <r>  -2.0431  1.0000</r>
       <r>  -2.0431  1.0000</r>
       <r>  -0.8492  1.0000</r>
       <r>  -0.8492  1.0000</r>
       <r>  -0.7841  1.0000</r>
       <r>  -0.7841  1.0000</r>
       <r>  -0.6496  1.0000</r>
       <r>  -0.6496  1.0000</r>
       <r>  -0.2232  1.0000</r>
       <r>  -0.2232  1.0000</r>
       <r>   0.1398  1.0000</r>
       <r>   0.1398  1.0000</r>
       <r>   0.7296  1.0000</r>
       <r>   0.7296  1.0000</r>
       <r>   1.0255  1.0000</r>
       <r>   1.0255  1.0000</r>
       <r>   1.3073  1.0000</r>
       <r>   1.3073  1.0000</r>
       <r>   1.7609  1.0000</r>
       <r>   1.7609  1.0000</r>
       <r>   2.0056  1.0000</r>
       <r>   2.0056  1.0000</r>
       <r>   6.6958  0.0000</r>
       <r>   6.6958  0.0000</r>
       <r>   8.8504  0.0000</r>
       <r>   8.8504  0.0000</r>
       <r>  11.5830  0.0000</r>
       <r>  11.5830  0.0000</r>
      </set>
      <set comment="kpoint 40">
       <r>  -3.1719  1.0000</r>
       <r>  -1.4013  1.0000</r>
       <r>  -1.3746  1.0000</r>
       <r>  -1.3746  1.0000</r>
       <r>  -1.0611  1.0000</r>
       <r>  -1.0611  1.0000</r>
       <r>  -0.8731  1.0000</r>
       <r>  -0.3276  1.0000</r>
       <r>   0.2095  1.0000</r>
       <r>   0.2495  1.0000</r>
       <r>   0.3955  1.0000</r>
       <r>   0.3955  1.0000</r>
       <r>   0.6185  1.0000</r>
       <r>   0.8737  1.0000</r>
       <r>   1.2605  1.0000</r>
       <r>   1.3411  1.0000</r>
       <r>   1.3699  1.0000</r>
       <r>   1.3699  1.0000</r>
       <r>   1.9432  1.0000</r>
       <r>   1.9432  1.0000</r>
       <r>   1.9687  1.0000</r>
       <r>   4.0900  0.0000</r>
       <r>   4.0900  0.0000</r>
       <r>   6.9404  0.0000</r>
       <r>   8.1511  0.0000</r>
       <r>  10.9524  0.0000</r>
       <r>  10.9524  0.0000</r>
       <r>  11.3071  0.0000</r>
      </set>
      <set comment="kpoint 41">
       <r>  -2.7772  1.0000</r>
       <r>  -1.3619  1.0000</r>
       <r>  -1.2680  1.0000</r>
       <r>  -1.1621  1.0000</r>
       <r>  -0.9227  1.0000</r>
       <r>  -0.8215  1.0000</r>
       <r>  -0.6705  1.0000</r>
       <r>  -0.4056  1.0000</r>
       <r>  -0.0109  1.0000</r>
       <r>   0.1001  1.0000</r>
       <r>   0.2032  1.0000</r>
       <r>   0.3251  1.0000</r>
       <r>   0.3517  1.0000</r>
       <r>   0.8669  1.0000</r>
       <r>   1.1025  1.0000</r>
       <r>   1.1472  1.0000</r>
       <r>   1.2400  1.0000</r>
       <r>   1.5391  1.0000</r>
       <r>   1.7780  1.0000</r>
       <r>   1.8766  1.0000</r>
       <r>   1.8880  1.0000</r>
       <r>   3.2181  1.0000</r>
       <r>   4.6645  0.0000</r>
       <r>   6.8123  0.0000</r>
       <r>   8.1767  0.0000</r>
       <r>  10.2570  0.0000</r>
       <r>  11.3832  0.0000</r>
       <r>  11.8017  0.0000</r>
      </set>
      <set comment="kpoint 42">
       <r>  -2.3199  1.0000</r>
       <r>  -1.5072  1.0000</r>
       <r>  -1.0780  1.0000</r>
       <r>  -0.9224  1.0000</r>
       <r>  -0.7836  1.0000</r>
       <r>  -0.6596  1.0000</r>
       <r>  -0.5665  1.0000</r>
       <r>  -0.5212  1.0000</r>
       <r>  -0.2620  1.0000</r>
       <r>  -0.0531  1.0000</r>
       <r>   0.0448  1.0000</r>
       <r>   0.1177  1.0000</r>
       <r>   0.4949  1.0000</r>
       <r>   0.9044  1.0000</r>
       <r>   0.9765  1.0000</r>
       <r>   0.9996  1.0000</r>
       <r>   1.0798  1.0000</r>
       <r>   1.5438  1.0000</r>
       <r>   1.7918  1.0000</r>
       <r>   1.8331  1.0000</r>
       <r>   1.8371  1.0000</r>
       <r>   2.5638  1.0000</r>
       <r>   5.2263  0.0000</r>
       <r>   6.3202  0.0000</r>
       <r>   8.6007  0.0000</r>
       <r>   9.6444  0.0000</r>
       <r>  11.6685  0.0000</r>
       <r>  12.6620  0.0000</r>
      </set>
      <set comment="kpoint 43">
       <r>  -1.8609  1.0000</r>
       <r>  -1.8609  1.0000</r>
       <r>  -0.8526  1.0000</r>
       <r>  -0.8526  1.0000</r>
       <r>  -0.6634  1.0000</r>
       <r>  -0.6634  1.0000</r>
       <r>  -0.6513  1.0000</r>
       <r>  -0.6513  1.0000</r>
       <r>  -0.1609  1.0000</r>
       <r>  -0.1609  1.0000</r>
       <r>  -0.0091  1.0000</r>
       <r>  -0.0091  1.0000</r>
       <r>   0.6803  1.0000</r>
       <r>   0.6803  1.0000</r>
       <r>   0.9620  1.0000</r>
       <r>   0.9620  1.0000</r>
       <r>   1.2572  1.0000</r>
       <r>   1.2572  1.0000</r>
       <r>   1.8194  1.0000</r>
       <r>   1.8194  1.0000</r>
       <r>   2.1130  1.0000</r>
       <r>   2.1130  1.0000</r>
       <r>   5.7760  0.0000</r>
       <r>   5.7760  0.0000</r>
       <r>   9.1023  0.0000</r>
       <r>   9.1023  0.0000</r>
       <r>  12.1377  0.0000</r>
       <r>  12.1377  0.0000</r>
      </set>
      <set comment="kpoint 44">
       <r>  -2.4326  1.0000</r>
       <r>  -1.2035  1.0000</r>
       <r>  -1.1745  1.0000</r>
       <r>  -1.1745  1.0000</r>
       <r>  -0.6703  1.0000</r>
       <r>  -0.6703  1.0000</r>
       <r>  -0.5084  1.0000</r>
       <r>  -0.3970  1.0000</r>
       <r>  -0.2197  1.0000</r>
       <r>  -0.2197  1.0000</r>
       <r>   0.1695  1.0000</r>
       <r>   0.1923  1.0000</r>
       <r>   0.3885  1.0000</r>
       <r>   0.8515  1.0000</r>
       <r>   0.9524  1.0000</r>
       <r>   1.0552  1.0000</r>
       <r>   1.0552  1.0000</r>
       <r>   1.6879  1.0000</r>
       <r>   1.6879  1.0000</r>
       <r>   1.7570  1.0000</r>
       <r>   1.8022  1.0000</r>
       <r>   3.7654  1.0000</r>
       <r>   3.7654  1.0000</r>
       <r>   6.1799  0.0000</r>
       <r>   8.5090  0.0000</r>
       <r>  10.9425  0.0000</r>
       <r>  10.9425  0.0000</r>
       <r>  11.6573  0.0000</r>
      </set>
      <set comment="kpoint 45">
       <r>  -2.0420  1.0000</r>
       <r>  -1.3373  1.0000</r>
       <r>  -1.0998  1.0000</r>
       <r>  -1.0098  1.0000</r>
       <r>  -0.5484  1.0000</r>
       <r>  -0.5116  1.0000</r>
       <r>  -0.4523  1.0000</r>
       <r>  -0.4288  1.0000</r>
       <r>  -0.3216  1.0000</r>
       <r>  -0.2480  1.0000</r>
       <r>   0.0558  1.0000</r>
       <r>   0.0766  1.0000</r>
       <r>   0.4714  1.0000</r>
       <r>   0.8318  1.0000</r>
       <r>   0.8389  1.0000</r>
       <r>   0.9346  1.0000</r>
       <r>   0.9529  1.0000</r>
       <r>   1.4486  1.0000</r>
       <r>   1.6258  1.0000</r>
       <r>   1.6593  1.0000</r>
       <r>   2.1281  1.0000</r>
       <r>   3.0577  1.0000</r>
       <r>   4.3194  0.0000</r>
       <r>   5.5101  0.0000</r>
       <r>   9.0000  0.0000</r>
       <r>  10.1982  0.0000</r>
       <r>  11.6999  0.0000</r>
       <r>  12.1074  0.0000</r>
      </set>
      <set comment="kpoint 46">
       <r>  -1.6537  1.0000</r>
       <r>  -1.6537  1.0000</r>
       <r>  -0.9910  1.0000</r>
       <r>  -0.9910  1.0000</r>
       <r>  -0.5207  1.0000</r>
       <r>  -0.5207  1.0000</r>
       <r>  -0.4842  1.0000</r>
       <r>  -0.4842  1.0000</r>
       <r>  -0.1004  1.0000</r>
       <r>  -0.1004  1.0000</r>
       <r>  -0.0933  1.0000</r>
       <r>  -0.0933  1.0000</r>
       <r>   0.6243  1.0000</r>
       <r>   0.6243  1.0000</r>
       <r>   0.8332  1.0000</r>
       <r>   0.8332  1.0000</r>
       <r>   1.1793  1.0000</r>
       <r>   1.1793  1.0000</r>
       <r>   1.6138  1.0000</r>
       <r>   1.6138  1.0000</r>
       <r>   2.5300  1.0000</r>
       <r>   2.5300  1.0000</r>
       <r>   4.8931  0.0000</r>
       <r>   4.8931  0.0000</r>
       <r>   9.5593  0.0000</r>
       <r>   9.5593  0.0000</r>
       <r>  12.5273  0.0000</r>
       <r>  12.5273  0.0000</r>
      </set>
      <set comment="kpoint 47">
       <r>  -1.7436  1.0000</r>
       <r>  -1.2045  1.0000</r>
       <r>  -1.2045  1.0000</r>
       <r>  -1.1140  1.0000</r>
       <r>  -0.3914  1.0000</r>
       <r>  -0.3812  1.0000</r>
       <r>  -0.3812  1.0000</r>
       <r>  -0.3674  1.0000</r>
       <r>  -0.2526  1.0000</r>
       <r>  -0.2526  1.0000</r>
       <r>   0.0443  1.0000</r>
       <r>   0.0537  1.0000</r>
       <r>   0.4660  1.0000</r>
       <r>   0.7076  1.0000</r>
       <r>   0.7398  1.0000</r>
       <r>   0.7398  1.0000</r>
       <r>   0.9909  1.0000</r>
       <r>   1.3905  1.0000</r>
       <r>   1.3905  1.0000</r>
       <r>   1.5034  1.0000</r>
       <r>   2.5227  1.0000</r>
       <r>   3.5757  1.0000</r>
       <r>   3.5757  1.0000</r>
       <r>   4.7738  0.0000</r>
       <r>   9.5226  0.0000</r>
       <r>  10.8605  0.0000</r>
       <r>  10.8605  0.0000</r>
       <r>  12.4731  0.0000</r>
      </set>
      <set comment="kpoint 48">
       <r>  -1.4568  1.0000</r>
       <r>  -1.4568  1.0000</r>
       <r>  -1.1364  1.0000</r>
       <r>  -1.1364  1.0000</r>
       <r>  -0.3924  1.0000</r>
       <r>  -0.3924  1.0000</r>
       <r>  -0.3541  1.0000</r>
       <r>  -0.3541  1.0000</r>
       <r>  -0.0740  1.0000</r>
       <r>  -0.0740  1.0000</r>
       <r>  -0.0357  1.0000</r>
       <r>  -0.0357  1.0000</r>
       <r>   0.5588  1.0000</r>
       <r>   0.5588  1.0000</r>
       <r>   0.6687  1.0000</r>
       <r>   0.6687  1.0000</r>
       <r>   1.1552  1.0000</r>
       <r>   1.1552  1.0000</r>
       <r>   1.4056  1.0000</r>
       <r>   1.4056  1.0000</r>
       <r>   2.9908  1.0000</r>
       <r>   2.9908  1.0000</r>
       <r>   4.1371  0.0000</r>
       <r>   4.1371  0.0000</r>
       <r>  10.1394  0.0000</r>
       <r>  10.1394  0.0000</r>
       <r>  11.6197  0.0000</r>
       <r>  11.6197  0.0000</r>
      </set>
      <set comment="kpoint 49">
       <r>  -1.2869  1.0000</r>
       <r>  -1.2869  1.0000</r>
       <r>  -1.2869  1.0000</r>
       <r>  -1.2869  1.0000</r>
       <r>  -0.3322  1.0000</r>
       <r>  -0.3322  1.0000</r>
       <r>  -0.3322  1.0000</r>
       <r>  -0.3322  1.0000</r>
       <r>  -0.0066  1.0000</r>
       <r>  -0.0066  1.0000</r>
       <r>  -0.0066  1.0000</r>
       <r>  -0.0066  1.0000</r>
       <r>   0.5493  1.0000</r>
       <r>   0.5493  1.0000</r>
       <r>   0.5493  1.0000</r>
       <r>   0.5493  1.0000</r>
       <r>   1.2345  1.0000</r>
       <r>   1.2345  1.0000</r>
       <r>   1.2345  1.0000</r>
       <r>   1.2345  1.0000</r>
       <r>   3.5140  1.0000</r>
       <r>   3.5140  1.0000</r>
       <r>   3.5140  1.0000</r>
       <r>   3.5140  1.0000</r>
       <r>  10.8255  0.0000</r>
       <r>  10.8255  0.0000</r>
       <r>  10.8255  0.0000</r>
       <r>  10.8255  0.0000</r>
      </set>
      <set comment="kpoint 50">
       <r>  -3.6051  1.0000</r>
       <r>  -1.5540  1.0000</r>
       <r>  -1.5540  1.0000</r>
       <r>  -1.5540  1.0000</r>
       <r>  -1.2118  1.0000</r>
       <r>  -1.2118  1.0000</r>
       <r>  -1.2118  1.0000</r>
       <r>  -0.2104  1.0000</r>
       <r>   0.1325  1.0000</r>
       <r>   0.1325  1.0000</r>
       <r>   0.9940  1.0000</r>
       <r>   0.9940  1.0000</r>
       <r>   0.9940  1.0000</r>
       <r>   1.0659  1.0000</r>
       <r>   1.0659  1.0000</r>
       <r>   1.4191  1.0000</r>
       <r>   1.4191  1.0000</r>
       <r>   1.4191  1.0000</r>
       <r>   2.1233  1.0000</r>
       <r>   2.1233  1.0000</r>
       <r>   2.1233  1.0000</r>
       <r>   4.9548  0.0000</r>
       <r>   4.9548  0.0000</r>
       <r>   4.9548  0.0000</r>
       <r>   9.9279  0.0000</r>
       <r>   9.9279  0.0000</r>
       <r>   9.9279  0.0000</r>
       <r>  12.7494  0.0000</r>
      </set>
      <set comment="kpoint 51">
       <r>  -3.3027  1.0000</r>
       <r>  -1.5034  1.0000</r>
       <r>  -1.4412  1.0000</r>
       <r>  -1.4412  1.0000</r>
       <r>  -1.0918  1.0000</r>
       <r>  -1.0012  1.0000</r>
       <r>  -1.0012  1.0000</r>
       <r>  -0.2605  1.0000</r>
       <r>   0.1820  1.0000</r>
       <r>   0.1891  1.0000</r>
       <r>   0.6299  1.0000</r>
       <r>   0.6299  1.0000</r>
       <r>   0.6639  1.0000</r>
       <r>   0.9975  1.0000</r>
       <r>   1.2003  1.0000</r>
       <r>   1.2098  1.0000</r>
       <r>   1.2829  1.0000</r>
       <r>   1.2829  1.0000</r>
       <r>   2.0804  1.0000</r>
       <r>   2.0804  1.0000</r>
       <r>   2.0882  1.0000</r>
       <r>   3.8827  1.0000</r>
       <r>   5.4636  0.0000</r>
       <r>   5.4636  0.0000</r>
       <r>   9.2598  0.0000</r>
       <r>   9.2598  0.0000</r>
       <r>  10.8308  0.0000</r>
       <r>  12.6542  0.0000</r>
      </set>
      <set comment="kpoint 52">
       <r>  -2.9037  1.0000</r>
       <r>  -1.5028  1.0000</r>
       <r>  -1.2710  1.0000</r>
       <r>  -1.2710  1.0000</r>
       <r>  -0.9405  1.0000</r>
       <r>  -0.7816  1.0000</r>
       <r>  -0.7816  1.0000</r>
       <r>  -0.3637  1.0000</r>
       <r>   0.2141  1.0000</r>
       <r>   0.2573  1.0000</r>
       <r>   0.2573  1.0000</r>
       <r>   0.2799  1.0000</r>
       <r>   0.3176  1.0000</r>
       <r>   0.9860  1.0000</r>
       <r>   1.0178  1.0000</r>
       <r>   1.1488  1.0000</r>
       <r>   1.1488  1.0000</r>
       <r>   1.3645  1.0000</r>
       <r>   2.0043  1.0000</r>
       <r>   2.0185  1.0000</r>
       <r>   2.0185  1.0000</r>
       <r>   2.9612  1.0000</r>
       <r>   5.9970  0.0000</r>
       <r>   5.9970  0.0000</r>
       <r>   8.6082  0.0000</r>
       <r>   8.6082  0.0000</r>
       <r>  11.7003  0.0000</r>
       <r>  12.6879  0.0000</r>
      </set>
      <set comment="kpoint 53">
       <r>  -2.4431  1.0000</r>
       <r>  -1.6457  1.0000</r>
       <r>  -1.0536  1.0000</r>
       <r>  -1.0536  1.0000</r>
       <r>  -0.7834  1.0000</r>
       <r>  -0.6714  1.0000</r>
       <r>  -0.6714  1.0000</r>
       <r>  -0.4951  1.0000</r>
       <r>   0.0043  1.0000</r>
       <r>   0.0043  1.0000</r>
       <r>   0.0894  1.0000</r>
       <r>   0.1528  1.0000</r>
       <r>   0.4082  1.0000</r>
       <r>   0.7688  1.0000</r>
       <r>   1.0078  1.0000</r>
       <r>   1.0078  1.0000</r>
       <r>   1.2310  1.0000</r>
       <r>   1.5424  1.0000</r>
       <r>   1.8771  1.0000</r>
       <r>   1.9713  1.0000</r>
       <r>   1.9713  1.0000</r>
       <r>   2.2126  1.0000</r>
       <r>   6.4782  0.0000</r>
       <r>   6.4782  0.0000</r>
       <r>   8.0644  0.0000</r>
       <r>   8.0644  0.0000</r>
       <r>  12.5860  0.0000</r>
       <r>  12.7746  0.0000</r>
      </set>
      <set comment="kpoint 54">
       <r>  -1.9870  1.0000</r>
       <r>  -1.9870  1.0000</r>
       <r>  -0.8595  1.0000</r>
       <r>  -0.8595  1.0000</r>
       <r>  -0.7634  1.0000</r>
       <r>  -0.7634  1.0000</r>
       <r>  -0.6363  1.0000</r>
       <r>  -0.6363  1.0000</r>
       <r>  -0.0501  1.0000</r>
       <r>  -0.0501  1.0000</r>
       <r>   0.0640  1.0000</r>
       <r>   0.0640  1.0000</r>
       <r>   0.5729  1.0000</r>
       <r>   0.5729  1.0000</r>
       <r>   0.9380  1.0000</r>
       <r>   0.9380  1.0000</r>
       <r>   1.6366  1.0000</r>
       <r>   1.6366  1.0000</r>
       <r>   1.7183  1.0000</r>
       <r>   1.7183  1.0000</r>
       <r>   1.9545  1.0000</r>
       <r>   1.9545  1.0000</r>
       <r>   6.7242  0.0000</r>
       <r>   6.7242  0.0000</r>
       <r>   7.8000  0.0000</r>
       <r>   7.8000  0.0000</r>
       <r>  12.8229  0.0000</r>
       <r>  12.8229  0.0000</r>
      </set>
      <set comment="kpoint 55">
       <r>  -3.0339  1.0000</r>
       <r>  -1.4155  1.0000</r>
       <r>  -1.4155  1.0000</r>
       <r>  -1.3931  1.0000</r>
       <r>  -0.8716  1.0000</r>
       <r>  -0.8716  1.0000</r>
       <r>  -0.7966  1.0000</r>
       <r>  -0.2326  1.0000</r>
       <r>   0.1870  1.0000</r>
       <r>   0.1946  1.0000</r>
       <r>   0.3555  1.0000</r>
       <r>   0.3555  1.0000</r>
       <r>   0.4691  1.0000</r>
       <r>   1.0344  1.0000</r>
       <r>   1.0785  1.0000</r>
       <r>   1.0823  1.0000</r>
       <r>   1.0823  1.0000</r>
       <r>   1.2875  1.0000</r>
       <r>   2.0416  1.0000</r>
       <r>   2.0622  1.0000</r>
       <r>   2.0622  1.0000</r>
       <r>   4.3677  0.0000</r>
       <r>   4.3677  0.0000</r>
       <r>   5.9055  0.0000</r>
       <r>   8.3919  0.0000</r>
       <r>   9.9273  0.0000</r>
       <r>   9.9273  0.0000</r>
       <r>  12.7500  0.0000</r>
      </set>
      <set comment="kpoint 56">
       <r>  -2.6851  1.0000</r>
       <r>  -1.4475  1.0000</r>
       <r>  -1.2943  1.0000</r>
       <r>  -1.2822  1.0000</r>
       <r>  -0.7020  1.0000</r>
       <r>  -0.6581  1.0000</r>
       <r>  -0.6210  1.0000</r>
       <r>  -0.2555  1.0000</r>
       <r>   0.0778  1.0000</r>
       <r>   0.0922  1.0000</r>
       <r>   0.1797  1.0000</r>
       <r>   0.2432  1.0000</r>
       <r>   0.2697  1.0000</r>
       <r>   0.8625  1.0000</r>
       <r>   0.9370  1.0000</r>
       <r>   0.9835  1.0000</r>
       <r>   1.0779  1.0000</r>
       <r>   1.4840  1.0000</r>
       <r>   1.9695  1.0000</r>
       <r>   1.9866  1.0000</r>
       <r>   1.9871  1.0000</r>
       <r>   3.4027  1.0000</r>
       <r>   4.9051  0.0000</r>
       <r>   6.3756  0.0000</r>
       <r>   7.6180  0.0000</r>
       <r>   9.0936  0.0000</r>
       <r>  10.6700  0.0000</r>
       <r>  12.9635  0.0000</r>
      </set>
      <set comment="kpoint 57">
       <r>  -2.2902  1.0000</r>
       <r>  -1.6029  1.0000</r>
       <r>  -1.1606  1.0000</r>
       <r>  -1.1305  1.0000</r>
       <r>  -0.6003  1.0000</r>
       <r>  -0.5800  1.0000</r>
       <r>  -0.5271  1.0000</r>
       <r>  -0.3184  1.0000</r>
       <r>  -0.0585  1.0000</r>
       <r>   0.0076  1.0000</r>
       <r>   0.0969  1.0000</r>
       <r>   0.1600  1.0000</r>
       <r>   0.3361  1.0000</r>
       <r>   0.6534  1.0000</r>
       <r>   0.8299  1.0000</r>
       <r>   0.8763  1.0000</r>
       <r>   1.2788  1.0000</r>
       <r>   1.7260  1.0000</r>
       <r>   1.8389  1.0000</r>
       <r>   1.9030  1.0000</r>
       <r>   1.9124  1.0000</r>
       <r>   2.6153  1.0000</r>
       <r>   5.4636  0.0000</r>
       <r>   6.5307  0.0000</r>
       <r>   7.2886  0.0000</r>
       <r>   8.3606  0.0000</r>
       <r>  11.4876  0.0000</r>
       <r>  13.2858  0.0000</r>
      </set>
      <set comment="kpoint 58">
       <r>  -1.9038  1.0000</r>
       <r>  -1.9038  1.0000</r>
       <r>  -1.0610  1.0000</r>
       <r>  -1.0610  1.0000</r>
       <r>  -0.6390  1.0000</r>
       <r>  -0.6390  1.0000</r>
       <r>  -0.4011  1.0000</r>
       <r>  -0.4011  1.0000</r>
       <r>  -0.0284  1.0000</r>
       <r>  -0.0284  1.0000</r>
       <r>   0.1057  1.0000</r>
       <r>   0.1057  1.0000</r>
       <r>   0.4744  1.0000</r>
       <r>   0.4744  1.0000</r>
       <r>   0.7988  1.0000</r>
       <r>   0.7988  1.0000</r>
       <r>   1.5897  1.0000</r>
       <r>   1.5897  1.0000</r>
       <r>   1.8792  1.0000</r>
       <r>   1.8792  1.0000</r>
       <r>   2.0596  1.0000</r>
       <r>   2.0596  1.0000</r>
       <r>   6.0339  0.0000</r>
       <r>   6.0339  0.0000</r>
       <r>   7.7312  0.0000</r>
       <r>   7.7312  0.0000</r>
       <r>  12.3646  0.0000</r>
       <r>  12.3646  0.0000</r>
      </set>
      <set comment="kpoint 59">
       <r>  -2.4086  1.0000</r>
       <r>  -1.3661  1.0000</r>
       <r>  -1.3661  1.0000</r>
       <r>  -1.2862  1.0000</r>
       <r>  -0.5053  1.0000</r>
       <r>  -0.4818  1.0000</r>
       <r>  -0.4818  1.0000</r>
       <r>  -0.1689  1.0000</r>
       <r>  -0.0643  1.0000</r>
       <r>  -0.0643  1.0000</r>
       <r>   0.1662  1.0000</r>
       <r>   0.2345  1.0000</r>
       <r>   0.2825  1.0000</r>
       <r>   0.7636  1.0000</r>
       <r>   0.7812  1.0000</r>
       <r>   0.7812  1.0000</r>
       <r>   1.0927  1.0000</r>
       <r>   1.7348  1.0000</r>
       <r>   1.8872  1.0000</r>
       <r>   1.9011  1.0000</r>
       <r>   1.9011  1.0000</r>
       <r>   3.9154  0.3125</r>
       <r>   3.9154  0.3125</r>
       <r>   6.4411  0.0000</r>
       <r>   7.1251  0.0000</r>
       <r>   9.7347  0.0000</r>
       <r>   9.7347  0.0000</r>
       <r>  13.2149  0.0000</r>
      </set>
      <set comment="kpoint 60">
       <r>  -2.1031  1.0000</r>
       <r>  -1.5448  1.0000</r>
       <r>  -1.2860  1.0000</r>
       <r>  -1.2598  1.0000</r>
       <r>  -0.4789  1.0000</r>
       <r>  -0.4619  1.0000</r>
       <r>  -0.2729  1.0000</r>
       <r>  -0.1438  1.0000</r>
       <r>  -0.1357  1.0000</r>
       <r>   0.0467  1.0000</r>
       <r>   0.0991  1.0000</r>
       <r>   0.2891  1.0000</r>
       <r>   0.3043  1.0000</r>
       <r>   0.5806  1.0000</r>
       <r>   0.6522  1.0000</r>
       <r>   0.7039  1.0000</r>
       <r>   1.2264  1.0000</r>
       <r>   1.7337  1.0000</r>
       <r>   1.8021  1.0000</r>
       <r>   1.8097  1.0000</r>
       <r>   2.0580  1.0000</r>
       <r>   3.0967  1.0000</r>
       <r>   4.4697  0.0000</r>
       <r>   5.7507  0.0000</r>
       <r>   7.5768  0.0000</r>
       <r>   8.9116  0.0000</r>
       <r>  10.4870  0.0000</r>
       <r>  12.2346  0.0000</r>
      </set>
      <set comment="kpoint 61">
       <r>  -1.8025  1.0000</r>
       <r>  -1.8025  1.0000</r>
       <r>  -1.2475  1.0000</r>
       <r>  -1.2475  1.0000</r>
       <r>  -0.4928  1.0000</r>
       <r>  -0.4928  1.0000</r>
       <r>  -0.1509  1.0000</r>
       <r>  -0.1509  1.0000</r>
       <r>  -0.0615  1.0000</r>
       <r>  -0.0615  1.0000</r>
       <r>   0.2404  1.0000</r>
       <r>   0.2404  1.0000</r>
       <r>   0.4104  1.0000</r>
       <r>   0.4104  1.0000</r>
       <r>   0.6365  1.0000</r>
       <r>   0.6365  1.0000</r>
       <r>   1.4829  1.0000</r>
       <r>   1.4829  1.0000</r>
       <r>   1.7671  1.0000</r>
       <r>   1.7671  1.0000</r>
       <r>   2.4864  1.0000</r>
       <r>   2.4864  1.0000</r>
       <r>   5.0745  0.0000</r>
       <r>   5.0745  0.0000</r>
       <r>   8.1956  0.0000</r>
       <r>   8.1956  0.0000</r>
       <r>  11.3247  0.0000</r>
       <r>  11.3247  0.0000</r>
      </set>
      <set comment="kpoint 62">
       <r>  -1.8983  1.0000</r>
[...]
       <r>   3.5282  1.0000</r>
       <r>   3.5282  1.0000</r>
       <r>   3.5282  1.0000</r>
       <r>   9.5516  0.0000</r>
       <r>   9.5516  0.0000</r>
       <r>   9.5516  0.0000</r>
       <r>   9.5516  0.0000</r>
      </set>
      <set comment="kpoint 65">
       <r>  -2.8172  1.0000</r>
       <r>  -1.4133  1.0000</r>
       <r>  -1.4133  1.0000</r>
       <r>  -1.4133  1.0000</r>
       <r>  -0.6653  1.0000</r>
       <r>  -0.6653  1.0000</r>
       <r>  -0.6653  1.0000</r>
       <r>  -0.1059  1.0000</r>
       <r>   0.1612  1.0000</r>
       <r>   0.1612  1.0000</r>
       <r>   0.2773  1.0000</r>
       <r>   0.2773  1.0000</r>
       <r>   0.2773  1.0000</r>
       <r>   0.8658  1.0000</r>
       <r>   0.8658  1.0000</r>
       <r>   0.8658  1.0000</r>
       <r>   1.2372  1.0000</r>
       <r>   1.2372  1.0000</r>
       <r>   2.0798  1.0000</r>
       <r>   2.0798  1.0000</r>
       <r>   2.0798  1.0000</r>
       <r>   4.7778  0.0000</r>
       <r>   4.7778  0.0000</r>
       <r>   4.7778  0.0000</r>
       <r>   8.9032  0.0000</r>
       <r>   8.9032  0.0000</r>
       <r>   8.9032  0.0000</r>
       <r>  14.1756  0.0000</r>
      </set>
      <set comment="kpoint 66">
       <r>  -2.5418  1.0000</r>
       <r>  -1.4995  1.0000</r>
       <r>  -1.3741  1.0000</r>
       <r>  -1.3741  1.0000</r>
       <r>  -0.5232  1.0000</r>
       <r>  -0.5232  1.0000</r>
       <r>  -0.4849  1.0000</r>
       <r>  -0.0277  1.0000</r>
       <r>   0.1052  1.0000</r>
       <r>   0.1495  1.0000</r>
       <r>   0.1686  1.0000</r>
       <r>   0.2234  1.0000</r>
       <r>   0.2234  1.0000</r>
       <r>   0.6575  1.0000</r>
       <r>   0.7391  1.0000</r>
       <r>   0.7391  1.0000</r>
       <r>   1.2825  1.0000</r>
       <r>   1.4524  1.0000</r>
       <r>   2.0262  1.0000</r>
       <r>   2.0262  1.0000</r>
       <r>   2.0597  1.0000</r>
       <r>   3.7321  1.0000</r>
       <r>   5.2730  0.0000</r>
       <r>   5.2730  0.0000</r>
       <r>   7.9735  0.0000</r>
       <r>   7.9735  0.0000</r>
       <r>   9.5744  0.0000</r>
       <r>  13.1286  0.0000</r>
      </set>
      <set comment="kpoint 67">
       <r>  -2.2356  1.0000</r>
       <r>  -1.6761  1.0000</r>
       <r>  -1.3206  1.0000</r>
       <r>  -1.3206  1.0000</r>
       <r>  -0.5131  1.0000</r>
       <r>  -0.5131  1.0000</r>
       <r>  -0.2744  1.0000</r>
       <r>  -0.0288  1.0000</r>
       <r>  -0.0012  1.0000</r>
       <r>   0.0918  1.0000</r>
       <r>   0.2234  1.0000</r>
       <r>   0.2898  1.0000</r>
       <r>   0.2898  1.0000</r>
       <r>   0.4735  1.0000</r>
       <r>   0.6539  1.0000</r>
       <r>   0.6539  1.0000</r>
       <r>   1.5547  1.0000</r>
       <r>   1.6593  1.0000</r>
       <r>   1.9512  1.0000</r>
       <r>   1.9512  1.0000</r>
       <r>   1.9774  1.0000</r>
       <r>   2.8228  1.0000</r>
       <r>   5.8294  0.0000</r>
       <r>   5.8294  0.0000</r>
       <r>   7.1597  0.0000</r>
       <r>   7.1597  0.0000</r>
       <r>  10.3553  0.0000</r>
       <r>  12.1423  0.0000</r>
      </set>
      <set comment="kpoint 68">
       <r>  -1.9335  1.0000</r>
       <r>  -1.9335  1.0000</r>
       <r>  -1.2937  1.0000</r>
       <r>  -1.2937  1.0000</r>
       <r>  -0.5373  1.0000</r>
       <r>  -0.5373  1.0000</r>
       <r>  -0.0668  1.0000</r>
       <r>  -0.0668  1.0000</r>
       <r>  -0.0356  1.0000</r>
       <r>  -0.0356  1.0000</r>
       <r>   0.3262  1.0000</r>
       <r>   0.3262  1.0000</r>
       <r>   0.3643  1.0000</r>
       <r>   0.3643  1.0000</r>
       <r>   0.6030  1.0000</r>
       <r>   0.6030  1.0000</r>
       <r>   1.8397  1.0000</r>
       <r>   1.8397  1.0000</r>
       <r>   1.9156  1.0000</r>
       <r>   1.9156  1.0000</r>
       <r>   2.0840  1.0000</r>
       <r>   2.0840  1.0000</r>
       <r>   6.4151  0.0000</r>
       <r>   6.4151  0.0000</r>
       <r>   6.4890  0.0000</r>
       <r>   6.4890  0.0000</r>
       <r>  11.2163  0.0000</r>
       <r>  11.2163  0.0000</r>
      </set>
      <set comment="kpoint 69">
       <r>  -2.3597  1.0000</r>
       <r>  -1.5191  1.0000</r>
       <r>  -1.5191  1.0000</r>
       <r>  -1.4371  1.0000</r>
       <r>  -0.4443  1.0000</r>
       <r>  -0.3829  1.0000</r>
       <r>  -0.3829  1.0000</r>
       <r>   0.0758  1.0000</r>
       <r>   0.1236  1.0000</r>
       <r>   0.2167  1.0000</r>
       <r>   0.2167  1.0000</r>
       <r>   0.2712  1.0000</r>
       <r>   0.4032  1.0000</r>
       <r>   0.5469  1.0000</r>
       <r>   0.5469  1.0000</r>
       <r>   0.5573  1.0000</r>
       <r>   1.3411  1.0000</r>
       <r>   1.6387  1.0000</r>
       <r>   1.9948  1.0000</r>
       <r>   2.0240  1.0000</r>
       <r>   2.0240  1.0000</r>
       <r>   4.1765  0.0000</r>
       <r>   4.1765  0.0000</r>
       <r>   5.7342  0.0000</r>
       <r>   6.9744  0.0000</r>
       <r>   8.5837  0.0000</r>
       <r>   8.5837  0.0000</r>
       <r>  12.0636  0.0000</r>
      </set>
      <set comment="kpoint 70">
       <r>  -2.1517  1.0000</r>
       <r>  -1.7130  1.0000</r>
       <r>  -1.5163  1.0000</r>
       <r>  -1.4766  1.0000</r>
       <r>  -0.4186  1.0000</r>
       <r>  -0.3914  1.0000</r>
       <r>  -0.2286  1.0000</r>
       <r>   0.0106  1.0000</r>
       <r>   0.1440  1.0000</r>
       <r>   0.2476  1.0000</r>
       <r>   0.3678  1.0000</r>
       <r>   0.3949  1.0000</r>
       <r>   0.4044  1.0000</r>
       <r>   0.4497  1.0000</r>
       <r>   0.5406  1.0000</r>
       <r>   0.5651  1.0000</r>
       <r>   1.5076  1.0000</r>
       <r>   1.9274  1.0000</r>
       <r>   1.9432  1.0000</r>
       <r>   1.9451  1.0000</r>
       <r>   1.9451  1.0000</r>
       <r>   3.2119  1.0000</r>
       <r>   4.7085  0.0000</r>
       <r>   6.0076  0.0000</r>
       <r>   6.3848  0.0000</r>
       <r>   7.7158  0.0000</r>
       <r>   9.3235  0.0000</r>
       <r>  11.0729  0.0000</r>
      </set>
      <set comment="kpoint 71">
       <r>  -1.9309  1.0000</r>
       <r>  -1.9309  1.0000</r>
       <r>  -1.5012  1.0000</r>
       <r>  -1.5012  1.0000</r>
       <r>  -0.4113  1.0000</r>
       <r>  -0.4113  1.0000</r>
       <r>  -0.0927  1.0000</r>
       <r>  -0.0927  1.0000</r>
       <r>   0.2128  1.0000</r>
       <r>   0.2128  1.0000</r>
       <r>   0.3811  1.0000</r>
       <r>   0.3811  1.0000</r>
       <r>   0.4103  1.0000</r>
       <r>   0.4103  1.0000</r>
       <r>   0.6096  1.0000</r>
       <r>   0.6096  1.0000</r>
       <r>   1.7715  1.0000</r>
       <r>   1.7715  1.0000</r>
       <r>   1.8949  1.0000</r>
       <r>   1.8949  1.0000</r>
       <r>   2.4435  1.0000</r>
       <r>   2.4435  1.0000</r>
       <r>   5.3284  0.0000</r>
       <r>   5.3284  0.0000</r>
       <r>   6.9708  0.0000</r>
       <r>   6.9708  0.0000</r>
       <r>  10.1581  0.0000</r>
       <r>  10.1581  0.0000</r>
      </set>
      <set comment="kpoint 72">
       <r>  -2.0358  1.0000</r>
       <r>  -1.7117  1.0000</r>
       <r>  -1.7117  1.0000</r>
       <r>  -1.5941  1.0000</r>
       <r>  -0.3387  1.0000</r>
       <r>  -0.2533  1.0000</r>
       <r>  -0.2533  1.0000</r>
       <r>  -0.0328  1.0000</r>
       <r>   0.1148  1.0000</r>
       <r>   0.2674  1.0000</r>
       <r>   0.2674  1.0000</r>
       <r>   0.3203  1.0000</r>
       <r>   0.6338  1.0000</r>
       <r>   0.6338  1.0000</r>
       <r>   0.7039  1.0000</r>
       <r>   0.7625  1.0000</r>
       <r>   1.4982  1.0000</r>
       <r>   1.8512  1.0000</r>
       <r>   1.8512  1.0000</r>
       <r>   1.8534  1.0000</r>
       <r>   2.3565  1.0000</r>
       <r>   3.7220  1.0000</r>
       <r>   3.7220  1.0000</r>
       <r>   5.1208  0.0000</r>
       <r>   6.9258  0.0000</r>
       <r>   8.4082  0.0000</r>
       <r>   8.4082  0.0000</r>
       <r>  10.0925  0.0000</r>
      </set>
      <set comment="kpoint 73">
       <r>  -1.8879  1.0000</r>
       <r>  -1.8879  1.0000</r>
       <r>  -1.6722  1.0000</r>
       <r>  -1.6722  1.0000</r>
       <r>  -0.2863  1.0000</r>
       <r>  -0.2863  1.0000</r>
       <r>  -0.1266  1.0000</r>
       <r>  -0.1266  1.0000</r>
       <r>   0.1628  1.0000</r>
       <r>   0.1628  1.0000</r>
       <r>   0.2615  1.0000</r>
       <r>   0.2615  1.0000</r>
       <r>   0.7437  1.0000</r>
       <r>   0.7437  1.0000</r>
       <r>   0.8102  1.0000</r>
       <r>   0.8102  1.0000</r>
       <r>   1.6690  1.0000</r>
       <r>   1.6690  1.0000</r>
       <r>   1.8019  1.0000</r>
       <r>   1.8019  1.0000</r>
       <r>   2.9294  1.0000</r>
       <r>   2.9294  1.0000</r>
       <r>   4.3505  0.0000</r>
       <r>   4.3505  0.0000</r>
       <r>   7.6106  0.0000</r>
       <r>   7.6106  0.0000</r>
       <r>   9.2035  0.0000</r>
       <r>   9.2035  0.0000</r>
      </set>
      <set comment="kpoint 74">
       <r>  -1.8018  1.0000</r>
       <r>  -1.8018  1.0000</r>
       <r>  -1.8018  1.0000</r>
       <r>  -1.8018  1.0000</r>
       <r>  -0.1860  1.0000</r>
       <r>  -0.1860  1.0000</r>
       <r>  -0.1860  1.0000</r>
       <r>  -0.1860  1.0000</r>
       <r>   0.1731  1.0000</r>
       <r>   0.1731  1.0000</r>
       <r>   0.1731  1.0000</r>
       <r>   0.1731  1.0000</r>
       <r>   0.9028  1.0000</r>
       <r>   0.9028  1.0000</r>
       <r>   0.9028  1.0000</r>
       <r>   0.9028  1.0000</r>
       <r>   1.6790  1.0000</r>
       <r>   1.6790  1.0000</r>
       <r>   1.6790  1.0000</r>
       <r>   1.6790  1.0000</r>
       <r>   3.5515  1.0000</r>
       <r>   3.5515  1.0000</r>
       <r>   3.5515  1.0000</r>
       <r>   3.5515  1.0000</r>
       <r>   8.3548  0.0000</r>
       <r>   8.3548  0.0000</r>
       <r>   8.3548  0.0000</r>
       <r>   8.3548  0.0000</r>
      </set>
      <set comment="kpoint 75">
       <r>  -2.2786  1.0000</r>
       <r>  -1.6287  1.0000</r>
       <r>  -1.6287  1.0000</r>
       <r>  -1.6287  1.0000</r>
       <r>  -0.3350  1.0000</r>
       <r>  -0.3350  1.0000</r>
       <r>  -0.3350  1.0000</r>
       <r>   0.0646  1.0000</r>
       <r>   0.0646  1.0000</r>
       <r>   0.3694  1.0000</r>
       <r>   0.3694  1.0000</r>
       <r>   0.3694  1.0000</r>
       <r>   0.5454  1.0000</r>
       <r>   0.5454  1.0000</r>
       <r>   0.5454  1.0000</r>
       <r>   0.6894  1.0000</r>
       <r>   1.5761  1.0000</r>
       <r>   1.5761  1.0000</r>
       <r>   2.0451  1.0000</r>
       <r>   2.0451  1.0000</r>
       <r>   2.0451  1.0000</r>
       <r>   4.5417  0.0000</r>
       <r>   4.5417  0.0000</r>
       <r>   4.5417  0.0000</r>
       <r>   7.5623  0.0000</r>
       <r>   7.5623  0.0000</r>
       <r>   7.5623  0.0000</r>
       <r>  10.9870  0.0000</r>
      </set>
      <set comment="kpoint 76">
       <r>  -2.1614  1.0000</r>
       <r>  -1.8269  1.0000</r>
       <r>  -1.6942  1.0000</r>
       <r>  -1.6942  1.0000</r>
       <r>  -0.3149  1.0000</r>
       <r>  -0.3149  1.0000</r>
       <r>  -0.2089  1.0000</r>
       <r>   0.0012  1.0000</r>
       <r>   0.0609  1.0000</r>
       <r>   0.2177  1.0000</r>
       <r>   0.2716  1.0000</r>
       <r>   0.2716  1.0000</r>
       <r>   0.7043  1.0000</r>
       <r>   0.8184  1.0000</r>
       <r>   0.8184  1.0000</r>
       <r>   0.9391  1.0000</r>
       <r>   1.7794  1.0000</r>
       <r>   1.8266  1.0000</r>
       <r>   1.9964  1.0000</r>
       <r>   1.9964  1.0000</r>
       <r>   2.0250  1.0000</r>
       <r>   3.4653  1.0000</r>
       <r>   4.9734  0.0000</r>
       <r>   4.9734  0.0000</r>
       <r>   6.7283  0.0000</r>
       <r>   6.7283  0.0000</r>
       <r>   8.2761  0.0000</r>
       <r>   9.9950  0.0000</r>
      </set>
      <set comment="kpoint 77">
       <r>  -2.0089  1.0000</r>
       <r>  -2.0089  1.0000</r>
       <r>  -1.7160  1.0000</r>
       <r>  -1.7160  1.0000</r>
       <r>  -0.3104  1.0000</r>
       <r>  -0.3104  1.0000</r>
       <r>  -0.0920  1.0000</r>
       <r>  -0.0920  1.0000</r>
       <r>   0.1128  1.0000</r>
       <r>   0.1128  1.0000</r>
       <r>   0.2401  1.0000</r>
       <r>   0.2401  1.0000</r>
       <r>   0.8620  1.0000</r>
       <r>   0.8620  1.0000</r>
       <r>   0.9350  1.0000</r>
       <r>   0.9350  1.0000</r>
       <r>   1.9337  1.0000</r>
       <r>   1.9337  1.0000</r>
       <r>   1.9589  1.0000</r>
       <r>   1.9589  1.0000</r>
       <r>   2.5352  1.0000</r>
       <r>   2.5352  1.0000</r>
       <r>   5.2572  0.0000</r>
       <r>   5.2572  0.0000</r>
       <r>   6.3085  0.0000</r>
       <r>   6.3085  0.0000</r>
       <r>   9.0902  0.0000</r>
       <r>   9.0902  0.0000</r>
      </set>
      <set comment="kpoint 78">
       <r>  -2.1210  1.0000</r>
       <r>  -1.8827  1.0000</r>
       <r>  -1.8827  1.0000</r>
       <r>  -1.8159  1.0000</r>
       <r>  -0.2497  1.0000</r>
       <r>  -0.2010  1.0000</r>
       <r>  -0.2010  1.0000</r>
       <r>  -0.0211  1.0000</r>
       <r>   0.0097  1.0000</r>
       <r>   0.1322  1.0000</r>
       <r>   0.1322  1.0000</r>
       <r>   0.1556  1.0000</r>
       <r>   1.0628  1.0000</r>
       <r>   1.0628  1.0000</r>
       <r>   1.1095  1.0000</r>
       <r>   1.3646  1.0000</r>
       <r>   1.7181  1.0000</r>
       <r>   1.9724  1.0000</r>
       <r>   1.9876  1.0000</r>
       <r>   1.9876  1.0000</r>
       <r>   2.2178  1.0000</r>
       <r>   3.8794  1.0000</r>
       <r>   3.8794  1.0000</r>
       <r>   4.9480  0.0000</r>
       <r>   6.2990  0.0000</r>
       <r>   7.3763  0.0000</r>
       <r>   7.3763  0.0000</r>
       <r>   9.0165  0.0000</r>
      </set>
      <set comment="kpoint 79">
       <r>  -2.0274  1.0000</r>
       <r>  -2.0274  1.0000</r>
       <r>  -1.8790  1.0000</r>
       <r>  -1.8790  1.0000</r>
       <r>  -0.2109  1.0000</r>
       <r>  -0.2109  1.0000</r>
       <r>  -0.0980  1.0000</r>
       <r>  -0.0980  1.0000</r>
       <r>   0.0421  1.0000</r>
       <r>   0.0421  1.0000</r>
       <r>   0.1079  1.0000</r>
       <r>   0.1079  1.0000</r>
       <r>   1.2298  1.0000</r>
       <r>   1.2298  1.0000</r>
       <r>   1.2841  1.0000</r>
       <r>   1.2841  1.0000</r>
       <r>   1.8839  1.0000</r>
       <r>   1.8839  1.0000</r>
       <r>   1.9393  1.0000</r>
       <r>   1.9393  1.0000</r>
       <r>   2.9303  1.0000</r>
       <r>   2.9303  1.0000</r>
       <r>   4.4274  0.0000</r>
       <r>   4.4274  0.0000</r>
       <r>   6.6640  0.0000</r>
       <r>   6.6640  0.0000</r>
       <r>   8.1424  0.0000</r>
       <r>   8.1424  0.0000</r>
      </set>
      <set comment="kpoint 80">
       <r>  -1.9839  1.0000</r>
       <r>  -1.9839  1.0000</r>
       <r>  -1.9839  1.0000</r>
       <r>  -1.9839  1.0000</r>
       <r>  -0.1323  1.0000</r>
       <r>  -0.1323  1.0000</r>
       <r>  -0.1323  1.0000</r>
       <r>  -0.1323  1.0000</r>
       <r>   0.0350  1.0000</r>
       <r>   0.0350  1.0000</r>
       <r>   0.0350  1.0000</r>
       <r>   0.0350  1.0000</r>
       <r>   1.4209  1.0000</r>
       <r>   1.4209  1.0000</r>
       <r>   1.4209  1.0000</r>
       <r>   1.4209  1.0000</r>
       <r>   1.8571  1.0000</r>
       <r>   1.8571  1.0000</r>
       <r>   1.8571  1.0000</r>
       <r>   1.8571  1.0000</r>
       <r>   3.5839  1.0000</r>
       <r>   3.5839  1.0000</r>
       <r>   3.5839  1.0000</r>
       <r>   3.5839  1.0000</r>
       <r>   7.3265  0.0000</r>
       <r>   7.3265  0.0000</r>
       <r>   7.3265  0.0000</r>
       <r>   7.3265  0.0000</r>
      </set>
      <set comment="kpoint 81">
       <r>  -2.1426  1.0000</r>
       <r>  -1.9871  1.0000</r>
       <r>  -1.9871  1.0000</r>
       <r>  -1.9871  1.0000</r>
       <r>  -0.1599  1.0000</r>
       <r>  -0.1599  1.0000</r>
       <r>  -0.1599  1.0000</r>
       <r>  -0.0394  1.0000</r>
       <r>  -0.0394  1.0000</r>
       <r>   0.0360  1.0000</r>
       <r>   0.0360  1.0000</r>
       <r>   0.0360  1.0000</r>
       <r>   1.4298  1.0000</r>
       <r>   1.4298  1.0000</r>
       <r>   1.4298  1.0000</r>
       <r>   1.8883  1.0000</r>
       <r>   1.8883  1.0000</r>
       <r>   2.0216  1.0000</r>
       <r>   2.0216  1.0000</r>
       <r>   2.0216  1.0000</r>
       <r>   2.2886  1.0000</r>
       <r>   4.0809  0.0000</r>
       <r>   4.0809  0.0000</r>
       <r>   4.0809  0.0000</r>
       <r>   6.6024  0.0000</r>
       <r>   6.6024  0.0000</r>
       <r>   6.6024  0.0000</r>
       <r>   8.0622  0.0000</r>
      </set>
      <set comment="kpoint 82">
       <r>  -2.0976  1.0000</r>
       <r>  -2.0976  1.0000</r>
       <r>  -2.0221  1.0000</r>
       <r>  -2.0221  1.0000</r>
       <r>  -0.1426  1.0000</r>
       <r>  -0.1426  1.0000</r>
       <r>  -0.0866  1.0000</r>
       <r>  -0.0866  1.0000</r>
       <r>  -0.0303  1.0000</r>
       <r>  -0.0303  1.0000</r>
       <r>   0.0005  1.0000</r>
       <r>   0.0005  1.0000</r>
       <r>   1.5971  1.0000</r>
       <r>   1.5971  1.0000</r>
       <r>   1.7101  1.0000</r>
       <r>   1.7101  1.0000</r>
       <r>   1.9929  1.0000</r>
       <r>   1.9929  1.0000</r>
       <r>   1.9988  1.0000</r>
       <r>   1.9988  1.0000</r>
       <r>   3.1186  1.0000</r>
       <r>   3.1186  1.0000</r>
       <r>   4.1950  0.0000</r>
       <r>   4.1950  0.0000</r>
       <r>   6.2879  0.0000</r>
       <r>   6.2879  0.0000</r>
       <r>   7.2468  0.0000</r>
       <r>   7.2468  0.0000</r>
      </set>
      <set comment="kpoint 83">
       <r>  -2.0958  1.0000</r>
       <r>  -2.0958  1.0000</r>
       <r>  -2.0958  1.0000</r>
       <r>  -2.0958  1.0000</r>
       <r>  -0.0944  1.0000</r>
       <r>  -0.0944  1.0000</r>
       <r>  -0.0944  1.0000</r>
       <r>  -0.0944  1.0000</r>
       <r>  -0.0513  1.0000</r>
       <r>  -0.0513  1.0000</r>
       <r>  -0.0513  1.0000</r>
       <r>  -0.0513  1.0000</r>
       <r>   1.8423  1.0000</r>
       <r>   1.8423  1.0000</r>
       <r>   1.8423  1.0000</r>
       <r>   1.8423  1.0000</r>
       <r>   1.9730  1.0000</r>
       <r>   1.9730  1.0000</r>
       <r>   1.9730  1.0000</r>
       <r>   1.9730  1.0000</r>
       <r>   3.6231  1.0000</r>
       <r>   3.6231  1.0000</r>
       <r>   3.6231  1.0000</r>
       <r>   3.6231  1.0000</r>
       <r>   6.5776  0.0000</r>
       <r>   6.5776  0.0000</r>
       <r>   6.5776  0.0000</r>
       <r>   6.5776  0.0000</r>
      </set>
      <set comment="kpoint 84">
       <r>  -2.1335  1.0000</r>
       <r>  -2.1335  1.0000</r>
       <r>  -2.1335  1.0000</r>
       <r>  -2.1335  1.0000</r>
       <r>  -0.0806  1.0000</r>
       <r>  -0.0806  1.0000</r>
       <r>  -0.0806  1.0000</r>
       <r>  -0.0806  1.0000</r>
       <r>  -0.0806  1.0000</r>
       <r>  -0.0806  1.0000</r>
       <r>  -0.0806  1.0000</r>
       <r>  -0.0806  1.0000</r>
       <r>   2.0132  1.0000</r>
       <r>   2.0132  1.0000</r>
       <r>   2.0132  1.0000</r>
       <r>   2.0132  1.0000</r>
       <r>   2.0132  1.0000</r>
       <r>   2.0132  1.0000</r>
       <r>   2.0132  1.0000</r>
       <r>   2.0132  1.0000</r>
       <r>   3.6454  1.0000</r>
       <r>   3.6454  1.0000</r>
       <r>   3.6454  1.0000</r>
       <r>   3.6454  1.0000</r>
       <r>   6.2879  0.0000</r>
       <r>   6.2879  0.0000</r>
       <r>   6.2879  0.0000</r>
       <r>   6.2879  0.0000</r>
      </set>
     </set>
    </set>
   </array>
  </eigenvalues>
 </calculation>
 <structure name="finalpos" >
  <crystal>
   <varray name="basis" >
    <v>       4.29803746      0.00000000      0.00000000</v>
    <v>       0.00000000      4.29803746      0.00000000</v>
    <v>       0.00000000      0.00000000      4.29803746</v>
   </varray>
   <i name="volume">     79.39818755</i>
   <varray name="rec_basis" >
    <v>       0.23266433      0.00000000      0.00000000</v>
    <v>       0.00000000      0.23266433      0.00000000</v>
    <v>       0.00000000      0.00000000      0.23266433</v>
   </varray>
  </crystal>
  <varray name="positions" >
   <v>       0.00000000      0.00000000      0.00000000</v>
   <v>       0.50000000      0.50000000      0.00000000</v>
   <v>       0.50000000      0.00000000      0.50000000</v>
   <v>       0.00000000      0.50000000      0.50000000</v>
  </varray>
 </structure>
</modeling>
