 vasp.4.6.28 25Jul05 complex 
 executed on             LinuxIFC date 2016.12.21  13:28:46
 running on    4 nodes
 distr:  one band on    1 nodes,    4 groups


--------------------------------------------------------------------------------------------------------


 INCAR:
 POTCAR:   PAW_PBE Au 06Sep2000                   
 POTCAR:   PAW_PBE Au 06Sep2000                   
   VRHFIN =Au: s1d10                                                            
   LEXCH  = PE                                                                  
   EATOM  =   926.0567 eV,   68.0632 Ry                                         
                                                                                
   TITEL  = PAW_PBE Au 06Sep2000                                                
   LULTRA =        F    use ultrasoft PP ?                                      
   IUNSCR =        1    unscreen: 0-lin 1-nonlin 2-no                           
   RPACOR =    2.330    partial core radius                                     
   POMASS =  196.966; ZVAL   =   11.000    mass and valenz                      
   RCORE  =    2.500    outmost cutoff radius                                   
   RWIGS  =    2.840; RWIGS  =    1.503    wigner-seitz radius (au A)           
   ENMAX  =  229.948; ENMIN  =  172.461 eV                                      
   RCLOC  =    1.964    cutoff for local pot                                    
   LCOR   =        T    correct aug charges                                     
   LPAW   =        T    paw PP                                                  
   EAUG   =  356.670                                                            
   DEXC   =    -.025                                                            
   RMAX   =    3.041    core radius for proj-oper                               
   RAUG   =    1.300    factor for augmentation sphere                          
   RDEP   =    2.598    radius for radial grids                                 
   QCUT   =   -4.111; QGAM   =    8.222    optimization parameters              
                                                                                
   Description                                                                  
     l     E      TYP  RCUT    TYP  RCUT                                        
     2   .000     23  2.500                                                     
     2   .000     23  2.500                                                     
     0   .000     23  2.500                                                     
     0   .000     23  2.500                                                     
     1  -.200     23  2.500                                                     
     1   .000     23  2.500                                                     
     3   .000      7   .000                                                     
  local pseudopotential read in
  partial core-charges read in
  atomic valenz-charges read in
  non local Contribution for L=           2  read in
    real space projection operators read in
  non local Contribution for L=           2  read in
    real space projection operators read in
  non local Contribution for L=           0  read in
    real space projection operators read in
  non local Contribution for L=           0  read in
    real space projection operators read in
  non local Contribution for L=           1  read in
    real space projection operators read in
  non local Contribution for L=           1  read in
    real space projection operators read in
    PAW grid and wavefunctions read in
 
   number of l-projection  operators is LMAX  =           6
   number of lm-projection operators is LMMAX =          18
 
 PAW_PBE Au 06Sep2000                   :
 energy of atom  1       EATOM= -926.0567
 kinetic energy error for atom=    0.0042 (will be added to EATOM!!)
 
 EXHCAR: internal setup
 exchange correlation table for  LEXCH =        8
   RHO(1)=    0.500       N(1)  =     2000
   RHO(2)=  100.500       N(2)  =     4000
 
 POSCAR: Au                                      
  positions in direct lattice
  velocities in cartesian coordinates
 


--------------------------------------------------------------------------------------------------------


 ion  position               nearest neighbor table
   1  0.000  0.000  0.000-   2 2.95   3 2.95   4 2.95   3 2.95   4 2.95   2 2.95   4 2.95   4 2.95
                             2 2.95   3 2.95   3 2.95   2 2.95
   2  0.500  0.500  0.000-   1 2.95   3 2.95   4 2.95   3 2.95   4 2.95   1 2.95   3 2.95   3 2.95
                             1 2.95   4 2.95   4 2.95   1 2.95
   3  0.500  0.000  0.500-   1 2.95   2 2.95   4 2.95   1 2.95   2 2.95   2 2.95   4 2.95   2 2.95
                             1 2.95   4 2.95   1 2.95   4 2.95
   4  0.000  0.500  0.500-   1 2.95   2 2.95   3 2.95   1 2.95   2 2.95   1 2.95   3 2.95   1 2.95
                             2 2.95   3 2.95   2 2.95   3 2.95
 
  LATTYP: Found a simple cubic cell.
 ALAT       =     4.1728519023
  
  Lattice vectors:
  
 A1 = (   4.1728519023,   0.0000000000,   0.0000000000)
 A2 = (   0.0000000000,   4.1728519023,   0.0000000000)
 A3 = (   0.0000000000,   0.0000000000,   4.1728519023)
 Subroutine PRICEL returns following result:
 
  LATTYP: Found a face centered cubic cell.
 ALAT       =     4.1728519023
  
  Lattice vectors:
  
 A1 = (   2.0864259512,   2.0864259512,   0.0000000000)
 A2 = (   2.0864259512,   0.0000000000,  -2.0864259512)
 A3 = (   0.0000000000,   2.0864259512,  -2.0864259512)
 
   4 primitive cells build up your supercell.
 

Analysis of symmetry for initial positions (statically):

 Routine SETGRP: Setting up the symmetry group for a 
 simple cubic supercell.


 Subroutine GETGRP returns: Found 48 space group operations
 (whereof 48 operations were pure point group operations)
 out of a pool of 48 trial point group operations.


The static configuration has the point symmetry O_h .

Analysis of symmetry for dynamics (positions and initial velocities):

 Subroutine DYNSYM returns: Found 48 space group operations
 (whereof 48 operations were pure point group operations)
 out of a pool of 48 trial space group operations
 (whereof 48 operations were pure point group operations)
 and found also     4 'primitive' translations


The dynamic configuration has the point symmetry O_h .
 
 
 KPOINTS: Automatic mesh                          

Automatic generation of k-mesh.
 generate k-points for:  12  12  12
 
 Subroutine IBZKPT returns following result:
 ===========================================
 
 Found     84 irreducible k-points:
 
 Following reciprocal coordinates:
            Coordinates               Weight
  0.000000  0.000000  0.000000      1.000000
  0.083333  0.000000  0.000000      6.000000
  0.166667  0.000000  0.000000      6.000000
  0.250000  0.000000  0.000000      6.000000
  0.333333  0.000000  0.000000      6.000000
  0.416667  0.000000  0.000000      6.000000
  0.500000  0.000000  0.000000      3.000000
  0.083333  0.083333  0.000000     12.000000
  0.166667  0.083333  0.000000     24.000000
  0.250000  0.083333  0.000000     24.000000
  0.333333  0.083333  0.000000     24.000000
  0.416667  0.083333  0.000000     24.000000
  0.500000  0.083333  0.000000     12.000000
  0.166667  0.166667  0.000000     12.000000
  0.250000  0.166667  0.000000     24.000000
  0.333333  0.166667  0.000000     24.000000
  0.416667  0.166667  0.000000     24.000000
  0.500000  0.166667  0.000000     12.000000
  0.250000  0.250000  0.000000     12.000000
  0.333333  0.250000  0.000000     24.000000
  0.416667  0.250000  0.000000     24.000000
  0.500000  0.250000  0.000000     12.000000
  0.333333  0.333333  0.000000     12.000000
  0.416667  0.333333  0.000000     24.000000
  0.500000  0.333333  0.000000     12.000000
  0.416667  0.416667  0.000000     12.000000
  0.500000  0.416667  0.000000     12.000000
  0.500000  0.500000  0.000000      3.000000
  0.083333  0.083333  0.083333      8.000000
  0.166667  0.083333  0.083333     24.000000
  0.250000  0.083333  0.083333     24.000000
  0.333333  0.083333  0.083333     24.000000
  0.416667  0.083333  0.083333     24.000000
  0.500000  0.083333  0.083333     12.000000
  0.166667  0.166667  0.083333     24.000000
  0.250000  0.166667  0.083333     48.000000
  0.333333  0.166667  0.083333     48.000000
  0.416667  0.166667  0.083333     48.000000
  0.500000  0.166667  0.083333     24.000000
  0.250000  0.250000  0.083333     24.000000
  0.333333  0.250000  0.083333     48.000000
  0.416667  0.250000  0.083333     48.000000
  0.500000  0.250000  0.083333     24.000000
  0.333333  0.333333  0.083333     24.000000
  0.416667  0.333333  0.083333     48.000000
  0.500000  0.333333  0.083333     24.000000
  0.416667  0.416667  0.083333     24.000000
  0.500000  0.416667  0.083333     24.000000
  0.500000  0.500000  0.083333      6.000000
  0.166667  0.166667  0.166667      8.000000
  0.250000  0.166667  0.166667     24.000000
  0.333333  0.166667  0.166667     24.000000
  0.416667  0.166667  0.166667     24.000000
  0.500000  0.166667  0.166667     12.000000
  0.250000  0.250000  0.166667     24.000000
  0.333333  0.250000  0.166667     48.000000
  0.416667  0.250000  0.166667     48.000000
  0.500000  0.250000  0.166667     24.000000
  0.333333  0.333333  0.166667     24.000000
  0.416667  0.333333  0.166667     48.000000
  0.500000  0.333333  0.166667     24.000000
  0.416667  0.416667  0.166667     24.000000
  0.500000  0.416667  0.166667     24.000000
  0.500000  0.500000  0.166667      6.000000
  0.250000  0.250000  0.250000      8.000000
  0.333333  0.250000  0.250000     24.000000
  0.416667  0.250000  0.250000     24.000000
  0.500000  0.250000  0.250000     12.000000
  0.333333  0.333333  0.250000     24.000000
  0.416667  0.333333  0.250000     48.000000
  0.500000  0.333333  0.250000     24.000000
  0.416667  0.416667  0.250000     24.000000
  0.500000  0.416667  0.250000     24.000000
  0.500000  0.500000  0.250000      6.000000
  0.333333  0.333333  0.333333      8.000000
  0.416667  0.333333  0.333333     24.000000
  0.500000  0.333333  0.333333     12.000000
  0.416667  0.416667  0.333333     24.000000
  0.500000  0.416667  0.333333     24.000000
  0.500000  0.500000  0.333333      6.000000
  0.416667  0.416667  0.416667      8.000000
  0.500000  0.416667  0.416667     12.000000
  0.500000  0.500000  0.416667      6.000000
  0.500000  0.500000  0.500000      1.000000
 
 Following cartesian coordinates:
            Coordinates               Weight
  0.000000  0.000000  0.000000      1.000000
  0.019970  0.000000  0.000000      6.000000
  0.039941  0.000000  0.000000      6.000000
  0.059911  0.000000  0.000000      6.000000
  0.079881  0.000000  0.000000      6.000000
  0.099852  0.000000  0.000000      6.000000
  0.119822  0.000000  0.000000      3.000000
  0.019970  0.019970  0.000000     12.000000
  0.039941  0.019970  0.000000     24.000000
  0.059911  0.019970  0.000000     24.000000
  0.079881  0.019970  0.000000     24.000000
  0.099852  0.019970  0.000000     24.000000
  0.119822  0.019970  0.000000     12.000000
  0.039941  0.039941  0.000000     12.000000
  0.059911  0.039941  0.000000     24.000000
  0.079881  0.039941  0.000000     24.000000
  0.099852  0.039941  0.000000     24.000000
  0.119822  0.039941  0.000000     12.000000
  0.059911  0.059911  0.000000     12.000000
  0.079881  0.059911  0.000000     24.000000
  0.099852  0.059911  0.000000     24.000000
  0.119822  0.059911  0.000000     12.000000
  0.079881  0.079881  0.000000     12.000000
  0.099852  0.079881  0.000000     24.000000
  0.119822  0.079881  0.000000     12.000000
  0.099852  0.099852  0.000000     12.000000
  0.119822  0.099852  0.000000     12.000000
  0.119822  0.119822  0.000000      3.000000
  0.019970  0.019970  0.019970      8.000000
  0.039941  0.019970  0.019970     24.000000
  0.059911  0.019970  0.019970     24.000000
  0.079881  0.019970  0.019970     24.000000
  0.099852  0.019970  0.019970     24.000000
  0.119822  0.019970  0.019970     12.000000
  0.039941  0.039941  0.019970     24.000000
  0.059911  0.039941  0.019970     48.000000
  0.079881  0.039941  0.019970     48.000000
  0.099852  0.039941  0.019970     48.000000
  0.119822  0.039941  0.019970     24.000000
  0.059911  0.059911  0.019970     24.000000
  0.079881  0.059911  0.019970     48.000000
  0.099852  0.059911  0.019970     48.000000
  0.119822  0.059911  0.019970     24.000000
  0.079881  0.079881  0.019970     24.000000
  0.099852  0.079881  0.019970     48.000000
  0.119822  0.079881  0.019970     24.000000
  0.099852  0.099852  0.019970     24.000000
  0.119822  0.099852  0.019970     24.000000
  0.119822  0.119822  0.019970      6.000000
  0.039941  0.039941  0.039941      8.000000
  0.059911  0.039941  0.039941     24.000000
  0.079881  0.039941  0.039941     24.000000
  0.099852  0.039941  0.039941     24.000000
  0.119822  0.039941  0.039941     12.000000
  0.059911  0.059911  0.039941     24.000000
  0.079881  0.059911  0.039941     48.000000
  0.099852  0.059911  0.039941     48.000000
  0.119822  0.059911  0.039941     24.000000
  0.079881  0.079881  0.039941     24.000000
  0.099852  0.079881  0.039941     48.000000
  0.119822  0.079881  0.039941     24.000000
  0.099852  0.099852  0.039941     24.000000
  0.119822  0.099852  0.039941     24.000000
  0.119822  0.119822  0.039941      6.000000
  0.059911  0.059911  0.059911      8.000000
  0.079881  0.059911  0.059911     24.000000
  0.099852  0.059911  0.059911     24.000000
  0.119822  0.059911  0.059911     12.000000
  0.079881  0.079881  0.059911     24.000000
  0.099852  0.079881  0.059911     48.000000
  0.119822  0.079881  0.059911     24.000000
  0.099852  0.099852  0.059911     24.000000
  0.119822  0.099852  0.059911     24.000000
  0.119822  0.119822  0.059911      6.000000
  0.079881  0.079881  0.079881      8.000000
  0.099852  0.079881  0.079881     24.000000
  0.119822  0.079881  0.079881     12.000000
  0.099852  0.099852  0.079881     24.000000
  0.119822  0.099852  0.079881     24.000000
  0.119822  0.119822  0.079881      6.000000
  0.099852  0.099852  0.099852      8.000000
  0.119822  0.099852  0.099852     12.000000
  0.119822  0.119822  0.099852      6.000000
  0.119822  0.119822  0.119822      1.000000
 


--------------------------------------------------------------------------------------------------------




 Dimension of arrays:
   k-Points           NKPTS =     84   number of bands    NBANDS=     28
   number of dos      NEDOS =    301   number of ions     NIONS =      4
   non local maximal  LDIM  =      6   non local SUM 2l+1 LMDIM =     18
   total plane-waves  NPLWV =  27000
   max r-space proj   IRMAX =      1   max aug-charges    IRDMAX= 181970
   dimension x,y,z NGX =    30 NGY =   30 NGZ =   30
   dimension x,y,z NGXF=    60 NGYF=   60 NGZF=   60
   support grid    NGXF=   120 NGYF=  120 NGZF=  120
   ions per type =               4
 NGX,Y,Z   is equivalent  to a cutoff of  11.95, 11.95, 11.95 a.u.
 NGXF,Y,Z  is equivalent  to a cutoff of  23.90, 23.90, 23.90 a.u.


 I would recommend the setting:
   dimension x,y,z NGX =    30 NGY =   30 NGZ =   30
 SYSTEM =  unknown system                          
 POSCAR =  Au                                      

 Startparameter for this run:
   NWRITE =      2    write-flag & timer
   PREC   = accura    medium, high low
   ISTART =      0    job   : 0-new  1-cont  2-samecut
   ICHARG =      2    charge: 1-file 2-atom 10-const
   ISPIN  =      1    spin polarized calculation?
   LNONCOLLINEAR =      F non collinear calculations
   LSORBIT =      F    spin-orbit coupling
   INIWAV =      1    electr: 0-lowe 1-rand  2-diag
   LASPH  =      F    aspherical Exc in radial PAW
   METAGGA=      F    non-selfconsistent MetaGGA calc.

 Electronic Relaxation 1
   ENCUT  =  500.0 eV  36.75 Ry    6.06 a.u.   7.61  7.61  7.61*2*pi/ulx,y,z
   ENINI  =  500.0     initial cutoff
   ENAUG  =  356.7 eV  augmentation charge cutoff
   NELM   =     60;   NELMIN=  2; NELMDL=  0     # of ELM steps 
   EDIFF  = 0.1E-07   stopping-criterion for ELM
   LREAL  =      F    real-space projection
   LCOMPAT=      F    compatible to vasp.4.4
   LREAL_COMPAT= F    compatible to vasp.4.5.1-3
   GGA_COMPAT  = T    GGA compatible to vasp.4.4-vasp.4.6
   LMAXPAW     = -100 max onsite density
   LMAXMIX     =    2 max onsite mixed and CHGCAR
   VOSKOWN=      0    Vosko Wilk Nusair interpolation
   ROPT   =    0.00000
 Ionic relaxation
   EDIFFG = 0.1E-06   stopping-criterion for IOM
   NSW    =    200    number of steps for IOM
   NBLOCK =      1;   KBLOCK =    200    inner block; outer block 
   IBRION =      2    ionic relax: 0-MD 1-quasi-New 2-CG
   NFREE  =      1    steps in history (QN), initial steepest desc. (CG)
   ISIF   =      3    stress and relaxation
   IWAVPR =     11    prediction:  0-non 1-charg 2-wave 3-comb
   ISYM   =      2    0-nonsym 1-usesym 2-fastsym
   LCORR  =      T    Harris-Foulkes like correction to forces

   POTIM  =   0.50    time-step for ionic-motion
   TEIN   =    0.0    initial temperature
   TEBEG  =    0.0;   TEEND  =   0.0 temperature during run
   SMASS  =  -3.00    Nose mass-parameter (am)
   estimated Nose-frequenzy (Omega)   =  0.10E-29 period in steps =****** mass=  -0.398E-27a.u.
   NPACO  =    256;   APACO  = 16.0  distance and # of slots for P.C.
   PSTRESS=    0.0 pullay stress

  Mass of Ions in am
   POMASS = 196.97
  Ionic Valenz
   ZVAL   =  11.00
  Atomic Wigner-Seitz radii
   RWIGS  =  -1.00
   NELECT =      44.0000    total number of electrons
   NUPDOWN=      -1.0000    fix difference up-down

 DOS related values:
   EMIN   =  10.00;   EMAX   =-10.00  energy-range for DOS
   ISMEAR =     0;   SIGMA  =   0.01  broadening in eV -4-tet -1-fermi 0-gaus

 Electronic relaxation 2 (details)
   IALGO  =     38    algorithm
   LDIAG  =      T    sub-space diagonalisation
   IMIX   =      4    mixing-type and parameters
     AMIX     =   0.40;   BMIX     =  1.00
     AMIX_MAG =   1.60;   BMIX_MAG =  1.00
     AMIN     =   0.10
     WC   =   100.;   INIMIX=   1;  MIXPRE=   1

 Intra band minimization:
   WEIMIN = 0.0010     energy-eigenvalue tresh-hold
   EBREAK =  0.96E-10  absolut break condition
   DEPER  =   0.30     relativ break condition  

   TIME   =   0.10     timestep for ELM

  volume/ion in A,a.u.               =      18.17       122.58
  Fermi-wavevector in a.u.,eV,Ry     =   1.385031 26.100195  1.918310

 Second variation
   LSECVAR=     F    do a second variation
 
 Write flags
   LWAVE  =      F    write WAVECAR
   LCHARG =      F    write CHGCAR
   LVTOT  =      F    write LOCPOT, local potential
   LELF   =      F    write electronic localiz. function (ELF)
   LORBIT =      0    0 simple, 1 ext, 2 COOP (PROOUT)


 Dipole corrections
   IDIPOL =      0    1-x, 2-y, 3-z
   LDIPOL =      F    correct potential



--------------------------------------------------------------------------------------------------------


 conjugate gradient relaxation of ions
 charge density will be updated during run
 non-spin polarized calculation
 Variant of blocked Davidson
 Davidson routine will perform the subspace rotation
 performe sub-space diagonalisation
    after iterative eigenvector-optimisation
 modified Broyden-mixing scheme, WC =      100.0
 initial mixing is a Kerker type mixing with AMIX =  0.4000 and BMIX =      1.0000
 Hartree-type preconditioning will be used
 using additional bands            6
 reciprocal scheme for non local part
 use partial core corrections
 calculate Harris-corrections to forces 
   (improved forces if not selfconsistent)
 use gradient corrections 
 use of overlap-Matrix (Vanderbilt PP)
 Gauss-broadening in eV      SIGMA  =   0.01


--------------------------------------------------------------------------------------------------------


  energy-cutoff  :      500.00
  volume of cell :       72.66
      direct lattice vectors                 reciprocal lattice vectors
     4.172851902  0.000000000  0.000000000     0.239644259  0.000000000  0.000000000
     0.000000000  4.172851902  0.000000000     0.000000000  0.239644259  0.000000000
     0.000000000  0.000000000  4.172851902     0.000000000  0.000000000  0.239644259

  length of vectors
     4.172851902  4.172851902  4.172851902     0.239644259  0.239644259  0.239644259


 
 k-points in units of 2pi/SCALE and weight: Automatic mesh                          
   0.00000000  0.00000000  0.00000000       0.001
   0.01997035  0.00000000  0.00000000       0.003
   0.03994071  0.00000000  0.00000000       0.003
   0.05991106  0.00000000  0.00000000       0.003
   0.07988142  0.00000000  0.00000000       0.003
   0.09985177  0.00000000  0.00000000       0.003
   0.11982213  0.00000000  0.00000000       0.002
   0.01997035  0.01997035  0.00000000       0.007
   0.03994071  0.01997035  0.00000000       0.014
   0.05991106  0.01997035  0.00000000       0.014
   0.07988142  0.01997035  0.00000000       0.014
   0.09985177  0.01997035  0.00000000       0.014
   0.11982213  0.01997035  0.00000000       0.007
   0.03994071  0.03994071  0.00000000       0.007
   0.05991106  0.03994071  0.00000000       0.014
   0.07988142  0.03994071  0.00000000       0.014
   0.09985177  0.03994071  0.00000000       0.014
   0.11982213  0.03994071  0.00000000       0.007
   0.05991106  0.05991106  0.00000000       0.007
   0.07988142  0.05991106  0.00000000       0.014
   0.09985177  0.05991106  0.00000000       0.014
   0.11982213  0.05991106  0.00000000       0.007
   0.07988142  0.07988142  0.00000000       0.007
   0.09985177  0.07988142  0.00000000       0.014
   0.11982213  0.07988142  0.00000000       0.007
   0.09985177  0.09985177  0.00000000       0.007
   0.11982213  0.09985177  0.00000000       0.007
   0.11982213  0.11982213  0.00000000       0.002
   0.01997035  0.01997035  0.01997035       0.005
   0.03994071  0.01997035  0.01997035       0.014
   0.05991106  0.01997035  0.01997035       0.014
   0.07988142  0.01997035  0.01997035       0.014
   0.09985177  0.01997035  0.01997035       0.014
   0.11982213  0.01997035  0.01997035       0.007
   0.03994071  0.03994071  0.01997035       0.014
   0.05991106  0.03994071  0.01997035       0.028
   0.07988142  0.03994071  0.01997035       0.028
   0.09985177  0.03994071  0.01997035       0.028
   0.11982213  0.03994071  0.01997035       0.014
   0.05991106  0.05991106  0.01997035       0.014
   0.07988142  0.05991106  0.01997035       0.028
   0.09985177  0.05991106  0.01997035       0.028
   0.11982213  0.05991106  0.01997035       0.014
   0.07988142  0.07988142  0.01997035       0.014
   0.09985177  0.07988142  0.01997035       0.028
   0.11982213  0.07988142  0.01997035       0.014
   0.09985177  0.09985177  0.01997035       0.014
   0.11982213  0.09985177  0.01997035       0.014
   0.11982213  0.11982213  0.01997035       0.003
   0.03994071  0.03994071  0.03994071       0.005
   0.05991106  0.03994071  0.03994071       0.014
   0.07988142  0.03994071  0.03994071       0.014
   0.09985177  0.03994071  0.03994071       0.014
   0.11982213  0.03994071  0.03994071       0.007
   0.05991106  0.05991106  0.03994071       0.014
   0.07988142  0.05991106  0.03994071       0.028
   0.09985177  0.05991106  0.03994071       0.028
   0.11982213  0.05991106  0.03994071       0.014
   0.07988142  0.07988142  0.03994071       0.014
   0.09985177  0.07988142  0.03994071       0.028
   0.11982213  0.07988142  0.03994071       0.014
   0.09985177  0.09985177  0.03994071       0.014
   0.11982213  0.09985177  0.03994071       0.014
   0.11982213  0.11982213  0.03994071       0.003
   0.05991106  0.05991106  0.05991106       0.005
   0.07988142  0.05991106  0.05991106       0.014
   0.09985177  0.05991106  0.05991106       0.014
   0.11982213  0.05991106  0.05991106       0.007
   0.07988142  0.07988142  0.05991106       0.014
   0.09985177  0.07988142  0.05991106       0.028
   0.11982213  0.07988142  0.05991106       0.014
   0.09985177  0.09985177  0.05991106       0.014
   0.11982213  0.09985177  0.05991106       0.014
   0.11982213  0.11982213  0.05991106       0.003
   0.07988142  0.07988142  0.07988142       0.005
   0.09985177  0.07988142  0.07988142       0.014
   0.11982213  0.07988142  0.07988142       0.007
   0.09985177  0.09985177  0.07988142       0.014
   0.11982213  0.09985177  0.07988142       0.014
   0.11982213  0.11982213  0.07988142       0.003
   0.09985177  0.09985177  0.09985177       0.005
   0.11982213  0.09985177  0.09985177       0.007
   0.11982213  0.11982213  0.09985177       0.003
   0.11982213  0.11982213  0.11982213       0.001
 
 k-points in reciprocal lattice and weights: Automatic mesh                          
   0.00000000  0.00000000  0.00000000       0.001
   0.08333333  0.00000000  0.00000000       0.003
   0.16666667  0.00000000  0.00000000       0.003
   0.25000000  0.00000000  0.00000000       0.003
   0.33333333  0.00000000  0.00000000       0.003
   0.41666667  0.00000000  0.00000000       0.003
   0.50000000  0.00000000  0.00000000       0.002
   0.08333333  0.08333333  0.00000000       0.007
   0.16666667  0.08333333  0.00000000       0.014
   0.25000000  0.08333333  0.00000000       0.014
   0.33333333  0.08333333  0.00000000       0.014
   0.41666667  0.08333333  0.00000000       0.014
   0.50000000  0.08333333  0.00000000       0.007
   0.16666667  0.16666667  0.00000000       0.007
   0.25000000  0.16666667  0.00000000       0.014
   0.33333333  0.16666667  0.00000000       0.014
   0.41666667  0.16666667  0.00000000       0.014
   0.50000000  0.16666667  0.00000000       0.007
   0.25000000  0.25000000  0.00000000       0.007
   0.33333333  0.25000000  0.00000000       0.014
   0.41666667  0.25000000  0.00000000       0.014
   0.50000000  0.25000000  0.00000000       0.007
   0.33333333  0.33333333  0.00000000       0.007
   0.41666667  0.33333333  0.00000000       0.014
   0.50000000  0.33333333  0.00000000       0.007
   0.41666667  0.41666667  0.00000000       0.007
   0.50000000  0.41666667  0.00000000       0.007
   0.50000000  0.50000000  0.00000000       0.002
   0.08333333  0.08333333  0.08333333       0.005
   0.16666667  0.08333333  0.08333333       0.014
   0.25000000  0.08333333  0.08333333       0.014
   0.33333333  0.08333333  0.08333333       0.014
   0.41666667  0.08333333  0.08333333       0.014
   0.50000000  0.08333333  0.08333333       0.007
   0.16666667  0.16666667  0.08333333       0.014
   0.25000000  0.16666667  0.08333333       0.028
   0.33333333  0.16666667  0.08333333       0.028
   0.41666667  0.16666667  0.08333333       0.028
   0.50000000  0.16666667  0.08333333       0.014
   0.25000000  0.25000000  0.08333333       0.014
   0.33333333  0.25000000  0.08333333       0.028
   0.41666667  0.25000000  0.08333333       0.028
   0.50000000  0.25000000  0.08333333       0.014
   0.33333333  0.33333333  0.08333333       0.014
   0.41666667  0.33333333  0.08333333       0.028
   0.50000000  0.33333333  0.08333333       0.014
   0.41666667  0.41666667  0.08333333       0.014
   0.50000000  0.41666667  0.08333333       0.014
   0.50000000  0.50000000  0.08333333       0.003
   0.16666667  0.16666667  0.16666667       0.005
   0.25000000  0.16666667  0.16666667       0.014
   0.33333333  0.16666667  0.16666667       0.014
   0.41666667  0.16666667  0.16666667       0.014
   0.50000000  0.16666667  0.16666667       0.007
   0.25000000  0.25000000  0.16666667       0.014
   0.33333333  0.25000000  0.16666667       0.028
   0.41666667  0.25000000  0.16666667       0.028
   0.50000000  0.25000000  0.16666667       0.014
   0.33333333  0.33333333  0.16666667       0.014
   0.41666667  0.33333333  0.16666667       0.028
   0.50000000  0.33333333  0.16666667       0.014
   0.41666667  0.41666667  0.16666667       0.014
   0.50000000  0.41666667  0.16666667       0.014
   0.50000000  0.50000000  0.16666667       0.003
   0.25000000  0.25000000  0.25000000       0.005
   0.33333333  0.25000000  0.25000000       0.014
   0.41666667  0.25000000  0.25000000       0.014
   0.50000000  0.25000000  0.25000000       0.007
   0.33333333  0.33333333  0.25000000       0.014
   0.41666667  0.33333333  0.25000000       0.028
   0.50000000  0.33333333  0.25000000       0.014
   0.41666667  0.41666667  0.25000000       0.014
   0.50000000  0.41666667  0.25000000       0.014
   0.50000000  0.50000000  0.25000000       0.003
   0.33333333  0.33333333  0.33333333       0.005
   0.41666667  0.33333333  0.33333333       0.014
   0.50000000  0.33333333  0.33333333       0.007
   0.41666667  0.41666667  0.33333333       0.014
   0.50000000  0.41666667  0.33333333       0.014
   0.50000000  0.50000000  0.33333333       0.003
   0.41666667  0.41666667  0.41666667       0.005
   0.50000000  0.41666667  0.41666667       0.007
   0.50000000  0.50000000  0.41666667       0.003
   0.50000000  0.50000000  0.50000000       0.001
 
 position of ions in fractional coordinates (direct lattice) 
   0.00000000  0.00000000  0.00000000
   0.50000000  0.50000000  0.00000000
   0.50000000  0.00000000  0.50000000
   0.00000000  0.50000000  0.50000000
 
 position of ions in cartesian coordinates  (Angst):
   0.00000000  0.00000000  0.00000000
   2.08642595  2.08642595  0.00000000
   2.08642595  0.00000000  2.08642595
   0.00000000  2.08642595  2.08642595
 


--------------------------------------------------------------------------------------------------------


 k-point  1 :  0.00000.00000.0000  plane waves:   1839
 k-point  2 :  0.08330.00000.0000  plane waves:   1851
 k-point  3 :  0.16670.00000.0000  plane waves:   1839
 k-point  4 :  0.25000.00000.0000  plane waves:   1835
 k-point  5 :  0.33330.00000.0000  plane waves:   1847
 k-point  6 :  0.41670.00000.0000  plane waves:   1844
 k-point  7 :  0.50000.00000.0000  plane waves:   1840
 k-point  8 :  0.08330.08330.0000  plane waves:   1855
 k-point  9 :  0.16670.08330.0000  plane waves:   1851
 k-point 10 :  0.25000.08330.0000  plane waves:   1847
 k-point 11 :  0.33330.08330.0000  plane waves:   1850
 k-point 12 :  0.41670.08330.0000  plane waves:   1853
 k-point 13 :  0.50000.08330.0000  plane waves:   1850
 k-point 14 :  0.16670.16670.0000  plane waves:   1855
 k-point 15 :  0.25000.16670.0000  plane waves:   1853
 k-point 16 :  0.33330.16670.0000  plane waves:   1852
 k-point 17 :  0.41670.16670.0000  plane waves:   1853
 k-point 18 :  0.50000.16670.0000  plane waves:   1840
 k-point 19 :  0.25000.25000.0000  plane waves:   1853
 k-point 20 :  0.33330.25000.0000  plane waves:   1852
 k-point 21 :  0.41670.25000.0000  plane waves:   1844
 k-point 22 :  0.50000.25000.0000  plane waves:   1852
 k-point 23 :  0.33330.33330.0000  plane waves:   1833
 k-point 24 :  0.41670.33330.0000  plane waves:   1846
 k-point 25 :  0.50000.33330.0000  plane waves:   1840
 k-point 26 :  0.41670.41670.0000  plane waves:   1846
 k-point 27 :  0.50000.41670.0000  plane waves:   1842
 k-point 28 :  0.50000.50000.0000  plane waves:   1852
 k-point 29 :  0.08330.08330.0833  plane waves:   1851
 k-point 30 :  0.16670.08330.0833  plane waves:   1849
 k-point 31 :  0.25000.08330.0833  plane waves:   1849
 k-point 32 :  0.33330.08330.0833  plane waves:   1849
 k-point 33 :  0.41670.08330.0833  plane waves:   1851
 k-point 34 :  0.50000.08330.0833  plane waves:   1846
 k-point 35 :  0.16670.16670.0833  plane waves:   1850
 k-point 36 :  0.25000.16670.0833  plane waves:   1854
 k-point 37 :  0.33330.16670.0833  plane waves:   1845
 k-point 38 :  0.41670.16670.0833  plane waves:   1849
 k-point 39 :  0.50000.16670.0833  plane waves:   1846
 k-point 40 :  0.25000.25000.0833  plane waves:   1850
 k-point 41 :  0.33330.25000.0833  plane waves:   1846
 k-point 42 :  0.41670.25000.0833  plane waves:   1844
 k-point 43 :  0.50000.25000.0833  plane waves:   1856
 k-point 44 :  0.33330.33330.0833  plane waves:   1841
 k-point 45 :  0.41670.33330.0833  plane waves:   1843
 k-point 46 :  0.50000.33330.0833  plane waves:   1854
 k-point 47 :  0.41670.41670.0833  plane waves:   1841
 k-point 48 :  0.50000.41670.0833  plane waves:   1842
 k-point 49 :  0.50000.50000.0833  plane waves:   1844
 k-point 50 :  0.16670.16670.1667  plane waves:   1845
 k-point 51 :  0.25000.16670.1667  plane waves:   1860
 k-point 52 :  0.33330.16670.1667  plane waves:   1854
 k-point 53 :  0.41670.16670.1667  plane waves:   1839
 k-point 54 :  0.50000.16670.1667  plane waves:   1852
 k-point 55 :  0.25000.25000.1667  plane waves:   1855
 k-point 56 :  0.33330.25000.1667  plane waves:   1847
 k-point 57 :  0.41670.25000.1667  plane waves:   1838
 k-point 58 :  0.50000.25000.1667  plane waves:   1850
 k-point 59 :  0.33330.33330.1667  plane waves:   1834
 k-point 60 :  0.41670.33330.1667  plane waves:   1839
 k-point 61 :  0.50000.33330.1667  plane waves:   1842
 k-point 62 :  0.41670.41670.1667  plane waves:   1838
 k-point 63 :  0.50000.41670.1667  plane waves:   1832
 k-point 64 :  0.50000.50000.1667  plane waves:   1844
 k-point 65 :  0.25000.25000.2500  plane waves:   1854
 k-point 66 :  0.33330.25000.2500  plane waves:   1840
 k-point 67 :  0.41670.25000.2500  plane waves:   1840
 k-point 68 :  0.50000.25000.2500  plane waves:   1856
 k-point 69 :  0.33330.33330.2500  plane waves:   1842
 k-point 70 :  0.41670.33330.2500  plane waves:   1839
 k-point 71 :  0.50000.33330.2500  plane waves:   1828
 k-point 72 :  0.41670.41670.2500  plane waves:   1835
 k-point 73 :  0.50000.41670.2500  plane waves:   1828
 k-point 74 :  0.50000.50000.2500  plane waves:   1820
 k-point 75 :  0.33330.33330.3333  plane waves:   1830
 k-point 76 :  0.41670.33330.3333  plane waves:   1833
 k-point 77 :  0.50000.33330.3333  plane waves:   1848
 k-point 78 :  0.41670.41670.3333  plane waves:   1840
 k-point 79 :  0.50000.41670.3333  plane waves:   1836
 k-point 80 :  0.50000.50000.3333  plane waves:   1828
 k-point 81 :  0.41670.41670.4167  plane waves:   1847
 k-point 82 :  0.50000.41670.4167  plane waves:   1844
 k-point 83 :  0.50000.50000.4167  plane waves:   1860
 k-point 84 :  0.50000.50000.5000  plane waves:   1856

 maximum and minimum number of plane-waves per node :   1860  1820

 maximum number of plane-waves:   1860
 maximal index in each direction: 
   IXMAX=  7   IYMAX=  7   IZMAX=  7
   IXMIN= -8   IYMIN= -8   IZMIN= -8

 WARNING: wrap around error must be expected set NGX to  32
 WARNING: wrap around error must be expected set NGY to  32
 WARNING: wrap around error must be expected set NGZ to  32

 parallel 3dFFT wavefunction:
    minimum data exchange during FFTs selected (reduces bandwidth)
 parallel 3dFFT charge:
    minimum data exchange during FFTs selected (reduces bandwidth)

 For storing wavefunctions   69.43 MBYTES are necessary
 For predicting wavefunctions    2.30 MBYTES are necessary
Broyden mixing: mesh for mixing (old mesh)
   NGX = 15   NGY = 15   NGZ = 15
  (NGX  = 60   NGY  = 60   NGZ  = 60)
 gives a total of   3375 points
 initial charge density was supplied:
 charge density of overlapping atoms calculated
 number of electron   44.0000000 magnetization 
 keeping initial charge density in first step


--------------------------------------------------------------------------------------------------------


 Maximum index for augmentation-charges        44233 (set IRDMAX)


--------------------------------------------------------------------------------------------------------


 First call to EWALD:  gamma=   0.425
 Maximum number of real-space cells 3x 3x 3
 Maximum number of reciprocal cells 3x 3x 3

    FEWALD:  VPU time    0.00: CPU time    0.00


----------------------------------------- Iteration    1(   1)  ---------------------------------------


    POTLOK:  VPU time    0.03: CPU time    0.04
    SETDIJ:  VPU time    0.07: CPU time    0.07
    EDDAV :  VPU time    2.54: CPU time    2.56
    DOS   :  VPU time    0.00: CPU time   -0.00
    ------------------------------------------
      LOOP:  VPU time    2.66: CPU time    2.67

 eigenvalue-minimisations  :  4712
 total energy-change (2. order) : 0.4359096E+03  (-0.2127797E+04)
 number of electron   44.0000000 magnetization 
 augmentation part    44.0000000 magnetization 

 Free energy of the ion-electron system (eV)
  ---------------------------------------------------
  alpha Z        PSCENC =       412.39861622
  Ewald energy   TEWEN  =     -3828.81821671
  -1/2 Hartree   DENC   =      -528.81443399
  -V(xc)+E(xc)   XCENC  =        60.58346864
  PAW double counting   =      2990.04966927    -2896.51663641
  entropy T*S    EENTRO =        -0.00017385
  eigenvalues    EBANDS =       522.81743155
  atomic energy  EATOM  =      3704.20985194
  ---------------------------------------------------
  free energy    TOTEN  =       435.90957666 eV

  energy without entropy =      435.90975051  energy(sigma->0) =      435.90966359


--------------------------------------------------------------------------------------------------------




----------------------------------------- Iteration    1(   2)  ---------------------------------------


    EDDAV :  VPU time    2.60: CPU time    2.60
    DOS   :  VPU time    0.00: CPU time   -0.00
    ------------------------------------------
      LOOP:  VPU time    2.61: CPU time    2.61

 eigenvalue-minimisations  :  4760
 total energy-change (2. order) :-0.4316056E+03  (-0.4106555E+03)
 number of electron   44.0000000 magnetization 
 augmentation part    44.0000000 magnetization 

 Free energy of the ion-electron system (eV)
  ---------------------------------------------------
  alpha Z        PSCENC =       412.39861622
  Ewald energy   TEWEN  =     -3828.81821671
  -1/2 Hartree   DENC   =      -528.81443399
  -V(xc)+E(xc)   XCENC  =        60.58346864
  PAW double counting   =      2990.04966927    -2896.51663641
  entropy T*S    EENTRO =        -0.00004098
  eigenvalues    EBANDS =        91.21165384
  atomic energy  EATOM  =      3704.20985194
  ---------------------------------------------------
  free energy    TOTEN  =         4.30393183 eV

  energy without entropy =        4.30397280  energy(sigma->0) =        4.30395232


--------------------------------------------------------------------------------------------------------




----------------------------------------- Iteration    1(   3)  ---------------------------------------


    EDDAV :  VPU time    2.78: CPU time    2.78
    DOS   :  VPU time    0.00: CPU time   -0.00
    ------------------------------------------
      LOOP:  VPU time    2.79: CPU time    2.79

 eigenvalue-minimisations  :  5236
 total energy-change (2. order) :-0.1809196E+02  (-0.1761184E+02)
 number of electron   44.0000000 magnetization 
 augmentation part    44.0000000 magnetization 

 Free energy of the ion-electron system (eV)
  ---------------------------------------------------
  alpha Z        PSCENC =       412.39861622
  Ewald energy   TEWEN  =     -3828.81821671
  -1/2 Hartree   DENC   =      -528.81443399
  -V(xc)+E(xc)   XCENC  =        60.58346864
  PAW double counting   =      2990.04966927    -2896.51663641
  entropy T*S    EENTRO =        -0.00013677
  eigenvalues    EBANDS =        73.11978783
  atomic energy  EATOM  =      3704.20985194
  ---------------------------------------------------
  free energy    TOTEN  =       -13.78802999 eV

  energy without entropy =      -13.78789321  energy(sigma->0) =      -13.78796160


--------------------------------------------------------------------------------------------------------




----------------------------------------- Iteration    1(   4)  ---------------------------------------


    EDDAV :  VPU time    2.65: CPU time    2.66
    DOS   :  VPU time    0.00: CPU time   -0.00
    ------------------------------------------
      LOOP:  VPU time    2.66: CPU time    2.66

 eigenvalue-minimisations  :  4924
 total energy-change (2. order) :-0.2861871E+00  (-0.2855834E+00)
 number of electron   44.0000000 magnetization 
 augmentation part    44.0000000 magnetization 

 Free energy of the ion-electron system (eV)
  ---------------------------------------------------
  alpha Z        PSCENC =       412.39861622
  Ewald energy   TEWEN  =     -3828.81821671
  -1/2 Hartree   DENC   =      -528.81443399
  -V(xc)+E(xc)   XCENC  =        60.58346864
  PAW double counting   =      2990.04966927    -2896.51663641
  entropy T*S    EENTRO =        -0.00014084
  eigenvalues    EBANDS =        72.83360476
  atomic energy  EATOM  =      3704.20985194
  ---------------------------------------------------
  free energy    TOTEN  =       -14.07421713 eV

  energy without entropy =      -14.07407628  energy(sigma->0) =      -14.07414670


--------------------------------------------------------------------------------------------------------




----------------------------------------- Iteration    1(   5)  ---------------------------------------


    EDDAV :  VPU time    2.66: CPU time    2.66
    DOS   :  VPU time   -0.00: CPU time   -0.00
    CHARGE:  VPU time    0.25: CPU time    0.25
    MIXING:  VPU time    0.00: CPU time    0.00
    ------------------------------------------
      LOOP:  VPU time    2.92: CPU time    2.92

 eigenvalue-minimisations  :  5028
 total energy-change (2. order) :-0.2946906E-02  (-0.2946325E-02)
 number of electron   44.0000000 magnetization 
 augmentation part    15.5214929 magnetization 

 Broyden mixing:
  rms(total) = 0.57190E+00    rms(broyden)= 0.57190E+00
  rms(prec ) = 0.14455E+01
  weight for this iteration     100.00

 Free energy of the ion-electron system (eV)
  ---------------------------------------------------
  alpha Z        PSCENC =       412.39861622
  Ewald energy   TEWEN  =     -3828.81821671
  -1/2 Hartree   DENC   =      -528.81443399
  -V(xc)+E(xc)   XCENC  =        60.58346864
  PAW double counting   =      2990.04966927    -2896.51663641
  entropy T*S    EENTRO =        -0.00014157
  eigenvalues    EBANDS =        72.83065858
  atomic energy  EATOM  =      3704.20985194
  ---------------------------------------------------
  free energy    TOTEN  =       -14.07716403 eV

  energy without entropy =      -14.07702246  energy(sigma->0) =      -14.07709325


--------------------------------------------------------------------------------------------------------




----------------------------------------- Iteration    1(   6)  ---------------------------------------


    POTLOK:  VPU time    0.04: CPU time    0.04
    SETDIJ:  VPU time    0.07: CPU time    0.08
    EDDAV :  VPU time    2.65: CPU time    2.65
    DOS   :  VPU time    0.00: CPU time   -0.00
    CHARGE:  VPU time    0.25: CPU time    0.25
    MIXING:  VPU time    0.00: CPU time    0.00
    ------------------------------------------
      LOOP:  VPU time    3.02: CPU time    3.02

 eigenvalue-minimisations  :  4980
 total energy-change (2. order) : 0.9203068E+00  (-0.2369362E+00)
 number of electron   44.0000000 magnetization 
 augmentation part    16.0545220 magnetization 

 Broyden mixing:
  rms(total) = 0.14938E+00    rms(broyden)= 0.14937E+00
  rms(prec ) = 0.35840E+00
  weight for this iteration     100.00

 eigenvalues of (default mixing * dielectric matrix)
  average eigenvalue GAMMA=   1.2172
  1.2172

 Free energy of the ion-electron system (eV)
  ---------------------------------------------------
  alpha Z        PSCENC =       412.39861622
  Ewald energy   TEWEN  =     -3828.81821671
  -1/2 Hartree   DENC   =      -498.16387096
  -V(xc)+E(xc)   XCENC  =        59.23137852
  PAW double counting   =      2959.78537747    -2870.80603795
  entropy T*S    EENTRO =        -0.00009063
  eigenvalues    EBANDS =        49.00613491
  atomic energy  EATOM  =      3704.20985194
  ---------------------------------------------------
  free energy    TOTEN  =       -13.15685719 eV

  energy without entropy =      -13.15676656  energy(sigma->0) =      -13.15681187


--------------------------------------------------------------------------------------------------------




----------------------------------------- Iteration    1(   7)  ---------------------------------------


    POTLOK:  VPU time    0.03: CPU time    0.04
    SETDIJ:  VPU time    0.07: CPU time    0.07
    EDDAV :  VPU time    2.71: CPU time    2.71
    DOS   :  VPU time    0.00: CPU time   -0.00
    CHARGE:  VPU time    0.25: CPU time    0.25
    MIXING:  VPU time    0.00: CPU time    0.00
    ------------------------------------------
      LOOP:  VPU time    3.08: CPU time    3.08

 eigenvalue-minimisations  :  5168
 total energy-change (2. order) : 0.5766283E-01  (-0.1469718E-01)
 number of electron   44.0000000 magnetization 
 augmentation part    16.1796430 magnetization 

 Broyden mixing:
  rms(total) = 0.60616E-01    rms(broyden)= 0.60615E-01
  rms(prec ) = 0.96115E-01
  weight for this iteration     100.00

 eigenvalues of (default mixing * dielectric matrix)
  average eigenvalue GAMMA=   1.8201
  1.2008  2.4393

 Free energy of the ion-electron system (eV)
  ---------------------------------------------------
  alpha Z        PSCENC =       412.39861622
  Ewald energy   TEWEN  =     -3828.81821671
  -1/2 Hartree   DENC   =      -488.99341741
  -V(xc)+E(xc)   XCENC  =        58.81436657
  PAW double counting   =      2966.83053942    -2880.68782276
  entropy T*S    EENTRO =        -0.00008109
  eigenvalues    EBANDS =        43.14696946
  atomic energy  EATOM  =      3704.20985194
  ---------------------------------------------------
  free energy    TOTEN  =       -13.09919436 eV

  energy without entropy =      -13.09911327  energy(sigma->0) =      -13.09915381


--------------------------------------------------------------------------------------------------------




----------------------------------------- Iteration    1(   8)  ---------------------------------------


    POTLOK:  VPU time    0.03: CPU time    0.04
    SETDIJ:  VPU time    0.07: CPU time    0.07
    EDDAV :  VPU time    2.58: CPU time    2.58
    DOS   :  VPU time    0.00: CPU time   -0.00
    CHARGE:  VPU time    0.25: CPU time    0.25
    MIXING:  VPU time    0.00: CPU time    0.00
    ------------------------------------------
      LOOP:  VPU time    2.95: CPU time    2.95

 eigenvalue-minimisations  :  4784
 total energy-change (2. order) : 0.1085897E-01  (-0.7247604E-03)
 number of electron   44.0000000 magnetization 
 augmentation part    16.1768318 magnetization 

 Broyden mixing:
  rms(total) = 0.41611E-02    rms(broyden)= 0.41594E-02
  rms(prec ) = 0.81303E-02
  weight for this iteration     100.00

 eigenvalues of (default mixing * dielectric matrix)
  average eigenvalue GAMMA=   1.7917
  1.2283  1.5184  2.6284

 Free energy of the ion-electron system (eV)
  ---------------------------------------------------
  alpha Z        PSCENC =       412.39861622
  Ewald energy   TEWEN  =     -3828.81821671
  -1/2 Hartree   DENC   =      -485.95618503
  -V(xc)+E(xc)   XCENC  =        58.65985963
  PAW double counting   =      2988.80271819    -2905.01956221
  entropy T*S    EENTRO =        -0.00007967
  eigenvalues    EBANDS =        42.63466225
  atomic energy  EATOM  =      3704.20985194
  ---------------------------------------------------
  free energy    TOTEN  =       -13.08833539 eV

  energy without entropy =      -13.08825571  energy(sigma->0) =      -13.08829555


--------------------------------------------------------------------------------------------------------




----------------------------------------- Iteration    1(   9)  ---------------------------------------


    POTLOK:  VPU time    0.03: CPU time    0.04
    SETDIJ:  VPU time    0.07: CPU time    0.08
    EDDAV :  VPU time    2.67: CPU time    2.67
    DOS   :  VPU time    0.00: CPU time   -0.00
    CHARGE:  VPU time    0.25: CPU time    0.25
    MIXING:  VPU time    0.00: CPU time    0.00
    ------------------------------------------
      LOOP:  VPU time    3.04: CPU time    3.04

 eigenvalue-minimisations  :  5064
 total energy-change (2. order) :-0.6006607E-04  (-0.3314497E-04)
 number of electron   44.0000000 magnetization 
 augmentation part    16.1827591 magnetization 

 Broyden mixing:
  rms(total) = 0.25241E-02    rms(broyden)= 0.25240E-02
  rms(prec ) = 0.52525E-02
  weight for this iteration     100.00

 eigenvalues of (default mixing * dielectric matrix)
  average eigenvalue GAMMA=   1.7924
  0.9847  1.1643  2.5102  2.5102

 Free energy of the ion-electron system (eV)
  ---------------------------------------------------
  alpha Z        PSCENC =       412.39861622
  Ewald energy   TEWEN  =     -3828.81821671
  -1/2 Hartree   DENC   =      -485.65820188
  -V(xc)+E(xc)   XCENC  =        58.64540761
  PAW double counting   =      2990.35281730    -2906.56634510
  entropy T*S    EENTRO =        -0.00007758
  eigenvalues    EBANDS =        42.34775274
  atomic energy  EATOM  =      3704.20985194
  ---------------------------------------------------
  free energy    TOTEN  =       -13.08839545 eV

  energy without entropy =      -13.08831787  energy(sigma->0) =      -13.08835666


--------------------------------------------------------------------------------------------------------




----------------------------------------- Iteration    1(  10)  ---------------------------------------


    POTLOK:  VPU time    0.04: CPU time    0.04
    SETDIJ:  VPU time    0.07: CPU time    0.08
    EDDAV :  VPU time    2.60: CPU time    2.60
    DOS   :  VPU time    0.00: CPU time   -0.00
    CHARGE:  VPU time    0.25: CPU time    0.25
    MIXING:  VPU time    0.00: CPU time    0.00
    ------------------------------------------
      LOOP:  VPU time    2.97: CPU time    2.97

 eigenvalue-minimisations  :  4828
 total energy-change (2. order) :-0.3662505E-05  (-0.2967601E-05)
 number of electron   44.0000000 magnetization 
 augmentation part    16.1818107 magnetization 

 Broyden mixing:
  rms(total) = 0.23998E-03    rms(broyden)= 0.23988E-03
  rms(prec ) = 0.41304E-03
  weight for this iteration     100.00

 eigenvalues of (default mixing * dielectric matrix)
  average eigenvalue GAMMA=   1.7738
  2.9021  2.4218  1.0237  1.1557  1.3660

 Free energy of the ion-electron system (eV)
  ---------------------------------------------------
  alpha Z        PSCENC =       412.39861622
  Ewald energy   TEWEN  =     -3828.81821671
  -1/2 Hartree   DENC   =      -485.84348826
  -V(xc)+E(xc)   XCENC  =        58.65281821
  PAW double counting   =      2991.40806497    -2907.50165579
  entropy T*S    EENTRO =        -0.00007839
  eigenvalues    EBANDS =        42.40568869
  atomic energy  EATOM  =      3704.20985194
  ---------------------------------------------------
  free energy    TOTEN  =       -13.08839911 eV

  energy without entropy =      -13.08832073  energy(sigma->0) =      -13.08835992


--------------------------------------------------------------------------------------------------------




----------------------------------------- Iteration    1(  11)  ---------------------------------------


    POTLOK:  VPU time    0.03: CPU time    0.04
    SETDIJ:  VPU time    0.07: CPU time    0.07
    EDDAV :  VPU time    2.67: CPU time    2.67
    DOS   :  VPU time    0.00: CPU time   -0.00
    CHARGE:  VPU time    0.25: CPU time    0.25
    MIXING:  VPU time    0.00: CPU time    0.00
    ------------------------------------------
      LOOP:  VPU time    3.04: CPU time    3.04

 eigenvalue-minimisations  :  5036
 total energy-change (2. order) :-0.1630931E-05  (-0.6329903E-07)
 number of electron   44.0000000 magnetization 
 augmentation part    16.1817028 magnetization 

 Broyden mixing:
  rms(total) = 0.83971E-04    rms(broyden)= 0.83948E-04
  rms(prec ) = 0.13854E-03
  weight for this iteration     100.00

 eigenvalues of (default mixing * dielectric matrix)
  average eigenvalue GAMMA=   1.8152
  2.8914  2.4339  2.4339  1.1542  0.9888  0.9888

 Free energy of the ion-electron system (eV)
  ---------------------------------------------------
  alpha Z        PSCENC =       412.39861622
  Ewald energy   TEWEN  =     -3828.81821671
  -1/2 Hartree   DENC   =      -485.84356665
  -V(xc)+E(xc)   XCENC  =        58.65261537
  PAW double counting   =      2991.57212978    -2907.66609759
  entropy T*S    EENTRO =        -0.00007846
  eigenvalues    EBANDS =        42.40634535
  atomic energy  EATOM  =      3704.20985194
  ---------------------------------------------------
  free energy    TOTEN  =       -13.08840075 eV

  energy without entropy =      -13.08832229  energy(sigma->0) =      -13.08836152


--------------------------------------------------------------------------------------------------------




----------------------------------------- Iteration    1(  12)  ---------------------------------------


    POTLOK:  VPU time    0.03: CPU time    0.04
    SETDIJ:  VPU time    0.07: CPU time    0.07
    EDDAV :  VPU time    2.60: CPU time    2.60
    DOS   :  VPU time    0.00: CPU time   -0.00
    CHARGE:  VPU time    0.25: CPU time    0.25
    MIXING:  VPU time    0.00: CPU time    0.00
    ------------------------------------------
      LOOP:  VPU time    2.97: CPU time    2.97

 eigenvalue-minimisations  :  4840
 total energy-change (2. order) : 0.5628358E-06  (-0.4890863E-08)
 number of electron   44.0000000 magnetization 
 augmentation part    16.1817099 magnetization 

 Broyden mixing:
  rms(total) = 0.82283E-05    rms(broyden)= 0.82267E-05
  rms(prec ) = 0.17205E-04
  weight for this iteration     100.00

 eigenvalues of (default mixing * dielectric matrix)
  average eigenvalue GAMMA=   1.7493
  2.8937  2.5521  2.5521  0.9973  1.0454  1.0454  1.1592

 Free energy of the ion-electron system (eV)
  ---------------------------------------------------
  alpha Z        PSCENC =       412.39861622
  Ewald energy   TEWEN  =     -3828.81821671
  -1/2 Hartree   DENC   =      -485.84368172
  -V(xc)+E(xc)   XCENC  =        58.65265570
  PAW double counting   =      2991.44026038    -2907.53453462
  entropy T*S    EENTRO =        -0.00007845
  eigenvalues    EBANDS =        42.40672709
  atomic energy  EATOM  =      3704.20985194
  ---------------------------------------------------
  free energy    TOTEN  =       -13.08840018 eV

  energy without entropy =      -13.08832173  energy(sigma->0) =      -13.08836096


--------------------------------------------------------------------------------------------------------




----------------------------------------- Iteration    1(  13)  ---------------------------------------


    POTLOK:  VPU time    0.04: CPU time    0.04
    SETDIJ:  VPU time    0.07: CPU time    0.07
    EDDAV :  VPU time    1.76: CPU time    1.76
    DOS   :  VPU time    0.00: CPU time   -0.00
    CHARGE:  VPU time    0.25: CPU time    0.25
    MIXING:  VPU time    0.00: CPU time    0.00
    ------------------------------------------
      LOOP:  VPU time    2.12: CPU time    2.12

 eigenvalue-minimisations  :  2600
 total energy-change (2. order) : 0.4511548E-07  (-0.7587226E-10)
 number of electron   44.0000000 magnetization 
 augmentation part    16.1817044 magnetization 

 Broyden mixing:
  rms(total) = 0.15763E-05    rms(broyden)= 0.15761E-05
  rms(prec ) = 0.19313E-05
  weight for this iteration     100.00

 eigenvalues of (default mixing * dielectric matrix)
  average eigenvalue GAMMA=   1.8747
  3.0522  2.8277  2.4822  2.4822  1.1520  0.9904  0.9904  1.0204

 Free energy of the ion-electron system (eV)
  ---------------------------------------------------
  alpha Z        PSCENC =       412.39861622
  Ewald energy   TEWEN  =     -3828.81821671
  -1/2 Hartree   DENC   =      -485.84410014
  -V(xc)+E(xc)   XCENC  =        58.65267584
  PAW double counting   =      2991.43324207    -2907.52738288
  entropy T*S    EENTRO =        -0.00007845
  eigenvalues    EBANDS =        42.40699197
  atomic energy  EATOM  =      3704.20985194
  ---------------------------------------------------
  free energy    TOTEN  =       -13.08840014 eV

  energy without entropy =      -13.08832168  energy(sigma->0) =      -13.08836091


--------------------------------------------------------------------------------------------------------




----------------------------------------- Iteration    1(  14)  ---------------------------------------


    POTLOK:  VPU time    0.04: CPU time    0.04
    SETDIJ:  VPU time    0.07: CPU time    0.07
    EDDAV :  VPU time    1.74: CPU time    1.74
    DOS   :  VPU time    0.00: CPU time   -0.00
    ------------------------------------------
      LOOP:  VPU time    1.85: CPU time    1.86

 eigenvalue-minimisations  :  2512
 total energy-change (2. order) :-0.7298695E-08  (-0.6658749E-11)
 number of electron   44.0000000 magnetization 
 augmentation part    16.1817044 magnetization 

 Free energy of the ion-electron system (eV)
  ---------------------------------------------------
  alpha Z        PSCENC =       412.39861622
  Ewald energy   TEWEN  =     -3828.81821671
  -1/2 Hartree   DENC   =      -485.84414233
  -V(xc)+E(xc)   XCENC  =        58.65267800
  PAW double counting   =      2991.43905166    -2907.53311840
  entropy T*S    EENTRO =        -0.00007845
  eigenvalues    EBANDS =        42.40695792
  atomic energy  EATOM  =      3704.20985194
  ---------------------------------------------------
  free energy    TOTEN  =       -13.08840014 eV

  energy without entropy =      -13.08832169  energy(sigma->0) =      -13.08836092


--------------------------------------------------------------------------------------------------------




 average (electrostatic) potential at core
  the test charge radii are     1.2098
  (the norm of the test charge is              1.0000)
       1 -46.1395       2 -46.1395       3 -46.1395       4 -46.1395
 
 
 
 E-fermi :   4.9264     XC(G=0): -12.3397     alpha+bet : -9.5536
   add alpha+bet to get absolut eigen values

 k-point   1 :       0.0000    0.0000    0.0000
  band No.  band energies     occupation 
      1      -4.2408      2.00000
      2      -1.5820      2.00000
      3      -1.5820      2.00000
      4      -1.5820      2.00000
      5      -1.3071      2.00000
      6      -1.3071      2.00000
      7      -1.3071      2.00000
      8       0.5446      2.00000
      9       0.5446      2.00000
     10       0.5446      2.00000
     11       1.9015      2.00000
     12       1.9015      2.00000
     13       2.9340      2.00000
     14       2.9340      2.00000
     15       2.9340      2.00000
     16       3.2609      2.00000
     17       3.2609      2.00000
     18       3.2609      2.00000
     19       3.2609      2.00000
     20       3.2609      2.00000
     21       3.2609      2.00000
     22       6.1596      0.00000
     23       6.1596      0.00000
     24       6.1596      0.00000
     25      10.2759      0.00000
     26      10.2759      0.00000
     27      10.2759      0.00000
     28      14.9566      0.00000

 k-point   2 :       0.0833    0.0000    0.0000
  band No.  band energies     occupation 
      1      -4.1640      2.00000
      2      -1.5565      2.00000
      3      -1.5319      2.00000
      4      -1.5319      2.00000
      5      -1.2800      2.00000
      6      -1.2660      2.00000
      7      -1.2660      2.00000
      8       0.5073      2.00000
      9       0.5778      2.00000
     10       0.5778      2.00000
     11       1.8618      2.00000
     12       1.9179      2.00000
     13       2.8777      2.00000
     14       2.8777      2.00000
     15       2.9149      2.00000
     16       3.0174      2.00000
     17       3.0174      2.00000
     18       3.1919      2.00000
     19       3.1919      2.00000
     20       3.2610      2.00000
     21       3.2610      2.00000
     22       5.5683      0.00000
     23       6.4583      0.00000
     24       6.4583      0.00000
     25      10.2132      0.00000
     26      10.2132      0.00000
     27      11.0011      0.00000
     28      14.8131      0.00000

 k-point   3 :       0.1667    0.0000    0.0000
  band No.  band energies     occupation 
      1      -3.9363      2.00000
      2      -1.4889      2.00000
      3      -1.3871      2.00000
      4      -1.3871      2.00000
      5      -1.1999      2.00000
      6      -1.1431      2.00000
      7      -1.1431      2.00000
      8       0.3994      2.00000
      9       0.6768      2.00000
     10       0.6768      2.00000
     11       1.7484      2.00000
     12       1.9659      2.00000
     13       2.4726      2.00000
     14       2.4726      2.00000
     15       2.7141      2.00000
     16       2.7141      2.00000
     17       2.8595      2.00000
     18       2.9979      2.00000
     19       2.9979      2.00000
     20       3.2613      2.00000
     21       3.2613      2.00000
     22       4.4035      2.00000
     23       7.1669      0.00000
     24       7.1669      0.00000
     25      10.0459      0.00000
     26      10.0459      0.00000
     27      12.5736      0.00000
     28      14.4005      0.00000

 k-point   4 :       0.2500    0.0000    0.0000
  band No.  band energies     occupation 
      1      -3.5667      2.00000
      2      -1.4097      2.00000
      3      -1.1652      2.00000
      4      -1.1652      2.00000
      5      -1.0702      2.00000
      6      -0.9388      2.00000
      7      -0.9388      2.00000
      8       0.2320      2.00000
      9       0.8396      2.00000
     10       0.8396      2.00000
     11       1.5780      2.00000
     12       1.8455      2.00000
     13       1.8455      2.00000
     14       2.0431      2.00000
     15       2.4621      2.00000
     16       2.4621      2.00000
     17       2.7108      2.00000
     18       2.7108      2.00000
     19       2.7723      2.00000
     20       3.2065      2.00000
     21       3.2618      2.00000
     22       3.2618      2.00000
     23       8.0613      0.00000
     24       8.0613      0.00000
     25       9.8285      0.00000
     26       9.8285      0.00000
     27      13.7665      0.00000
     28      13.7665      0.00000

 k-point   5 :       0.3333    0.0000    0.0000
  band No.  band energies     occupation 
      1      -3.0750      2.00000
      2      -1.3865      2.00000
      3      -0.9033      2.00000
      4      -0.9033      2.00000
      5      -0.8969      2.00000
      6      -0.6542      2.00000
      7      -0.6542      2.00000
      8       0.0214      2.00000
      9       1.0623      2.00000
     10       1.0623      2.00000
     11       1.2283      2.00000
     12       1.2283      2.00000
     13       1.3833      2.00000
     14       2.1450      2.00000
     15       2.1651      2.00000
     16       2.1651      2.00000
     17       2.1841      2.00000
     18       2.3696      2.00000
     19       2.3696      2.00000
     20       2.6603      2.00000
     21       3.2621      2.00000
     22       3.2621      2.00000
     23       9.0403      0.00000
     24       9.0403      0.00000
     25       9.6248      0.00000
     26       9.6248      0.00000
     27      12.9668      0.00000
     28      12.9668      0.00000

 k-point   6 :       0.4167    0.0000    0.0000
  band No.  band energies     occupation 
      1      -2.5030      2.00000
      2      -1.5366      2.00000
      3      -0.6885      2.00000
      4      -0.6708      2.00000
      5      -0.6708      2.00000
      6      -0.2911      2.00000
      7      -0.2911      2.00000
      8      -0.2141      2.00000
      9       0.6568      2.00000
     10       0.6568      2.00000
     11       1.2225      2.00000
     12       1.3387      2.00000
     13       1.3387      2.00000
     14       1.4882      2.00000
     15       1.9037      2.00000
     16       1.9037      2.00000
     17       2.0097      2.00000
     18       2.0097      2.00000
     19       2.2657      2.00000
     20       2.5324      2.00000
     21       3.2624      2.00000
     22       3.2624      2.00000
     23       9.4845      0.00000
     24       9.4845      0.00000
     25      10.0549      0.00000
     26      10.0549      0.00000
     27      12.0533      0.00000
     28      12.0533      0.00000

 k-point   7 :       0.5000    0.0000    0.0000
  band No.  band energies     occupation 
      1      -1.9400      2.00000
      2      -1.9400      2.00000
      3      -0.5722      2.00000
      4      -0.5722      2.00000
      5      -0.4562      2.00000
      6      -0.4562      2.00000
      7       0.1475      2.00000
      8       0.1475      2.00000
      9       0.1475      2.00000
     10       0.1475      2.00000
     11       1.2021      2.00000
     12       1.2021      2.00000
     13       1.6593      2.00000
     14       1.6593      2.00000
     15       1.6593      2.00000
     16       1.6593      2.00000
     17       1.7939      2.00000
     18       1.7939      2.00000
     19       2.3977      2.00000
     20       2.3977      2.00000
     21       3.2625      2.00000
     22       3.2625      2.00000
     23       9.4350      0.00000
     24       9.4350      0.00000
     25      11.0703      0.00000
     26      11.0703      0.00000
     27      11.0703      0.00000
     28      11.0703      0.00000

 k-point   8 :       0.0833    0.0833    0.0000
  band No.  band energies     occupation 
      1      -4.0880      2.00000
      2      -1.5060      2.00000
      3      -1.5060      2.00000
      4      -1.4886      2.00000
      5      -1.2395      2.00000
      6      -1.2395      2.00000
      7      -1.2204      2.00000
      8       0.4917      2.00000
      9       0.5903      2.00000
     10       0.6082      2.00000
     11       1.8513      2.00000
     12       1.9087      2.00000
     13       2.8138      2.00000
     14       2.8138      2.00000
     15       2.8247      2.00000
     16       2.8518      2.00000
     17       2.9801      2.00000
     18       2.9801      2.00000
     19       3.1919      2.00000
     20       3.1919      2.00000
     21       3.2155      2.00000
     22       5.8646      0.00000
     23       5.8646      0.00000
     24       6.7251      0.00000
     25      10.1410      0.00000
     26      10.9421      0.00000
     27      10.9421      0.00000
     28      14.2543      0.00000

 k-point   9 :       0.1667    0.0833    0.0000
  band No.  band energies     occupation 
      1      -3.8627      2.00000
      2      -1.4369      2.00000
      3      -1.3625      2.00000
      4      -1.3596      2.00000
      5      -1.1610      2.00000
      6      -1.1181      2.00000
      7      -1.0849      2.00000
      8       0.3971      2.00000
      9       0.6789      2.00000
     10       0.6978      2.00000
     11       1.7533      2.00000
     12       1.9528      2.00000
     13       2.3311      2.00000
     14       2.3811      2.00000
     15       2.5997      2.00000
     16       2.6699      2.00000
     17       2.7491      2.00000
     18       2.8942      2.00000
     19       2.9973      2.00000
     20       3.1915      2.00000
     21       3.1916      2.00000
     22       4.7450      2.00000
     23       6.5245      0.00000
     24       7.3850      0.00000
     25       9.9451      0.00000
     26      10.7938      0.00000
     27      12.4759      0.00000
     28      13.6518      0.00000

 k-point  10 :       0.2500    0.0833    0.0000
  band No.  band energies     occupation 
      1      -3.4972      2.00000
      2      -1.3553      2.00000
      3      -1.1647      2.00000
      4      -1.1350      2.00000
      5      -1.0339      2.00000
      6      -0.9166      2.00000
      7      -0.8675      2.00000
      8       0.2368      2.00000
      9       0.8392      2.00000
     10       0.8396      2.00000
     11       1.5978      2.00000
     12       1.7167      2.00000
     13       1.7959      2.00000
     14       2.0392      2.00000
     15       2.2244      2.00000
     16       2.4302      2.00000
     17       2.4971      2.00000
     18       2.7097      2.00000
     19       2.7665      2.00000
     20       3.1864      2.00000
     21       3.1911      2.00000
     22       3.6834      2.00000
     23       7.2882      0.00000
     24       8.2450      0.00000
     25       9.6794      0.00000
     26      10.6378      0.00000
     27      13.0703      0.00000
     28      13.9074      0.00000

 k-point  11 :       0.3333    0.0833    0.0000
  band No.  band energies     occupation 
      1      -3.0108      2.00000
      2      -1.3298      2.00000
      3      -0.9141      2.00000
      4      -0.8687      2.00000
      5      -0.8642      2.00000
      6      -0.6362      2.00000
      7      -0.5881      2.00000
      8       0.0325      2.00000
      9       1.0009      2.00000
     10       1.0610      2.00000
     11       1.1175      2.00000
     12       1.2041      2.00000
     13       1.4531      2.00000
     14       1.7103      2.00000
     15       2.1466      2.00000
     16       2.1555      2.00000
     17       2.2023      2.00000
     18       2.3680      2.00000
     19       2.5427      2.00000
     20       2.9557      2.00000
     21       3.1857      2.00000
     22       3.1903      2.00000
     23       8.0083      0.00000
     24       9.2023      0.00000
     25       9.4051      0.00000
     26      10.5961      0.00000
     27      12.4879      0.00000
     28      13.1041      0.00000

 k-point  12 :       0.4167    0.0833    0.0000
  band No.  band energies     occupation 
      1      -2.4445      2.00000
      2      -1.4802      2.00000
      3      -0.6620      2.00000
      4      -0.6602      2.00000
      5      -0.6313      2.00000
      6      -0.2789      2.00000
      7      -0.2694      2.00000
      8      -0.1969      2.00000
      9       0.5730      2.00000
     10       0.6494      2.00000
     11       1.0486      2.00000
     12       1.2416      2.00000
     13       1.3370      2.00000
     14       1.5030      2.00000
     15       1.9003      2.00000
     16       1.9354      2.00000
     17       2.0078      2.00000
     18       2.1553      2.00000
     19       2.2955      2.00000
     20       2.6398      2.00000
     21       3.1866      2.00000
     22       3.1892      2.00000
     23       8.5597      0.00000
     24       9.1555      0.00000
     25      10.2033      0.00000
     26      10.7987      0.00000
     27      11.8762      0.00000
     28      12.1902      0.00000

 k-point  13 :       0.5000    0.0833    0.0000
  band No.  band energies     occupation 
      1      -1.8847      2.00000
      2      -1.8847      2.00000
      3      -0.5366      2.00000
      4      -0.5366      2.00000
      5      -0.4332      2.00000
      6      -0.4332      2.00000
      7       0.1069      2.00000
      8       0.1069      2.00000
      9       0.1515      2.00000
     10       0.1515      2.00000
     11       1.0404      2.00000
     12       1.0404      2.00000
     13       1.6573      2.00000
     14       1.6573      2.00000
     15       1.7809      2.00000
     16       1.7809      2.00000
     17       1.8092      2.00000
     18       1.8092      2.00000
     19       2.4545      2.00000
     20       2.4545      2.00000
     21       3.1879      2.00000
     22       3.1879      2.00000
     23       8.9068      0.00000
     24       8.9068      0.00000
     25      11.2107      0.00000
     26      11.2107      0.00000
     27      11.2704      0.00000
     28      11.2704      0.00000

 k-point  14 :       0.1667    0.1667    0.0000
  band No.  band energies     occupation 
      1      -3.6448      2.00000
      2      -1.2859      2.00000
      3      -1.2859      2.00000
      4      -1.2801      2.00000
      5      -1.0444      2.00000
      6      -1.0444      2.00000
      7      -0.9249      2.00000
      8       0.3539      2.00000
      9       0.7246      2.00000
     10       0.7584      2.00000
     11       1.7193      2.00000
     12       1.9678      2.00000
     13       2.0225      2.00000
     14       2.0225      2.00000
     15       2.0869      2.00000
     16       2.5394      2.00000
     17       2.7441      2.00000
     18       2.7441      2.00000
     19       2.9956      2.00000
     20       2.9956      2.00000
     21       3.0817      2.00000
     22       5.4039      0.00000
     23       5.4039      0.00000
     24       7.9576      0.00000
     25       9.6625      0.00000
     26      12.2163      0.00000
     27      12.2163      0.00000
     28      12.9554      0.00000

 k-point  15 :       0.2500    0.1667    0.0000
  band No.  band energies     occupation 
      1      -3.2915      2.00000
      2      -1.1968      2.00000
      3      -1.1297      2.00000
      4      -1.0526      2.00000
      5      -0.9253      2.00000
      6      -0.8512      2.00000
      7      -0.6926      2.00000
      8       0.2336      2.00000
      9       0.8460      2.00000
     10       0.8574      2.00000
     11       1.4172      2.00000
     12       1.6110      2.00000
     13       1.6173      2.00000
     14       1.6350      2.00000
     15       2.0697      2.00000
     16       2.3330      2.00000
     17       2.5210      2.00000
     18       2.6479      2.00000
     19       2.7065      2.00000
     20       2.9930      2.00000
     21       3.0203      2.00000
     22       4.3621      2.00000
     23       6.1135      0.00000
     24       8.7461      0.00000
     25       9.2601      0.00000
     26      11.8925      0.00000
     27      12.4240      0.00000
     28      13.7030      0.00000

 k-point  16 :       0.3333    0.1667    0.0000
  band No.  band energies     occupation 
      1      -2.8218      2.00000
      2      -1.1644      2.00000
      3      -0.9118      2.00000
      4      -0.7721      2.00000
      5      -0.7667      2.00000
      6      -0.5833      2.00000
      7      -0.4286      2.00000
      8       0.0571      2.00000
      9       0.8535      2.00000
     10       0.9106      2.00000
     11       1.0669      2.00000
     12       1.1257      2.00000
     13       1.1832      2.00000
     14       1.5265      2.00000
     15       2.0859      2.00000
     16       2.2314      2.00000
     17       2.2473      2.00000
     18       2.3638      2.00000
     19       2.4499      2.00000
     20       2.9898      2.00000
     21       2.9949      2.00000
     22       3.5596      2.00000
     23       6.7897      0.00000
     24       8.8152      0.00000
     25       9.6539      0.00000
     26      11.6249      0.00000
     27      12.0244      0.00000
     28      13.4982      0.00000

 k-point  17 :       0.4167    0.1667    0.0000
  band No.  band energies     occupation 
      1      -2.2736      2.00000
      2      -1.3170      2.00000
      3      -0.6454      2.00000
      4      -0.5767      2.00000
      5      -0.5168      2.00000
      6      -0.2439      2.00000
      7      -0.1935      2.00000
      8      -0.1497      2.00000
      9       0.3642      2.00000
     10       0.6237      2.00000
     11       0.8685      2.00000
     12       0.8691      2.00000
     13       1.3370      2.00000
     14       1.6052      2.00000
     15       1.8784      2.00000
     16       1.9824      2.00000
     17       2.0037      2.00000
     18       2.1585      2.00000
     19       2.4367      2.00000
     20       2.9861      2.00000
     21       2.9867      2.00000
     22       3.0306      2.00000
     23       7.3909      0.00000
     24       8.3690      0.00000
     25      10.6225      0.00000
     26      11.4988      0.00000
     27      11.7273      0.00000
     28      12.5821      0.00000

 k-point  18 :       0.5000    0.1667    0.0000
  band No.  band energies     occupation 
      1      -1.7249      2.00000
      2      -1.7249      2.00000
      3      -0.4397      2.00000
      4      -0.4397      2.00000
      5      -0.3665      2.00000
      6      -0.3665      2.00000
      7       0.0097      2.00000
      8       0.0097      2.00000
      9       0.1616      2.00000
     10       0.1616      2.00000
     11       0.7941      2.00000
     12       0.7941      2.00000
     13       1.6544      2.00000
     14       1.6544      2.00000
     15       1.8293      2.00000
     16       1.8293      2.00000
     17       1.8455      2.00000
     18       1.8455      2.00000
     19       2.6897      2.00000
     20       2.6897      2.00000
     21       2.9847      2.00000
     22       2.9847      2.00000
     23       7.9081      0.00000
     24       7.9081      0.00000
     25      11.5404      0.00000
     26      11.5404      0.00000
     27      11.6107      0.00000
     28      11.6107      0.00000

 k-point  19 :       0.2500    0.2500    0.0000
  band No.  band energies     occupation 
      1      -2.9592      2.00000
      2      -1.0324      2.00000
      3      -0.9492      2.00000
      4      -0.9492      2.00000
      5      -0.7461      2.00000
      6      -0.7461      2.00000
      7      -0.4608      2.00000
      8       0.1837      2.00000
      9       0.8615      2.00000
     10       0.9392      2.00000
     11       1.0485      2.00000
     12       1.0485      2.00000
     13       1.3525      2.00000
     14       1.5532      2.00000
     15       2.1727      2.00000
     16       2.2056      2.00000
     17       2.4561      2.00000
     18       2.4561      2.00000
     19       2.7021      2.00000
     20       2.7021      2.00000
     21       2.8675      2.00000
     22       5.0435      0.00000
     23       5.0435      0.00000
     24       8.6751      0.00000
     25       9.4661      0.00000
     26      12.0264      0.00000
     27      13.0515      0.00000
     28      13.0515      0.00000

 k-point  20 :       0.3333    0.2500    0.0000
  band No.  band energies     occupation 
      1      -2.5188      2.00000
      2      -0.9052      2.00000
      3      -0.8660      2.00000
      4      -0.6436      2.00000
      5      -0.6070      2.00000
      6      -0.4993      2.00000
      7      -0.2208      2.00000
      8       0.0709      2.00000
      9       0.5377      2.00000
     10       0.7056      2.00000
     11       0.8501      2.00000
     12       0.9790      2.00000
     13       1.1085      2.00000
     14       1.4913      2.00000
     15       1.9736      2.00000
     16       2.2134      2.00000
     17       2.2826      2.00000
     18       2.3593      2.00000
     19       2.4341      2.00000
     20       2.6979      2.00000
     21       2.7720      2.00000
     22       4.1799      2.00000
     23       5.6971      0.00000
     24       8.0528      0.00000
     25      10.3212      0.00000
     26      11.8112      0.00000
     27      12.4748      0.00000
     28      14.0778      0.00000

 k-point  21 :       0.4167    0.2500    0.0000
  band No.  band energies     occupation 
      1      -2.0047      2.00000
      2      -1.0680      2.00000
      3      -0.6307      2.00000
      4      -0.4426      2.00000
      5      -0.3446      2.00000
      6      -0.1904      2.00000
      7      -0.0864      2.00000
      8      -0.0553      2.00000
      9       0.1029      2.00000
     10       0.5377      2.00000
     11       0.5704      2.00000
     12       0.7476      2.00000
     13       1.3550      2.00000
     14       1.5528      2.00000
     15       1.8112      2.00000
     16       1.9662      2.00000
     17       2.0018      2.00000
     18       2.0248      2.00000
     19       2.6966      2.00000
     20       2.7234      2.00000
     21       2.7255      2.00000
     22       3.5428      2.00000
     23       6.3098      0.00000
     24       7.4581      0.00000
     25      11.2532      0.00000
     26      11.7388      0.00000
     27      12.0544      0.00000
     28      13.1826      0.00000

 k-point  22 :       0.5000    0.2500    0.0000
  band No.  band energies     occupation 
      1      -1.4809      2.00000
      2      -1.4809      2.00000
      3      -0.3438      2.00000
      4      -0.3438      2.00000
      5      -0.2641      2.00000
[...]
     16       1.5746      2.00000
     17       2.5765      2.00000
     18       2.5765      2.00000
     19       2.5765      2.00000
     20       2.5765      2.00000
     21       4.5501      2.00000
     22       4.5501      2.00000
     23       4.5501      2.00000
     24       4.5501      2.00000
     25       9.7337      0.00000
     26       9.7337      0.00000
     27       9.7337      0.00000
     28       9.7337      0.00000

 k-point  75 :       0.3333    0.3333    0.3333
  band No.  band energies     occupation 
      1      -1.9707      2.00000
      2      -1.2660      2.00000
      3      -1.2660      2.00000
      4      -1.2660      2.00000
      5       0.2027      2.00000
      6       0.2027      2.00000
      7       0.2027      2.00000
      8       0.6858      2.00000
      9       0.6858      2.00000
     10       1.0370      2.00000
     11       1.0370      2.00000
     12       1.0370      2.00000
     13       1.1878      2.00000
     14       1.1878      2.00000
     15       1.1878      2.00000
     16       1.3000      2.00000
     17       2.4560      2.00000
     18       2.4560      2.00000
     19       3.0126      2.00000
     20       3.0126      2.00000
     21       3.0126      2.00000
     22       5.5826      0.00000
     23       5.5826      0.00000
     24       5.5826      0.00000
     25       8.8760      0.00000
     26       8.8760      0.00000
     27       8.8760      0.00000
     28      12.4931      0.00000

 k-point  76 :       0.4167    0.3333    0.3333
  band No.  band energies     occupation 
      1      -1.8478      2.00000
      2      -1.4849      2.00000
      3      -1.3388      2.00000
      4      -1.3388      2.00000
      5       0.2306      2.00000
      6       0.2306      2.00000
      7       0.3571      2.00000
      8       0.6108      2.00000
      9       0.6809      2.00000
     10       0.8615      2.00000
     11       0.9230      2.00000
     12       0.9230      2.00000
     13       1.3621      2.00000
     14       1.4985      2.00000
     15       1.4985      2.00000
     16       1.5861      2.00000
     17       2.6970      2.00000
     18       2.7006      2.00000
     19       2.9539      2.00000
     20       2.9539      2.00000
     21       2.9890      2.00000
     22       4.4227      2.00000
     23       5.9708      0.00000
     24       5.9708      0.00000
     25       8.0668      0.00000
     26       8.0668      0.00000
     27       9.6430      0.00000
     28      11.4580      0.00000

 k-point  77 :       0.5000    0.3333    0.3333
  band No.  band energies     occupation 
      1      -1.6838      2.00000
      2      -1.6838      2.00000
      3      -1.3629      2.00000
      4      -1.3629      2.00000
      5       0.2375      2.00000
      6       0.2375      2.00000
      7       0.4990      2.00000
      8       0.4990      2.00000
      9       0.7405      2.00000
     10       0.7405      2.00000
     11       0.8862      2.00000
     12       0.8862      2.00000
     13       1.5293      2.00000
     14       1.5293      2.00000
     15       1.6315      2.00000
     16       1.6315      2.00000
     17       2.8804      2.00000
     18       2.8804      2.00000
     19       2.9091      2.00000
     20       2.9091      2.00000
     21       3.4296      2.00000
     22       3.4296      2.00000
     23       6.1891      0.00000
     24       6.1891      0.00000
     25       7.7069      0.00000
     26       7.7069      0.00000
     27      10.5071      0.00000
     28      10.5071      0.00000

 k-point  78 :       0.4167    0.4167    0.3333
  band No.  band energies     occupation 
      1      -1.8076      2.00000
      2      -1.5480      2.00000
      3      -1.5480      2.00000
      4      -1.4745      2.00000
      5       0.3102      2.00000
      6       0.3689      2.00000
      7       0.3689      2.00000
      8       0.5846      2.00000
      9       0.6210      2.00000
     10       0.7620      2.00000
     11       0.7620      2.00000
     12       0.7887      2.00000
     13       1.7760      2.00000
     14       1.7760      2.00000
     15       1.8335      2.00000
     16       2.0659      2.00000
     17       2.6234      2.00000
     18       2.9256      2.00000
     19       2.9426      2.00000
     20       2.9426      2.00000
     21       3.1138      2.00000
     22       4.8189      2.00000
     23       4.8189      2.00000
     24       5.8434      0.00000
     25       7.7042      0.00000
     26       8.7325      0.00000
     27       8.7325      0.00000
     28      10.4406      0.00000

 k-point  79 :       0.5000    0.4167    0.3333
  band No.  band energies     occupation 
      1      -1.7069      2.00000
      2      -1.7069      2.00000
      3      -1.5445      2.00000
      4      -1.5445      2.00000
      5       0.3575      2.00000
      6       0.3575      2.00000
      7       0.4930      2.00000
      8       0.4930      2.00000
      9       0.6580      2.00000
     10       0.6580      2.00000
     11       0.7334      2.00000
     12       0.7334      2.00000
     13       1.9709      2.00000
     14       1.9709      2.00000
     15       2.0193      2.00000
     16       2.0193      2.00000
     17       2.8153      2.00000
     18       2.8153      2.00000
     19       2.8857      2.00000
     20       2.8857      2.00000
     21       3.8236      2.00000
     22       3.8236      2.00000
     23       5.3414      0.00000
     24       5.3414      0.00000
     25       8.0375      0.00000
     26       8.0375      0.00000
     27       9.5305      0.00000
     28       9.5305      0.00000

 k-point  80 :       0.5000    0.5000    0.3333
  band No.  band energies     occupation 
      1      -1.6603      2.00000
      2      -1.6603      2.00000
      3      -1.6603      2.00000
      4      -1.6603      2.00000
      5       0.4519      2.00000
      6       0.4519      2.00000
      7       0.4519      2.00000
      8       0.4519      2.00000
      9       0.6494      2.00000
     10       0.6494      2.00000
     11       0.6494      2.00000
     12       0.6494      2.00000
     13       2.1848      2.00000
     14       2.1848      2.00000
     15       2.1848      2.00000
     16       2.1848      2.00000
     17       2.7884      2.00000
     18       2.7884      2.00000
     19       2.7884      2.00000
     20       2.7884      2.00000
     21       4.4829      2.00000
     22       4.4829      2.00000
     23       4.4829      2.00000
     24       4.4829      2.00000
     25       8.6980      0.00000
     26       8.6980      0.00000
     27       8.6980      0.00000
     28       8.6980      0.00000

 k-point  81 :       0.4167    0.4167    0.4167
  band No.  band energies     occupation 
      1      -1.8348      2.00000
      2      -1.6650      2.00000
      3      -1.6650      2.00000
      4      -1.6650      2.00000
      5       0.4194      2.00000
      6       0.4194      2.00000
      7       0.4194      2.00000
      8       0.5639      2.00000
      9       0.5639      2.00000
     10       0.6506      2.00000
     11       0.6506      2.00000
     12       0.6506      2.00000
     13       2.2128      2.00000
     14       2.2128      2.00000
     15       2.2128      2.00000
     16       2.8260      2.00000
     17       2.8260      2.00000
     18       2.9662      2.00000
     19       2.9846      2.00000
     20       2.9846      2.00000
     21       2.9846      2.00000
     22       4.9240      1.26692
     23       4.9240      1.26692
     24       4.9240      1.26691
     25       7.9897      0.00000
     26       7.9897      0.00000
     27       7.9897      0.00000
     28       9.4593      0.00000

 k-point  82 :       0.5000    0.4167    0.4167
  band No.  band energies     occupation 
      1      -1.7869      2.00000
      2      -1.7869      2.00000
      3      -1.7044      2.00000
      4      -1.7044      2.00000
      5       0.4406      2.00000
      6       0.4406      2.00000
      7       0.5078      2.00000
      8       0.5078      2.00000
      9       0.5741      2.00000
     10       0.5741      2.00000
     11       0.6095      2.00000
     12       0.6095      2.00000
     13       2.4153      2.00000
     14       2.4153      2.00000
     15       2.5569      2.00000
     16       2.5569      2.00000
     17       2.9506      2.00000
     18       2.9506      2.00000
     19       2.9573      2.00000
     20       2.9573      2.00000
     21       3.8985      2.00000
     22       3.8985      2.00000
     23       4.9794      0.00000
     24       4.9794      0.00000
     25       7.7081      0.00000
     26       7.7081      0.00000
     27       8.6295      0.00000
     28       8.6295      0.00000

 k-point  83 :       0.5000    0.5000    0.4167
  band No.  band energies     occupation 
      1      -1.7861      2.00000
      2      -1.7861      2.00000
      3      -1.7861      2.00000
      4      -1.7861      2.00000
      5       0.4987      2.00000
      6       0.4987      2.00000
      7       0.4987      2.00000
      8       0.4987      2.00000
      9       0.5496      2.00000
     10       0.5496      2.00000
     11       0.5496      2.00000
     12       0.5496      2.00000
     13       2.7252      2.00000
     14       2.7252      2.00000
     15       2.7252      2.00000
     16       2.7252      2.00000
     17       2.9267      2.00000
     18       2.9267      2.00000
     19       2.9267      2.00000
     20       2.9267      2.00000
     21       4.3637      2.00000
     22       4.3637      2.00000
     23       4.3637      2.00000
     24       4.3637      2.00000
     25       7.9792      0.00000
     26       7.9792      0.00000
     27       7.9792      0.00000
     28       7.9792      0.00000

 k-point  84 :       0.5000    0.5000    0.5000
  band No.  band energies     occupation 
      1      -1.8285      2.00000
      2      -1.8285      2.00000
      3      -1.8285      2.00000
      4      -1.8285      2.00000
      5       0.5158      2.00000
      6       0.5158      2.00000
      7       0.5158      2.00000
      8       0.5158      2.00000
      9       0.5158      2.00000
     10       0.5158      2.00000
     11       0.5158      2.00000
     12       0.5158      2.00000
     13       2.9747      2.00000
     14       2.9747      2.00000
     15       2.9747      2.00000
     16       2.9747      2.00000
     17       2.9747      2.00000
     18       2.9747      2.00000
     19       2.9747      2.00000
     20       2.9747      2.00000
     21       4.2778      2.00000
     22       4.2778      2.00000
     23       4.2778      2.00000
     24       4.2778      2.00000
     25       7.7161      0.00000
     26       7.7161      0.00000
     27       7.7161      0.00000
     28       7.7161      0.00000


--------------------------------------------------------------------------------------------------------


 soft charge-density along one line, spin component           1
         0         1         2         3         4         5         6         7         8         9
 total charge-density along one line
 
 pseudopotential strength for first ion, spin component:           1
-10.051  -0.000   0.000  -0.000  -0.000  -0.068   0.000  -0.000
 -0.000 -10.051   0.000  -0.000   0.000   0.000  -0.068  -0.000
  0.000   0.000 -10.037   0.000  -0.000  -0.000  -0.000  -0.070
 -0.000  -0.000   0.000 -10.051  -0.000   0.000   0.000  -0.000
 -0.000   0.000  -0.000  -0.000 -10.037   0.000  -0.000   0.000
 -0.068   0.000  -0.000   0.000   0.000   0.279  -0.000   0.000
  0.000  -0.068  -0.000   0.000  -0.000  -0.000   0.279   0.000
 -0.000  -0.000  -0.070  -0.000   0.000   0.000   0.000   0.280
  0.000   0.000  -0.000  -0.068   0.000  -0.000  -0.000   0.000
  0.000  -0.000   0.000   0.000  -0.070  -0.000   0.000  -0.000
  0.000   0.000  -0.000   0.000  -0.000   0.000   0.000  -0.000
 -0.000  -0.000   0.000  -0.000   0.000   0.000   0.000  -0.000
  0.000  -0.000  -0.000  -0.000  -0.000  -0.000   0.000   0.000
 -0.000   0.000  -0.000   0.000  -0.000   0.000  -0.000   0.000
  0.000  -0.000  -0.000  -0.000   0.000  -0.000   0.000   0.000
 -0.000   0.000   0.000   0.000   0.000   0.000  -0.000  -0.000
  0.000  -0.000   0.000  -0.000   0.000  -0.000   0.000  -0.000
 -0.000   0.000   0.000   0.000  -0.000   0.000  -0.000  -0.000
 total augmentation occupancy for first ion, spin component:           1
  1.844  -0.015  -0.009  -0.005  -0.017  -0.025   0.014  -0.019   0.006   0.016   0.026  -0.017  -0.000  -0.000   0.000   0.000
 -0.015   1.958  -0.003  -0.018  -0.002   0.014  -0.099   0.008   0.020  -0.014   0.067   0.007  -0.000  -0.000   0.000  -0.000
 -0.009  -0.003   1.919   0.006  -0.026  -0.019   0.008  -0.064  -0.002   0.026  -0.071  -0.068  -0.000   0.000   0.000  -0.000
 -0.005  -0.018   0.006   1.922  -0.003   0.006   0.020  -0.001  -0.037   0.015   0.027  -0.003   0.000   0.000   0.000   0.000
 -0.017  -0.002  -0.026  -0.003   1.988   0.017  -0.014   0.026   0.015  -0.124   0.104   0.045  -0.000   0.000   0.000   0.000
 -0.025   0.014  -0.019   0.006   0.017   0.211  -0.009   0.044  -0.003  -0.014   0.029   0.041   0.000   0.000   0.000   0.000
  0.014  -0.099   0.008   0.020  -0.014  -0.009   0.197  -0.013  -0.014   0.027  -0.023   0.022   0.000  -0.000  -0.000   0.000
 -0.019   0.008  -0.064  -0.001   0.026   0.044  -0.013   0.167  -0.003  -0.000   0.124   0.003  -0.000  -0.000  -0.000  -0.000
  0.006   0.020  -0.002  -0.037   0.015  -0.003  -0.014  -0.003   0.138  -0.024   0.003   0.020  -0.000  -0.000  -0.000  -0.000
  0.016  -0.014   0.026   0.015  -0.124  -0.014   0.027  -0.000  -0.024   0.121  -0.093   0.016   0.000   0.000   0.000   0.000
  0.026   0.067  -0.071   0.027   0.104   0.029  -0.023   0.124   0.003  -0.093   1.048  -0.350  -0.000   0.000  -0.000  -0.000
 -0.017   0.007  -0.068  -0.003   0.045   0.041   0.022   0.003   0.020   0.016  -0.350   0.218   0.000  -0.000   0.000   0.000
 -0.000  -0.000  -0.000   0.000  -0.000   0.000   0.000  -0.000  -0.000   0.000  -0.000   0.000   0.131   0.016  -0.006  -0.010
 -0.000  -0.000   0.000   0.000   0.000   0.000  -0.000  -0.000  -0.000   0.000   0.000  -0.000   0.016   0.109  -0.000  -0.001
  0.000   0.000   0.000   0.000   0.000   0.000  -0.000  -0.000  -0.000   0.000  -0.000   0.000  -0.006  -0.000   0.188  -0.001
  0.000  -0.000  -0.000   0.000   0.000   0.000   0.000  -0.000  -0.000   0.000  -0.000   0.000  -0.010  -0.001  -0.001   0.001
 -0.000  -0.000   0.000   0.000   0.000   0.000   0.000   0.000  -0.000  -0.000   0.000  -0.000  -0.001  -0.008  -0.001   0.000
  0.000   0.000  -0.000   0.000   0.000   0.000  -0.000   0.000   0.000   0.000  -0.000   0.000  -0.001  -0.001  -0.013   0.000


------------------------ aborting loop because EDIFF is reached ----------------------------------------




--------------------------------------------------------------------------------------------------------


    CHARGE:  VPU time    0.25: CPU time    0.25
    FORLOC:  VPU time    0.00: CPU time    0.00
    FORNL :  VPU time    0.88: CPU time    0.88
    STRESS:  VPU time    2.07: CPU time    2.07
    FORCOR:  VPU time    0.04: CPU time    0.04
    FORHAR:  VPU time    0.01: CPU time    0.01
    MIXING:  VPU time    0.00: CPU time    0.00


--------------------------------------------------------------------------------------------------------



  FREE ENERGIE OF THE ION-ELECTRON SYSTEM (eV)
  ---------------------------------------------------
  free  energy   TOTEN  =       -13.088400 eV

  energy  without entropy=      -13.088322  energy(sigma->0) =      -13.088361
 

  FORCE on cell =-STRESS in cart. coord.  units (eV/reduce length):
  Direction    X        Y        Z        XY       YZ       ZX
  --------------------------------------------------------------------------------------
  Alpha Z    412.40    412.40    412.40
  Ewald    -1276.27  -1276.27  -1276.27     -0.00      0.00      0.00
  Hartree    161.95    161.95    161.95     -0.00     -0.00     -0.00
  E(xc)     -198.25   -198.25   -198.25     -0.00     -0.00      0.00
  Local      317.42    317.42    317.42      0.00     -0.00      0.00
  n-local   -188.03   -204.98   -209.26      1.43      5.32      2.06
  augment    171.92    171.92    171.92      0.00      0.00      0.00
  Kinetic    615.72    611.83    607.22     -4.16     -2.04     -2.67
  -------------------------------------------------------------------------------------
  Total        0.00      0.00      0.00     -0.00      0.00     -0.00
  in kB        0.00      0.00      0.00     -0.00      0.00     -0.00
  external pressure =        0.00 kB  Pullay stress =        0.00 kB


 VOLUME and BASIS-vectors are now :
 -----------------------------------------------------------------------------
  energy-cutoff  :      500.00
  volume of cell :       72.66
      direct lattice vectors                 reciprocal lattice vectors
     4.172851902  0.000000000  0.000000000     0.239644259  0.000000000  0.000000000
     0.000000000  4.172851902  0.000000000     0.000000000  0.239644259  0.000000000
     0.000000000  0.000000000  4.172851902     0.000000000  0.000000000  0.239644259

  length of vectors
     4.172851902  4.172851902  4.172851902     0.239644259  0.239644259  0.239644259


 FORCES acting on ions
    electron-ion (+dipol)            ewald-force                    non-local-force                 convergence-correction
 -----------------------------------------------------------------------------------------------
   -.201E-13 -.946E-14 -.121E-13   -.444E-14 -.517E-14 0.480E-15   -.129E-24 -.155E-24 0.000E+00   -.288E-13 -.443E-14 -.459E-13
   0.937E-13 0.161E-11 -.120E-11   -.166E-13 0.576E-14 0.316E-15   0.155E-24 -.258E-24 0.258E-25   0.156E-13 -.710E-14 -.467E-13
   0.930E-13 -.110E-13 -.298E-12   0.248E-13 -.377E-14 -.420E-16   0.000E+00 -.565E-25 -.181E-24   0.172E-13 0.106E-14 0.290E-13
   -.195E-13 0.961E-13 0.914E-13   -.431E-14 0.716E-14 -.206E-15   -.517E-25 -.252E-24 0.116E-24   -.316E-13 -.421E-14 0.267E-13
 -----------------------------------------------------------------------------------------------
   0.147E-12 0.169E-11 -.141E-11   -.593E-15 0.397E-14 0.549E-15   -.258E-25 -.722E-24 -.388E-25   -.275E-13 -.147E-13 -.369E-13
 
 
 POSITION                                       TOTAL-FORCE (eV/Angst)
 -----------------------------------------------------------------------------------
      0.00000      0.00000      0.00000         0.000000      0.000000     -0.000000
      2.08643      2.08643      0.00000        -0.000000     -0.000000     -0.000000
      2.08643      0.00000      2.08643         0.000000     -0.000000     -0.000000
      0.00000      2.08643      2.08643         0.000000      0.000000      0.000000
 -----------------------------------------------------------------------------------
    total drift:                                0.000000      0.000000     -0.000000


--------------------------------------------------------------------------------------------------------




--------------------------------------------------------------------------------------------------------


  
 reached required accuracy - stopping structural energy minimisation
     LOOP+:  VPU time   41.93: CPU time   41.98
  
  
 General timing and accounting informations for this job:
 ========================================================
  
                  Total CPU time used (sec):       43.095
                            User time (sec):       35.683
                          System time (sec):        7.413
                         Elapsed time (sec):       43.166
  
                   Maximum memory used (kb):      328376.
                   Average memory used (kb):           0.
  
                          Minor page faults:       143186
                          Major page faults:            0
                 Voluntary context switches:          877
