<?xml version="1.0" encoding="ISO-8859-1"?>
<modeling>
 <generator>
  <i name="program" type="string">vasp</i>
  <i name="version" type="string">4.6.28 </i>
  <i name="subversion" type="string">25Jul05 complex  parallel</i>
  <i name="platform" type="string">LinuxIFC</i>
  <i name="date" type="string">2016 12 21</i>
  <i name="time" type="string">13:28:46</i>
 </generator>
 <incar>
  <i type="string" name="PREC">accurate</i>
  <i type="int" name="IALGO">    38</i>
  <i type="logical" name="ADDGRID"> T  </i>
  <i name="EDIFF">      0.00000001</i>
  <i type="int" name="IBRION">     2</i>
  <i type="int" name="NSW">   200</i>
  <i type="int" name="ISIF">     3</i>
  <i name="ENCUT">    500.00000000</i>
  <i type="logical" name="LREAL"> F  </i>
  <i type="int" name="ISMEAR">     0</i>
  <i name="SIGMA">      0.01000000</i>
  <i type="logical" name="LWAVE"> F  </i>
  <i type="logical" name="LCHARG"> F  </i>
 </incar>
 <kpoints>
  <generation param="Auto">
   <i name="subdivisionlength">     50.00000000</i>
   <v type="int" name="divisions">      12      12      12</v>
   <v name="usershift">      0.00000000      0.00000000      0.00000000</v>
   <v name="genvec1">      0.08333333      0.00000000      0.00000000</v>
   <v name="genvec2">      0.00000000      0.08333333      0.00000000</v>
   <v name="genvec3">      0.00000000      0.00000000      0.08333333</v>
   <v name="shift">      0.00000000      0.00000000      0.00000000</v>
  </generation>
  <varray name="kpointlist" >
   <v>       0.00000000      0.00000000      0.00000000</v>
   <v>       0.08333333      0.00000000      0.00000000</v>
   <v>       0.16666667      0.00000000      0.00000000</v>
   <v>       0.25000000      0.00000000      0.00000000</v>
   <v>       0.33333333      0.00000000      0.00000000</v>
   <v>       0.41666667      0.00000000      0.00000000</v>
   <v>       0.50000000      0.00000000      0.00000000</v>
   <v>       0.08333333      0.08333333      0.00000000</v>
   <v>       0.16666667      0.08333333      0.00000000</v>
   <v>       0.25000000      0.08333333      0.00000000</v>
   <v>       0.33333333      0.08333333      0.00000000</v>
   <v>       0.41666667      0.08333333      0.00000000</v>
   <v>       0.50000000      0.08333333      0.00000000</v>
   <v>       0.16666667      0.16666667      0.00000000</v>
   <v>       0.25000000      0.16666667      0.00000000</v>
   <v>       0.33333333      0.16666667      0.00000000</v>
   <v>       0.41666667      0.16666667      0.00000000</v>
   <v>       0.50000000      0.16666667      0.00000000</v>
   <v>       0.25000000      0.25000000      0.00000000</v>
   <v>       0.33333333      0.25000000      0.00000000</v>
   <v>       0.41666667      0.25000000      0.00000000</v>
   <v>       0.50000000      0.25000000      0.00000000</v>
   <v>       0.33333333      0.33333333      0.00000000</v>
   <v>       0.41666667      0.33333333      0.00000000</v>
   <v>       0.50000000      0.33333333      0.00000000</v>
   <v>       0.41666667      0.41666667      0.00000000</v>
   <v>       0.50000000      0.41666667      0.00000000</v>
   <v>       0.50000000      0.50000000      0.00000000</v>
   <v>       0.08333333      0.08333333      0.08333333</v>
   <v>       0.16666667      0.08333333      0.08333333</v>
   <v>       0.25000000      0.08333333      0.08333333</v>
   <v>       0.33333333      0.08333333      0.08333333</v>
   <v>       0.41666667      0.08333333      0.08333333</v>
   <v>       0.50000000      0.08333333      0.08333333</v>
   <v>       0.16666667      0.16666667      0.08333333</v>
   <v>       0.25000000      0.16666667      0.08333333</v>
   <v>       0.33333333      0.16666667      0.08333333</v>
   <v>       0.41666667      0.16666667      0.08333333</v>
   <v>       0.50000000      0.16666667      0.08333333</v>
   <v>       0.25000000      0.25000000      0.08333333</v>
   <v>       0.33333333      0.25000000      0.08333333</v>
   <v>       0.41666667      0.25000000      0.08333333</v>
   <v>       0.50000000      0.25000000      0.08333333</v>
   <v>       0.33333333      0.33333333      0.08333333</v>
   <v>       0.41666667      0.33333333      0.08333333</v>
   <v>       0.50000000      0.33333333      0.08333333</v>
   <v>       0.41666667      0.41666667      0.08333333</v>
   <v>       0.50000000      0.41666667      0.08333333</v>
   <v>       0.50000000      0.50000000      0.08333333</v>
   <v>       0.16666667      0.16666667      0.16666667</v>
   <v>       0.25000000      0.16666667      0.16666667</v>
   <v>       0.33333333      0.16666667      0.16666667</v>
   <v>       0.41666667      0.16666667      0.16666667</v>
   <v>       0.50000000      0.16666667      0.16666667</v>
   <v>       0.25000000      0.25000000      0.16666667</v>
   <v>       0.33333333      0.25000000      0.16666667</v>
   <v>       0.41666667      0.25000000      0.16666667</v>
   <v>       0.50000000      0.25000000      0.16666667</v>
   <v>       0.33333333      0.33333333      0.16666667</v>
   <v>       0.41666667      0.33333333      0.16666667</v>
   <v>       0.50000000      0.33333333      0.16666667</v>
   <v>       0.41666667      0.41666667      0.16666667</v>
   <v>       0.50000000      0.41666667      0.16666667</v>
   <v>       0.50000000      0.50000000      0.16666667</v>
   <v>       0.25000000      0.25000000      0.25000000</v>
   <v>       0.33333333      0.25000000      0.25000000</v>
   <v>       0.41666667      0.25000000      0.25000000</v>
   <v>       0.50000000      0.25000000      0.25000000</v>
   <v>       0.33333333      0.33333333      0.25000000</v>
   <v>       0.41666667      0.33333333      0.25000000</v>
   <v>       0.50000000      0.33333333      0.25000000</v>
   <v>       0.41666667      0.41666667      0.25000000</v>
   <v>       0.50000000      0.41666667      0.25000000</v>
   <v>       0.50000000      0.50000000      0.25000000</v>
   <v>       0.33333333      0.33333333      0.33333333</v>
   <v>       0.41666667      0.33333333      0.33333333</v>
   <v>       0.50000000      0.33333333      0.33333333</v>
   <v>       0.41666667      0.41666667      0.33333333</v>
   <v>       0.50000000      0.41666667      0.33333333</v>
   <v>       0.50000000      0.50000000      0.33333333</v>
   <v>       0.41666667      0.41666667      0.41666667</v>
   <v>       0.50000000      0.41666667      0.41666667</v>
   <v>       0.50000000      0.50000000      0.41666667</v>
   <v>       0.50000000      0.50000000      0.50000000</v>
  </varray>
  <varray name="weights" >
   <v>       0.00057870</v>
   <v>       0.00347222</v>
   <v>       0.00347222</v>
   <v>       0.00347222</v>
   <v>       0.00347222</v>
   <v>       0.00347222</v>
   <v>       0.00173611</v>
   <v>       0.00694444</v>
   <v>       0.01388889</v>
   <v>       0.01388889</v>
   <v>       0.01388889</v>
   <v>       0.01388889</v>
   <v>       0.00694444</v>
   <v>       0.00694444</v>
   <v>       0.01388889</v>
   <v>       0.01388889</v>
   <v>       0.01388889</v>
   <v>       0.00694444</v>
   <v>       0.00694444</v>
   <v>       0.01388889</v>
   <v>       0.01388889</v>
   <v>       0.00694444</v>
   <v>       0.00694444</v>
   <v>       0.01388889</v>
   <v>       0.00694444</v>
   <v>       0.00694444</v>
   <v>       0.00694444</v>
   <v>       0.00173611</v>
   <v>       0.00462963</v>
   <v>       0.01388889</v>
   <v>       0.01388889</v>
   <v>       0.01388889</v>
   <v>       0.01388889</v>
   <v>       0.00694444</v>
   <v>       0.01388889</v>
   <v>       0.02777778</v>
   <v>       0.02777778</v>
   <v>       0.02777778</v>
   <v>       0.01388889</v>
   <v>       0.01388889</v>
   <v>       0.02777778</v>
   <v>       0.02777778</v>
   <v>       0.01388889</v>
   <v>       0.01388889</v>
   <v>       0.02777778</v>
   <v>       0.01388889</v>
   <v>       0.01388889</v>
   <v>       0.01388889</v>
   <v>       0.00347222</v>
   <v>       0.00462963</v>
   <v>       0.01388889</v>
   <v>       0.01388889</v>
   <v>       0.01388889</v>
   <v>       0.00694444</v>
   <v>       0.01388889</v>
   <v>       0.02777778</v>
   <v>       0.02777778</v>
   <v>       0.01388889</v>
   <v>       0.01388889</v>
   <v>       0.02777778</v>
   <v>       0.01388889</v>
   <v>       0.01388889</v>
   <v>       0.01388889</v>
   <v>       0.00347222</v>
   <v>       0.00462963</v>
   <v>       0.01388889</v>
   <v>       0.01388889</v>
   <v>       0.00694444</v>
   <v>       0.01388889</v>
   <v>       0.02777778</v>
   <v>       0.01388889</v>
   <v>       0.01388889</v>
   <v>       0.01388889</v>
   <v>       0.00347222</v>
   <v>       0.00462963</v>
   <v>       0.01388889</v>
   <v>       0.00694444</v>
   <v>       0.01388889</v>
   <v>       0.01388889</v>
   <v>       0.00347222</v>
   <v>       0.00462963</v>
   <v>       0.00694444</v>
   <v>       0.00347222</v>
   <v>       0.00057870</v>
  </varray>
 </kpoints>
 <parameters>
  <separator name="general" >
   <i type="string" name="SYSTEM">unknown system</i>
   <i type="logical" name="LCOMPAT"> F  </i>
  </separator>
  <separator name="electronic" >
   <i type="string" name="PREC">accura</i>
   <i name="ENMAX">    500.00000000</i>
   <i name="ENAUG">    356.67000000</i>
   <i name="EDIFF">      0.00000001</i>
   <i type="int" name="IALGO">    38</i>
   <i type="int" name="IWAVPR">    11</i>
   <i type="int" name="NBANDS">    26</i>
   <i name="NELECT">     44.00000000</i>
   <separator name="electronic smearing" >
    <i type="int" name="ISMEAR">     0</i>
    <i name="SIGMA">      0.01000000</i>
   </separator>
   <separator name="electronic projectors" >
    <i type="logical" name="LREAL"> F  </i>
    <v name="ROPT">      0.00000000</v>
    <i type="int" name="LMAXPAW">  -100</i>
    <i type="int" name="LMAXMIX">     2</i>
   </separator>
   <separator name="electronic startup" >
    <i type="int" name="ISTART">     0</i>
    <i type="int" name="ICHARG">     2</i>
    <i type="int" name="INIWAV">     1</i>
   </separator>
   <separator name="electronic spin" >
    <i type="int" name="ISPIN">     1</i>
    <i type="logical" name="LNONCOLLINEAR"> F  </i>
    <v name="MAGMOM">      1.00000000      1.00000000      1.00000000      1.00000000</v>
    <i name="NUPDOWN">     -1.00000000</i>
    <i type="logical" name="LSORBIT"> F  </i>
    <v name="SAXIS">      0.00000000      0.00000000      1.00000000</v>
    <i type="logical" name="LSPIRAL"> F  </i>
    <v name="QSPIRAL">      0.00000000      0.00000000      0.00000000</v>
    <i type="logical" name="LZEROZ"> F  </i>
   </separator>
   <separator name="electronic exchange-correlation" >
    <i type="string" name="GGA">--</i>
    <i type="int" name="VOSKOWN">     0</i>
    <i type="logical" name="LASPH"> F  </i>
    <i type="logical" name="LMETAGGA"> F  </i>
    <i type="string" name="GGA2">--</i>
   </separator>
   <separator name="electronic convergence" >
    <i type="int" name="NELM">    60</i>
    <i type="int" name="NELMDL">     0</i>
    <i type="int" name="NELMIN">     2</i>
    <i name="ENINI">    500.00000000</i>
    <separator name="electronic convergence detail" >
     <i type="logical" name="LDIAG"> T  </i>
     <i name="WEIMIN">      0.00100000</i>
     <i name="EBREAK">      0.00000000</i>
     <i name="DEPER">      0.30000000</i>
     <i type="int" name="NRMM">     4</i>
     <i name="TIME">      0.10000000</i>
    </separator>
   </separator>
   <separator name="electronic mixer" >
    <i name="AMIX">      0.40000000</i>
    <i name="BMIX">      1.00000000</i>
    <i name="AMIN">      0.10000000</i>
    <i name="AMIX_MAG">      1.60000000</i>
    <i name="BMIX_MAG">      1.00000000</i>
    <separator name="electronic mixer details" >
     <i type="int" name="IMIX">     4</i>
     <i type="int" name="MAXMIX">   -45</i>
     <i name="WC">    100.00000000</i>
     <i type="int" name="INIMIX">     1</i>
     <i type="int" name="MIXPRE">     1</i>
     <i type="int" name="MREMOVE">     5</i>
    </separator>
   </separator>
   <separator name="electronic dipolcorrection" >
    <i type="int" name="IDIPOL">     0</i>
    <i type="logical" name="LDIPOL"> F  </i>
    <v name="DIPOL">   -100.00000000</v>
    <i name="EFIELD">      0.00000000</i>
   </separator>
  </separator>
  <separator name="grids" >
   <i type="int" name="NGX">    30</i>
   <i type="int" name="NGY">    30</i>
   <i type="int" name="NGZ">    30</i>
   <i type="int" name="NGXF">    60</i>
   <i type="int" name="NGYF">    60</i>
   <i type="int" name="NGZF">    60</i>
   <i type="logical" name="ADDGRID"> T  </i>
  </separator>
  <separator name="ionic" >
   <i type="int" name="NSW">   200</i>
   <i type="int" name="IBRION">     2</i>
   <i type="int" name="ISIF">     3</i>
   <i name="PSTRESS">      0.00000000</i>
   <i name="EDIFFG">      0.00000010</i>
   <i type="int" name="NFREE">     1</i>
   <i name="POTIM">      0.50000000</i>
   <i name="SMASS">     -3.00000000</i>
  </separator>
  <separator name="ionic md" >
   <i name="TEBEG">      0.00010000</i>
   <i name="TEEND">      0.00010000</i>
   <i type="int" name="NBLOCK">     1</i>
   <i type="int" name="KBLOCK">   200</i>
   <i type="int" name="NPACO">   256</i>
   <i name="APACO">     16.00000000</i>
  </separator>
  <separator name="symmetry" >
   <i type="int" name="ISYM">     2</i>
   <i name="SYMPREC">      0.00001000</i>
  </separator>
  <separator name="dos" >
   <i type="logical" name="LORBIT"> F  </i>
   <v name="RWIGS">     -1.00000000</v>
   <i type="int" name="NEDOS">   301</i>
   <i name="EMIN">     10.00000000</i>
   <i name="EMAX">    -10.00000000</i>
  </separator>
  <separator name="writing" >
   <i type="int" name="NWRITE">     2</i>
   <i type="logical" name="LWAVE"> F  </i>
   <i type="logical" name="LCHARG"> F  </i>
   <i type="logical" name="LPARD"> F  </i>
   <i type="logical" name="LVTOT"> F  </i>
   <i type="logical" name="LELF"> F  </i>
   <i type="logical" name="LOPTICS"> F  </i>
   <i name="STM">      0.00000000</i>
  </separator>
  <separator name="performance" >
   <i type="int" name="NPAR">     4</i>
   <i type="int" name="NSIM">     4</i>
   <i type="int" name="NBLK">   192</i>
   <i type="logical" name="LPLANE"> T  </i>
   <i type="logical" name="LCRITICAL_MEM"> F  </i>
   <i type="logical" name="LSCALAPACK"> F  </i>
   <i type="logical" name="LSCALU"> F  </i>
   <i type="logical" name="LASYNC"> F  </i>
  </separator>
  <separator name="miscellaneous" >
   <i type="int" name="IDIOT">     3</i>
   <i type="logical" name="LMUSIC"> F  </i>
   <v name="POMASS">    196.96600000</v>
   <i type="logical" name="LCORR"> T  </i>
  </separator>
  <i type="logical" name="LREAL_COMPAT"> F  </i>
  <i type="logical" name="GGA_COMPAT"> T  </i>
  <i type="logical" name="LBERRY"> F  </i>
  <i type="int" name="ICORELEVEL">     0</i>
  <i type="logical" name="LDAU"> F  </i>
  <i type="int" name="I_CONSTRAINED_M">     0</i>
 </parameters>
 <atominfo>
  <atoms>       4</atoms>
  <types>       1</types>
  <array name="atoms" >
   <dimension dim="1">ion</dimension>
   <field type="string">element</field>
   <field type="int">atomtype</field>
   <set>
    <rc><c>Au</c><c>   1</c></rc>
    <rc><c>Au</c><c>   1</c></rc>
    <rc><c>Au</c><c>   1</c></rc>
    <rc><c>Au</c><c>   1</c></rc>
   </set>
  </array>
  <array name="atomtypes" >
   <dimension dim="1">type</dimension>
   <field type="int">atomspertype</field>
   <field type="string">element</field>
   <field>mass</field>
   <field>valence</field>
   <field type="string">pseudopotential</field>
   <set>
    <rc><c>   4</c><c>Au</c><c>    196.96600000</c><c>     11.00000000</c><c> PAW_PBE Au 06Sep2000                   </c></rc>
   </set>
  </array>
 </atominfo>
 <structure name="initialpos" >
  <crystal>
   <varray name="basis" >
    <v>       4.17285190      0.00000000      0.00000000</v>
    <v>       0.00000000      4.17285190      0.00000000</v>
    <v>       0.00000000      0.00000000      4.17285190</v>
   </varray>
   <i name="volume">     72.66058910</i>
   <varray name="rec_basis" >
    <v>       0.23964426      0.00000000      0.00000000</v>
    <v>       0.00000000      0.23964426      0.00000000</v>
    <v>       0.00000000      0.00000000      0.23964426</v>
   </varray>
  </crystal>
  <varray name="positions" >
   <v>       0.00000000      0.00000000      0.00000000</v>
   <v>       0.50000000      0.50000000      0.00000000</v>
   <v>       0.50000000      0.00000000      0.50000000</v>
   <v>       0.00000000      0.50000000      0.50000000</v>
  </varray>
 </structure>
 <calculation>
  <scstep>
   <time name="dav">    2.54    2.56</time>
   <time name="total">    2.66    2.67</time>
   <energy>
    <i name="alphaZ">    412.39861622</i>
    <i name="ewald">  -3828.81821671</i>
    <i name="hartreedc">   -528.81443399</i>
    <i name="XCdc">     60.58346864</i>
    <i name="pawpsdc">   2990.04966927</i>
    <i name="pawaedc">  -2896.51663641</i>
    <i name="eentropy">     -0.00017385</i>
    <i name="bandstr">    522.81743155</i>
    <i name="atom">   3704.20985194</i>
    <i name="e_fr_energy">    435.90957666</i>
    <i name="e_wo_entrp">    435.90975051</i>
    <i name="e_0_energy">    435.90966359</i>
   </energy>
  </scstep>
  <scstep>
   <time name="dav">    2.60    2.60</time>
   <time name="total">    2.61    2.61</time>
   <energy>
    <i name="e_fr_energy">      4.30393183</i>
    <i name="e_wo_entrp">      4.30397280</i>
    <i name="e_0_energy">      4.30395232</i>
   </energy>
  </scstep>
  <scstep>
   <time name="dav">    2.78    2.78</time>
   <time name="total">    2.79    2.79</time>
   <energy>
    <i name="e_fr_energy">    -13.78802999</i>
    <i name="e_wo_entrp">    -13.78789321</i>
    <i name="e_0_energy">    -13.78796160</i>
   </energy>
  </scstep>
  <scstep>
   <time name="dav">    2.65    2.66</time>
   <time name="total">    2.66    2.66</time>
   <energy>
    <i name="e_fr_energy">    -14.07421713</i>
    <i name="e_wo_entrp">    -14.07407628</i>
    <i name="e_0_energy">    -14.07414670</i>
   </energy>
  </scstep>
  <scstep>
   <time name="dav">    2.66    2.66</time>
   <time name="total">    2.92    2.92</time>
   <energy>
    <i name="e_fr_energy">    -14.07716403</i>
    <i name="e_wo_entrp">    -14.07702246</i>
    <i name="e_0_energy">    -14.07709325</i>
   </energy>
  </scstep>
  <scstep>
   <time name="dav">    2.65    2.65</time>
   <time name="total">    3.02    3.02</time>
   <energy>
    <i name="e_fr_energy">    -13.15685719</i>
    <i name="e_wo_entrp">    -13.15676656</i>
    <i name="e_0_energy">    -13.15681187</i>
   </energy>
  </scstep>
  <scstep>
   <time name="dav">    2.71    2.71</time>
   <time name="total">    3.08    3.08</time>
   <energy>
    <i name="e_fr_energy">    -13.09919436</i>
    <i name="e_wo_entrp">    -13.09911327</i>
    <i name="e_0_energy">    -13.09915381</i>
   </energy>
  </scstep>
  <scstep>
   <time name="dav">    2.58    2.58</time>
   <time name="total">    2.95    2.95</time>
   <energy>
    <i name="e_fr_energy">    -13.08833539</i>
    <i name="e_wo_entrp">    -13.08825571</i>
    <i name="e_0_energy">    -13.08829555</i>
   </energy>
  </scstep>
  <scstep>
   <time name="dav">    2.67    2.67</time>
   <time name="total">    3.04    3.04</time>
   <energy>
    <i name="e_fr_energy">    -13.08839545</i>
    <i name="e_wo_entrp">    -13.08831787</i>
    <i name="e_0_energy">    -13.08835666</i>
   </energy>
  </scstep>
  <scstep>
   <time name="dav">    2.60    2.60</time>
   <time name="total">    2.97    2.97</time>
   <energy>
    <i name="e_fr_energy">    -13.08839911</i>
    <i name="e_wo_entrp">    -13.08832073</i>
    <i name="e_0_energy">    -13.08835992</i>
   </energy>
  </scstep>
  <scstep>
   <time name="dav">    2.67    2.67</time>
   <time name="total">    3.04    3.04</time>
   <energy>
    <i name="e_fr_energy">    -13.08840075</i>
    <i name="e_wo_entrp">    -13.08832229</i>
    <i name="e_0_energy">    -13.08836152</i>
   </energy>
  </scstep>
  <scstep>
   <time name="dav">    2.60    2.60</time>
   <time name="total">    2.97    2.97</time>
   <energy>
    <i name="e_fr_energy">    -13.08840018</i>
    <i name="e_wo_entrp">    -13.08832173</i>
    <i name="e_0_energy">    -13.08836096</i>
   </energy>
  </scstep>
  <scstep>
   <time name="dav">    1.76    1.76</time>
   <time name="total">    2.12    2.12</time>
   <energy>
    <i name="e_fr_energy">    -13.08840014</i>
    <i name="e_wo_entrp">    -13.08832168</i>
    <i name="e_0_energy">    -13.08836091</i>
   </energy>
  </scstep>
  <scstep>
   <time name="dav">    1.74    1.74</time>
   <time name="total">    1.85    1.86</time>
   <energy>
    <i name="alphaZ">    412.39861622</i>
    <i name="ewald">  -3828.81821671</i>
    <i name="hartreedc">   -485.84414233</i>
    <i name="XCdc">     58.65267800</i>
    <i name="pawpsdc">   2991.43905166</i>
    <i name="pawaedc">  -2907.53311840</i>
    <i name="eentropy">     -0.00007845</i>
    <i name="bandstr">     42.40695792</i>
    <i name="atom">   3704.20985194</i>
    <i name="e_fr_energy">    -13.08840014</i>
    <i name="e_wo_entrp">    -13.08832169</i>
    <i name="e_0_energy">    -13.08836092</i>
   </energy>
  </scstep>
  <structure>
   <crystal>
    <varray name="basis" >
     <v>       4.17285190      0.00000000      0.00000000</v>
     <v>       0.00000000      4.17285190      0.00000000</v>
     <v>       0.00000000      0.00000000      4.17285190</v>
    </varray>
    <i name="volume">     72.66058910</i>
    <varray name="rec_basis" >
     <v>       0.23964426      0.00000000      0.00000000</v>
     <v>       0.00000000      0.23964426      0.00000000</v>
     <v>       0.00000000      0.00000000      0.23964426</v>
    </varray>
   </crystal>
   <varray name="positions" >
    <v>       0.00000000      0.00000000      0.00000000</v>
    <v>       0.50000000      0.50000000      0.00000000</v>
    <v>       0.50000000      0.00000000      0.50000000</v>
    <v>       0.00000000      0.50000000      0.50000000</v>
   </varray>
  </structure>
  <varray name="forces" >
   <v>       0.00000000      0.00000000     -0.00000000</v>
   <v>      -0.00000000     -0.00000000     -0.00000000</v>
   <v>       0.00000000     -0.00000000     -0.00000000</v>
   <v>       0.00000000      0.00000000      0.00000000</v>
  </varray>
  <varray name="stress" >
   <v>       0.00383475      0.00000000     -0.00000000</v>
   <v>      -0.00000000      0.00383475     -0.00000000</v>
   <v>       0.00000000      0.00000000      0.00383475</v>
  </varray>
  <energy>
   <i name="e_fr_energy">    -13.08840014</i>
   <i name="e_wo_entrp">    -13.08836092</i>
   <i name="e_0_energy">     -0.00007845</i>
  </energy>
  <eigenvalues>
   <array>
    <dimension dim="1">band</dimension>
    <dimension dim="2">kpoint</dimension>
    <dimension dim="3">spin</dimension>
    <field>eigene</field>
    <field>occ</field>
    <set>
     <set comment="spin 1">
      <set comment="kpoint 1">
       <r>  -4.2408  1.0000</r>
       <r>  -1.5820  1.0000</r>
       <r>  -1.5820  1.0000</r>
       <r>  -1.5820  1.0000</r>
       <r>  -1.3071  1.0000</r>
       <r>  -1.3071  1.0000</r>
       <r>  -1.3071  1.0000</r>
       <r>   0.5446  1.0000</r>
       <r>   0.5446  1.0000</r>
       <r>   0.5446  1.0000</r>
       <r>   1.9015  1.0000</r>
       <r>   1.9015  1.0000</r>
       <r>   2.9340  1.0000</r>
       <r>   2.9340  1.0000</r>
       <r>   2.9340  1.0000</r>
       <r>   3.2609  1.0000</r>
       <r>   3.2609  1.0000</r>
       <r>   3.2609  1.0000</r>
       <r>   3.2609  1.0000</r>
       <r>   3.2609  1.0000</r>
       <r>   3.2609  1.0000</r>
       <r>   6.1596  0.0000</r>
       <r>   6.1596  0.0000</r>
       <r>   6.1596  0.0000</r>
       <r>  10.2759  0.0000</r>
       <r>  10.2759  0.0000</r>
       <r>  10.2759  0.0000</r>
       <r>  14.9566  0.0000</r>
      </set>
      <set comment="kpoint 2">
       <r>  -4.1640  1.0000</r>
       <r>  -1.5565  1.0000</r>
       <r>  -1.5319  1.0000</r>
       <r>  -1.5319  1.0000</r>
       <r>  -1.2800  1.0000</r>
       <r>  -1.2660  1.0000</r>
       <r>  -1.2660  1.0000</r>
       <r>   0.5073  1.0000</r>
       <r>   0.5778  1.0000</r>
       <r>   0.5778  1.0000</r>
       <r>   1.8618  1.0000</r>
       <r>   1.9179  1.0000</r>
       <r>   2.8777  1.0000</r>
       <r>   2.8777  1.0000</r>
       <r>   2.9149  1.0000</r>
       <r>   3.0174  1.0000</r>
       <r>   3.0174  1.0000</r>
       <r>   3.1919  1.0000</r>
       <r>   3.1919  1.0000</r>
       <r>   3.2610  1.0000</r>
       <r>   3.2610  1.0000</r>
       <r>   5.5683  0.0000</r>
       <r>   6.4583  0.0000</r>
       <r>   6.4583  0.0000</r>
       <r>  10.2132  0.0000</r>
       <r>  10.2132  0.0000</r>
       <r>  11.0011  0.0000</r>
       <r>  14.8131  0.0000</r>
      </set>
      <set comment="kpoint 3">
       <r>  -3.9363  1.0000</r>
       <r>  -1.4889  1.0000</r>
       <r>  -1.3871  1.0000</r>
       <r>  -1.3871  1.0000</r>
       <r>  -1.1999  1.0000</r>
       <r>  -1.1431  1.0000</r>
       <r>  -1.1431  1.0000</r>
       <r>   0.3994  1.0000</r>
       <r>   0.6768  1.0000</r>
       <r>   0.6768  1.0000</r>
       <r>   1.7484  1.0000</r>
       <r>   1.9659  1.0000</r>
       <r>   2.4726  1.0000</r>
       <r>   2.4726  1.0000</r>
       <r>   2.7141  1.0000</r>
       <r>   2.7141  1.0000</r>
       <r>   2.8595  1.0000</r>
       <r>   2.9979  1.0000</r>
       <r>   2.9979  1.0000</r>
       <r>   3.2613  1.0000</r>
       <r>   3.2613  1.0000</r>
       <r>   4.4035  1.0000</r>
       <r>   7.1669  0.0000</r>
       <r>   7.1669  0.0000</r>
       <r>  10.0459  0.0000</r>
       <r>  10.0459  0.0000</r>
       <r>  12.5736  0.0000</r>
       <r>  14.4005  0.0000</r>
      </set>
      <set comment="kpoint 4">
       <r>  -3.5667  1.0000</r>
       <r>  -1.4097  1.0000</r>
       <r>  -1.1652  1.0000</r>
       <r>  -1.1652  1.0000</r>
       <r>  -1.0702  1.0000</r>
       <r>  -0.9388  1.0000</r>
       <r>  -0.9388  1.0000</r>
       <r>   0.2320  1.0000</r>
       <r>   0.8396  1.0000</r>
       <r>   0.8396  1.0000</r>
       <r>   1.5780  1.0000</r>
       <r>   1.8455  1.0000</r>
       <r>   1.8455  1.0000</r>
       <r>   2.0431  1.0000</r>
       <r>   2.4621  1.0000</r>
       <r>   2.4621  1.0000</r>
       <r>   2.7108  1.0000</r>
       <r>   2.7108  1.0000</r>
       <r>   2.7723  1.0000</r>
       <r>   3.2065  1.0000</r>
       <r>   3.2618  1.0000</r>
       <r>   3.2618  1.0000</r>
       <r>   8.0613  0.0000</r>
       <r>   8.0613  0.0000</r>
       <r>   9.8285  0.0000</r>
       <r>   9.8285  0.0000</r>
       <r>  13.7665  0.0000</r>
       <r>  13.7665  0.0000</r>
      </set>
      <set comment="kpoint 5">
       <r>  -3.0750  1.0000</r>
       <r>  -1.3865  1.0000</r>
       <r>  -0.9033  1.0000</r>
       <r>  -0.9033  1.0000</r>
       <r>  -0.8969  1.0000</r>
       <r>  -0.6542  1.0000</r>
       <r>  -0.6542  1.0000</r>
       <r>   0.0214  1.0000</r>
       <r>   1.0623  1.0000</r>
       <r>   1.0623  1.0000</r>
       <r>   1.2283  1.0000</r>
       <r>   1.2283  1.0000</r>
       <r>   1.3833  1.0000</r>
       <r>   2.1450  1.0000</r>
       <r>   2.1651  1.0000</r>
       <r>   2.1651  1.0000</r>
       <r>   2.1841  1.0000</r>
       <r>   2.3696  1.0000</r>
       <r>   2.3696  1.0000</r>
       <r>   2.6603  1.0000</r>
       <r>   3.2621  1.0000</r>
       <r>   3.2621  1.0000</r>
       <r>   9.0403  0.0000</r>
       <r>   9.0403  0.0000</r>
       <r>   9.6248  0.0000</r>
       <r>   9.6248  0.0000</r>
       <r>  12.9668  0.0000</r>
       <r>  12.9668  0.0000</r>
      </set>
      <set comment="kpoint 6">
       <r>  -2.5030  1.0000</r>
       <r>  -1.5366  1.0000</r>
       <r>  -0.6885  1.0000</r>
       <r>  -0.6708  1.0000</r>
       <r>  -0.6708  1.0000</r>
       <r>  -0.2911  1.0000</r>
       <r>  -0.2911  1.0000</r>
       <r>  -0.2141  1.0000</r>
       <r>   0.6568  1.0000</r>
       <r>   0.6568  1.0000</r>
       <r>   1.2225  1.0000</r>
       <r>   1.3387  1.0000</r>
       <r>   1.3387  1.0000</r>
       <r>   1.4882  1.0000</r>
       <r>   1.9037  1.0000</r>
       <r>   1.9037  1.0000</r>
       <r>   2.0097  1.0000</r>
       <r>   2.0097  1.0000</r>
       <r>   2.2657  1.0000</r>
       <r>   2.5324  1.0000</r>
       <r>   3.2624  1.0000</r>
       <r>   3.2624  1.0000</r>
       <r>   9.4845  0.0000</r>
       <r>   9.4845  0.0000</r>
       <r>  10.0549  0.0000</r>
       <r>  10.0549  0.0000</r>
       <r>  12.0533  0.0000</r>
       <r>  12.0533  0.0000</r>
      </set>
      <set comment="kpoint 7">
       <r>  -1.9400  1.0000</r>
       <r>  -1.9400  1.0000</r>
       <r>  -0.5722  1.0000</r>
       <r>  -0.5722  1.0000</r>
       <r>  -0.4562  1.0000</r>
       <r>  -0.4562  1.0000</r>
       <r>   0.1475  1.0000</r>
       <r>   0.1475  1.0000</r>
       <r>   0.1475  1.0000</r>
       <r>   0.1475  1.0000</r>
       <r>   1.2021  1.0000</r>
       <r>   1.2021  1.0000</r>
       <r>   1.6593  1.0000</r>
       <r>   1.6593  1.0000</r>
       <r>   1.6593  1.0000</r>
       <r>   1.6593  1.0000</r>
       <r>   1.7939  1.0000</r>
       <r>   1.7939  1.0000</r>
       <r>   2.3977  1.0000</r>
       <r>   2.3977  1.0000</r>
       <r>   3.2625  1.0000</r>
       <r>   3.2625  1.0000</r>
       <r>   9.4350  0.0000</r>
       <r>   9.4350  0.0000</r>
       <r>  11.0703  0.0000</r>
       <r>  11.0703  0.0000</r>
       <r>  11.0703  0.0000</r>
       <r>  11.0703  0.0000</r>
      </set>
      <set comment="kpoint 8">
       <r>  -4.0880  1.0000</r>
       <r>  -1.5060  1.0000</r>
       <r>  -1.5060  1.0000</r>
       <r>  -1.4886  1.0000</r>
       <r>  -1.2395  1.0000</r>
       <r>  -1.2395  1.0000</r>
       <r>  -1.2204  1.0000</r>
       <r>   0.4917  1.0000</r>
       <r>   0.5903  1.0000</r>
       <r>   0.6082  1.0000</r>
       <r>   1.8513  1.0000</r>
       <r>   1.9087  1.0000</r>
       <r>   2.8138  1.0000</r>
       <r>   2.8138  1.0000</r>
       <r>   2.8247  1.0000</r>
       <r>   2.8518  1.0000</r>
       <r>   2.9801  1.0000</r>
       <r>   2.9801  1.0000</r>
       <r>   3.1919  1.0000</r>
       <r>   3.1919  1.0000</r>
       <r>   3.2155  1.0000</r>
       <r>   5.8646  0.0000</r>
       <r>   5.8646  0.0000</r>
       <r>   6.7251  0.0000</r>
       <r>  10.1410  0.0000</r>
       <r>  10.9421  0.0000</r>
       <r>  10.9421  0.0000</r>
       <r>  14.2543  0.0000</r>
      </set>
      <set comment="kpoint 9">
       <r>  -3.8627  1.0000</r>
       <r>  -1.4369  1.0000</r>
       <r>  -1.3625  1.0000</r>
       <r>  -1.3596  1.0000</r>
       <r>  -1.1610  1.0000</r>
       <r>  -1.1181  1.0000</r>
       <r>  -1.0849  1.0000</r>
       <r>   0.3971  1.0000</r>
       <r>   0.6789  1.0000</r>
       <r>   0.6978  1.0000</r>
       <r>   1.7533  1.0000</r>
       <r>   1.9528  1.0000</r>
       <r>   2.3311  1.0000</r>
       <r>   2.3811  1.0000</r>
       <r>   2.5997  1.0000</r>
       <r>   2.6699  1.0000</r>
       <r>   2.7491  1.0000</r>
       <r>   2.8942  1.0000</r>
       <r>   2.9973  1.0000</r>
       <r>   3.1915  1.0000</r>
       <r>   3.1916  1.0000</r>
       <r>   4.7450  1.0000</r>
       <r>   6.5245  0.0000</r>
       <r>   7.3850  0.0000</r>
       <r>   9.9451  0.0000</r>
       <r>  10.7938  0.0000</r>
       <r>  12.4759  0.0000</r>
       <r>  13.6518  0.0000</r>
      </set>
      <set comment="kpoint 10">
       <r>  -3.4972  1.0000</r>
       <r>  -1.3553  1.0000</r>
       <r>  -1.1647  1.0000</r>
       <r>  -1.1350  1.0000</r>
       <r>  -1.0339  1.0000</r>
       <r>  -0.9166  1.0000</r>
       <r>  -0.8675  1.0000</r>
       <r>   0.2368  1.0000</r>
       <r>   0.8392  1.0000</r>
       <r>   0.8396  1.0000</r>
       <r>   1.5978  1.0000</r>
       <r>   1.7167  1.0000</r>
       <r>   1.7959  1.0000</r>
       <r>   2.0392  1.0000</r>
       <r>   2.2244  1.0000</r>
       <r>   2.4302  1.0000</r>
       <r>   2.4971  1.0000</r>
       <r>   2.7097  1.0000</r>
       <r>   2.7665  1.0000</r>
       <r>   3.1864  1.0000</r>
       <r>   3.1911  1.0000</r>
       <r>   3.6834  1.0000</r>
       <r>   7.2882  0.0000</r>
       <r>   8.2450  0.0000</r>
       <r>   9.6794  0.0000</r>
       <r>  10.6378  0.0000</r>
       <r>  13.0703  0.0000</r>
       <r>  13.9074  0.0000</r>
      </set>
      <set comment="kpoint 11">
       <r>  -3.0108  1.0000</r>
       <r>  -1.3298  1.0000</r>
       <r>  -0.9141  1.0000</r>
       <r>  -0.8687  1.0000</r>
       <r>  -0.8642  1.0000</r>
       <r>  -0.6362  1.0000</r>
       <r>  -0.5881  1.0000</r>
       <r>   0.0325  1.0000</r>
       <r>   1.0009  1.0000</r>
       <r>   1.0610  1.0000</r>
       <r>   1.1175  1.0000</r>
       <r>   1.2041  1.0000</r>
       <r>   1.4531  1.0000</r>
       <r>   1.7103  1.0000</r>
       <r>   2.1466  1.0000</r>
       <r>   2.1555  1.0000</r>
       <r>   2.2023  1.0000</r>
       <r>   2.3680  1.0000</r>
       <r>   2.5427  1.0000</r>
       <r>   2.9557  1.0000</r>
       <r>   3.1857  1.0000</r>
       <r>   3.1903  1.0000</r>
       <r>   8.0083  0.0000</r>
       <r>   9.2023  0.0000</r>
       <r>   9.4051  0.0000</r>
       <r>  10.5961  0.0000</r>
       <r>  12.4879  0.0000</r>
       <r>  13.1041  0.0000</r>
      </set>
      <set comment="kpoint 12">
       <r>  -2.4445  1.0000</r>
       <r>  -1.4802  1.0000</r>
       <r>  -0.6620  1.0000</r>
       <r>  -0.6602  1.0000</r>
       <r>  -0.6313  1.0000</r>
       <r>  -0.2789  1.0000</r>
       <r>  -0.2694  1.0000</r>
       <r>  -0.1969  1.0000</r>
       <r>   0.5730  1.0000</r>
       <r>   0.6494  1.0000</r>
       <r>   1.0486  1.0000</r>
       <r>   1.2416  1.0000</r>
       <r>   1.3370  1.0000</r>
       <r>   1.5030  1.0000</r>
       <r>   1.9003  1.0000</r>
       <r>   1.9354  1.0000</r>
       <r>   2.0078  1.0000</r>
       <r>   2.1553  1.0000</r>
       <r>   2.2955  1.0000</r>
       <r>   2.6398  1.0000</r>
       <r>   3.1866  1.0000</r>
       <r>   3.1892  1.0000</r>
       <r>   8.5597  0.0000</r>
       <r>   9.1555  0.0000</r>
       <r>  10.2033  0.0000</r>
       <r>  10.7987  0.0000</r>
       <r>  11.8762  0.0000</r>
       <r>  12.1902  0.0000</r>
      </set>
      <set comment="kpoint 13">
       <r>  -1.8847  1.0000</r>
       <r>  -1.8847  1.0000</r>
       <r>  -0.5366  1.0000</r>
       <r>  -0.5366  1.0000</r>
       <r>  -0.4332  1.0000</r>
       <r>  -0.4332  1.0000</r>
       <r>   0.1069  1.0000</r>
       <r>   0.1069  1.0000</r>
       <r>   0.1515  1.0000</r>
       <r>   0.1515  1.0000</r>
       <r>   1.0404  1.0000</r>
       <r>   1.0404  1.0000</r>
       <r>   1.6573  1.0000</r>
       <r>   1.6573  1.0000</r>
       <r>   1.7809  1.0000</r>
       <r>   1.7809  1.0000</r>
       <r>   1.8092  1.0000</r>
       <r>   1.8092  1.0000</r>
       <r>   2.4545  1.0000</r>
       <r>   2.4545  1.0000</r>
       <r>   3.1879  1.0000</r>
       <r>   3.1879  1.0000</r>
       <r>   8.9068  0.0000</r>
       <r>   8.9068  0.0000</r>
       <r>  11.2107  0.0000</r>
       <r>  11.2107  0.0000</r>
       <r>  11.2704  0.0000</r>
       <r>  11.2704  0.0000</r>
      </set>
      <set comment="kpoint 14">
       <r>  -3.6448  1.0000</r>
       <r>  -1.2859  1.0000</r>
       <r>  -1.2859  1.0000</r>
       <r>  -1.2801  1.0000</r>
       <r>  -1.0444  1.0000</r>
       <r>  -1.0444  1.0000</r>
       <r>  -0.9249  1.0000</r>
       <r>   0.3539  1.0000</r>
       <r>   0.7246  1.0000</r>
       <r>   0.7584  1.0000</r>
       <r>   1.7193  1.0000</r>
       <r>   1.9678  1.0000</r>
       <r>   2.0225  1.0000</r>
       <r>   2.0225  1.0000</r>
       <r>   2.0869  1.0000</r>
       <r>   2.5394  1.0000</r>
       <r>   2.7441  1.0000</r>
       <r>   2.7441  1.0000</r>
       <r>   2.9956  1.0000</r>
       <r>   2.9956  1.0000</r>
       <r>   3.0817  1.0000</r>
       <r>   5.4039  0.0000</r>
       <r>   5.4039  0.0000</r>
       <r>   7.9576  0.0000</r>
       <r>   9.6625  0.0000</r>
       <r>  12.2163  0.0000</r>
       <r>  12.2163  0.0000</r>
       <r>  12.9554  0.0000</r>
      </set>
      <set comment="kpoint 15">
       <r>  -3.2915  1.0000</r>
       <r>  -1.1968  1.0000</r>
       <r>  -1.1297  1.0000</r>
       <r>  -1.0526  1.0000</r>
       <r>  -0.9253  1.0000</r>
       <r>  -0.8512  1.0000</r>
       <r>  -0.6926  1.0000</r>
       <r>   0.2336  1.0000</r>
       <r>   0.8460  1.0000</r>
       <r>   0.8574  1.0000</r>
       <r>   1.4172  1.0000</r>
       <r>   1.6110  1.0000</r>
       <r>   1.6173  1.0000</r>
       <r>   1.6350  1.0000</r>
       <r>   2.0697  1.0000</r>
       <r>   2.3330  1.0000</r>
       <r>   2.5210  1.0000</r>
       <r>   2.6479  1.0000</r>
       <r>   2.7065  1.0000</r>
       <r>   2.9930  1.0000</r>
       <r>   3.0203  1.0000</r>
       <r>   4.3621  1.0000</r>
       <r>   6.1135  0.0000</r>
       <r>   8.7461  0.0000</r>
       <r>   9.2601  0.0000</r>
       <r>  11.8925  0.0000</r>
       <r>  12.4240  0.0000</r>
       <r>  13.7030  0.0000</r>
      </set>
      <set comment="kpoint 16">
       <r>  -2.8218  1.0000</r>
       <r>  -1.1644  1.0000</r>
       <r>  -0.9118  1.0000</r>
       <r>  -0.7721  1.0000</r>
       <r>  -0.7667  1.0000</r>
       <r>  -0.5833  1.0000</r>
       <r>  -0.4286  1.0000</r>
       <r>   0.0571  1.0000</r>
       <r>   0.8535  1.0000</r>
       <r>   0.9106  1.0000</r>
       <r>   1.0669  1.0000</r>
       <r>   1.1257  1.0000</r>
       <r>   1.1832  1.0000</r>
       <r>   1.5265  1.0000</r>
       <r>   2.0859  1.0000</r>
       <r>   2.2314  1.0000</r>
       <r>   2.2473  1.0000</r>
       <r>   2.3638  1.0000</r>
       <r>   2.4499  1.0000</r>
       <r>   2.9898  1.0000</r>
       <r>   2.9949  1.0000</r>
       <r>   3.5596  1.0000</r>
       <r>   6.7897  0.0000</r>
       <r>   8.8152  0.0000</r>
       <r>   9.6539  0.0000</r>
       <r>  11.6249  0.0000</r>
       <r>  12.0244  0.0000</r>
       <r>  13.4982  0.0000</r>
      </set>
      <set comment="kpoint 17">
       <r>  -2.2736  1.0000</r>
       <r>  -1.3170  1.0000</r>
       <r>  -0.6454  1.0000</r>
       <r>  -0.5767  1.0000</r>
       <r>  -0.5168  1.0000</r>
       <r>  -0.2439  1.0000</r>
       <r>  -0.1935  1.0000</r>
       <r>  -0.1497  1.0000</r>
       <r>   0.3642  1.0000</r>
       <r>   0.6237  1.0000</r>
       <r>   0.8685  1.0000</r>
       <r>   0.8691  1.0000</r>
       <r>   1.3370  1.0000</r>
       <r>   1.6052  1.0000</r>
       <r>   1.8784  1.0000</r>
       <r>   1.9824  1.0000</r>
       <r>   2.0037  1.0000</r>
       <r>   2.1585  1.0000</r>
       <r>   2.4367  1.0000</r>
       <r>   2.9861  1.0000</r>
       <r>   2.9867  1.0000</r>
       <r>   3.0306  1.0000</r>
       <r>   7.3909  0.0000</r>
       <r>   8.3690  0.0000</r>
       <r>  10.6225  0.0000</r>
       <r>  11.4988  0.0000</r>
       <r>  11.7273  0.0000</r>
       <r>  12.5821  0.0000</r>
      </set>
      <set comment="kpoint 18">
       <r>  -1.7249  1.0000</r>
       <r>  -1.7249  1.0000</r>
       <r>  -0.4397  1.0000</r>
       <r>  -0.4397  1.0000</r>
       <r>  -0.3665  1.0000</r>
       <r>  -0.3665  1.0000</r>
       <r>   0.0097  1.0000</r>
       <r>   0.0097  1.0000</r>
       <r>   0.1616  1.0000</r>
       <r>   0.1616  1.0000</r>
       <r>   0.7941  1.0000</r>
       <r>   0.7941  1.0000</r>
       <r>   1.6544  1.0000</r>
       <r>   1.6544  1.0000</r>
       <r>   1.8293  1.0000</r>
       <r>   1.8293  1.0000</r>
       <r>   1.8455  1.0000</r>
       <r>   1.8455  1.0000</r>
       <r>   2.6897  1.0000</r>
       <r>   2.6897  1.0000</r>
       <r>   2.9847  1.0000</r>
       <r>   2.9847  1.0000</r>
       <r>   7.9081  0.0000</r>
       <r>   7.9081  0.0000</r>
       <r>  11.5404  0.0000</r>
       <r>  11.5404  0.0000</r>
       <r>  11.6107  0.0000</r>
       <r>  11.6107  0.0000</r>
      </set>
      <set comment="kpoint 19">
       <r>  -2.9592  1.0000</r>
       <r>  -1.0324  1.0000</r>
       <r>  -0.9492  1.0000</r>
       <r>  -0.9492  1.0000</r>
       <r>  -0.7461  1.0000</r>
       <r>  -0.7461  1.0000</r>
       <r>  -0.4608  1.0000</r>
       <r>   0.1837  1.0000</r>
       <r>   0.8615  1.0000</r>
       <r>   0.9392  1.0000</r>
       <r>   1.0485  1.0000</r>
       <r>   1.0485  1.0000</r>
       <r>   1.3525  1.0000</r>
       <r>   1.5532  1.0000</r>
       <r>   2.1727  1.0000</r>
       <r>   2.2056  1.0000</r>
       <r>   2.4561  1.0000</r>
       <r>   2.4561  1.0000</r>
       <r>   2.7021  1.0000</r>
       <r>   2.7021  1.0000</r>
       <r>   2.8675  1.0000</r>
       <r>   5.0435  0.0000</r>
       <r>   5.0435  0.0000</r>
       <r>   8.6751  0.0000</r>
       <r>   9.4661  0.0000</r>
       <r>  12.0264  0.0000</r>
       <r>  13.0515  0.0000</r>
       <r>  13.0515  0.0000</r>
      </set>
      <set comment="kpoint 20">
       <r>  -2.5188  1.0000</r>
       <r>  -0.9052  1.0000</r>
       <r>  -0.8660  1.0000</r>
       <r>  -0.6436  1.0000</r>
       <r>  -0.6070  1.0000</r>
       <r>  -0.4993  1.0000</r>
       <r>  -0.2208  1.0000</r>
       <r>   0.0709  1.0000</r>
       <r>   0.5377  1.0000</r>
       <r>   0.7056  1.0000</r>
       <r>   0.8501  1.0000</r>
       <r>   0.9790  1.0000</r>
       <r>   1.1085  1.0000</r>
       <r>   1.4913  1.0000</r>
       <r>   1.9736  1.0000</r>
       <r>   2.2134  1.0000</r>
       <r>   2.2826  1.0000</r>
       <r>   2.3593  1.0000</r>
       <r>   2.4341  1.0000</r>
       <r>   2.6979  1.0000</r>
       <r>   2.7720  1.0000</r>
       <r>   4.1799  1.0000</r>
       <r>   5.6971  0.0000</r>
       <r>   8.0528  0.0000</r>
       <r>  10.3212  0.0000</r>
       <r>  11.8112  0.0000</r>
       <r>  12.4748  0.0000</r>
       <r>  14.0778  0.0000</r>
      </set>
      <set comment="kpoint 21">
       <r>  -2.0047  1.0000</r>
       <r>  -1.0680  1.0000</r>
       <r>  -0.6307  1.0000</r>
       <r>  -0.4426  1.0000</r>
       <r>  -0.3446  1.0000</r>
       <r>  -0.1904  1.0000</r>
       <r>  -0.0864  1.0000</r>
       <r>  -0.0553  1.0000</r>
       <r>   0.1029  1.0000</r>
       <r>   0.5377  1.0000</r>
       <r>   0.5704  1.0000</r>
       <r>   0.7476  1.0000</r>
       <r>   1.3550  1.0000</r>
       <r>   1.5528  1.0000</r>
       <r>   1.8112  1.0000</r>
       <r>   1.9662  1.0000</r>
       <r>   2.0018  1.0000</r>
       <r>   2.0248  1.0000</r>
       <r>   2.6966  1.0000</r>
       <r>   2.7234  1.0000</r>
       <r>   2.7255  1.0000</r>
       <r>   3.5428  1.0000</r>
       <r>   6.3098  0.0000</r>
       <r>   7.4581  0.0000</r>
       <r>  11.2532  0.0000</r>
       <r>  11.7388  0.0000</r>
       <r>  12.0544  0.0000</r>
       <r>  13.1826  0.0000</r>
      </set>
      <set comment="kpoint 22">
       <r>  -1.4809  1.0000</r>
       <r>  -1.4809  1.0000</r>
       <r>  -0.3438  1.0000</r>
       <r>  -0.3438  1.0000</r>
       <r>  -0.2641  1.0000</r>
       <r>  -0.2641  1.0000</r>
       <r>  -0.0565  1.0000</r>
       <r>  -0.0565  1.0000</r>
       <r>   0.1714  1.0000</r>
       <r>   0.1714  1.0000</r>
       <r>   0.5966  1.0000</r>
       <r>   0.5966  1.0000</r>
       <r>   1.6594  1.0000</r>
       <r>   1.6594  1.0000</r>
       <r>   1.7535  1.0000</r>
       <r>   1.7535  1.0000</r>
       <r>   1.8007  1.0000</r>
       <r>   1.8007  1.0000</r>
       <r>   2.7026  1.0000</r>
       <r>   2.7026  1.0000</r>
       <r>   3.0818  1.0000</r>
       <r>   3.0818  1.0000</r>
       <r>   6.8879  0.0000</r>
       <r>   6.8879  0.0000</r>
       <r>  11.8128  0.0000</r>
       <r>  11.8128  0.0000</r>
       <r>  12.2193  0.0000</r>
       <r>  12.2193  0.0000</r>
      </set>
      <set comment="kpoint 23">
       <r>  -2.1220  1.0000</r>
       <r>  -0.7664  1.0000</r>
       <r>  -0.5837  1.0000</r>
       <r>  -0.5837  1.0000</r>
       <r>  -0.3906  1.0000</r>
       <r>  -0.3906  1.0000</r>
       <r>  -0.0111  1.0000</r>
       <r>   0.0453  1.0000</r>
       <r>   0.2912  1.0000</r>
       <r>   0.2912  1.0000</r>
       <r>   0.7572  1.0000</r>
       <r>   0.7998  1.0000</r>
       <r>   1.2202  1.0000</r>
       <r>   1.4103  1.0000</r>
       <r>   1.8184  1.0000</r>
       <r>   2.0679  1.0000</r>
       <r>   2.0679  1.0000</r>
       <r>   2.3584  1.0000</r>
       <r>   2.3584  1.0000</r>
       <r>   2.5864  1.0000</r>
       <r>   2.7376  1.0000</r>
       <r>   4.7906  1.0000</r>
       <r>   4.7906  1.0000</r>
       <r>   7.2931  0.0000</r>
       <r>  11.1326  0.0000</r>
       <r>  11.7739  0.0000</r>
       <r>  13.2522  0.0000</r>
       <r>  13.2522  0.0000</r>
      </set>
      <set comment="kpoint 24">
       <r>  -1.6636  1.0000</r>
       <r>  -0.7825  1.0000</r>
       <r>  -0.6091  1.0000</r>
       <r>  -0.2865  1.0000</r>
       <r>  -0.2665  1.0000</r>
       <r>  -0.1263  1.0000</r>
       <r>  -0.0296  1.0000</r>
       <r>  -0.0207  1.0000</r>
       <r>   0.1178  1.0000</r>
       <r>   0.2950  1.0000</r>
       <r>   0.4763  1.0000</r>
       <r>   0.6825  1.0000</r>
       <r>   1.4169  1.0000</r>
       <r>   1.4236  1.0000</r>
       <r>   1.6846  1.0000</r>
       <r>   1.8336  1.0000</r>
       <r>   1.8444  1.0000</r>
       <r>   2.0109  1.0000</r>
       <r>   2.3677  1.0000</r>
       <r>   2.4646  1.0000</r>
       <r>   3.1064  1.0000</r>
       <r>   4.0849  1.0000</r>
       <r>   5.3867  0.0000</r>
       <r>   6.6046  0.0000</r>
       <r>  11.8856  0.0000</r>
       <r>  12.0326  0.0000</r>
       <r>  12.6099  0.0000</r>
       <r>  13.9371  0.0000</r>
      </set>
      <set comment="kpoint 25">
       <r>  -1.1916  1.0000</r>
       <r>  -1.1916  1.0000</r>
       <r>  -0.3973  1.0000</r>
       <r>  -0.3973  1.0000</r>
       <r>  -0.1403  1.0000</r>
       <r>  -0.1403  1.0000</r>
       <r>   0.0621  1.0000</r>
       <r>   0.0621  1.0000</r>
       <r>   0.1707  1.0000</r>
       <r>   0.1707  1.0000</r>
       <r>   0.4820  1.0000</r>
       <r>   0.4820  1.0000</r>
       <r>   1.5871  1.0000</r>
       <r>   1.5871  1.0000</r>
       <r>   1.6865  1.0000</r>
       <r>   1.6865  1.0000</r>
       <r>   1.6880  1.0000</r>
       <r>   1.6880  1.0000</r>
       <r>   2.3979  1.0000</r>
       <r>   2.3979  1.0000</r>
       <r>   3.5430  1.0000</r>
       <r>   3.5430  1.0000</r>
       <r>   5.9810  0.0000</r>
       <r>   5.9810  0.0000</r>
       <r>  12.1577  0.0000</r>
       <r>  12.1577  0.0000</r>
       <r>  12.9790  0.0000</r>
       <r>  12.9790  0.0000</r>
      </set>
      <set comment="kpoint 26">
       <r>  -1.2871  1.0000</r>
       <r>  -0.5704  1.0000</r>
       <r>  -0.5704  1.0000</r>
       <r>  -0.5704  1.0000</r>
       <r>  -0.0632  1.0000</r>
       <r>  -0.0632  1.0000</r>
       <r>  -0.0029  1.0000</r>
       <r>   0.2041  1.0000</r>
       <r>   0.2041  1.0000</r>
       <r>   0.2550  1.0000</r>
       <r>   0.3326  1.0000</r>
       <r>   0.6139  1.0000</r>
       <r>   1.3412  1.0000</r>
       <r>   1.5426  1.0000</r>
       <r>   1.5490  1.0000</r>
       <r>   1.6349  1.0000</r>
       <r>   1.6349  1.0000</r>
       <r>   2.0440  1.0000</r>
       <r>   2.0440  1.0000</r>
       <r>   2.2572  1.0000</r>
       <r>   3.5439  1.0000</r>
       <r>   4.6405  1.0000</r>
       <r>   4.6405  1.0000</r>
       <r>   5.8635  0.0000</r>
       <r>  12.1727  0.0000</r>
       <r>  12.9081  0.0000</r>
       <r>  13.2407  0.0000</r>
       <r>  13.2407  0.0000</r>
      </set>
      <set comment="kpoint 27">
       <r>  -0.9142  1.0000</r>
       <r>  -0.9142  1.0000</r>
       <r>  -0.5296  1.0000</r>
       <r>  -0.5296  1.0000</r>
       <r>  -0.0167  1.0000</r>
       <r>  -0.0167  1.0000</r>
       <r>   0.1454  1.0000</r>
       <r>   0.1454  1.0000</r>
       <r>   0.2617  1.0000</r>
       <r>   0.2617  1.0000</r>
       <r>   0.4477  1.0000</r>
       <r>   0.4477  1.0000</r>
       <r>   1.4251  1.0000</r>
       <r>   1.4251  1.0000</r>
       <r>   1.5085  1.0000</r>
       <r>   1.5085  1.0000</r>
       <r>   1.7620  1.0000</r>
       <r>   1.7620  1.0000</r>
       <r>   2.1197  1.0000</r>
       <r>   2.1197  1.0000</r>
       <r>   4.0430  1.0000</r>
       <r>   4.0430  1.0000</r>
       <r>   5.2221  0.0000</r>
       <r>   5.2221  0.0000</r>
       <r>  12.6190  0.0000</r>
       <r>  12.6190  0.0000</r>
       <r>  13.8388  0.0000</r>
       <r>  13.8389  0.0000</r>
      </set>
      <set comment="kpoint 28">
       <r>  -0.6945  1.0000</r>
       <r>  -0.6945  1.0000</r>
       <r>  -0.6945  1.0000</r>
       <r>  -0.6945  1.0000</r>
       <r>   0.0835  1.0000</r>
       <r>   0.0835  1.0000</r>
       <r>   0.0835  1.0000</r>
       <r>   0.0835  1.0000</r>
       <r>   0.4076  1.0000</r>
       <r>   0.4076  1.0000</r>
       <r>   0.4076  1.0000</r>
       <r>   0.4076  1.0000</r>
       <r>   1.3806  1.0000</r>
       <r>   1.3806  1.0000</r>
       <r>   1.3806  1.0000</r>
       <r>   1.3806  1.0000</r>
       <r>   1.9030  1.0000</r>
       <r>   1.9030  1.0000</r>
       <r>   1.9030  1.0000</r>
       <r>   1.9030  1.0000</r>
       <r>   4.5909  1.0000</r>
       <r>   4.5909  1.0000</r>
       <r>   4.5909  1.0000</r>
       <r>   4.5909  1.0000</r>
       <r>  13.2208  0.0000</r>
       <r>  13.2208  0.0000</r>
       <r>  13.2208  0.0000</r>
       <r>  13.2208  0.0000</r>
      </set>
      <set comment="kpoint 29">
       <r>  -4.0130  1.0000</r>
       <r>  -1.4627  1.0000</r>
       <r>  -1.4627  1.0000</r>
       <r>  -1.4627  1.0000</r>
       <r>  -1.1939  1.0000</r>
       <r>  -1.1939  1.0000</r>
       <r>  -1.1939  1.0000</r>
       <r>   0.4790  1.0000</r>
       <r>   0.6184  1.0000</r>
       <r>   0.6184  1.0000</r>
       <r>   1.8720  1.0000</r>
       <r>   1.8720  1.0000</r>
       <r>   2.7579  1.0000</r>
       <r>   2.7579  1.0000</r>
       <r>   2.7579  1.0000</r>
       <r>   2.7772  1.0000</r>
       <r>   2.7772  1.0000</r>
       <r>   2.7772  1.0000</r>
       <r>   3.1818  1.0000</r>
       <r>   3.1818  1.0000</r>
       <r>   3.1818  1.0000</r>
       <r>   6.1196  0.0000</r>
       <r>   6.1196  0.0000</r>
       <r>   6.1196  0.0000</r>
       <r>  10.8680  0.0000</r>
       <r>  10.8680  0.0000</r>
       <r>  10.8680  0.0000</r>
       <r>  14.4277  0.0000</r>
      </set>
      <set comment="kpoint 30">
       <r>  -3.7905  1.0000</r>
       <r>  -1.3938  1.0000</r>
       <r>  -1.3369  1.0000</r>
       <r>  -1.3369  1.0000</r>
       <r>  -1.1157  1.0000</r>
       <r>  -1.0587  1.0000</r>
       <r>  -1.0587  1.0000</r>
       <r>   0.3967  1.0000</r>
       <r>   0.6942  1.0000</r>
       <r>   0.7023  1.0000</r>
       <r>   1.7688  1.0000</r>
       <r>   1.9329  1.0000</r>
       <r>   2.2609  1.0000</r>
       <r>   2.2609  1.0000</r>
       <r>   2.4838  1.0000</r>
       <r>   2.6359  1.0000</r>
       <r>   2.6484  1.0000</r>
       <r>   2.6484  1.0000</r>
       <r>   3.0914  1.0000</r>
       <r>   3.1601  1.0000</r>
       <r>   3.1601  1.0000</r>
       <r>   5.0061  0.0000</r>
       <r>   6.7205  0.0000</r>
       <r>   6.7205  0.0000</r>
       <r>  10.6721  0.0000</r>
       <r>  10.6721  0.0000</r>
       <r>  12.3364  0.0000</r>
       <r>  13.8708  0.0000</r>
      </set>
      <set comment="kpoint 31">
       <r>  -3.4297  1.0000</r>
       <r>  -1.3120  1.0000</r>
       <r>  -1.1392  1.0000</r>
       <r>  -1.1392  1.0000</r>
       <r>  -0.9894  1.0000</r>
       <r>  -0.8420  1.0000</r>
       <r>  -0.8420  1.0000</r>
       <r>   0.2450  1.0000</r>
       <r>   0.8335  1.0000</r>
       <r>   0.8405  1.0000</r>
       <r>   1.6261  1.0000</r>
       <r>   1.6777  1.0000</r>
       <r>   1.6777  1.0000</r>
       <r>   2.0305  1.0000</r>
       <r>   2.0519  1.0000</r>
       <r>   2.4129  1.0000</r>
       <r>   2.4341  1.0000</r>
       <r>   2.4341  1.0000</r>
       <r>   2.9639  1.0000</r>
       <r>   3.1423  1.0000</r>
       <r>   3.1423  1.0000</r>
       <r>   3.9429  1.0000</r>
       <r>   7.4408  0.0000</r>
       <r>   7.4408  0.0000</r>
       <r>  10.4324  0.0000</r>
       <r>  10.4324  0.0000</r>
       <r>  13.3674  0.0000</r>
       <r>  13.3674  0.0000</r>
      </set>
      <set comment="kpoint 32">
       <r>  -2.9500  1.0000</r>
       <r>  -1.2857  1.0000</r>
       <r>  -0.8873  1.0000</r>
       <r>  -0.8873  1.0000</r>
       <r>  -0.8220  1.0000</r>
       <r>  -0.5660  1.0000</r>
       <r>  -0.5660  1.0000</r>
       <r>   0.0483  1.0000</r>
       <r>   0.9724  1.0000</r>
       <r>   1.0300  1.0000</r>
       <r>   1.1032  1.0000</r>
       <r>   1.1032  1.0000</r>
       <r>   1.5259  1.0000</r>
       <r>   1.5326  1.0000</r>
       <r>   2.1352  1.0000</r>
       <r>   2.1589  1.0000</r>
       <r>   2.1648  1.0000</r>
       <r>   2.1648  1.0000</r>
       <r>   2.8129  1.0000</r>
       <r>   3.0930  1.0000</r>
       <r>   3.1321  1.0000</r>
       <r>   3.1321  1.0000</r>
       <r>   8.1183  0.0000</r>
       <r>   8.1183  0.0000</r>
       <r>  10.2621  0.0000</r>
       <r>  10.2621  0.0000</r>
       <r>  12.9011  0.0000</r>
       <r>  12.9011  0.0000</r>
      </set>
      <set comment="kpoint 33">
       <r>  -2.3913  1.0000</r>
       <r>  -1.4353  1.0000</r>
       <r>  -0.6282  1.0000</r>
       <r>  -0.6282  1.0000</r>
       <r>  -0.6229  1.0000</r>
       <r>  -0.2640  1.0000</r>
       <r>  -0.2640  1.0000</r>
       <r>  -0.1735  1.0000</r>
       <r>   0.5839  1.0000</r>
       <r>   0.5839  1.0000</r>
       <r>   0.9797  1.0000</r>
       <r>   1.1100  1.0000</r>
       <r>   1.2654  1.0000</r>
       <r>   1.6463  1.0000</r>
       <r>   1.8347  1.0000</r>
       <r>   1.9178  1.0000</r>
       <r>   1.9178  1.0000</r>
       <r>   2.3107  1.0000</r>
       <r>   2.4600  1.0000</r>
       <r>   2.6475  1.0000</r>
       <r>   3.1271  1.0000</r>
       <r>   3.1271  1.0000</r>
       <r>   8.5849  0.0000</r>
       <r>   8.5849  0.0000</r>
       <r>  10.2569  0.0000</r>
       <r>  10.2569  0.0000</r>
       <r>  12.4863  0.0000</r>
       <r>  12.4863  0.0000</r>
      </set>
      <set comment="kpoint 34">
       <r>  -1.8377  1.0000</r>
       <r>  -1.8377  1.0000</r>
       <r>  -0.5012  1.0000</r>
       <r>  -0.5012  1.0000</r>
       <r>  -0.4025  1.0000</r>
       <r>  -0.4025  1.0000</r>
       <r>  -0.0107  1.0000</r>
       <r>  -0.0107  1.0000</r>
       <r>   0.2390  1.0000</r>
       <r>   0.2390  1.0000</r>
       <r>   0.9499  1.0000</r>
       <r>   0.9499  1.0000</r>
       <r>   1.5382  1.0000</r>
       <r>   1.5382  1.0000</r>
       <r>   1.8112  1.0000</r>
       <r>   1.8112  1.0000</r>
       <r>   1.9841  1.0000</r>
       <r>   1.9841  1.0000</r>
       <r>   2.4768  1.0000</r>
       <r>   2.4768  1.0000</r>
       <r>   3.1257  1.0000</r>
       <r>   3.1257  1.0000</r>
       <r>   8.7366  0.0000</r>
       <r>   8.7366  0.0000</r>
       <r>  10.3183  0.0000</r>
       <r>  10.3183  0.0000</r>
       <r>  12.2915  0.0000</r>
       <r>  12.2915  0.0000</r>
      </set>
      <set comment="kpoint 35">
       <r>  -3.5766  1.0000</r>
       <r>  -1.2687  1.0000</r>
       <r>  -1.2687  1.0000</r>
       <r>  -1.2582  1.0000</r>
       <r>  -0.9810  1.0000</r>
       <r>  -0.9810  1.0000</r>
       <r>  -0.8967  1.0000</r>
       <r>   0.3614  1.0000</r>
       <r>   0.7343  1.0000</r>
       <r>   0.7551  1.0000</r>
       <r>   1.7561  1.0000</r>
       <r>   1.9384  1.0000</r>
       <r>   1.9638  1.0000</r>
       <r>   1.9638  1.0000</r>
       <r>   1.9897  1.0000</r>
       <r>   2.4600  1.0000</r>
       <r>   2.5290  1.0000</r>
       <r>   2.5290  1.0000</r>
       <r>   3.0808  1.0000</r>
       <r>   3.0808  1.0000</r>
       <r>   3.0969  1.0000</r>
       <r>   5.5838  0.0000</r>
       <r>   5.5838  0.0000</r>
       <r>   7.2153  0.0000</r>
       <r>  10.3369  0.0000</r>
       <r>  11.9586  0.0000</r>
       <r>  11.9586  0.0000</r>
       <r>  13.2985  0.0000</r>
      </set>
      <set comment="kpoint 36">
       <r>  -3.2304  1.0000</r>
       <r>  -1.1878  1.0000</r>
       <r>  -1.1122  1.0000</r>
       <r>  -1.0726  1.0000</r>
       <r>  -0.8558  1.0000</r>
       <r>  -0.7650  1.0000</r>
       <r>  -0.6637  1.0000</r>
       <r>   0.2529  1.0000</r>
       <r>   0.8371  1.0000</r>
       <r>   0.8475  1.0000</r>
       <r>   1.3926  1.0000</r>
       <r>   1.5426  1.0000</r>
       <r>   1.5579  1.0000</r>
       <r>   1.6626  1.0000</r>
       <r>   2.0490  1.0000</r>
       <r>   2.2715  1.0000</r>
       <r>   2.3036  1.0000</r>
       <r>   2.3767  1.0000</r>
       <r>   2.9621  1.0000</r>
       <r>   3.0328  1.0000</r>
       <r>   3.0347  1.0000</r>
       <r>   4.5095  1.0000</r>
       <r>   6.2508  0.0000</r>
       <r>   7.8323  0.0000</r>
       <r>   9.8999  0.0000</r>
       <r>  11.4638  0.0000</r>
       <r>  12.9513  0.0000</r>
       <r>  13.2006  0.0000</r>
      </set>
      <set comment="kpoint 37">
       <r>  -2.7711  1.0000</r>
       <r>  -1.1611  1.0000</r>
       <r>  -0.8986  1.0000</r>
       <r>  -0.8197  1.0000</r>
       <r>  -0.6939  1.0000</r>
       <r>  -0.4958  1.0000</r>
       <r>  -0.4047  1.0000</r>
       <r>   0.0880  1.0000</r>
       <r>   0.8603  1.0000</r>
       <r>   0.8972  1.0000</r>
       <r>   1.0127  1.0000</r>
       <r>   1.0531  1.0000</r>
       <r>   1.1264  1.0000</r>
       <r>   1.6219  1.0000</r>
       <r>   2.0228  1.0000</r>
       <r>   2.0545  1.0000</r>
       <r>   2.1576  1.0000</r>
       <r>   2.2170  1.0000</r>
       <r>   2.7856  1.0000</r>
       <r>   2.9903  1.0000</r>
       <r>   2.9925  1.0000</r>
       <r>   3.6309  1.0000</r>
       <r>   6.9052  0.0000</r>
       <r>   8.3421  0.0000</r>
       <r>   9.5776  0.0000</r>
       <r>  10.9763  0.0000</r>
       <r>  12.7967  0.0000</r>
       <r>  13.8842  0.0000</r>
      </set>
      <set comment="kpoint 38">
       <r>  -2.2367  1.0000</r>
       <r>  -1.3095  1.0000</r>
       <r>  -0.6316  1.0000</r>
       <r>  -0.5408  1.0000</r>
       <r>  -0.5095  1.0000</r>
       <r>  -0.2467  1.0000</r>
       <r>  -0.2026  1.0000</r>
       <r>  -0.1067  1.0000</r>
       <r>   0.4310  1.0000</r>
       <r>   0.6080  1.0000</r>
       <r>   0.8243  1.0000</r>
       <r>   0.8453  1.0000</r>
       <r>   1.2167  1.0000</r>
       <r>   1.7318  1.0000</r>
       <r>   1.7803  1.0000</r>
       <r>   1.8571  1.0000</r>
       <r>   1.9272  1.0000</r>
       <r>   2.4212  1.0000</r>
       <r>   2.5044  1.0000</r>
       <r>   2.9671  1.0000</r>
       <r>   2.9693  1.0000</r>
       <r>   3.0178  1.0000</r>
       <r>   7.4947  0.0000</r>
       <r>   8.3585  0.0000</r>
       <r>   9.7143  0.0000</r>
       <r>  10.5417  0.0000</r>
       <r>  12.8298  0.0000</r>
       <r>  13.4630  0.0000</r>
      </set>
      <set comment="kpoint 39">
       <r>  -1.7040  1.0000</r>
       <r>  -1.7040  1.0000</r>
       <r>  -0.4056  1.0000</r>
       <r>  -0.4056  1.0000</r>
       <r>  -0.3109  1.0000</r>
       <r>  -0.3109  1.0000</r>
       <r>  -0.1642  1.0000</r>
       <r>  -0.1642  1.0000</r>
       <r>   0.3208  1.0000</r>
       <r>   0.3208  1.0000</r>
       <r>   0.7622  1.0000</r>
       <r>   0.7622  1.0000</r>
       <r>   1.4581  1.0000</r>
       <r>   1.4581  1.0000</r>
       <r>   1.7962  1.0000</r>
       <r>   1.7962  1.0000</r>
       <r>   2.1166  1.0000</r>
       <r>   2.1166  1.0000</r>
       <r>   2.6651  1.0000</r>
       <r>   2.6651  1.0000</r>
       <r>   2.9610  1.0000</r>
       <r>   2.9610  1.0000</r>
       <r>   7.9930  0.0000</r>
       <r>   7.9930  0.0000</r>
       <r>  10.1259  0.0000</r>
       <r>  10.1259  0.0000</r>
       <r>  13.0671  0.0000</r>
       <r>  13.0671  0.0000</r>
      </set>
      <set comment="kpoint 40">
       <r>  -2.9093  1.0000</r>
       <r>  -1.0241  1.0000</r>
       <r>  -0.9965  1.0000</r>
       <r>  -0.9965  1.0000</r>
       <r>  -0.6387  1.0000</r>
       <r>  -0.6387  1.0000</r>
       <r>  -0.4328  1.0000</r>
       <r>   0.2205  1.0000</r>
       <r>   0.8522  1.0000</r>
       <r>   0.9029  1.0000</r>
       <r>   1.0355  1.0000</r>
       <r>   1.0355  1.0000</r>
       <r>   1.2873  1.0000</r>
       <r>   1.6317  1.0000</r>
       <r>   2.0777  1.0000</r>
       <r>   2.1810  1.0000</r>
       <r>   2.2002  1.0000</r>
       <r>   2.2002  1.0000</r>
       <r>   2.8862  1.0000</r>
       <r>   2.8862  1.0000</r>
       <r>   2.9197  1.0000</r>
       <r>   5.1493  0.0000</r>
       <r>   5.1493  0.0000</r>
       <r>   8.2552  0.0000</r>
       <r>   9.3323  0.0000</r>
       <r>  12.3937  0.0000</r>
       <r>  12.3937  0.0000</r>
       <r>  12.8163  0.0000</r>
      </set>
      <set comment="kpoint 41">
       <r>  -2.4862  1.0000</r>
       <r>  -0.9769  1.0000</r>
       <r>  -0.8691  1.0000</r>
       <r>  -0.7534  1.0000</r>
       <r>  -0.4794  1.0000</r>
       <r>  -0.3687  1.0000</r>
       <r>  -0.2047  1.0000</r>
       <r>   0.1273  1.0000</r>
       <r>   0.5712  1.0000</r>
       <r>   0.7017  1.0000</r>
       <r>   0.8416  1.0000</r>
       <r>   0.9508  1.0000</r>
       <r>   1.0210  1.0000</r>
       <r>   1.6203  1.0000</r>
       <r>   1.8906  1.0000</r>
       <r>   1.9398  1.0000</r>
       <r>   2.0454  1.0000</r>
       <r>   2.4095  1.0000</r>
       <r>   2.6855  1.0000</r>
       <r>   2.8068  1.0000</r>
       <r>   2.8234  1.0000</r>
       <r>   4.2318  1.0000</r>
       <r>   5.7864  0.0000</r>
       <r>   8.1198  0.0000</r>
       <r>   9.3802  0.0000</r>
       <r>  11.6529  0.0000</r>
       <r>  12.8959  0.0000</r>
       <r>  13.2938  0.0000</r>
      </set>
      <set comment="kpoint 42">
       <r>  -1.9968  1.0000</r>
       <r>  -1.1296  1.0000</r>
       <r>  -0.6502  1.0000</r>
       <r>  -0.4794  1.0000</r>
       <r>  -0.3171  1.0000</r>
       <r>  -0.1828  1.0000</r>
       <r>  -0.0861  1.0000</r>
       <r>  -0.0087  1.0000</r>
       <r>   0.2797  1.0000</r>
       <r>   0.5342  1.0000</r>
       <r>   0.6282  1.0000</r>
       <r>   0.7396  1.0000</r>
       <r>   1.1858  1.0000</r>
       <r>   1.6581  1.0000</r>
       <r>   1.7412  1.0000</r>
       <r>   1.7692  1.0000</r>
       <r>   1.8575  1.0000</r>
       <r>   2.4027  1.0000</r>
       <r>   2.6985  1.0000</r>
       <r>   2.7556  1.0000</r>
       <r>   2.7620  1.0000</r>
       <r>   3.5410  1.0000</r>
       <r>   6.3974  0.0000</r>
       <r>   7.5660  0.0000</r>
       <r>   9.8904  0.0000</r>
       <r>  11.0113  0.0000</r>
       <r>  13.1782  0.0000</r>
       <r>  14.2107  0.0000</r>
      </set>
      <set comment="kpoint 43">
       <r>  -1.5064  1.0000</r>
       <r>  -1.5064  1.0000</r>
       <r>  -0.3914  1.0000</r>
       <r>  -0.3914  1.0000</r>
       <r>  -0.1925  1.0000</r>
       <r>  -0.1925  1.0000</r>
       <r>  -0.1616  1.0000</r>
       <r>  -0.1616  1.0000</r>
       <r>   0.3889  1.0000</r>
       <r>   0.3889  1.0000</r>
       <r>   0.5898  1.0000</r>
       <r>   0.5898  1.0000</r>
       <r>   1.3993  1.0000</r>
       <r>   1.3993  1.0000</r>
       <r>   1.7220  1.0000</r>
       <r>   1.7220  1.0000</r>
       <r>   2.0652  1.0000</r>
       <r>   2.0652  1.0000</r>
       <r>   2.7402  1.0000</r>
       <r>   2.7402  1.0000</r>
       <r>   3.0563  1.0000</r>
       <r>   3.0563  1.0000</r>
       <r>   6.9846  0.0000</r>
       <r>   6.9846  0.0000</r>
       <r>  10.4405  0.0000</r>
       <r>  10.4405  0.0000</r>
       <r>  13.6544  0.0000</r>
       <r>  13.6544  0.0000</r>
      </set>
      <set comment="kpoint 44">
       <r>  -2.1172  1.0000</r>
       <r>  -0.7915  1.0000</r>
       <r>  -0.7630  1.0000</r>
       <r>  -0.7630  1.0000</r>
       <r>  -0.1963  1.0000</r>
       <r>  -0.1963  1.0000</r>
       <r>  -0.0218  1.0000</r>
       <r>   0.1336  1.0000</r>
       <r>   0.3376  1.0000</r>
       <r>   0.3376  1.0000</r>
       <r>   0.7969  1.0000</r>
       <r>   0.7974  1.0000</r>
       <r>   1.0632  1.0000</r>
       <r>   1.6029  1.0000</r>
       <r>   1.7149  1.0000</r>
       <r>   1.8292  1.0000</r>
       <r>   1.8292  1.0000</r>
       <r>   2.5800  1.0000</r>
       <r>   2.5800  1.0000</r>
       <r>   2.6686  1.0000</r>
       <r>   2.7100  1.0000</r>
       <r>   4.8357  1.0000</r>
       <r>   4.8357  1.0000</r>
       <r>   7.4035  0.0000</r>
       <r>   9.8054  0.0000</r>
       <r>  12.3906  0.0000</r>
       <r>  12.3906  0.0000</r>
       <r>  13.1735  0.0000</r>
      </set>
      <set comment="kpoint 45">
       <r>  -1.6985  1.0000</r>
       <r>  -0.9390  1.0000</r>
       <r>  -0.6704  1.0000</r>
       <r>  -0.5730  1.0000</r>
       <r>  -0.0531  1.0000</r>
       <r>  -0.0089  1.0000</r>
       <r>   0.0461  1.0000</r>
       <r>   0.0941  1.0000</r>
       <r>   0.2072  1.0000</r>
       <r>   0.3091  1.0000</r>
       <r>   0.6353  1.0000</r>
       <r>   0.6851  1.0000</r>
       <r>   1.1575  1.0000</r>
       <r>   1.5704  1.0000</r>
       <r>   1.5813  1.0000</r>
       <r>   1.6872  1.0000</r>
       <r>   1.7187  1.0000</r>
       <r>   2.2945  1.0000</r>
       <r>   2.5091  1.0000</r>
       <r>   2.5524  1.0000</r>
       <r>   3.0781  1.0000</r>
       <r>   4.0870  1.0000</r>
       <r>   5.4347  0.0000</r>
       <r>   6.6897  0.0000</r>
       <r>  10.3541  0.0000</r>
       <r>  11.6147  0.0000</r>
       <r>  13.2021  0.0000</r>
       <r>  13.6328  0.0000</r>
      </set>
      <set comment="kpoint 46">
       <r>  -1.2809  1.0000</r>
       <r>  -1.2809  1.0000</r>
       <r>  -0.5464  1.0000</r>
       <r>  -0.5464  1.0000</r>
       <r>  -0.0231  1.0000</r>
       <r>  -0.0231  1.0000</r>
       <r>   0.0269  1.0000</r>
       <r>   0.0269  1.0000</r>
       <r>   0.4522  1.0000</r>
       <r>   0.4522  1.0000</r>
       <r>   0.4867  1.0000</r>
       <r>   0.4867  1.0000</r>
       <r>   1.3319  1.0000</r>
       <r>   1.3319  1.0000</r>
       <r>   1.5714  1.0000</r>
       <r>   1.5714  1.0000</r>
       <r>   1.9793  1.0000</r>
       <r>   1.9793  1.0000</r>
       <r>   2.4972  1.0000</r>
       <r>   2.4972  1.0000</r>
       <r>   3.5211  1.0000</r>
       <r>   3.5211  1.0000</r>
       <r>   6.0423  0.0000</r>
       <r>   6.0423  0.0000</r>
       <r>  10.9486  0.0000</r>
       <r>  10.9486  0.0000</r>
       <r>  14.0785  0.0000</r>
       <r>  14.0785  0.0000</r>
      </set>
      <set comment="kpoint 47">
       <r>  -1.3769  1.0000</r>
       <r>  -0.7882  1.0000</r>
       <r>  -0.7882  1.0000</r>
       <r>  -0.6843  1.0000</r>
       <r>   0.1245  1.0000</r>
       <r>   0.1545  1.0000</r>
       <r>   0.1545  1.0000</r>
       <r>   0.1635  1.0000</r>
       <r>   0.2755  1.0000</r>
       <r>   0.2755  1.0000</r>
       <r>   0.6234  1.0000</r>
       <r>   0.6355  1.0000</r>
       <r>   1.1505  1.0000</r>
       <r>   1.4287  1.0000</r>
       <r>   1.4614  1.0000</r>
       <r>   1.4614  1.0000</r>
       <r>   1.7658  1.0000</r>
       <r>   2.2309  1.0000</r>
       <r>   2.2309  1.0000</r>
       <r>   2.3688  1.0000</r>
       <r>   3.5178  1.0000</r>
       <r>   4.6495  1.0000</r>
       <r>   4.6495  1.0000</r>
       <r>   5.9138  0.0000</r>
       <r>  10.9209  0.0000</r>
       <r>  12.3247  0.0000</r>
       <r>  12.3247  0.0000</r>
       <r>  14.0244  0.0000</r>
      </set>
      <set comment="kpoint 48">
       <r>  -1.0653  1.0000</r>
       <r>  -1.0653  1.0000</r>
       <r>  -0.7097  1.0000</r>
       <r>  -0.7097  1.0000</r>
       <r>   0.1341  1.0000</r>
       <r>   0.1341  1.0000</r>
       <r>   0.1809  1.0000</r>
       <r>   0.1809  1.0000</r>
       <r>   0.4893  1.0000</r>
       <r>   0.4893  1.0000</r>
       <r>   0.5172  1.0000</r>
       <r>   0.5172  1.0000</r>
       <r>   1.2549  1.0000</r>
       <r>   1.2549  1.0000</r>
       <r>   1.3813  1.0000</r>
       <r>   1.3813  1.0000</r>
       <r>   1.9565  1.0000</r>
       <r>   1.9565  1.0000</r>
       <r>   2.2524  1.0000</r>
       <r>   2.2524  1.0000</r>
       <r>   4.0271  1.0000</r>
       <r>   4.0271  1.0000</r>
       <r>   5.2461  0.0000</r>
       <r>   5.2461  0.0000</r>
       <r>  11.5713  0.0000</r>
       <r>  11.5713  0.0000</r>
       <r>  13.1290  0.0000</r>
       <r>  13.1290  0.0000</r>
      </set>
      <set comment="kpoint 49">
       <r>  -0.8775  1.0000</r>
       <r>  -0.8775  1.0000</r>
       <r>  -0.8775  1.0000</r>
       <r>  -0.8775  1.0000</r>
       <r>   0.2097  1.0000</r>
       <r>   0.2097  1.0000</r>
       <r>   0.2097  1.0000</r>
       <r>   0.2097  1.0000</r>
       <r>   0.5479  1.0000</r>
       <r>   0.5479  1.0000</r>
       <r>   0.5479  1.0000</r>
       <r>   0.5479  1.0000</r>
       <r>   1.2452  1.0000</r>
       <r>   1.2452  1.0000</r>
       <r>   1.2452  1.0000</r>
       <r>   1.2452  1.0000</r>
       <r>   2.0519  1.0000</r>
       <r>   2.0519  1.0000</r>
       <r>   2.0519  1.0000</r>
       <r>   2.0519  1.0000</r>
       <r>   4.5887  1.0000</r>
       <r>   4.5887  1.0000</r>
       <r>   4.5887  1.0000</r>
       <r>   4.5887  1.0000</r>
       <r>  12.2960  0.0000</r>
       <r>  12.2960  0.0000</r>
       <r>  12.2960  0.0000</r>
       <r>  12.2960  0.0000</r>
      </set>
      <set comment="kpoint 50">
       <r>  -3.3751  1.0000</r>
       <r>  -1.2018  1.0000</r>
       <r>  -1.2018  1.0000</r>
       <r>  -1.2018  1.0000</r>
       <r>  -0.8121  1.0000</r>
       <r>  -0.8121  1.0000</r>
       <r>  -0.8121  1.0000</r>
       <r>   0.3587  1.0000</r>
       <r>   0.7674  1.0000</r>
       <r>   0.7674  1.0000</r>
       <r>   1.7197  1.0000</r>
       <r>   1.7197  1.0000</r>
       <r>   1.7197  1.0000</r>
       <r>   1.8605  1.0000</r>
       <r>   1.8605  1.0000</r>
       <r>   2.2666  1.0000</r>
       <r>   2.2666  1.0000</r>
       <r>   2.2666  1.0000</r>
       <r>   3.1048  1.0000</r>
       <r>   3.1048  1.0000</r>
       <r>   3.1048  1.0000</r>
       <r>   6.0368  0.0000</r>
       <r>   6.0368  0.0000</r>
       <r>   6.0368  0.0000</r>
       <r>  11.3239  0.0000</r>
       <r>  11.3239  0.0000</r>
       <r>  11.3239  0.0000</r>
       <r>  14.2939  0.0000</r>
      </set>
      <set comment="kpoint 51">
       <r>  -3.0505  1.0000</r>
       <r>  -1.1406  1.0000</r>
       <r>  -1.0708  1.0000</r>
       <r>  -1.0708  1.0000</r>
       <r>  -0.6751  1.0000</r>
       <r>  -0.5755  1.0000</r>
       <r>  -0.5755  1.0000</r>
       <r>   0.2970  1.0000</r>
       <r>   0.8232  1.0000</r>
       <r>   0.8324  1.0000</r>
       <r>   1.3019  1.0000</r>
       <r>   1.3019  1.0000</r>
       <r>   1.3377  1.0000</r>
       <r>   1.7770  1.0000</r>
       <r>   2.0180  1.0000</r>
       <r>   2.0199  1.0000</r>
       <r>   2.1024  1.0000</r>
       <r>   2.1024  1.0000</r>
       <r>   3.0530  1.0000</r>
       <r>   3.0530  1.0000</r>
       <r>   3.0641  1.0000</r>
       <r>   4.9096  0.9915</r>
       <r>   6.6170  0.0000</r>
       <r>   6.6170  0.0000</r>
       <r>  10.5730  0.0000</r>
       <r>  10.5730  0.0000</r>
       <r>  12.2546  0.0000</r>
       <r>  14.2296  0.0000</r>
      </set>
      <set comment="kpoint 52">
       <r>  -2.6231  1.0000</r>
       <r>  -1.1341  1.0000</r>
       <r>  -0.8749  1.0000</r>
       <r>  -0.8749  1.0000</r>
       <r>  -0.5010  1.0000</r>
       <r>  -0.3275  1.0000</r>
       <r>  -0.3275  1.0000</r>
       <r>   0.1748  1.0000</r>
       <r>   0.8570  1.0000</r>
       <r>   0.8754  1.0000</r>
       <r>   0.8754  1.0000</r>
       <r>   0.9372  1.0000</r>
       <r>   0.9464  1.0000</r>
       <r>   1.7576  1.0000</r>
       <r>   1.7939  1.0000</r>
       <r>   1.9419  1.0000</r>
       <r>   1.9419  1.0000</r>
       <r>   2.2105  1.0000</r>
       <r>   2.9650  1.0000</r>
       <r>   2.9780  1.0000</r>
       <r>   2.9780  1.0000</r>
       <r>   3.9259  1.0000</r>
       <r>   7.2212  0.0000</r>
       <r>   7.2212  0.0000</r>
       <r>   9.8661  0.0000</r>
       <r>   9.8661  0.0000</r>
       <r>  13.1818  0.0000</r>
       <r>  14.2685  0.0000</r>
      </set>
      <set comment="kpoint 53">
       <r>  -2.1309  1.0000</r>
       <r>  -1.2831  1.0000</r>
       <r>  -0.6260  1.0000</r>
       <r>  -0.6260  1.0000</r>
       <r>  -0.3187  1.0000</r>
       <r>  -0.2006  1.0000</r>
       <r>  -0.2006  1.0000</r>
       <r>   0.0200  1.0000</r>
       <r>   0.5827  1.0000</r>
       <r>   0.5827  1.0000</r>
       <r>   0.6963  1.0000</r>
       <r>   0.7826  1.0000</r>
       <r>   1.0855  1.0000</r>
       <r>   1.5042  1.0000</r>
       <r>   1.7759  1.0000</r>
       <r>   1.7759  1.0000</r>
       <r>   2.0297  1.0000</r>
       <r>   2.4197  1.0000</r>
       <r>   2.8146  1.0000</r>
       <r>   2.9210  1.0000</r>
       <r>   2.9210  1.0000</r>
       <r>   3.1146  1.0000</r>
       <r>   7.7734  0.0000</r>
       <r>   7.7734  0.0000</r>
       <r>   9.2723  0.0000</r>
       <r>   9.2723  0.0000</r>
       <r>  14.1312  0.0000</r>
       <r>  14.3513  0.0000</r>
      </set>
      <set comment="kpoint 54">
       <r>  -1.6451  1.0000</r>
       <r>  -1.6451  1.0000</r>
       <r>  -0.4006  1.0000</r>
       <r>  -0.4006  1.0000</r>
       <r>  -0.3056  1.0000</r>
       <r>  -0.3056  1.0000</r>
       <r>  -0.1462  1.0000</r>
       <r>  -0.1462  1.0000</r>
       <r>   0.5156  1.0000</r>
       <r>   0.5156  1.0000</r>
       <r>   0.6754  1.0000</r>
       <r>   0.6754  1.0000</r>
       <r>   1.2764  1.0000</r>
       <r>   1.2764  1.0000</r>
       <r>   1.6948  1.0000</r>
       <r>   1.6948  1.0000</r>
       <r>   2.4807  1.0000</r>
       <r>   2.4807  1.0000</r>
       <r>   2.6271  1.0000</r>
       <r>   2.6271  1.0000</r>
       <r>   2.9007  1.0000</r>
       <r>   2.9007  1.0000</r>
       <r>   8.0779  0.0000</r>
       <r>   8.0779  0.0000</r>
       <r>   8.9587  0.0000</r>
       <r>   8.9587  0.0000</r>
       <r>  14.3973  0.0000</r>
       <r>  14.3973  0.0000</r>
      </set>
      <set comment="kpoint 55">
       <r>  -2.7636  1.0000</r>
       <r>  -1.0379  1.0000</r>
       <r>  -1.0379  1.0000</r>
       <r>  -1.0123  1.0000</r>
       <r>  -0.4278  1.0000</r>
       <r>  -0.4278  1.0000</r>
       <r>  -0.3458  1.0000</r>
       <r>   0.3232  1.0000</r>
       <r>   0.8277  1.0000</r>
       <r>   0.8388  1.0000</r>
       <r>   0.9877  1.0000</r>
       <r>   0.9877  1.0000</r>
       <r>   1.1155  1.0000</r>
       <r>   1.8199  1.0000</r>
       <r>   1.8642  1.0000</r>
       <r>   1.8668  1.0000</r>
       <r>   1.8668  1.0000</r>
       <r>   2.1179  1.0000</r>
       <r>   3.0072  1.0000</r>
       <r>   3.0315  1.0000</r>
       <r>   3.0315  1.0000</r>
       <r>   5.4500  0.0000</r>
       <r>   5.4500  0.0000</r>
       <r>   7.1187  0.0000</r>
       <r>   9.6289  0.0000</r>
       <r>  11.2887  0.0000</r>
       <r>  11.2887  0.0000</r>
       <r>  14.3411  0.0000</r>
      </set>
      <set comment="kpoint 56">
       <r>  -2.3913  1.0000</r>
       <r>  -1.0690  1.0000</r>
       <r>  -0.8967  1.0000</r>
       <r>  -0.8840  1.0000</r>
       <r>  -0.2336  1.0000</r>
       <r>  -0.1858  1.0000</r>
       <r>  -0.1464  1.0000</r>
       <r>   0.2925  1.0000</r>
       <r>   0.6709  1.0000</r>
       <r>   0.6918  1.0000</r>
       <r>   0.8150  1.0000</r>
       <r>   0.8871  1.0000</r>
       <r>   0.8945  1.0000</r>
       <r>   1.6105  1.0000</r>
       <r>   1.6965  1.0000</r>
       <r>   1.7477  1.0000</r>
       <r>   1.8665  1.0000</r>
       <r>   2.3460  1.0000</r>
       <r>   2.9209  1.0000</r>
       <r>   2.9398  1.0000</r>
       <r>   2.9409  1.0000</r>
       <r>   4.4162  1.0000</r>
       <r>   6.0413  0.0000</r>
       <r>   7.6655  0.0000</r>
       <r>   8.7854  0.0000</r>
       <r>  10.4129  0.0000</r>
       <r>  12.0963  0.0000</r>
       <r>  14.5563  0.0000</r>
      </set>
      <set comment="kpoint 57">
       <r>  -1.9699  1.0000</r>
       <r>  -1.2348  1.0000</r>
       <r>  -0.7421  1.0000</r>
       <r>  -0.7093  1.0000</r>
       <r>  -0.1149  1.0000</r>
       <r>  -0.0955  1.0000</r>
       <r>  -0.0328  1.0000</r>
       <r>   0.2161  1.0000</r>
       <r>   0.5286  1.0000</r>
       <r>   0.5832  1.0000</r>
       <r>   0.7157  1.0000</r>
       <r>   0.7562  1.0000</r>
       <r>   1.0013  1.0000</r>
       <r>   1.3679  1.0000</r>
       <r>   1.5700  1.0000</r>
       <r>   1.6213  1.0000</r>
       <r>   2.0915  1.0000</r>
       <r>   2.6231  1.0000</r>
       <r>   2.7593  1.0000</r>
       <r>   2.8409  1.0000</r>
       <r>   2.8510  1.0000</r>
       <r>   3.5727  1.0000</r>
       <r>   6.6461  0.0000</r>
       <r>   7.8549  0.0000</r>
       <r>   8.4345  0.0000</r>
       <r>   9.6479  0.0000</r>
       <r>  12.9797  0.0000</r>
       <r>  14.8815  0.0000</r>
      </set>
      <set comment="kpoint 58">
       <r>  -1.5570  1.0000</r>
       <r>  -1.5570  1.0000</r>
       <r>  -0.6280  1.0000</r>
       <r>  -0.6280  1.0000</r>
       <r>  -0.1583  1.0000</r>
       <r>  -0.1583  1.0000</r>
       <r>   0.1155  1.0000</r>
       <r>   0.1155  1.0000</r>
       <r>   0.5691  1.0000</r>
       <r>   0.5691  1.0000</r>
       <r>   0.6899  1.0000</r>
       <r>   0.6899  1.0000</r>
       <r>   1.1607  1.0000</r>
       <r>   1.1607  1.0000</r>
       <r>   1.5327  1.0000</r>
       <r>   1.5327  1.0000</r>
       <r>   2.4533  1.0000</r>
       <r>   2.4533  1.0000</r>
       <r>   2.8119  1.0000</r>
       <r>   2.8119  1.0000</r>
       <r>   2.9851  1.0000</r>
       <r>   2.9851  1.0000</r>
       <r>   7.2614  0.0000</r>
       <r>   7.2614  0.0000</r>
       <r>   8.9796  0.0000</r>
       <r>   8.9796  0.0000</r>
       <r>  13.9136  0.0000</r>
       <r>  13.9136  0.0000</r>
      </set>
      <set comment="kpoint 59">
       <r>  -2.0976  1.0000</r>
       <r>  -0.9746  1.0000</r>
       <r>  -0.9746  1.0000</r>
       <r>  -0.8840  1.0000</r>
       <r>  -0.0116  1.0000</r>
       <r>   0.0186  1.0000</r>
       <r>   0.0186  1.0000</r>
       <r>   0.3874  1.0000</r>
       <r>   0.5098  1.0000</r>
       <r>   0.5098  1.0000</r>
       <r>   0.7911  1.0000</r>
       <r>   0.8837  1.0000</r>
       <r>   0.8967  1.0000</r>
       <r>   1.4949  1.0000</r>
       <r>   1.5119  1.0000</r>
       <r>   1.5119  1.0000</r>
       <r>   1.8860  1.0000</r>
       <r>   2.6319  1.0000</r>
       <r>   2.8233  1.0000</r>
       <r>   2.8359  1.0000</r>
       <r>   2.8359  1.0000</r>
       <r>   4.9792  0.0000</r>
       <r>   4.9792  0.0000</r>
       <r>   7.7228  0.0000</r>
       <r>   8.2955  0.0000</r>
       <r>  11.1188  0.0000</r>
       <r>  11.1188  0.0000</r>
       <r>  14.8022  0.0000</r>
      </set>
      <set comment="kpoint 60">
       <r>  -1.7715  1.0000</r>
       <r>  -1.1693  1.0000</r>
       <r>  -0.8820  1.0000</r>
       <r>  -0.8517  1.0000</r>
       <r>   0.0256  1.0000</r>
       <r>   0.0520  1.0000</r>
       <r>   0.2630  1.0000</r>
       <r>   0.4178  1.0000</r>
       <r>   0.4285  1.0000</r>
       <r>   0.6228  1.0000</r>
       <r>   0.7028  1.0000</r>
       <r>   0.9144  1.0000</r>
       <r>   0.9446  1.0000</r>
       <r>   1.2794  1.0000</r>
       <r>   1.3643  1.0000</r>
       <r>   1.4192  1.0000</r>
       <r>   2.0381  1.0000</r>
       <r>   2.6324  1.0000</r>
       <r>   2.7219  1.0000</r>
       <r>   2.7276  1.0000</r>
       <r>   2.9945  1.0000</r>
       <r>   4.1069  1.0000</r>
       <r>   5.5750  0.0000</r>
       <r>   6.9259  0.0000</r>
       <r>   8.8576  0.0000</r>
       <r>  10.2628  0.0000</r>
       <r>  11.9338  0.0000</r>
       <r>  13.7849  0.0000</r>
      </set>
      <set comment="kpoint 61">
       <r>  -1.4485  1.0000</r>
       <r>  -1.4485  1.0000</r>
       <r>  -0.8372  1.0000</r>
       <r>  -0.8372  1.0000</r>
       <r>   0.0160  1.0000</r>
       <r>   0.0160  1.0000</r>
       <r>   0.4125  1.0000</r>
       <r>   0.4125  1.0000</r>
       <r>   0.5095  1.0000</r>
       <r>   0.5095  1.0000</r>
       <r>   0.8393  1.0000</r>
       <r>   0.8393  1.0000</r>
       <r>   1.0832  1.0000</r>
       <r>   1.0832  1.0000</r>
       <r>   1.3425  1.0000</r>
       <r>   1.3425  1.0000</r>
       <r>   2.3335  1.0000</r>
[...]
       <r>   4.5788  1.0000</r>
       <r>   4.5788  1.0000</r>
       <r>   4.5788  1.0000</r>
       <r>  10.9691  0.0000</r>
       <r>  10.9691  0.0000</r>
       <r>  10.9691  0.0000</r>
       <r>  10.9691  0.0000</r>
      </set>
      <set comment="kpoint 65">
       <r>  -2.5346  1.0000</r>
       <r>  -1.0317  1.0000</r>
       <r>  -1.0317  1.0000</r>
       <r>  -1.0317  1.0000</r>
       <r>  -0.1948  1.0000</r>
       <r>  -0.1948  1.0000</r>
       <r>  -0.1948  1.0000</r>
       <r>   0.4575  1.0000</r>
       <r>   0.7995  1.0000</r>
       <r>   0.7995  1.0000</r>
       <r>   0.8968  1.0000</r>
       <r>   0.8968  1.0000</r>
       <r>   0.8968  1.0000</r>
       <r>   1.6155  1.0000</r>
       <r>   1.6155  1.0000</r>
       <r>   1.6155  1.0000</r>
       <r>   2.0581  1.0000</r>
       <r>   2.0581  1.0000</r>
       <r>   3.0537  1.0000</r>
       <r>   3.0537  1.0000</r>
       <r>   3.0537  1.0000</r>
       <r>   5.8946  0.0000</r>
       <r>   5.8946  0.0000</r>
       <r>   5.8946  0.0000</r>
       <r>  10.2067  0.0000</r>
       <r>  10.2067  0.0000</r>
       <r>  10.2067  0.0000</r>
       <r>  15.7922  0.0000</r>
      </set>
      <set comment="kpoint 66">
       <r>  -2.2428  1.0000</r>
       <r>  -1.1245  1.0000</r>
       <r>  -0.9844  1.0000</r>
       <r>  -0.9844  1.0000</r>
       <r>  -0.0294  1.0000</r>
       <r>  -0.0294  1.0000</r>
       <r>   0.0142  1.0000</r>
       <r>   0.5424  1.0000</r>
       <r>   0.7022  1.0000</r>
       <r>   0.7774  1.0000</r>
       <r>   0.8074  1.0000</r>
       <r>   0.8324  1.0000</r>
       <r>   0.8324  1.0000</r>
       <r>   1.3730  1.0000</r>
       <r>   1.4651  1.0000</r>
       <r>   1.4651  1.0000</r>
       <r>   2.1049  1.0000</r>
       <r>   2.3116  1.0000</r>
       <r>   2.9889  1.0000</r>
       <r>   2.9889  1.0000</r>
       <r>   3.0304  1.0000</r>
       <r>   4.7618  1.0000</r>
       <r>   6.4253  0.0000</r>
       <r>   6.4253  0.0000</r>
       <r>   9.2380  0.0000</r>
       <r>   9.2380  0.0000</r>
       <r>  10.9479  0.0000</r>
       <r>  14.7150  0.0000</r>
      </set>
      <set comment="kpoint 67">
       <r>  -1.9170  1.0000</r>
       <r>  -1.3159  1.0000</r>
       <r>  -0.9215  1.0000</r>
       <r>  -0.9215  1.0000</r>
       <r>  -0.0107  1.0000</r>
       <r>  -0.0107  1.0000</r>
       <r>   0.2591  1.0000</r>
       <r>   0.5469  1.0000</r>
       <r>   0.5830  1.0000</r>
       <r>   0.6960  1.0000</r>
       <r>   0.8703  1.0000</r>
       <r>   0.9020  1.0000</r>
       <r>   0.9020  1.0000</r>
       <r>   1.1593  1.0000</r>
       <r>   1.3633  1.0000</r>
       <r>   1.3633  1.0000</r>
       <r>   2.3991  1.0000</r>
       <r>   2.5559  1.0000</r>
       <r>   2.8988  1.0000</r>
       <r>   2.8988  1.0000</r>
       <r>   2.9329  1.0000</r>
       <r>   3.7758  1.0000</r>
       <r>   7.0080  0.0000</r>
       <r>   7.0080  0.0000</r>
       <r>   8.4023  0.0000</r>
       <r>   8.4023  0.0000</r>
       <r>  11.7962  0.0000</r>
       <r>  13.6909  0.0000</r>
      </set>
      <set comment="kpoint 68">
       <r>  -1.5936  1.0000</r>
       <r>  -1.5936  1.0000</r>
       <r>  -0.8901  1.0000</r>
       <r>  -0.8901  1.0000</r>
       <r>  -0.0357  1.0000</r>
       <r>  -0.0357  1.0000</r>
       <r>   0.4988  1.0000</r>
       <r>   0.4988  1.0000</r>
       <r>   0.5483  1.0000</r>
       <r>   0.5483  1.0000</r>
       <r>   0.9819  1.0000</r>
       <r>   0.9819  1.0000</r>
       <r>   0.9889  1.0000</r>
       <r>   0.9889  1.0000</r>
       <r>   1.3059  1.0000</r>
       <r>   1.3059  1.0000</r>
       <r>   2.7695  1.0000</r>
       <r>   2.7695  1.0000</r>
       <r>   2.8562  1.0000</r>
       <r>   2.8562  1.0000</r>
       <r>   2.9734  1.0000</r>
       <r>   2.9734  1.0000</r>
       <r>   7.5418  0.0000</r>
       <r>   7.5418  0.0000</r>
       <r>   7.7860  0.0000</r>
       <r>   7.7860  0.0000</r>
       <r>  12.7166  0.0000</r>
       <r>  12.7166  0.0000</r>
      </set>
      <set comment="kpoint 69">
       <r>  -2.0521  1.0000</r>
       <r>  -1.1443  1.0000</r>
       <r>  -1.1443  1.0000</r>
       <r>  -1.0528  1.0000</r>
       <r>   0.0675  1.0000</r>
       <r>   0.1404  1.0000</r>
       <r>   0.1404  1.0000</r>
       <r>   0.6923  1.0000</r>
       <r>   0.7547  1.0000</r>
       <r>   0.8207  1.0000</r>
       <r>   0.8207  1.0000</r>
       <r>   0.8647  1.0000</r>
       <r>   1.0306  1.0000</r>
       <r>   1.2402  1.0000</r>
       <r>   1.2402  1.0000</r>
       <r>   1.2550  1.0000</r>
       <r>   2.1784  1.0000</r>
       <r>   2.5229  1.0000</r>
       <r>   2.9520  1.0000</r>
       <r>   2.9862  1.0000</r>
       <r>   2.9862  1.0000</r>
       <r>   5.2323  0.0000</r>
       <r>   5.2323  0.0000</r>
       <r>   6.8786  0.0000</r>
       <r>   8.2269  0.0000</r>
       <r>   9.9191  0.0000</r>
       <r>   9.9191  0.0000</r>
       <r>  13.6115  0.0000</r>
      </set>
      <set comment="kpoint 70">
       <r>  -1.8314  1.0000</r>
       <r>  -1.3572  1.0000</r>
       <r>  -1.1399  1.0000</r>
       <r>  -1.0956  1.0000</r>
       <r>   0.1034  1.0000</r>
       <r>   0.1376  1.0000</r>
       <r>   0.3296  1.0000</r>
       <r>   0.6207  1.0000</r>
       <r>   0.7767  1.0000</r>
       <r>   0.8554  1.0000</r>
       <r>   1.0043  1.0000</r>
       <r>   1.0082  1.0000</r>
       <r>   1.0550  1.0000</r>
       <r>   1.1277  1.0000</r>
       <r>   1.2077  1.0000</r>
       <r>   1.2118  1.0000</r>
       <r>   2.3649  1.0000</r>
       <r>   2.8611  1.0000</r>
       <r>   2.8714  1.0000</r>
       <r>   2.8887  1.0000</r>
       <r>   2.8899  1.0000</r>
       <r>   4.1935  1.0000</r>
       <r>   5.7851  0.0000</r>
       <r>   7.0249  0.0000</r>
       <r>   7.7575  0.0000</r>
       <r>   9.0286  0.0000</r>
       <r>  10.7226  0.0000</r>
       <r>  12.5781  0.0000</r>
      </set>
      <set comment="kpoint 71">
       <r>  -1.5941  1.0000</r>
       <r>  -1.5941  1.0000</r>
       <r>  -1.1225  1.0000</r>
       <r>  -1.1225  1.0000</r>
       <r>   0.1154  1.0000</r>
       <r>   0.1154  1.0000</r>
       <r>   0.4967  1.0000</r>
       <r>   0.4967  1.0000</r>
       <r>   0.8496  1.0000</r>
       <r>   0.8496  1.0000</r>
       <r>   0.9923  1.0000</r>
       <r>   0.9923  1.0000</r>
       <r>   1.0812  1.0000</r>
       <r>   1.0812  1.0000</r>
       <r>   1.2601  1.0000</r>
       <r>   1.2601  1.0000</r>
       <r>   2.6765  1.0000</r>
       <r>   2.6765  1.0000</r>
       <r>   2.8320  1.0000</r>
       <r>   2.8320  1.0000</r>
       <r>   3.3803  1.0000</r>
       <r>   3.3803  1.0000</r>
       <r>   6.4089  0.0000</r>
       <r>   6.4089  0.0000</r>
       <r>   8.2794  0.0000</r>
       <r>   8.2794  0.0000</r>
       <r>  11.6140  0.0000</r>
       <r>  11.6140  0.0000</r>
      </set>
      <set comment="kpoint 72">
       <r>  -1.7090  1.0000</r>
       <r>  -1.3562  1.0000</r>
       <r>  -1.3562  1.0000</r>
       <r>  -1.2262  1.0000</r>
       <r>   0.2011  1.0000</r>
       <r>   0.3048  1.0000</r>
       <r>   0.3048  1.0000</r>
       <r>   0.5695  1.0000</r>
       <r>   0.7428  1.0000</r>
       <r>   0.9157  1.0000</r>
       <r>   0.9157  1.0000</r>
       <r>   0.9794  1.0000</r>
       <r>   1.2813  1.0000</r>
       <r>   1.2813  1.0000</r>
       <r>   1.3313  1.0000</r>
       <r>   1.4307  1.0000</r>
       <r>   2.3628  1.0000</r>
       <r>   2.7767  1.0000</r>
       <r>   2.7767  1.0000</r>
       <r>   2.7835  1.0000</r>
       <r>   3.3044  1.0000</r>
       <r>   4.7326  1.0000</r>
       <r>   4.7326  1.0000</r>
       <r>   6.1668  0.0000</r>
       <r>   8.2553  0.0000</r>
       <r>   9.7749  0.0000</r>
       <r>   9.7749  0.0000</r>
       <r>  11.5542  0.0000</r>
      </set>
      <set comment="kpoint 73">
       <r>  -1.5493  1.0000</r>
       <r>  -1.5493  1.0000</r>
       <r>  -1.3128  1.0000</r>
       <r>  -1.3128  1.0000</r>
       <r>   0.2655  1.0000</r>
       <r>   0.2655  1.0000</r>
       <r>   0.4574  1.0000</r>
       <r>   0.4574  1.0000</r>
       <r>   0.7974  1.0000</r>
       <r>   0.7974  1.0000</r>
       <r>   0.9110  1.0000</r>
       <r>   0.9110  1.0000</r>
       <r>   1.3905  1.0000</r>
       <r>   1.3905  1.0000</r>
       <r>   1.4805  1.0000</r>
       <r>   1.4805  1.0000</r>
       <r>   2.5593  1.0000</r>
       <r>   2.5593  1.0000</r>
       <r>   2.7212  1.0000</r>
       <r>   2.7212  1.0000</r>
       <r>   3.9018  1.0000</r>
       <r>   3.9018  1.0000</r>
       <r>   5.3816  0.0000</r>
       <r>   5.3816  0.0000</r>
       <r>   8.9534  0.0000</r>
       <r>   8.9534  0.0000</r>
       <r>  10.6195  0.0000</r>
       <r>  10.6195  0.0000</r>
      </set>
      <set comment="kpoint 74">
       <r>  -1.4557  1.0000</r>
       <r>  -1.4557  1.0000</r>
       <r>  -1.4557  1.0000</r>
       <r>  -1.4557  1.0000</r>
       <r>   0.3861  1.0000</r>
       <r>   0.3861  1.0000</r>
       <r>   0.3861  1.0000</r>
       <r>   0.3861  1.0000</r>
       <r>   0.8093  1.0000</r>
       <r>   0.8093  1.0000</r>
       <r>   0.8093  1.0000</r>
       <r>   0.8093  1.0000</r>
       <r>   1.5746  1.0000</r>
       <r>   1.5746  1.0000</r>
       <r>   1.5746  1.0000</r>
       <r>   1.5746  1.0000</r>
       <r>   2.5765  1.0000</r>
       <r>   2.5765  1.0000</r>
       <r>   2.5765  1.0000</r>
       <r>   2.5765  1.0000</r>
       <r>   4.5501  1.0000</r>
       <r>   4.5501  1.0000</r>
       <r>   4.5501  1.0000</r>
       <r>   4.5501  1.0000</r>
       <r>   9.7337  0.0000</r>
       <r>   9.7337  0.0000</r>
       <r>   9.7337  0.0000</r>
       <r>   9.7337  0.0000</r>
      </set>
      <set comment="kpoint 75">
       <r>  -1.9707  1.0000</r>
       <r>  -1.2660  1.0000</r>
       <r>  -1.2660  1.0000</r>
       <r>  -1.2660  1.0000</r>
       <r>   0.2027  1.0000</r>
       <r>   0.2027  1.0000</r>
       <r>   0.2027  1.0000</r>
       <r>   0.6858  1.0000</r>
       <r>   0.6858  1.0000</r>
       <r>   1.0370  1.0000</r>
       <r>   1.0370  1.0000</r>
       <r>   1.0370  1.0000</r>
       <r>   1.1878  1.0000</r>
       <r>   1.1878  1.0000</r>
       <r>   1.1878  1.0000</r>
       <r>   1.3000  1.0000</r>
       <r>   2.4560  1.0000</r>
       <r>   2.4560  1.0000</r>
       <r>   3.0126  1.0000</r>
       <r>   3.0126  1.0000</r>
       <r>   3.0126  1.0000</r>
       <r>   5.5826  0.0000</r>
       <r>   5.5826  0.0000</r>
       <r>   5.5826  0.0000</r>
       <r>   8.8760  0.0000</r>
       <r>   8.8760  0.0000</r>
       <r>   8.8760  0.0000</r>
       <r>  12.4931  0.0000</r>
      </set>
      <set comment="kpoint 76">
       <r>  -1.8478  1.0000</r>
       <r>  -1.4849  1.0000</r>
       <r>  -1.3388  1.0000</r>
       <r>  -1.3388  1.0000</r>
       <r>   0.2306  1.0000</r>
       <r>   0.2306  1.0000</r>
       <r>   0.3571  1.0000</r>
       <r>   0.6108  1.0000</r>
       <r>   0.6809  1.0000</r>
       <r>   0.8615  1.0000</r>
       <r>   0.9230  1.0000</r>
       <r>   0.9230  1.0000</r>
       <r>   1.3621  1.0000</r>
       <r>   1.4985  1.0000</r>
       <r>   1.4985  1.0000</r>
       <r>   1.5861  1.0000</r>
       <r>   2.6970  1.0000</r>
       <r>   2.7006  1.0000</r>
       <r>   2.9539  1.0000</r>
       <r>   2.9539  1.0000</r>
       <r>   2.9890  1.0000</r>
       <r>   4.4227  1.0000</r>
       <r>   5.9708  0.0000</r>
       <r>   5.9708  0.0000</r>
       <r>   8.0668  0.0000</r>
       <r>   8.0668  0.0000</r>
       <r>   9.6430  0.0000</r>
       <r>  11.4580  0.0000</r>
      </set>
      <set comment="kpoint 77">
       <r>  -1.6838  1.0000</r>
       <r>  -1.6838  1.0000</r>
       <r>  -1.3629  1.0000</r>
       <r>  -1.3629  1.0000</r>
       <r>   0.2375  1.0000</r>
       <r>   0.2375  1.0000</r>
       <r>   0.4990  1.0000</r>
       <r>   0.4990  1.0000</r>
       <r>   0.7405  1.0000</r>
       <r>   0.7405  1.0000</r>
       <r>   0.8862  1.0000</r>
       <r>   0.8862  1.0000</r>
       <r>   1.5293  1.0000</r>
       <r>   1.5293  1.0000</r>
       <r>   1.6315  1.0000</r>
       <r>   1.6315  1.0000</r>
       <r>   2.8804  1.0000</r>
       <r>   2.8804  1.0000</r>
       <r>   2.9091  1.0000</r>
       <r>   2.9091  1.0000</r>
       <r>   3.4296  1.0000</r>
       <r>   3.4296  1.0000</r>
       <r>   6.1891  0.0000</r>
       <r>   6.1891  0.0000</r>
       <r>   7.7069  0.0000</r>
       <r>   7.7069  0.0000</r>
       <r>  10.5071  0.0000</r>
       <r>  10.5071  0.0000</r>
      </set>
      <set comment="kpoint 78">
       <r>  -1.8076  1.0000</r>
       <r>  -1.5480  1.0000</r>
       <r>  -1.5480  1.0000</r>
       <r>  -1.4745  1.0000</r>
       <r>   0.3102  1.0000</r>
       <r>   0.3689  1.0000</r>
       <r>   0.3689  1.0000</r>
       <r>   0.5846  1.0000</r>
       <r>   0.6210  1.0000</r>
       <r>   0.7620  1.0000</r>
       <r>   0.7620  1.0000</r>
       <r>   0.7887  1.0000</r>
       <r>   1.7760  1.0000</r>
       <r>   1.7760  1.0000</r>
       <r>   1.8335  1.0000</r>
       <r>   2.0659  1.0000</r>
       <r>   2.6234  1.0000</r>
       <r>   2.9256  1.0000</r>
       <r>   2.9426  1.0000</r>
       <r>   2.9426  1.0000</r>
       <r>   3.1138  1.0000</r>
       <r>   4.8189  1.0000</r>
       <r>   4.8189  1.0000</r>
       <r>   5.8434  0.0000</r>
       <r>   7.7042  0.0000</r>
       <r>   8.7325  0.0000</r>
       <r>   8.7325  0.0000</r>
       <r>  10.4406  0.0000</r>
      </set>
      <set comment="kpoint 79">
       <r>  -1.7069  1.0000</r>
       <r>  -1.7069  1.0000</r>
       <r>  -1.5445  1.0000</r>
       <r>  -1.5445  1.0000</r>
       <r>   0.3575  1.0000</r>
       <r>   0.3575  1.0000</r>
       <r>   0.4930  1.0000</r>
       <r>   0.4930  1.0000</r>
       <r>   0.6580  1.0000</r>
       <r>   0.6580  1.0000</r>
       <r>   0.7334  1.0000</r>
       <r>   0.7334  1.0000</r>
       <r>   1.9709  1.0000</r>
       <r>   1.9709  1.0000</r>
       <r>   2.0193  1.0000</r>
       <r>   2.0193  1.0000</r>
       <r>   2.8153  1.0000</r>
       <r>   2.8153  1.0000</r>
       <r>   2.8857  1.0000</r>
       <r>   2.8857  1.0000</r>
       <r>   3.8236  1.0000</r>
       <r>   3.8236  1.0000</r>
       <r>   5.3414  0.0000</r>
       <r>   5.3414  0.0000</r>
       <r>   8.0375  0.0000</r>
       <r>   8.0375  0.0000</r>
       <r>   9.5305  0.0000</r>
       <r>   9.5305  0.0000</r>
      </set>
      <set comment="kpoint 80">
       <r>  -1.6603  1.0000</r>
       <r>  -1.6603  1.0000</r>
       <r>  -1.6603  1.0000</r>
       <r>  -1.6603  1.0000</r>
       <r>   0.4519  1.0000</r>
       <r>   0.4519  1.0000</r>
       <r>   0.4519  1.0000</r>
       <r>   0.4519  1.0000</r>
       <r>   0.6494  1.0000</r>
       <r>   0.6494  1.0000</r>
       <r>   0.6494  1.0000</r>
       <r>   0.6494  1.0000</r>
       <r>   2.1848  1.0000</r>
       <r>   2.1848  1.0000</r>
       <r>   2.1848  1.0000</r>
       <r>   2.1848  1.0000</r>
       <r>   2.7884  1.0000</r>
       <r>   2.7884  1.0000</r>
       <r>   2.7884  1.0000</r>
       <r>   2.7884  1.0000</r>
       <r>   4.4829  1.0000</r>
       <r>   4.4829  1.0000</r>
       <r>   4.4829  1.0000</r>
       <r>   4.4829  1.0000</r>
       <r>   8.6980  0.0000</r>
       <r>   8.6980  0.0000</r>
       <r>   8.6980  0.0000</r>
       <r>   8.6980  0.0000</r>
      </set>
      <set comment="kpoint 81">
       <r>  -1.8348  1.0000</r>
       <r>  -1.6650  1.0000</r>
       <r>  -1.6650  1.0000</r>
       <r>  -1.6650  1.0000</r>
       <r>   0.4194  1.0000</r>
       <r>   0.4194  1.0000</r>
       <r>   0.4194  1.0000</r>
       <r>   0.5639  1.0000</r>
       <r>   0.5639  1.0000</r>
       <r>   0.6506  1.0000</r>
       <r>   0.6506  1.0000</r>
       <r>   0.6506  1.0000</r>
       <r>   2.2128  1.0000</r>
       <r>   2.2128  1.0000</r>
       <r>   2.2128  1.0000</r>
       <r>   2.8260  1.0000</r>
       <r>   2.8260  1.0000</r>
       <r>   2.9662  1.0000</r>
       <r>   2.9846  1.0000</r>
       <r>   2.9846  1.0000</r>
       <r>   2.9846  1.0000</r>
       <r>   4.9240  0.6335</r>
       <r>   4.9240  0.6335</r>
       <r>   4.9240  0.6335</r>
       <r>   7.9897  0.0000</r>
       <r>   7.9897  0.0000</r>
       <r>   7.9897  0.0000</r>
       <r>   9.4593  0.0000</r>
      </set>
      <set comment="kpoint 82">
       <r>  -1.7869  1.0000</r>
       <r>  -1.7869  1.0000</r>
       <r>  -1.7044  1.0000</r>
       <r>  -1.7044  1.0000</r>
       <r>   0.4406  1.0000</r>
       <r>   0.4406  1.0000</r>
       <r>   0.5078  1.0000</r>
       <r>   0.5078  1.0000</r>
       <r>   0.5741  1.0000</r>
       <r>   0.5741  1.0000</r>
       <r>   0.6095  1.0000</r>
       <r>   0.6095  1.0000</r>
       <r>   2.4153  1.0000</r>
       <r>   2.4153  1.0000</r>
       <r>   2.5569  1.0000</r>
       <r>   2.5569  1.0000</r>
       <r>   2.9506  1.0000</r>
       <r>   2.9506  1.0000</r>
       <r>   2.9573  1.0000</r>
       <r>   2.9573  1.0000</r>
       <r>   3.8985  1.0000</r>
       <r>   3.8985  1.0000</r>
       <r>   4.9794  0.0000</r>
       <r>   4.9794  0.0000</r>
       <r>   7.7081  0.0000</r>
       <r>   7.7081  0.0000</r>
       <r>   8.6295  0.0000</r>
       <r>   8.6295  0.0000</r>
      </set>
      <set comment="kpoint 83">
       <r>  -1.7861  1.0000</r>
       <r>  -1.7861  1.0000</r>
       <r>  -1.7861  1.0000</r>
       <r>  -1.7861  1.0000</r>
       <r>   0.4987  1.0000</r>
       <r>   0.4987  1.0000</r>
       <r>   0.4987  1.0000</r>
       <r>   0.4987  1.0000</r>
       <r>   0.5496  1.0000</r>
       <r>   0.5496  1.0000</r>
       <r>   0.5496  1.0000</r>
       <r>   0.5496  1.0000</r>
       <r>   2.7252  1.0000</r>
       <r>   2.7252  1.0000</r>
       <r>   2.7252  1.0000</r>
       <r>   2.7252  1.0000</r>
       <r>   2.9267  1.0000</r>
       <r>   2.9267  1.0000</r>
       <r>   2.9267  1.0000</r>
       <r>   2.9267  1.0000</r>
       <r>   4.3637  1.0000</r>
       <r>   4.3637  1.0000</r>
       <r>   4.3637  1.0000</r>
       <r>   4.3637  1.0000</r>
       <r>   7.9792  0.0000</r>
       <r>   7.9792  0.0000</r>
       <r>   7.9792  0.0000</r>
       <r>   7.9792  0.0000</r>
      </set>
      <set comment="kpoint 84">
       <r>  -1.8285  1.0000</r>
       <r>  -1.8285  1.0000</r>
       <r>  -1.8285  1.0000</r>
       <r>  -1.8285  1.0000</r>
       <r>   0.5158  1.0000</r>
       <r>   0.5158  1.0000</r>
       <r>   0.5158  1.0000</r>
       <r>   0.5158  1.0000</r>
       <r>   0.5158  1.0000</r>
       <r>   0.5158  1.0000</r>
       <r>   0.5158  1.0000</r>
       <r>   0.5158  1.0000</r>
       <r>   2.9747  1.0000</r>
       <r>   2.9747  1.0000</r>
       <r>   2.9747  1.0000</r>
       <r>   2.9747  1.0000</r>
       <r>   2.9747  1.0000</r>
       <r>   2.9747  1.0000</r>
       <r>   2.9747  1.0000</r>
       <r>   2.9747  1.0000</r>
       <r>   4.2778  1.0000</r>
       <r>   4.2778  1.0000</r>
       <r>   4.2778  1.0000</r>
       <r>   4.2778  1.0000</r>
       <r>   7.7161  0.0000</r>
       <r>   7.7161  0.0000</r>
       <r>   7.7161  0.0000</r>
       <r>   7.7161  0.0000</r>
      </set>
     </set>
    </set>
   </array>
  </eigenvalues>
 </calculation>
 <structure name="finalpos" >
  <crystal>
   <varray name="basis" >
    <v>       4.17285190      0.00000000      0.00000000</v>
    <v>       0.00000000      4.17285190      0.00000000</v>
    <v>       0.00000000      0.00000000      4.17285190</v>
   </varray>
   <i name="volume">     72.66058910</i>
   <varray name="rec_basis" >
    <v>       0.23964426      0.00000000      0.00000000</v>
    <v>       0.00000000      0.23964426      0.00000000</v>
    <v>       0.00000000      0.00000000      0.23964426</v>
   </varray>
  </crystal>
  <varray name="positions" >
   <v>       0.00000000      0.00000000      0.00000000</v>
   <v>       0.50000000      0.50000000      0.00000000</v>
   <v>       0.50000000      0.00000000      0.50000000</v>
   <v>       0.00000000      0.50000000      0.50000000</v>
  </varray>
 </structure>
</modeling>
