       N       E                     dE             d eps       ncg     rms          rms(c)
RMM:   1    -0.107268759694E+03   -0.10727E+03   -0.66844E+02 17630   0.443E+01    0.853E+00
RMM:   2    -0.104517539219E+03    0.27512E+01   -0.12492E+01 17997   0.100E+01    0.146E+00
RMM:   3    -0.104528575047E+03   -0.11036E-01   -0.91889E-01 18551   0.219E+00    0.782E-01
RMM:   4    -0.104531885838E+03   -0.33108E-02   -0.38052E-02 18673   0.300E-01    0.315E-01
RMM:   5    -0.104532466629E+03   -0.58079E-03   -0.25505E-03 18396   0.136E-01    0.762E-02
RMM:   6    -0.104532316268E+03    0.15036E-03   -0.10972E-03 18261   0.100E-01    0.137E-02
RMM:   7    -0.104532312233E+03    0.40346E-05   -0.57817E-05 13607   0.125E-02
   1 F= -.10453231E+03 E0= -.10453513E+03  d E =0.844507E-02
