 running on    4 nodes
 distr:  one band on    1 nodes,    4 groups
 vasp.4.6.28 25Jul05 complex 
 POSCAR found :  1 types and   32 ions

 ----------------------------------------------------------------------------- 
|                                                                             |
|  ADVICE TO THIS USER RUNNING 'VASP/VAMP'   (HEAR YOUR MASTER'S VOICE ...):  |
|                                                                             |
|      You have a (more or less) 'large supercell' and for larger cells       |
|      it might be more efficient to use real space projection operators      |
|      So try LREAL= Auto  in the INCAR   file.                               |
|      Mind: If you want to do an extremely accurate calculations keep the    |
|      reciprocal projection scheme          (i.e. LREAL=.FALSE.)             |
|                                                                             |
 ----------------------------------------------------------------------------- 

 LDA part: xc-table for Pade appr. of Perdew
 found WAVECAR, reading the header
  number of k-points has changed, file:  20 present:  40
  trying to continue reading WAVECAR, but it might fail
 POSCAR, INCAR and KPOINTS ok, starting setup
 FFT: planning ...           1
 reading WAVECAR
 the WAVECAR file was read sucessfully
 initial charge from wavefunction
 entering main loop
       N       E                     dE             d eps       ncg     rms          rms(c)
RMM:   1    -0.107268358509E+03   -0.10727E+03   -0.66845E+02 17631   0.443E+01BRMIX: very serious problems
 the old and the new charge density differ
 old charge density:   344.27803 new  352.00000
    0.853E+00
RMM:   2    -0.104517681213E+03    0.27507E+01   -0.12490E+01 17999   0.100E+01    0.146E+00
RMM:   3    -0.104528574092E+03   -0.10893E-01   -0.91749E-01 18536   0.218E+00    0.782E-01
RMM:   4    -0.104531883283E+03   -0.33092E-02   -0.38079E-02 18690   0.299E-01    0.321E-01
RMM:   5    -0.104532471301E+03   -0.58802E-03   -0.26199E-03 18379   0.138E-01    0.771E-02
RMM:   6    -0.104532316088E+03    0.15521E-03   -0.11174E-03 18256   0.101E-01    0.136E-02
RMM:   7    -0.104532312269E+03    0.38190E-05   -0.58578E-05 13645   0.125E-02
   1 F= -.10453231E+03 E0= -.10453513E+03  d E =0.844505E-02

 ----------------------------------------------------------------------------- 
|                                                                             |
|           W    W    AA    RRRRR   N    N  II  N    N   GGGG   !!!           |
|           W    W   A  A   R    R  NN   N  II  NN   N  G    G  !!!           |
|           W    W  A    A  R    R  N N  N  II  N N  N  G       !!!           |
|           W WW W  AAAAAA  RRRRR   N  N N  II  N  N N  G  GGG   !            |
|           WW  WW  A    A  R   R   N   NN  II  N   NN  G    G                |
|           W    W  A    A  R    R  N    N  II  N    N   GGGG   !!!           |
|                                                                             |
|      The partial DOS and the PROCAR file are not evaluated for NPAR/=1      |
|      please rerun with NPAR=1                                               |
|                                                                             |
 ----------------------------------------------------------------------------- 

