 vasp.4.6.28 25Jul05 complex 
 executed on             LinuxIFC date 2017.01.24  12:35:26
 running on    4 nodes
 distr:  one band on    1 nodes,    4 groups


--------------------------------------------------------------------------------------------------------


 INCAR:
 POTCAR:   PAW_PBE Au 06Sep2000                   
 POTCAR:   PAW_PBE Au 06Sep2000                   
   VRHFIN =Au: s1d10                                                            
   LEXCH  = PE                                                                  
   EATOM  =   926.0567 eV,   68.0632 Ry                                         
                                                                                
   TITEL  = PAW_PBE Au 06Sep2000                                                
   LULTRA =        F    use ultrasoft PP ?                                      
   IUNSCR =        1    unscreen: 0-lin 1-nonlin 2-no                           
   RPACOR =    2.330    partial core radius                                     
   POMASS =  196.966; ZVAL   =   11.000    mass and valenz                      
   RCORE  =    2.500    outmost cutoff radius                                   
   RWIGS  =    2.840; RWIGS  =    1.503    wigner-seitz radius (au A)           
   ENMAX  =  229.948; ENMIN  =  172.461 eV                                      
   RCLOC  =    1.964    cutoff for local pot                                    
   LCOR   =        T    correct aug charges                                     
   LPAW   =        T    paw PP                                                  
   EAUG   =  356.670                                                            
   DEXC   =    -.025                                                            
   RMAX   =    3.041    core radius for proj-oper                               
   RAUG   =    1.300    factor for augmentation sphere                          
   RDEP   =    2.598    radius for radial grids                                 
   QCUT   =   -4.111; QGAM   =    8.222    optimization parameters              
                                                                                
   Description                                                                  
     l     E      TYP  RCUT    TYP  RCUT                                        
     2   .000     23  2.500                                                     
     2   .000     23  2.500                                                     
     0   .000     23  2.500                                                     
     0   .000     23  2.500                                                     
     1  -.200     23  2.500                                                     
     1   .000     23  2.500                                                     
     3   .000      7   .000                                                     
  local pseudopotential read in
  partial core-charges read in
  atomic valenz-charges read in
  non local Contribution for L=           2  read in
    real space projection operators read in
  non local Contribution for L=           2  read in
    real space projection operators read in
  non local Contribution for L=           0  read in
    real space projection operators read in
  non local Contribution for L=           0  read in
    real space projection operators read in
  non local Contribution for L=           1  read in
    real space projection operators read in
  non local Contribution for L=           1  read in
    real space projection operators read in
    PAW grid and wavefunctions read in
 
   number of l-projection  operators is LMAX  =           6
   number of lm-projection operators is LMMAX =          18
 

 ----------------------------------------------------------------------------- 
|                                                                             |
|  ADVICE TO THIS USER RUNNING 'VASP/VAMP'   (HEAR YOUR MASTER'S VOICE ...):  |
|                                                                             |
|      You have a (more or less) 'large supercell' and for larger cells       |
|      it might be more efficient to use real space projection operators      |
|      So try LREAL= Auto  in the INCAR   file.                               |
|      Mind: If you want to do an extremely accurate calculations keep the    |
|      reciprocal projection scheme          (i.e. LREAL=.FALSE.)             |
|                                                                             |
 ----------------------------------------------------------------------------- 

 PAW_PBE Au 06Sep2000                   :
 energy of atom  1       EATOM= -926.0567
 kinetic energy error for atom=    0.0013 (will be added to EATOM!!)
 
 EXHCAR: internal setup
 exchange correlation table for  LEXCH =        8
   RHO(1)=    0.500       N(1)  =     2000
   RHO(2)=  100.500       N(2)  =     4000
 
 POSCAR: No title                                
  positions in direct lattice
  No initial velocities read in
 


--------------------------------------------------------------------------------------------------------


 ion  position               nearest neighbor table
   1  0.750  0.750  0.500-   3 2.98   5 2.98  14 2.98  19 2.98  20 2.98  26 2.98  11 2.98   6 2.98
                            18 2.98  29 2.98  10 2.98   8 2.98
   2  0.750  0.750  0.000-   8 2.98  10 2.98  11 2.98  18 2.98  22 2.98  27 2.98  12 2.98  26 2.98
                             5 2.98  32 2.98   3 2.98  20 2.98
   3  0.750  0.000  0.250-   1 2.98   5 2.98   9 2.98  12 2.98  19 2.98  28 2.98  18 2.98   6 2.98
                            27 2.98  13 2.98   4 2.98   2 2.98
   4  0.750  0.250  0.500-   6 2.98   8 2.98  10 2.98  13 2.98  29 2.98  31 2.98  21 2.98  28 2.98
                            14 2.98  19 2.98   3 2.98  20 2.98
   5  0.000  0.750  0.250-   1 2.98   3 2.98  12 2.98  14 2.98  15 2.98  25 2.98   7 2.98  10 2.98
                            16 2.98   2 2.98  22 2.98   6 2.98
   6  0.000  0.000  0.500-   4 2.98   7 2.98   8 2.98  11 2.98  13 2.98  16 2.98   1 2.98   3 2.98
                            17 2.98  23 2.98  21 2.98   5 2.98
   7  0.250  0.750  0.500-   6 2.98  11 2.98  16 2.98  18 2.98  29 2.98  30 2.98  19 2.98  26 2.98
                             5 2.98  14 2.98  25 2.98  23 2.98
   8  0.750  0.000  0.750-   2 2.98   4 2.98   6 2.98  11 2.98  27 2.98  31 2.98  21 2.98  26 2.98
                            12 2.98  19 2.98   9 2.98   1 2.98
   9  0.750  0.250  0.000-   3 2.98  12 2.98  20 2.98  21 2.98  28 2.98  32 2.98  27 2.98  13 2.98
                            31 2.98  22 2.98  10 2.98   8 2.98
  10  0.750  0.500  0.250-   2 2.98   4 2.98  13 2.98  18 2.98  22 2.98  29 2.98  14 2.98  28 2.98
                             5 2.98  32 2.98   9 2.98   1 2.98
  11  0.000  0.750  0.750-   2 2.98   6 2.98   7 2.98   8 2.98  22 2.98  30 2.98  20 2.98   1 2.98
                            23 2.98  15 2.98  14 2.98  12 2.98
  12  0.000  0.000  0.000-   3 2.98   5 2.98   9 2.98  15 2.98  21 2.98  23 2.98  16 2.98   2 2.98
                             8 2.98  24 2.98  13 2.98  11 2.98
  13  0.000  0.250  0.250-   4 2.98   6 2.98  10 2.98  16 2.98  22 2.98  24 2.98  17 2.98   3 2.98
                             9 2.98  25 2.98  14 2.98  12 2.98
  14  0.000  0.500  0.500-   1 2.98   5 2.98  17 2.98  20 2.98  21 2.98  25 2.98   7 2.98  10 2.98
                             4 2.98  30 2.98  13 2.98  11 2.98
  15  0.250  0.750  0.000-   5 2.98  12 2.98  23 2.98  25 2.98  26 2.98  32 2.98  18 2.98  22 2.98
                            27 2.98  11 2.98  30 2.98  16 2.98
  16  0.250  0.000  0.250-   6 2.98   7 2.98  13 2.98  18 2.98  24 2.98  27 2.98  19 2.98   5 2.98
                            12 2.98  28 2.98  17 2.98  15 2.98
  17  0.250  0.250  0.500-  14 2.98  19 2.98  21 2.98  23 2.98  25 2.98  28 2.98   6 2.98  13 2.98
                            29 2.98  31 2.98  30 2.98  16 2.98
  18  0.500  0.750  0.250-   2 2.98   7 2.98  10 2.98  16 2.98  27 2.98  29 2.98   1 2.98  25 2.98
                             3 2.98  15 2.98  19 2.98  32 2.98
  19  0.500  0.000  0.500-   1 2.98   3 2.98  17 2.98  23 2.98  26 2.98  28 2.98   4 2.98   7 2.98
                             8 2.98  16 2.98  18 2.98  31 2.98
  20  0.750  0.500  0.750-   1 2.98   9 2.98  14 2.98  21 2.98  26 2.98  32 2.98  11 2.98  29 2.98
                            31 2.98  22 2.98   4 2.98   2 2.98
  21  0.000  0.250  0.750-   9 2.98  12 2.98  14 2.98  17 2.98  20 2.98  23 2.98   4 2.98   8 2.98
                            24 2.98  30 2.98  22 2.98   6 2.98
  22  0.000  0.500  0.000-   2 2.98  10 2.98  11 2.98  13 2.98  24 2.98  30 2.98  20 2.98   9 2.98
                            25 2.98  15 2.98  21 2.98   5 2.98
  23  0.250  0.000  0.750-  12 2.98  15 2.98  17 2.98  19 2.98  21 2.98  26 2.98   6 2.98  11 2.98
                            27 2.98  31 2.98  24 2.98   7 2.98
  24  0.250  0.250  0.000-  13 2.98  16 2.98  22 2.98  27 2.98  30 2.98  31 2.98  28 2.98  12 2.98
                            21 2.98  32 2.98  25 2.98  23 2.98
  25  0.250  0.500  0.250-   5 2.98  14 2.98  15 2.98  17 2.98  28 2.98  32 2.98  22 2.98  13 2.98
                            29 2.98  18 2.98  24 2.98   7 2.98
  26  0.500  0.750  0.750-   1 2.98  15 2.98  19 2.98  20 2.98  23 2.98  32 2.98   8 2.98   2 2.98
                            30 2.98   7 2.98  27 2.98  29 2.98
  27  0.500  0.000  0.000-   2 2.98   8 2.98  16 2.98  18 2.98  24 2.98  31 2.98   9 2.98  23 2.98
                            15 2.98   3 2.98  28 2.98  26 2.98
  28  0.500  0.250  0.250-   3 2.98   9 2.98  17 2.98  19 2.98  25 2.98  32 2.98  10 2.98  24 2.98
                            16 2.98   4 2.98  29 2.98  27 2.98
  29  0.500  0.500  0.500-   4 2.98   7 2.98  10 2.98  18 2.98  30 2.98  31 2.98  20 2.98  25 2.98
                            17 2.98   1 2.98  26 2.98  28 2.98
  30  0.250  0.500  0.750-   7 2.98  11 2.98  22 2.98  24 2.98  29 2.98  31 2.98  26 2.98  14 2.98
                            21 2.98  32 2.98  17 2.98  15 2.98
  31  0.500  0.250  0.750-   4 2.98   8 2.98  24 2.98  27 2.98  29 2.98  30 2.98   9 2.98  17 2.98
                            20 2.98  23 2.98  19 2.98  32 2.98
  32  0.500  0.500  0.000-   9 2.98  15 2.98  20 2.98  25 2.98  26 2.98  28 2.98   2 2.98  10 2.98
                            24 2.98  30 2.98  18 2.98  31 2.98
 
  LATTYP: Found a simple cubic cell.
 ALAT       =     8.4203047900
  
  Lattice vectors:
  
 A1 = (   8.4203047900,   0.0000000000,   0.0000000000)
 A2 = (   0.0000001500,   8.4203047900,   0.0000000000)
 A3 = (   0.0000001500,   0.0000001500,   8.4203047900)
 Subroutine PRICEL returns following result:
 
  LATTYP: Found a face centered cubic cell.
 ALAT       =     4.2101524325
  
  Lattice vectors:
  
 A1 = (   2.1050762350,   2.1050761975,   0.0000000000)
 A2 = (   2.1050761600,  -0.0000000375,  -2.1050761975)
 A3 = (   0.0000000000,   2.1050761600,  -2.1050761975)
 
  32 primitive cells build up your supercell.
 

Analysis of symmetry for initial positions (statically):

 Routine SETGRP: Setting up the symmetry group for a 
 simple cubic supercell.


 Subroutine GETGRP returns: Found 48 space group operations
 (whereof 48 operations were pure point group operations)
 out of a pool of 48 trial point group operations.


The static configuration has the point symmetry O_h .

Analysis of symmetry for dynamics (positions and initial velocities):

 Subroutine DYNSYM returns: Found 48 space group operations
 (whereof 48 operations were pure point group operations)
 out of a pool of 48 trial space group operations
 (whereof 48 operations were pure point group operations)
 and found also    32 'primitive' translations


The dynamic configuration has the point symmetry O_h .
 
 
 KPOINTS: Automatic mesh                          

Automatic generation of k-mesh.
 
 Subroutine IBZKPT returns following result:
 ===========================================
 
 Found     20 irreducible k-points:
 
 Following reciprocal coordinates:
            Coordinates               Weight
  0.062500  0.062500  0.062500      8.000000
  0.187500  0.062500  0.062500     24.000000
  0.312500  0.062500  0.062500     24.000000
  0.437500  0.062500  0.062500     24.000000
  0.187500  0.187500  0.062500     24.000000
  0.312500  0.187500  0.062500     48.000000
  0.437500  0.187500  0.062500     48.000000
  0.312500  0.312500  0.062500     24.000000
  0.437500  0.312500  0.062500     48.000000
  0.437500  0.437500  0.062500     24.000000
  0.187500  0.187500  0.187500      8.000000
  0.312500  0.187500  0.187500     24.000000
  0.437500  0.187500  0.187500     24.000000
  0.312500  0.312500  0.187500     24.000000
  0.437500  0.312500  0.187500     48.000000
  0.437500  0.437500  0.187500     24.000000
  0.312500  0.312500  0.312500      8.000000
  0.437500  0.312500  0.312500     24.000000
  0.437500  0.437500  0.312500     24.000000
  0.437500  0.437500  0.437500      8.000000
 
 Following cartesian coordinates:
            Coordinates               Weight
  0.007423  0.007423  0.007423      8.000000
  0.022268  0.007423  0.007423     24.000000
  0.037113  0.007423  0.007423     24.000000
  0.051958  0.007423  0.007423     24.000000
  0.022268  0.022268  0.007423     24.000000
  0.037113  0.022268  0.007423     48.000000
  0.051958  0.022268  0.007423     48.000000
  0.037113  0.037113  0.007423     24.000000
  0.051958  0.037113  0.007423     48.000000
  0.051958  0.051958  0.007423     24.000000
  0.022268  0.022268  0.022268      8.000000
  0.037113  0.022268  0.022268     24.000000
  0.051958  0.022268  0.022268     24.000000
  0.037113  0.037113  0.022268     24.000000
  0.051958  0.037113  0.022268     48.000000
  0.051958  0.051958  0.022268     24.000000
  0.037113  0.037113  0.037113      8.000000
  0.051958  0.037113  0.037113     24.000000
  0.051958  0.051958  0.037113     24.000000
  0.051958  0.051958  0.051958      8.000000
 


--------------------------------------------------------------------------------------------------------




 Dimension of arrays:
   k-Points           NKPTS =     20   number of bands    NBANDS=    212
   number of dos      NEDOS =    301   number of ions     NIONS =     32
   non local maximal  LDIM  =      6   non local SUM 2l+1 LMDIM =     18
   total plane-waves  NPLWV = 343000
   max r-space proj   IRMAX =      1   max aug-charges    IRDMAX= 281240
   dimension x,y,z NGX =    70 NGY =   70 NGZ =   70
   dimension x,y,z NGXF=   140 NGYF=  140 NGZF=  140
   support grid    NGXF=   280 NGYF=  280 NGZF=  280
   ions per type =              32
 NGX,Y,Z   is equivalent  to a cutoff of  13.82, 13.82, 13.82 a.u.
 NGXF,Y,Z  is equivalent  to a cutoff of  27.64, 27.64, 27.64 a.u.


 I would recommend the setting:
   dimension x,y,z NGX =    67 NGY =   67 NGZ =   67
 SYSTEM =  No title                                
 POSCAR =  No title                                

 Startparameter for this run:
   NWRITE =      2    write-flag & timer
   PREC   = accura    medium, high low
   ISTART =      0    job   : 0-new  1-cont  2-samecut
   ICHARG =      2    charge: 1-file 2-atom 10-const
   ISPIN  =      1    spin polarized calculation?
   LNONCOLLINEAR =      F non collinear calculations
   LSORBIT =      F    spin-orbit coupling
   INIWAV =      1    electr: 0-lowe 1-rand  2-diag
   LASPH  =      F    aspherical Exc in radial PAW
   METAGGA=      F    non-selfconsistent MetaGGA calc.

 Electronic Relaxation 1
   ENCUT  =  600.0 eV  44.10 Ry    6.64 a.u.  16.82 16.82 16.82*2*pi/ulx,y,z
   ENINI  =  600.0     initial cutoff
   ENAUG  =  356.7 eV  augmentation charge cutoff
   NELM   =     60;   NELMIN=  2; NELMDL=-12     # of ELM steps 
   EDIFF  = 0.1E-04   stopping-criterion for ELM
   LREAL  =      F    real-space projection
   LCOMPAT=      F    compatible to vasp.4.4
   LREAL_COMPAT= F    compatible to vasp.4.5.1-3
   GGA_COMPAT  = T    GGA compatible to vasp.4.4-vasp.4.6
   LMAXPAW     = -100 max onsite density
   LMAXMIX     =    2 max onsite mixed and CHGCAR
   VOSKOWN=      1    Vosko Wilk Nusair interpolation
   ROPT   =    0.00000
 Ionic relaxation
   EDIFFG = -.2E-01   stopping-criterion for IOM
   NSW    =    100    number of steps for IOM
   NBLOCK =      1;   KBLOCK =    100    inner block; outer block 
   IBRION =      2    ionic relax: 0-MD 1-quasi-New 2-CG
   NFREE  =      1    steps in history (QN), initial steepest desc. (CG)
   ISIF   =      2    stress and relaxation
   IWAVPR =     11    prediction:  0-non 1-charg 2-wave 3-comb
   ISYM   =      2    0-nonsym 1-usesym 2-fastsym
   LCORR  =      T    Harris-Foulkes like correction to forces

   POTIM  =   0.50    time-step for ionic-motion
   TEIN   =    0.0    initial temperature
   TEBEG  =    0.0;   TEEND  =   0.0 temperature during run
   SMASS  =  -3.00    Nose mass-parameter (am)
   estimated Nose-frequenzy (Omega)   =  0.10E-29 period in steps =****** mass=  -0.162E-26a.u.
   NPACO  =    256;   APACO  = 16.0  distance and # of slots for P.C.
   PSTRESS=    0.0 pullay stress

  Mass of Ions in am
   POMASS = 196.97
  Ionic Valenz
   ZVAL   =  11.00
  Atomic Wigner-Seitz radii
   RWIGS  =   1.34
   NELECT =     352.0000    total number of electrons
   NUPDOWN=      -1.0000    fix difference up-down

 DOS related values:
   EMIN   =  10.00;   EMAX   =-10.00  energy-range for DOS
   ISMEAR =     1;   SIGMA  =   0.20  broadening in eV -4-tet -1-fermi 0-gaus

 Electronic relaxation 2 (details)
   IALGO  =     48    algorithm
   LDIAG  =      T    sub-space diagonalisation
   IMIX   =      4    mixing-type and parameters
     AMIX     =   0.40;   BMIX     =  1.00
     AMIX_MAG =   1.60;   BMIX_MAG =  1.00
     AMIN     =   0.10
     WC   =   100.;   INIMIX=   1;  MIXPRE=   1

 Intra band minimization:
   WEIMIN = 0.0010     energy-eigenvalue tresh-hold
   EBREAK =  0.12E-07  absolut break condition
   DEPER  =   0.30     relativ break condition  

   TIME   =   0.10     timestep for ELM

  volume/ion in A,a.u.               =      18.66       125.90
  Fermi-wavevector in a.u.,eV,Ry     =   1.372760 25.639766  1.884470

 Second variation
   LSECVAR=     F    do a second variation
 
 Write flags
   LWAVE  =      T    write WAVECAR
   LCHARG =      F    write CHGCAR
   LVTOT  =      F    write LOCPOT, local potential
   LELF   =      F    write electronic localiz. function (ELF)
   LORBIT =      0    0 simple, 1 ext, 2 COOP (PROOUT)


 Dipole corrections
   IDIPOL =      0    1-x, 2-y, 3-z
   LDIPOL =      F    correct potential



--------------------------------------------------------------------------------------------------------


 conjugate gradient relaxation of ions
 charge density will be updated during run
 non-spin polarized calculation
 RMM-DIIS sequential band-by-band
 performe sub-space diagonalisation
    before iterative eigenvector-optimisation
 modified Broyden-mixing scheme, WC =      100.0
 initial mixing is a Kerker type mixing with AMIX =  0.4000 and BMIX =      1.0000
 Hartree-type preconditioning will be used
 using additional bands           36
 reciprocal scheme for non local part
 use partial core corrections
 calculate Harris-corrections to forces 
   (improved forces if not selfconsistent)
 use gradient corrections 
 use of overlap-Matrix (Vanderbilt PP)
 Methfessel and Paxton  Order N= 1 SIGMA  =   0.20


--------------------------------------------------------------------------------------------------------


  energy-cutoff  :      600.00
  volume of cell :      597.01
      direct lattice vectors                 reciprocal lattice vectors
     8.420304790  0.000000000  0.000000000     0.118760547 -0.000000002 -0.000000002
     0.000000150  8.420304790  0.000000000     0.000000000  0.118760547 -0.000000002
     0.000000150  0.000000150  8.420304790     0.000000000  0.000000000  0.118760547

  length of vectors
     8.420304790  8.420304790  8.420304790     0.118760547  0.118760547  0.118760547


 
 k-points in units of 2pi/SCALE and weight: Automatic mesh                          
   0.00742253  0.00742253  0.00742253       0.016
   0.02226760  0.00742253  0.00742253       0.047
   0.03711267  0.00742253  0.00742253       0.047
   0.05195774  0.00742253  0.00742253       0.047
   0.02226760  0.02226760  0.00742253       0.047
   0.03711267  0.02226760  0.00742253       0.094
   0.05195774  0.02226760  0.00742253       0.094
   0.03711267  0.03711267  0.00742253       0.047
   0.05195774  0.03711267  0.00742253       0.094
   0.05195774  0.05195774  0.00742253       0.047
   0.02226760  0.02226760  0.02226760       0.016
   0.03711267  0.02226760  0.02226760       0.047
   0.05195774  0.02226760  0.02226760       0.047
   0.03711267  0.03711267  0.02226760       0.047
   0.05195774  0.03711267  0.02226760       0.094
   0.05195774  0.05195774  0.02226760       0.047
   0.03711267  0.03711267  0.03711267       0.016
   0.05195774  0.03711267  0.03711267       0.047
   0.05195774  0.05195774  0.03711267       0.047
   0.05195774  0.05195774  0.05195774       0.016
 
 k-points in reciprocal lattice and weights: Automatic mesh                          
   0.06250000  0.06250000  0.06250000       0.016
   0.18750000  0.06250000  0.06250000       0.047
   0.31250000  0.06250000  0.06250000       0.047
   0.43750000  0.06250000  0.06250000       0.047
   0.18750000  0.18750000  0.06250000       0.047
   0.31250000  0.18750000  0.06250000       0.094
   0.43750000  0.18750000  0.06250000       0.094
   0.31250000  0.31250000  0.06250000       0.047
   0.43750000  0.31250000  0.06250000       0.094
   0.43750000  0.43750000  0.06250000       0.047
   0.18750000  0.18750000  0.18750000       0.016
   0.31250000  0.18750000  0.18750000       0.047
   0.43750000  0.18750000  0.18750000       0.047
   0.31250000  0.31250000  0.18750000       0.047
   0.43750000  0.31250000  0.18750000       0.094
   0.43750000  0.43750000  0.18750000       0.047
   0.31250000  0.31250000  0.31250000       0.016
   0.43750000  0.31250000  0.31250000       0.047
   0.43750000  0.43750000  0.31250000       0.047
   0.43750000  0.43750000  0.43750000       0.016
 
 position of ions in fractional coordinates (direct lattice) 
   0.75000000  0.75000000  0.50000000
   0.75000000  0.75000000  0.00000000
   0.75000000  0.00000000  0.25000000
   0.75000000  0.25000000  0.50000000
   0.00000000  0.75000000  0.25000000
   0.00000000  0.00000000  0.50000000
   0.25000000  0.75000000  0.50000000
   0.75000000  0.00000000  0.75000000
   0.75000000  0.25000000  0.00000000
   0.75000000  0.50000000  0.25000000
   0.00000000  0.75000000  0.75000000
   0.00000000  0.00000000  0.00000000
   0.00000000  0.25000000  0.25000000
   0.00000000  0.50000000  0.50000000
   0.25000000  0.75000000  0.00000000
   0.25000000  0.00000000  0.25000000
   0.25000000  0.25000000  0.50000000
   0.50000000  0.75000000  0.25000000
   0.50000000  0.00000000  0.50000000
   0.75000000  0.50000000  0.75000000
   0.00000000  0.25000000  0.75000000
   0.00000000  0.50000000  0.00000000
   0.25000000  0.00000000  0.75000000
   0.25000000  0.25000000  0.00000000
   0.25000000  0.50000000  0.25000000
   0.50000000  0.75000000  0.75000000
   0.50000000  0.00000000  0.00000000
   0.50000000  0.25000000  0.25000000
   0.50000000  0.50000000  0.50000000
   0.25000000  0.50000000  0.75000000
   0.50000000  0.25000000  0.75000000
   0.50000000  0.50000000  0.00000000
 
 position of ions in cartesian coordinates  (Angst):
   6.31522878  6.31522867  4.21015239
   6.31522870  6.31522859  0.00000000
   6.31522863  0.00000004  2.10507620
   6.31522870  2.10507627  4.21015239
   0.00000015  6.31522863  2.10507620
   0.00000007  0.00000007  4.21015239
   2.10507638  6.31522867  4.21015239
   6.31522870  0.00000011  6.31522859
   6.31522863  2.10507620  0.00000000
   6.31522870  4.21015243  2.10507620
   0.00000022  6.31522870  6.31522859
   0.00000000  0.00000000  0.00000000
   0.00000007  2.10507623  2.10507620
   0.00000015  4.21015247  4.21015239
   2.10507631  6.31522859  0.00000000
   2.10507623  0.00000004  2.10507620
   2.10507631  2.10507627  4.21015239
   4.21015255  6.31522863  2.10507620
   4.21015247  0.00000007  4.21015239
   6.31522878  4.21015251  6.31522859
   0.00000015  2.10507631  6.31522859
   0.00000007  4.21015239  0.00000000
   2.10507631  0.00000011  6.31522859
   2.10507623  2.10507620  0.00000000
   2.10507631  4.21015243  2.10507620
   4.21015262  6.31522870  6.31522859
   4.21015239  0.00000000  0.00000000
   4.21015247  2.10507623  2.10507620
   4.21015254  4.21015247  4.21015239
   2.10507638  4.21015251  6.31522859
   4.21015255  2.10507631  6.31522859
   4.21015247  4.21015239  0.00000000
 


--------------------------------------------------------------------------------------------------------


 k-point  1 :  0.06250.06250.0625  plane waves:  19912
 k-point  2 :  0.18750.06250.0625  plane waves:  19911
 k-point  3 :  0.31250.06250.0625  plane waves:  19913
 k-point  4 :  0.43750.06250.0625  plane waves:  19947
 k-point  5 :  0.18750.18750.0625  plane waves:  19912
 k-point  6 :  0.31250.18750.0625  plane waves:  19916
 k-point  7 :  0.43750.18750.0625  plane waves:  19907
 k-point  8 :  0.31250.31250.0625  plane waves:  19931
 k-point  9 :  0.43750.31250.0625  plane waves:  19933
 k-point 10 :  0.43750.43750.0625  plane waves:  19918
 k-point 11 :  0.18750.18750.1875  plane waves:  19909
 k-point 12 :  0.31250.18750.1875  plane waves:  19921
 k-point 13 :  0.43750.18750.1875  plane waves:  19910
 k-point 14 :  0.31250.31250.1875  plane waves:  19914
 k-point 15 :  0.43750.31250.1875  plane waves:  19929
 k-point 16 :  0.43750.43750.1875  plane waves:  19944
 k-point 17 :  0.31250.31250.3125  plane waves:  19949
 k-point 18 :  0.43750.31250.3125  plane waves:  19930
 k-point 19 :  0.43750.43750.3125  plane waves:  19931
 k-point 20 :  0.43750.43750.4375  plane waves:  19928

 maximum and minimum number of plane-waves per node :  19949 19907

 maximum number of plane-waves:  19949
 maximal index in each direction: 
   IXMAX= 16   IYMAX= 16   IZMAX= 16
   IXMIN=-17   IYMIN=-17   IZMIN=-17

 NGX is ok and might be reduce to  68
 NGY is ok and might be reduce to  68
 NGZ is ok and might be reduce to  68

 parallel 3dFFT wavefunction:
    minimum data exchange during FFTs selected (reduces bandwidth)
 parallel 3dFFT charge:
    minimum data exchange during FFTs selected (reduces bandwidth)

 For storing wavefunctions 1351.59 MBYTES are necessary
 For predicting wavefunctions  146.13 MBYTES are necessary
Broyden mixing: mesh for mixing (old mesh)
   NGX = 33   NGY = 33   NGZ = 33
  (NGX  =140   NGY  =140   NGZ  =140)
 gives a total of  35937 points
 initial charge density was supplied:
 charge density of overlapping atoms calculated
 number of electron  352.0000000 magnetization 
 keeping initial charge density in first step


--------------------------------------------------------------------------------------------------------


 Maximum index for augmentation-charges        68196 (set IRDMAX)


--------------------------------------------------------------------------------------------------------


 First call to EWALD:  gamma=   0.210
 Maximum number of real-space cells 3x 3x 3
 Maximum number of reciprocal cells 3x 3x 3

    FEWALD:  VPU time    0.00: CPU time    0.00


----------------------------------------- Iteration    1(   1)  ---------------------------------------


    POTLOK:  VPU time    0.40: CPU time    0.40
    SETDIJ:  VPU time    0.56: CPU time    0.56
    EDDIAG:  VPU time   12.45: CPU time   12.45
  RMM-DIIS:  VPU time   38.09: CPU time   38.08
    ORTHCH:  VPU time    1.99: CPU time    1.99
    DOS   :  VPU time    0.00: CPU time   -0.00
    ------------------------------------------
      LOOP:  VPU time   53.53: CPU time   53.52

 eigenvalue-minimisations  :  4240
 total energy-change (2. order) : 0.4462286E+04  (-0.1604393E+05)
 number of electron  352.0000000 magnetization 
 augmentation part   352.0000000 magnetization 

 Free energy of the ion-electron system (eV)
  ---------------------------------------------------
  alpha Z        PSCENC =      3212.27451446
  Ewald energy   TEWEN  =    -30359.17296404
  -1/2 Hartree   DENC   =     -4343.57908439
  -V(xc)+E(xc)   XCENC  =       481.87858455
  PAW double counting   =     23920.39735419   -23172.13309131
  entropy T*S    EENTRO =         0.01115069
  eigenvalues    EBANDS =      5088.83547670
  atomic energy  EATOM  =     29633.77399530
  ---------------------------------------------------
  free energy    TOTEN  =      4462.28593616 eV

  energy without entropy =     4462.27478546  energy(sigma->0) =     4462.28221926


--------------------------------------------------------------------------------------------------------




----------------------------------------- Iteration    1(   2)  ---------------------------------------


    EDDIAG:  VPU time   12.47: CPU time   12.46
  RMM-DIIS:  VPU time   37.71: CPU time   37.69
    ORTHCH:  VPU time    2.01: CPU time    2.00
    DOS   :  VPU time    0.00: CPU time   -0.00
    ------------------------------------------
      LOOP:  VPU time   52.21: CPU time   52.19

 eigenvalue-minimisations  :  4240
 total energy-change (2. order) :-0.3513358E+04  (-0.3779763E+04)
 number of electron  352.0000000 magnetization 
 augmentation part   352.0000000 magnetization 

 Free energy of the ion-electron system (eV)
  ---------------------------------------------------
  alpha Z        PSCENC =      3212.27451446
  Ewald energy   TEWEN  =    -30359.17296404
  -1/2 Hartree   DENC   =     -4343.57908439
  -V(xc)+E(xc)   XCENC  =       481.87858455
  PAW double counting   =     23920.39735419   -23172.13309131
  entropy T*S    EENTRO =         0.00951264
  eigenvalues    EBANDS =      1575.47936831
  atomic energy  EATOM  =     29633.77399530
  ---------------------------------------------------
  free energy    TOTEN  =       948.92818971 eV

  energy without entropy =      948.91867707  energy(sigma->0) =      948.92501883


--------------------------------------------------------------------------------------------------------




----------------------------------------- Iteration    1(   3)  ---------------------------------------


    EDDIAG:  VPU time   12.45: CPU time   12.45
  RMM-DIIS:  VPU time   37.54: CPU time   37.52
    ORTHCH:  VPU time    2.00: CPU time    2.00
    DOS   :  VPU time    0.00: CPU time   -0.00
    ------------------------------------------
      LOOP:  VPU time   52.02: CPU time   52.01

 eigenvalue-minimisations  :  4240
 total energy-change (2. order) :-0.7295078E+03  (-0.7878197E+03)
 number of electron  352.0000000 magnetization 
 augmentation part   352.0000000 magnetization 

 Free energy of the ion-electron system (eV)
  ---------------------------------------------------
  alpha Z        PSCENC =      3212.27451446
  Ewald energy   TEWEN  =    -30359.17296404
  -1/2 Hartree   DENC   =     -4343.57908439
  -V(xc)+E(xc)   XCENC  =       481.87858455
  PAW double counting   =     23920.39735419   -23172.13309131
  entropy T*S    EENTRO =         0.01838272
  eigenvalues    EBANDS =       845.96274151
  atomic energy  EATOM  =     29633.77399530
  ---------------------------------------------------
  free energy    TOTEN  =       219.42043299 eV

  energy without entropy =      219.40205028  energy(sigma->0) =      219.41430542


--------------------------------------------------------------------------------------------------------




----------------------------------------- Iteration    1(   4)  ---------------------------------------


    EDDIAG:  VPU time   12.43: CPU time   12.42
  RMM-DIIS:  VPU time   37.43: CPU time   37.41
    ORTHCH:  VPU time    2.00: CPU time    2.00
    DOS   :  VPU time    0.00: CPU time   -0.00
    ------------------------------------------
      LOOP:  VPU time   51.89: CPU time   51.87

 eigenvalue-minimisations  :  4240
 total energy-change (2. order) :-0.2129271E+03  (-0.1652636E+03)
 number of electron  352.0000000 magnetization 
 augmentation part   352.0000000 magnetization 

 Free energy of the ion-electron system (eV)
  ---------------------------------------------------
  alpha Z        PSCENC =      3212.27451446
  Ewald energy   TEWEN  =    -30359.17296404
  -1/2 Hartree   DENC   =     -4343.57908439
  -V(xc)+E(xc)   XCENC  =       481.87858455
  PAW double counting   =     23920.39735419   -23172.13309131
  entropy T*S    EENTRO =         0.00350257
  eigenvalues    EBANDS =       633.05050294
  atomic energy  EATOM  =     29633.77399530
  ---------------------------------------------------
  free energy    TOTEN  =         6.49331427 eV

  energy without entropy =        6.48981170  energy(sigma->0) =        6.49214675


--------------------------------------------------------------------------------------------------------




----------------------------------------- Iteration    1(   5)  ---------------------------------------


    EDDIAG:  VPU time   12.41: CPU time   12.40
  RMM-DIIS:  VPU time   38.00: CPU time   37.99
    ORTHCH:  VPU time    2.00: CPU time    2.00
    DOS   :  VPU time    0.00: CPU time   -0.00
    ------------------------------------------
      LOOP:  VPU time   52.45: CPU time   52.43

 eigenvalue-minimisations  :  4240
 total energy-change (2. order) :-0.7744299E+02  (-0.5378322E+02)
 number of electron  352.0000000 magnetization 
 augmentation part   352.0000000 magnetization 

 Free energy of the ion-electron system (eV)
  ---------------------------------------------------
  alpha Z        PSCENC =      3212.27451446
  Ewald energy   TEWEN  =    -30359.17296404
  -1/2 Hartree   DENC   =     -4343.57908439
  -V(xc)+E(xc)   XCENC  =       481.87858455
  PAW double counting   =     23920.39735419   -23172.13309131
  entropy T*S    EENTRO =        -0.01371520
  eigenvalues    EBANDS =       555.62472914
  atomic energy  EATOM  =     29633.77399530
  ---------------------------------------------------
  free energy    TOTEN  =       -70.94967731 eV

  energy without entropy =      -70.93596210  energy(sigma->0) =      -70.94510557


--------------------------------------------------------------------------------------------------------




----------------------------------------- Iteration    1(   6)  ---------------------------------------


    EDDIAG:  VPU time   12.44: CPU time   12.44
  RMM-DIIS:  VPU time   37.53: CPU time   37.51
    ORTHCH:  VPU time    2.00: CPU time    2.00
    DOS   :  VPU time    0.00: CPU time   -0.00
    ------------------------------------------
      LOOP:  VPU time   52.00: CPU time   51.99

 eigenvalue-minimisations  :  4240
 total energy-change (2. order) :-0.2553362E+02  (-0.1991775E+02)
 number of electron  352.0000000 magnetization 
 augmentation part   352.0000000 magnetization 

 Free energy of the ion-electron system (eV)
  ---------------------------------------------------
  alpha Z        PSCENC =      3212.27451446
  Ewald energy   TEWEN  =    -30359.17296404
  -1/2 Hartree   DENC   =     -4343.57908439
  -V(xc)+E(xc)   XCENC  =       481.87858455
  PAW double counting   =     23920.39735419   -23172.13309131
  entropy T*S    EENTRO =        -0.00028563
  eigenvalues    EBANDS =       530.07767765
  atomic energy  EATOM  =     29633.77399530
  ---------------------------------------------------
  free energy    TOTEN  =       -96.48329921 eV

  energy without entropy =      -96.48301359  energy(sigma->0) =      -96.48320401


--------------------------------------------------------------------------------------------------------




----------------------------------------- Iteration    1(   7)  ---------------------------------------


    EDDIAG:  VPU time   12.42: CPU time   12.42
  RMM-DIIS:  VPU time   38.23: CPU time   38.21
    ORTHCH:  VPU time    2.00: CPU time    2.00
    DOS   :  VPU time    0.00: CPU time   -0.00
    ------------------------------------------
      LOOP:  VPU time   52.68: CPU time   52.66

 eigenvalue-minimisations  :  4240
 total energy-change (2. order) :-0.1026647E+02  (-0.8219080E+01)
 number of electron  352.0000000 magnetization 
 augmentation part   352.0000000 magnetization 

 Free energy of the ion-electron system (eV)
  ---------------------------------------------------
  alpha Z        PSCENC =      3212.27451446
  Ewald energy   TEWEN  =    -30359.17296404
  -1/2 Hartree   DENC   =     -4343.57908439
  -V(xc)+E(xc)   XCENC  =       481.87858455
  PAW double counting   =     23920.39735419   -23172.13309131
  entropy T*S    EENTRO =         0.01588400
  eigenvalues    EBANDS =       519.79504159
  atomic energy  EATOM  =     29633.77399530
  ---------------------------------------------------
  free energy    TOTEN  =      -106.74976565 eV

  energy without entropy =     -106.76564965  energy(sigma->0) =     -106.75506031


--------------------------------------------------------------------------------------------------------




----------------------------------------- Iteration    1(   8)  ---------------------------------------


    EDDIAG:  VPU time   12.44: CPU time   12.43
  RMM-DIIS:  VPU time   37.86: CPU time   37.85
    ORTHCH:  VPU time    2.03: CPU time    2.03
    DOS   :  VPU time    0.00: CPU time   -0.00
    ------------------------------------------
      LOOP:  VPU time   52.36: CPU time   52.35

 eigenvalue-minimisations  :  4240
 total energy-change (2. order) :-0.3415042E+01  (-0.3091229E+01)
 number of electron  352.0000000 magnetization 
 augmentation part   352.0000000 magnetization 

 Free energy of the ion-electron system (eV)
  ---------------------------------------------------
  alpha Z        PSCENC =      3212.27451446
  Ewald energy   TEWEN  =    -30359.17296404
  -1/2 Hartree   DENC   =     -4343.57908439
  -V(xc)+E(xc)   XCENC  =       481.87858455
  PAW double counting   =     23920.39735419   -23172.13309131
  entropy T*S    EENTRO =         0.01943088
  eigenvalues    EBANDS =       516.37645238
  atomic energy  EATOM  =     29633.77399530
  ---------------------------------------------------
  free energy    TOTEN  =      -110.16480797 eV

  energy without entropy =     -110.18423886  energy(sigma->0) =     -110.17128493


--------------------------------------------------------------------------------------------------------




----------------------------------------- Iteration    1(   9)  ---------------------------------------


    EDDIAG:  VPU time   13.34: CPU time   13.34
  RMM-DIIS:  VPU time   76.71: CPU time   76.68
    ORTHCH:  VPU time    2.04: CPU time    2.04
    DOS   :  VPU time    0.00: CPU time   -0.00
    ------------------------------------------
      LOOP:  VPU time   92.13: CPU time   92.09

 eigenvalue-minimisations  :  8905
 total energy-change (2. order) :-0.1934403E+01  (-0.1814987E+01)
 number of electron  352.0000000 magnetization 
 augmentation part   352.0000000 magnetization 

 Free energy of the ion-electron system (eV)
  ---------------------------------------------------
  alpha Z        PSCENC =      3212.27451446
  Ewald energy   TEWEN  =    -30359.17296404
  -1/2 Hartree   DENC   =     -4343.57908439
  -V(xc)+E(xc)   XCENC  =       481.87858455
  PAW double counting   =     23920.39735419   -23172.13309131
  entropy T*S    EENTRO =         0.01847995
  eigenvalues    EBANDS =       514.44300072
  atomic energy  EATOM  =     29633.77399530
  ---------------------------------------------------
  free energy    TOTEN  =      -112.09921057 eV

  energy without entropy =     -112.11769052  energy(sigma->0) =     -112.10537055


--------------------------------------------------------------------------------------------------------




----------------------------------------- Iteration    1(  10)  ---------------------------------------


    EDDIAG:  VPU time   13.92: CPU time   13.91
  RMM-DIIS:  VPU time   82.91: CPU time   82.87
    ORTHCH:  VPU time    2.04: CPU time    2.04
    DOS   :  VPU time    0.00: CPU time   -0.00
    ------------------------------------------
      LOOP:  VPU time   98.90: CPU time   98.86

 eigenvalue-minimisations  :  9691
 total energy-change (2. order) :-0.2164749E+00  (-0.2168631E+00)
 number of electron  352.0000000 magnetization 
 augmentation part   352.0000000 magnetization 

 Free energy of the ion-electron system (eV)
  ---------------------------------------------------
  alpha Z        PSCENC =      3212.27451446
  Ewald energy   TEWEN  =    -30359.17296404
  -1/2 Hartree   DENC   =     -4343.57908439
  -V(xc)+E(xc)   XCENC  =       481.87858455
  PAW double counting   =     23920.39735419   -23172.13309131
  entropy T*S    EENTRO =         0.01880089
  eigenvalues    EBANDS =       514.22620483
  atomic energy  EATOM  =     29633.77399530
  ---------------------------------------------------
  free energy    TOTEN  =      -112.31568552 eV

  energy without entropy =     -112.33448641  energy(sigma->0) =     -112.32195248


--------------------------------------------------------------------------------------------------------




----------------------------------------- Iteration    1(  11)  ---------------------------------------


    EDDIAG:  VPU time   13.90: CPU time   13.89
  RMM-DIIS:  VPU time   82.81: CPU time   82.79
    ORTHCH:  VPU time    2.11: CPU time    2.11
    DOS   :  VPU time    0.00: CPU time   -0.00
    ------------------------------------------
      LOOP:  VPU time   98.85: CPU time   98.83

 eigenvalue-minimisations  :  9020
 total energy-change (2. order) :-0.7639528E-02  (-0.6092873E-02)
 number of electron  352.0000000 magnetization 
 augmentation part   352.0000000 magnetization 

 Free energy of the ion-electron system (eV)
  ---------------------------------------------------
  alpha Z        PSCENC =      3212.27451446
  Ewald energy   TEWEN  =    -30359.17296404
  -1/2 Hartree   DENC   =     -4343.57908439
  -V(xc)+E(xc)   XCENC  =       481.87858455
  PAW double counting   =     23920.39735419   -23172.13309131
  entropy T*S    EENTRO =         0.01878826
  eigenvalues    EBANDS =       514.21857793
  atomic energy  EATOM  =     29633.77399530
  ---------------------------------------------------
  free energy    TOTEN  =      -112.32332504 eV

  energy without entropy =     -112.34211330  energy(sigma->0) =     -112.32958780


--------------------------------------------------------------------------------------------------------




----------------------------------------- Iteration    1(  12)  ---------------------------------------


    EDDIAG:  VPU time   15.97: CPU time   15.96
  RMM-DIIS:  VPU time   83.76: CPU time   83.75
    ORTHCH:  VPU time    2.11: CPU time    2.11
    DOS   :  VPU time    0.00: CPU time   -0.00
    CHARGE:  VPU time    7.90: CPU time    7.90
    MIXING:  VPU time    0.01: CPU time    0.01
    ------------------------------------------
      LOOP:  VPU time  109.79: CPU time  109.78

 eigenvalue-minimisations  :  8804
 total energy-change (2. order) :-0.1267912E-02  (-0.1192746E-02)
 number of electron  352.0000009 magnetization 
 augmentation part   124.2881792 magnetization 

 Broyden mixing:
  rms(total) = 0.15986E+01    rms(broyden)= 0.15986E+01
  rms(prec ) = 0.24473E+01
  weight for this iteration     100.00

 Free energy of the ion-electron system (eV)
  ---------------------------------------------------
  alpha Z        PSCENC =      3212.27451446
  Ewald energy   TEWEN  =    -30359.17296404
  -1/2 Hartree   DENC   =     -4343.57908439
  -V(xc)+E(xc)   XCENC  =       481.87858455
  PAW double counting   =     23920.39735419   -23172.13309131
  entropy T*S    EENTRO =         0.01879970
  eigenvalues    EBANDS =       514.21729858
  atomic energy  EATOM  =     29633.77399530
  ---------------------------------------------------
  free energy    TOTEN  =      -112.32459296 eV

  energy without entropy =     -112.34339266  energy(sigma->0) =     -112.33085952


--------------------------------------------------------------------------------------------------------




----------------------------------------- Iteration    1(  13)  ---------------------------------------


    POTLOK:  VPU time    0.47: CPU time    0.47
    SETDIJ:  VPU time    0.66: CPU time    0.66
    EDDIAG:  VPU time   16.21: CPU time   16.21
  RMM-DIIS:  VPU time   81.57: CPU time   81.55
    ORTHCH:  VPU time    2.13: CPU time    2.13
    DOS   :  VPU time    0.00: CPU time   -0.00
    CHARGE:  VPU time    7.31: CPU time    7.31
    MIXING:  VPU time    0.01: CPU time    0.01
    ------------------------------------------
      LOOP:  VPU time  108.40: CPU time  108.38

 eigenvalue-minimisations  :  8480
 total energy-change (2. order) : 0.7319379E+01  (-0.2066080E+01)
 number of electron  352.0000009 magnetization 
 augmentation part   128.5183920 magnetization 

 Broyden mixing:
  rms(total) = 0.43440E+00    rms(broyden)= 0.43440E+00
  rms(prec ) = 0.64591E+00
  weight for this iteration     100.00

 eigenvalues of (default mixing * dielectric matrix)
  average eigenvalue GAMMA=   1.2302
  1.2302

 Free energy of the ion-electron system (eV)
  ---------------------------------------------------
  alpha Z        PSCENC =      3212.27451446
  Ewald energy   TEWEN  =    -30359.17296404
  -1/2 Hartree   DENC   =     -4096.54884875
  -V(xc)+E(xc)   XCENC  =       470.96354270
  PAW double counting   =     23634.71870888   -22921.09528141
  entropy T*S    EENTRO =         0.01039485
  eigenvalues    EBANDS =       320.07072435
  atomic energy  EATOM  =     29633.77399530
  ---------------------------------------------------
  free energy    TOTEN  =      -105.00521366 eV

  energy without entropy =     -105.01560851  energy(sigma->0) =     -105.00867861


--------------------------------------------------------------------------------------------------------




----------------------------------------- Iteration    1(  14)  ---------------------------------------


    POTLOK:  VPU time    0.48: CPU time    0.49
    SETDIJ:  VPU time    0.66: CPU time    0.66
    EDDIAG:  VPU time   16.12: CPU time   16.12
  RMM-DIIS:  VPU time   82.21: CPU time   82.17
    ORTHCH:  VPU time    2.12: CPU time    2.12
    DOS   :  VPU time    0.00: CPU time   -0.00
    CHARGE:  VPU time    7.68: CPU time    7.68
    MIXING:  VPU time    0.02: CPU time    0.02
    ------------------------------------------
      LOOP:  VPU time  109.31: CPU time  109.28

 eigenvalue-minimisations  :  8482
 total energy-change (2. order) : 0.3939667E+00  (-0.2306809E+00)
 number of electron  352.0000009 magnetization 
 augmentation part   129.6514561 magnetization 

 Broyden mixing:
  rms(total) = 0.17441E+00    rms(broyden)= 0.17441E+00
  rms(prec ) = 0.19830E+00
  weight for this iteration     100.00

 eigenvalues of (default mixing * dielectric matrix)
  average eigenvalue GAMMA=   1.7607
  1.2720  2.2494

 Free energy of the ion-electron system (eV)
  ---------------------------------------------------
  alpha Z        PSCENC =      3212.27451446
  Ewald energy   TEWEN  =    -30359.17296404
  -1/2 Hartree   DENC   =     -4019.08701340
  -V(xc)+E(xc)   XCENC  =       467.43043716
  PAW double counting   =     23652.71860258   -22960.48416140
  entropy T*S    EENTRO =         0.00825847
  eigenvalues    EBANDS =       267.92708393
  atomic energy  EATOM  =     29633.77399530
  ---------------------------------------------------
  free energy    TOTEN  =      -104.61124692 eV

  energy without entropy =     -104.61950540  energy(sigma->0) =     -104.61399975


--------------------------------------------------------------------------------------------------------




----------------------------------------- Iteration    1(  15)  ---------------------------------------


    POTLOK:  VPU time    0.47: CPU time    0.47
    SETDIJ:  VPU time    0.66: CPU time    0.66
    EDDIAG:  VPU time   15.97: CPU time   15.97
  RMM-DIIS:  VPU time   82.01: CPU time   81.97
    ORTHCH:  VPU time    2.11: CPU time    2.11
    DOS   :  VPU time    0.00: CPU time   -0.00
    CHARGE:  VPU time    7.72: CPU time    7.72
    MIXING:  VPU time    0.02: CPU time    0.02
    ------------------------------------------
      LOOP:  VPU time  108.99: CPU time  108.95

 eigenvalue-minimisations  :  8485
 total energy-change (2. order) : 0.7750497E-01  (-0.9974566E-02)
 number of electron  352.0000009 magnetization 
 augmentation part   129.5196168 magnetization 

 Broyden mixing:
  rms(total) = 0.26950E-01    rms(broyden)= 0.26949E-01
  rms(prec ) = 0.41259E-01
  weight for this iteration     100.00

 eigenvalues of (default mixing * dielectric matrix)
  average eigenvalue GAMMA=   1.7580
  1.2795  1.2795  2.7149

 Free energy of the ion-electron system (eV)
  ---------------------------------------------------
  alpha Z        PSCENC =      3212.27451446
  Ewald energy   TEWEN  =    -30359.17296404
  -1/2 Hartree   DENC   =     -4006.52836054
  -V(xc)+E(xc)   XCENC  =       466.69840906
  PAW double counting   =     23812.62247309   -23136.02479703
  entropy T*S    EENTRO =         0.00859771
  eigenvalues    EBANDS =       271.81439004
  atomic energy  EATOM  =     29633.77399530
  ---------------------------------------------------
  free energy    TOTEN  =      -104.53374195 eV

  energy without entropy =     -104.54233966  energy(sigma->0) =     -104.53660785


--------------------------------------------------------------------------------------------------------




----------------------------------------- Iteration    1(  16)  ---------------------------------------


    POTLOK:  VPU time    0.47: CPU time    0.47
    SETDIJ:  VPU time    0.65: CPU time    0.65
    EDDIAG:  VPU time   16.14: CPU time   16.14
  RMM-DIIS:  VPU time   82.05: CPU time   82.03
    ORTHCH:  VPU time    2.10: CPU time    2.10
    DOS   :  VPU time    0.00: CPU time   -0.00
    CHARGE:  VPU time    7.69: CPU time    7.69
    MIXING:  VPU time    0.02: CPU time    0.02
    ------------------------------------------
      LOOP:  VPU time  109.15: CPU time  109.11

 eigenvalue-minimisations  :  8541
 total energy-change (2. order) : 0.3581194E-03  (-0.1713365E-02)
 number of electron  352.0000009 magnetization 
 augmentation part   129.6207402 magnetization 

 Broyden mixing:
  rms(total) = 0.10413E-01    rms(broyden)= 0.10412E-01
  rms(prec ) = 0.14436E-01
  weight for this iteration     100.00

 eigenvalues of (default mixing * dielectric matrix)
  average eigenvalue GAMMA=   1.8717
  1.0411  1.1657  2.6401  2.6401

 Free energy of the ion-electron system (eV)
  ---------------------------------------------------
  alpha Z        PSCENC =      3212.27451446
  Ewald energy   TEWEN  =    -30359.17296404
  -1/2 Hartree   DENC   =     -3998.53993163
  -V(xc)+E(xc)   XCENC  =       466.32349620
  PAW double counting   =     23830.74995731   -23156.33621068
  entropy T*S    EENTRO =         0.00838275
  eigenvalues    EBANDS =       266.38537650
  atomic energy  EATOM  =     29633.77399530
  ---------------------------------------------------
  free energy    TOTEN  =      -104.53338383 eV

  energy without entropy =     -104.54176658  energy(sigma->0) =     -104.53617808


--------------------------------------------------------------------------------------------------------




----------------------------------------- Iteration    1(  17)  ---------------------------------------


    POTLOK:  VPU time    0.46: CPU time    0.46
    SETDIJ:  VPU time    0.66: CPU time    0.66
    EDDIAG:  VPU time   15.87: CPU time   15.86
  RMM-DIIS:  VPU time   82.95: CPU time   82.91
    ORTHCH:  VPU time    2.11: CPU time    2.11
    DOS   :  VPU time    0.00: CPU time   -0.00
    CHARGE:  VPU time    7.20: CPU time    7.20
    MIXING:  VPU time    0.01: CPU time    0.01
    ------------------------------------------
      LOOP:  VPU time  109.30: CPU time  109.25

 eigenvalue-minimisations  :  8626
 total energy-change (2. order) : 0.1549591E-03  (-0.5895548E-04)
 number of electron  352.0000009 magnetization 
 augmentation part   129.6190438 magnetization 

 Broyden mixing:
  rms(total) = 0.45548E-02    rms(broyden)= 0.45548E-02
  rms(prec ) = 0.63145E-02
  weight for this iteration     100.00

 eigenvalues of (default mixing * dielectric matrix)
  average eigenvalue GAMMA=   1.7134
  2.8225  2.3918  1.0494  1.1516  1.1516

 Free energy of the ion-electron system (eV)
  ---------------------------------------------------
  alpha Z        PSCENC =      3212.27451446
  Ewald energy   TEWEN  =    -30359.17296404
  -1/2 Hartree   DENC   =     -4000.39336271
  -V(xc)+E(xc)   XCENC  =       466.40146300
  PAW double counting   =     23837.57770185   -23161.95809682
  entropy T*S    EENTRO =         0.00841240
  eigenvalues    EBANDS =       266.95510767
  atomic energy  EATOM  =     29633.77399530
  ---------------------------------------------------
  free energy    TOTEN  =      -104.53322887 eV

  energy without entropy =     -104.54164128  energy(sigma->0) =     -104.53603301


--------------------------------------------------------------------------------------------------------




----------------------------------------- Iteration    1(  18)  ---------------------------------------


    POTLOK:  VPU time    0.46: CPU time    0.46
    SETDIJ:  VPU time    0.66: CPU time    0.66
    EDDIAG:  VPU time   15.98: CPU time   15.98
  RMM-DIIS:  VPU time   82.90: CPU time   82.86
    ORTHCH:  VPU time    2.12: CPU time    2.12
    DOS   :  VPU time    0.00: CPU time   -0.00
    CHARGE:  VPU time    7.60: CPU time    7.59
    MIXING:  VPU time    0.01: CPU time    0.02
    ------------------------------------------
      LOOP:  VPU time  109.77: CPU time  109.73

 eigenvalue-minimisations  :  8481
 total energy-change (2. order) : 0.4075136E-04  (-0.2610070E-04)
 number of electron  352.0000009 magnetization 
 augmentation part   129.6049093 magnetization 

 Broyden mixing:
  rms(total) = 0.20668E-03    rms(broyden)= 0.20660E-03
  rms(prec ) = 0.25713E-03
  weight for this iteration     100.00

 eigenvalues of (default mixing * dielectric matrix)
  average eigenvalue GAMMA=   1.8862
  2.8617  2.8617  2.3809  0.9718  1.1207  1.1207

 Free energy of the ion-electron system (eV)
  ---------------------------------------------------
  alpha Z        PSCENC =      3212.27451446
  Ewald energy   TEWEN  =    -30359.17296404
  -1/2 Hartree   DENC   =     -4001.02009015
  -V(xc)+E(xc)   XCENC  =       466.42714391
  PAW double counting   =     23839.33941059   -23163.76966921
  entropy T*S    EENTRO =         0.00844268
  eigenvalues    EBANDS =       267.60602833
  atomic energy  EATOM  =     29633.77399530
  ---------------------------------------------------
  free energy    TOTEN  =      -104.53318812 eV

  energy without entropy =     -104.54163080  energy(sigma->0) =     -104.53600235


--------------------------------------------------------------------------------------------------------




----------------------------------------- Iteration    1(  19)  ---------------------------------------


    POTLOK:  VPU time    0.46: CPU time    0.47
    SETDIJ:  VPU time    0.66: CPU time    0.66
    EDDIAG:  VPU time   16.02: CPU time   16.01
  RMM-DIIS:  VPU time   50.42: CPU time   50.40
    ORTHCH:  VPU time    2.11: CPU time    2.11
    DOS   :  VPU time    0.00: CPU time   -0.00
    ------------------------------------------
      LOOP:  VPU time   69.70: CPU time   69.67

 eigenvalue-minimisations  :  4798
 total energy-change (2. order) : 0.3352245E-05  (-0.5552472E-06)
 number of electron  352.0000009 magnetization 
 augmentation part   129.6049093 magnetization 

 Free energy of the ion-electron system (eV)
  ---------------------------------------------------
  alpha Z        PSCENC =      3212.27451446
  Ewald energy   TEWEN  =    -30359.17296404
  -1/2 Hartree   DENC   =     -4001.04764618
  -V(xc)+E(xc)   XCENC  =       466.42837837
  PAW double counting   =     23838.77520721   -23163.19406695
  entropy T*S    EENTRO =         0.00844357
  eigenvalues    EBANDS =       267.62095348
  atomic energy  EATOM  =     29633.77399530
  ---------------------------------------------------
  free energy    TOTEN  =      -104.53318477 eV

  energy without entropy =     -104.54162833  energy(sigma->0) =     -104.53599929


--------------------------------------------------------------------------------------------------------




 average (electrostatic) potential at core
  the test charge radii are     1.2098
  (the norm of the test charge is              1.0000)
       1 -46.3700       2 -46.3700       3 -46.3700       4 -46.3700       5 -46.3700
       6 -46.3700       7 -46.3700       8 -46.3700       9 -46.3700      10 -46.3700
      11 -46.3700      12 -46.3700      13 -46.3700      14 -46.3700      15 -46.3700
      16 -46.3700      17 -46.3700      18 -46.3700      19 -46.3700      20 -46.3700
      21 -46.3700      22 -46.3700      23 -46.3700      24 -46.3700      25 -46.3700
      26 -46.3700      27 -46.3700      28 -46.3700      29 -46.3700      30 -46.3700
      31 -46.3700      32 -46.3700
 
 
 
 E-fermi :   4.6554     XC(G=0): -12.1828     alpha+bet : -9.3019
   add alpha+bet to get absolut eigen values

 k-point   1 :       0.0625    0.0625    0.0625
  band No.  band energies     occupation 
      1      -4.2630      2.00000
      2      -2.2242      2.00000
      3      -2.2242      2.00000
      4      -2.2242      2.00000
      5      -1.9231      2.00000
      6      -1.9002      2.00000
      7      -1.9002      2.00000
      8      -1.9002      2.00000
      9      -1.8499      2.00000
     10      -1.8499      2.00000
     11      -1.8499      2.00000
     12      -1.6574      2.00000
     13      -1.6574      2.00000
     14      -1.6574      2.00000
     15      -1.3980      2.00000
     16      -1.3980      2.00000
     17      -1.3980      2.00000
     18      -1.0253      2.00000
     19      -1.0253      2.00000
     20      -1.0253      2.00000
     21      -0.8414      2.00000
     22      -0.8414      2.00000
     23      -0.8414      2.00000
     24      -0.8414      2.00000
     25      -0.8414      2.00000
     26      -0.8414      2.00000
     27      -0.7572      2.00000
     28      -0.7572      2.00000
     29      -0.7572      2.00000
     30      -0.7061      2.00000
     31      -0.7061      2.00000
     32      -0.7061      2.00000
     33      -0.7061      2.00000
     34      -0.7061      2.00000
     35      -0.7061      2.00000
     36      -0.6757      2.00000
     37      -0.6757      2.00000
     38      -0.6757      2.00000
     39      -0.5051      2.00000
     40      -0.5051      2.00000
     41      -0.5051      2.00000
     42      -0.1843      2.00000
     43      -0.1843      2.00000
     44      -0.1843      2.00000
     45      -0.1843      2.00000
     46      -0.1843      2.00000
     47      -0.1843      2.00000
     48      -0.0955      2.00000
     49      -0.0955      2.00000
     50      -0.0955      2.00000
     51      -0.0711      2.00000
     52      -0.0711      2.00000
     53      -0.0711      2.00000
     54      -0.0711      2.00000
     55      -0.0711      2.00000
     56      -0.0711      2.00000
     57      -0.0039      2.00000
     58      -0.0039      2.00000
     59      -0.0039      2.00000
     60       0.1528      2.00000
     61       0.1528      2.00000
     62       0.1528      2.00000
     63       0.1528      2.00000
     64       0.1528      2.00000
     65       0.1528      2.00000
     66       0.2144      2.00000
     67       0.2144      2.00000
     68       0.2144      2.00000
     69       0.2144      2.00000
     70       0.2144      2.00000
     71       0.2144      2.00000
     72       0.2175      2.00000
     73       0.2175      2.00000
     74       0.2175      2.00000
     75       0.3129      2.00000
     76       0.3129      2.00000
     77       0.3129      2.00000
     78       0.3168      2.00000
     79       0.3168      2.00000
     80       0.3168      2.00000
     81       0.3370      2.00000
     82       0.3370      2.00000
     83       0.3469      2.00000
     84       0.3487      2.00000
     85       0.3487      2.00000
     86       0.3487      2.00000
     87       0.3669      2.00000
     88       0.3669      2.00000
     89       0.9205      2.00000
     90       0.9205      2.00000
     91       0.9205      2.00000
     92       0.9944      2.00000
     93       0.9944      2.00000
     94       0.9944      2.00000
     95       1.1033      2.00000
     96       1.1033      2.00000
     97       1.1033      2.00000
     98       1.1766      2.00000
     99       1.1766      2.00000
    100       1.1766      2.00000
    101       1.1766      2.00000
    102       1.1766      2.00000
    103       1.1766      2.00000
    104       1.1821      2.00000
    105       1.1821      2.00000
    106       1.1821      2.00000
    107       1.2890      2.00000
    108       1.2890      2.00000
    109       1.2890      2.00000
    110       1.3666      2.00000
    111       1.3666      2.00000
    112       1.3666      2.00000
    113       1.5245      2.00000
    114       1.5245      2.00000
    115       1.5245      2.00000
    116       1.5559      2.00000
    117       1.5559      2.00000
    118       1.5559      2.00000
    119       1.5738      2.00000
    120       1.5738      2.00000
    121       1.5738      2.00000
    122       1.5738      2.00000
    123       1.5738      2.00000
    124       1.5738      2.00000
    125       1.6168      2.00000
    126       1.6168      2.00000
    127       1.6168      2.00000
    128       1.6452      2.00000
    129       1.6452      2.00000
    130       1.7011      2.00000
    131       1.7011      2.00000
    132       1.7011      2.00000
    133       1.7011      2.00000
    134       1.7011      2.00000
    135       1.7011      2.00000
    136       1.8036      2.00000
    137       1.8036      2.00000
    138       1.8036      2.00000
    139       2.0853      2.00000
    140       2.0853      2.00000
    141       2.0853      2.00000
    142       2.1865      2.00000
    143       2.1865      2.00000
    144       2.1865      2.00000
    145       2.5357      2.00000
    146       2.5357      2.00000
    147       2.5357      2.00000
    148       2.6155      2.00000
    149       2.6155      2.00000
    150       2.6155      2.00000
    151       2.6527      2.00000
    152       2.6527      2.00000
    153       2.6747      2.00000
    154       2.6747      2.00000
    155       2.6747      2.00000
    156       2.8741      2.00000
    157       2.8741      2.00000
    158       2.8741      2.00000
    159       2.9273      2.00000
    160       2.9273      2.00000
    161       2.9273      2.00000
    162       2.9273      2.00000
    163       2.9273      2.00000
    164       2.9273      2.00000
    165       2.9312      2.00000
    166       2.9312      2.00000
    167       2.9312      2.00000
    168       3.8107      2.00000
    169       3.8384      2.00000
    170       3.8384      2.00000
    171       3.8384      2.00000
    172       4.2002      2.00594
    173       4.2002      2.00594
    174       4.2002      2.00594
    175       4.2587      2.01685
    176       4.2587      2.01685
    177       4.2587      2.01685
    178       4.2587      2.01685
    179       4.2587      2.01685
    180       4.2587      2.01685
    181       4.6985      0.64480
    182       4.6985      0.64480
    183       4.6985      0.64480
    184       5.8979     -0.00000
    185       5.8979     -0.00000
    186       5.8979     -0.00000
    187       7.3074     -0.00000
    188       7.3074     -0.00000
    189       7.3074     -0.00000
    190       7.5964     -0.00000
    191       8.8242     -0.00000
    192       8.8242     -0.00000
    193       8.8242     -0.00000
    194       8.8243     -0.00000
    195       8.8243     -0.00000
    196       8.8243     -0.00000
    197       9.8606     -0.00000
    198       9.8609     -0.00000
    199       9.8622     -0.00000
    200      10.3376      0.00000
    201      10.3377      0.00000
    202      10.3377      0.00000
    203      10.3385      0.00000
    204      10.3392      0.00000
    205      10.3581      0.00000
    206      11.0996      0.00000
    207      11.1004      0.00000
    208      11.1049      0.00000
    209      11.1246      0.00000
    210      11.2316      0.00000
    211      11.8896      0.00000
    212      12.3023      0.00000

 k-point   2 :       0.1875    0.0625    0.0625
  band No.  band energies     occupation 
      1      -4.1790      2.00000
      2      -2.6505      2.00000
      3      -2.1640      2.00000
      4      -2.1640      2.00000
      5      -1.9007      2.00000
      6      -1.8547      2.00000
      7      -1.8547      2.00000
      8      -1.8324      2.00000
      9      -1.7911      2.00000
     10      -1.7911      2.00000
     11      -1.6303      2.00000
     12      -1.6042      2.00000
     13      -1.6042      2.00000
     14      -1.5949      2.00000
     15      -1.3690      2.00000
     16      -1.3530      2.00000
     17      -1.3530      2.00000
     18      -1.2320      2.00000
     19      -1.2320      2.00000
     20      -1.1854      2.00000
     21      -1.0269      2.00000
     22      -1.0269      2.00000
     23      -0.9665      2.00000
     24      -0.9665      2.00000
     25      -0.9342      2.00000
     26      -0.8382      2.00000
     27      -0.8135      2.00000
     28      -0.8135      2.00000
     29      -0.6959      2.00000
     30      -0.6959      2.00000
     31      -0.6772      2.00000
     32      -0.6772      2.00000
     33      -0.6766      2.00000
     34      -0.6766      2.00000
     35      -0.6640      2.00000
     36      -0.6640      2.00000
     37      -0.6474      2.00000
     38      -0.6474      2.00000
     39      -0.4815      2.00000
     40      -0.4815      2.00000
     41      -0.4789      2.00000
     42      -0.4789      2.00000
     43      -0.3326      2.00000
     44      -0.2084      2.00000
     45      -0.2084      2.00000
     46      -0.1841      2.00000
     47      -0.1841      2.00000
     48      -0.1704      2.00000
     49      -0.1704      2.00000
     50      -0.1461      2.00000
     51      -0.1461      2.00000
     52      -0.0788      2.00000
     53      -0.0788      2.00000
     54       0.0097      2.00000
     55       0.0097      2.00000
     56       0.0182      2.00000
     57       0.0468      2.00000
     58       0.0468      2.00000
     59       0.0747      2.00000
     60       0.0761      2.00000
     61       0.0761      2.00000
     62       0.0986      2.00000
     63       0.0986      2.00000
     64       0.1596      2.00000
     65       0.1596      2.00000
     66       0.1818      2.00000
     67       0.1818      2.00000
     68       0.1932      2.00000
     69       0.1932      2.00000
     70       0.2794      2.00000
     71       0.2968      2.00000
     72       0.2968      2.00000
     73       0.3108      2.00000
     74       0.3390      2.00000
     75       0.3520      2.00000
     76       0.3520      2.00000
     77       0.3619      2.00000
     78       0.3683      2.00000
     79       0.3683      2.00000
     80       0.3876      2.00000
     81       0.3877      2.00000
     82       0.3964      2.00000
     83       0.3994      2.00000
     84       0.4020      2.00000
     85       0.4030      2.00000
     86       0.4491      2.00000
     87       0.5256      2.00000
     88       0.5256      2.00000
     89       0.7877      2.00000
     90       0.7877      2.00000
     91       0.8298      2.00000
     92       0.8298      2.00000
     93       0.9380      2.00000
     94       0.9594      2.00000
     95       1.0396      2.00000
     96       1.0396      2.00000
     97       1.0572      2.00000
     98       1.0716      2.00000
     99       1.1246      2.00000
    100       1.1246      2.00000
    101       1.1742      2.00000
    102       1.2463      2.00000
    103       1.2526      2.00000
    104       1.2526      2.00000
    105       1.2717      2.00000
    106       1.2717      2.00000
    107       1.2734      2.00000
    108       1.2734      2.00000
    109       1.3132      2.00000
    110       1.3132      2.00000
    111       1.4614      2.00000
    112       1.4614      2.00000
    113       1.4871      2.00000
    114       1.4871      2.00000
    115       1.4991      2.00000
    116       1.4991      2.00000
    117       1.5794      2.00000
    118       1.5794      2.00000
    119       1.5943      2.00000
    120       1.5943      2.00000
    121       1.6036      2.00000
    122       1.6440      2.00000
    123       1.6440      2.00000
    124       1.6634      2.00000
    125       1.6881      2.00000
    126       1.6881      2.00000
    127       1.7193      2.00000
    128       1.7451      2.00000
    129       1.7451      2.00000
    130       1.7704      2.00000
    131       1.8542      2.00000
    132       1.8542      2.00000
    133       1.8855      2.00000
    134       1.8855      2.00000
    135       1.9041      2.00000
    136       1.9364      2.00000
    137       1.9485      2.00000
    138       1.9485      2.00000
    139       1.9881      2.00000
    140       2.1339      2.00000
    141       2.1339      2.00000
    142       2.2619      2.00000
    143       2.2619      2.00000
    144       2.2673      2.00000
    145       2.2887      2.00000
    146       2.2986      2.00000
    147       2.2986      2.00000
    148       2.4771      2.00000
    149       2.5486      2.00000
    150       2.5486      2.00000
    151       2.5808      2.00000
    152       2.5892      2.00000
    153       2.6449      2.00000
    154       2.6449      2.00000
    155       2.6454      2.00000
    156       2.6463      2.00000
    157       2.6463      2.00000
    158       2.7950      2.00000
    159       2.8500      2.00000
    160       2.8500      2.00000
    161       2.8510      2.00000
    162       2.8510      2.00000
    163       2.8654      2.00000
    164       2.9272      2.00000
    165       2.9272      2.00000
    166       2.9274      2.00000
    167       2.9274      2.00000
    168       3.4613      2.00000
    169       3.4613      2.00000
    170       3.6166      2.00000
    171       3.8243      2.00000
    172       3.8547      2.00000
    173       3.8547      2.00000
    174       4.2227      2.00909
    175       4.2227      2.00909
    176       4.2603      2.01729
    177       4.2603      2.01729
    178       4.5630      1.69726
    179       4.7170      0.50568
    180       4.7415      0.34118
    181       4.7415      0.34118
    182       5.1918     -0.00099
    183       5.1918     -0.00099
    184       5.2650     -0.00014
    185       6.1960     -0.00000
    186       6.1960     -0.00000
    187       7.3085     -0.00000
    188       7.6102     -0.00000
    189       7.6102     -0.00000
    190       8.0938     -0.00000
    191       8.2457     -0.00000
    192       8.2457     -0.00000
    193       8.4484     -0.00000
    194       8.4484     -0.00000
    195       8.7737     -0.00000
    196       8.7737     -0.00000
    197       9.7557     -0.00000
    198       9.7560     -0.00000
    199       9.7981     -0.00000
    200       9.7985     -0.00000
    201      10.2723      0.00000
    202      10.2742      0.00000
    203      10.4701      0.00000
    204      10.4720      0.00000
    205      10.6633      0.00000
    206      11.2015      0.00000
    207      11.3564      0.00000
    208      11.3965      0.00000
    209      11.5189      0.00000
    210      11.6398      0.00000
    211      11.6787      0.00000
    212      11.7313      0.00000

 k-point   3 :       0.3125    0.0625    0.0625
  band No.  band energies     occupation 
      1      -4.0126      2.00000
      2      -3.0709      2.00000
      3      -2.0471      2.00000
      4      -2.0471      2.00000
      5      -1.8332      2.00000
      6      -1.7643      2.00000
      7      -1.7643      2.00000
      8      -1.7209      2.00000
      9      -1.6774      2.00000
     10      -1.6774      2.00000
     11      -1.5814      2.00000
     12      -1.5012      2.00000
     13      -1.5012      2.00000
     14      -1.4833      2.00000
     15      -1.4551      2.00000
     16      -1.4551      2.00000
     17      -1.3858      2.00000
     18      -1.3115      2.00000
     19      -1.2631      2.00000
     20      -1.2631      2.00000
     21      -1.2508      2.00000
     22      -1.2508      2.00000
     23      -1.1610      2.00000
     24      -1.1359      2.00000
     25      -1.1359      2.00000
     26      -0.9872      2.00000
     27      -0.9863      2.00000
     28      -0.9863      2.00000
     29      -0.7344      2.00000
     30      -0.7344      2.00000
     31      -0.6447      2.00000
     32      -0.6447      2.00000
     33      -0.6312      2.00000
     34      -0.6312      2.00000
     35      -0.5917      2.00000
     36      -0.5917      2.00000
     37      -0.5823      2.00000
     38      -0.5823      2.00000
     39      -0.5246      2.00000
     40      -0.5246      2.00000
     41      -0.4360      2.00000
     42      -0.4360      2.00000
     43      -0.2894      2.00000
     44      -0.2894      2.00000
     45      -0.2369      2.00000
     46      -0.2369      2.00000
     47      -0.2167      2.00000
     48      -0.2167      2.00000
     49      -0.1955      2.00000
     50      -0.1955      2.00000
     51      -0.1651      2.00000
     52      -0.1620      2.00000
     53      -0.1620      2.00000
     54      -0.0633      2.00000
     55      -0.0633      2.00000
     56      -0.0178      2.00000
     57      -0.0178      2.00000
     58       0.0169      2.00000
     59       0.0169      2.00000
     60       0.0578      2.00000
     61       0.1171      2.00000
     62       0.1171      2.00000
     63       0.1685      2.00000
     64       0.1685      2.00000
     65       0.1699      2.00000
     66       0.1699      2.00000
     67       0.1966      2.00000
     68       0.2172      2.00000
     69       0.2172      2.00000
     70       0.2285      2.00000
     71       0.2348      2.00000
     72       0.2633      2.00000
     73       0.2633      2.00000
     74       0.3242      2.00000
     75       0.3737      2.00000
     76       0.3737      2.00000
     77       0.4226      2.00000
     78       0.4606      2.00000
     79       0.4606      2.00000
     80       0.4697      2.00000
     81       0.4717      2.00000
     82       0.4787      2.00000
     83       0.6292      2.00000
     84       0.6292      2.00000
     85       0.6371      2.00000
     86       0.6371      2.00000
     87       0.6785      2.00000
     88       0.6787      2.00000
     89       0.6787      2.00000
     90       0.7850      2.00000
     91       0.7940      2.00000
     92       0.8602      2.00000
     93       0.8776      2.00000
     94       0.8852      2.00000
     95       0.8852      2.00000
     96       0.8939      2.00000
     97       0.9321      2.00000
     98       0.9321      2.00000
     99       1.1671      2.00000
    100       1.1927      2.00000
    101       1.1927      2.00000
    102       1.2619      2.00000
    103       1.2619      2.00000
    104       1.3533      2.00000
    105       1.3533      2.00000
    106       1.3945      2.00000
    107       1.3945      2.00000
    108       1.4293      2.00000
    109       1.4293      2.00000
    110       1.4542      2.00000
    111       1.4542      2.00000
    112       1.4836      2.00000
    113       1.4836      2.00000
    114       1.5239      2.00000
    115       1.5521      2.00000
    116       1.5521      2.00000
    117       1.5793      2.00000
    118       1.5793      2.00000
    119       1.6154      2.00000
    120       1.6154      2.00000
    121       1.6345      2.00000
    122       1.6345      2.00000
    123       1.6672      2.00000
    124       1.6991      2.00000
    125       1.7870      2.00000
    126       1.7870      2.00000
    127       1.8751      2.00000
    128       1.8751      2.00000
    129       1.8982      2.00000
    130       1.9217      2.00000
    131       1.9259      2.00000
    132       1.9388      2.00000
    133       1.9388      2.00000
    134       2.0159      2.00000
    135       2.0496      2.00000
    136       2.0496      2.00000
    137       2.0537      2.00000
    138       2.0941      2.00000
    139       2.0941      2.00000
    140       2.1138      2.00000
    141       2.1270      2.00000
    142       2.1270      2.00000
    143       2.2450      2.00000
    144       2.2450      2.00000
    145       2.2560      2.00000
    146       2.2715      2.00000
    147       2.2715      2.00000
    148       2.3901      2.00000
    149       2.4522      2.00000
    150       2.4522      2.00000
    151       2.4633      2.00000
    152       2.4667      2.00000
    153       2.4667      2.00000
    154       2.5318      2.00000
    155       2.5551      2.00000
    156       2.5551      2.00000
    157       2.5673      2.00000
    158       2.6412      2.00000
    159       2.7091      2.00000
    160       2.7091      2.00000
    161       2.7100      2.00000
    162       2.7100      2.00000
    163       2.7469      2.00000
    164       2.9268      2.00000
    165       2.9268      2.00000
    166       2.9270      2.00000
    167       2.9270      2.00000
    168       3.1140      2.00000
    169       3.1140      2.00000
    170       3.4733      2.00000
    171       3.4733      2.00000
    172       3.6258      2.00000
    173       3.7951      2.00000
    174       4.2458      2.01363
    175       4.2458      2.01363
    176       4.2625      2.01790
    177       4.2625      2.01790
    178       4.4000      2.07012
[...]
    111       1.3181      2.00000
    112       1.3181      2.00000
    113       1.3181      2.00000
    114       1.3336      2.00000
    115       1.3336      2.00000
    116       1.3336      2.00000
    117       1.4329      2.00000
    118       1.4329      2.00000
    119       1.4329      2.00000
    120       1.4946      2.00000
    121       1.4946      2.00000
    122       1.4946      2.00000
    123       1.4946      2.00000
    124       1.4946      2.00000
    125       1.4946      2.00000
    126       1.6149      2.00000
    127       1.6149      2.00000
    128       1.6149      2.00000
    129       1.6829      2.00000
    130       1.6829      2.00000
    131       1.6829      2.00000
    132       1.6997      2.00000
    133       1.6997      2.00000
    134       1.7399      2.00000
    135       1.7399      2.00000
    136       1.7399      2.00000
    137       1.8603      2.00000
    138       1.8603      2.00000
    139       1.8603      2.00000
    140       1.9323      2.00000
    141       1.9323      2.00000
    142       1.9652      2.00000
    143       1.9652      2.00000
    144       1.9652      2.00000
    145       2.7003      2.00000
    146       2.7003      2.00000
    147       2.7003      2.00000
    148       2.7261      2.00000
    149       2.7261      2.00000
    150       2.7261      2.00000
    151       2.7261      2.00000
    152       2.7261      2.00000
    153       2.7261      2.00000
    154       2.7271      2.00000
    155       2.7271      2.00000
    156       2.7271      2.00000
    157       2.7271      2.00000
    158       2.7271      2.00000
    159       2.7271      2.00000
    160       2.7326      2.00000
    161       2.7326      2.00000
    162       2.7326      2.00000
    163       2.7521      2.00000
    164       2.7521      2.00000
    165       2.7521      2.00000
    166       2.7654      2.00000
    167       2.7654      2.00000
    168       2.7654      2.00000
    169       4.7733      0.16962
    170       4.7733      0.16962
    171       4.7733      0.16962
    172       5.1406     -0.00321
    173       5.1406     -0.00321
    174       5.1406     -0.00321
    175       5.1406     -0.00321
    176       5.1406     -0.00321
    177       5.1406     -0.00321
    178       5.4621     -0.00000
    179       5.4621     -0.00000
    180       5.4621     -0.00000
    181       5.6101     -0.00000
    182       5.6101     -0.00000
    183       5.6101     -0.00000
    184       6.0053     -0.00000
    185       6.0053     -0.00000
    186       6.0053     -0.00000
    187       6.0053     -0.00000
    188       6.0053     -0.00000
    189       6.0053     -0.00000
    190       6.3700     -0.00000
    191       6.3700     -0.00000
    192       6.3700     -0.00000
    193       8.8306     -0.00000
    194       8.8306     -0.00000
    195       8.8316     -0.00000
    196       9.2772     -0.00000
    197       9.2784     -0.00000
    198       9.2819     -0.00000
    199       9.5973     -0.00000
    200       9.5973     -0.00000
    201       9.5980     -0.00000
    202       9.6011     -0.00000
    203       9.6148     -0.00000
    204       9.6242     -0.00000
    205      10.0799     -0.00000
    206      10.0799     -0.00000
    207      10.0881     -0.00000
    208      10.1386      0.00000
    209      10.1738      0.00000
    210      10.3069      0.00000
    211      10.4715      0.00000
    212      10.6120      0.00000


--------------------------------------------------------------------------------------------------------


 soft charge-density along one line, spin component           1
         0         1         2         3         4         5         6         7         8         9
 total charge-density along one line
 
 pseudopotential strength for first ion, spin component:           1
-10.153   0.000  -0.000   0.000  -0.000  -0.053  -0.000   0.000
  0.000 -10.153   0.000   0.000  -0.000  -0.000  -0.053  -0.000
 -0.000   0.000 -10.139   0.000  -0.000   0.000  -0.000  -0.055
  0.000   0.000   0.000 -10.153   0.000  -0.000  -0.000  -0.000
 -0.000  -0.000  -0.000   0.000 -10.139   0.000   0.000   0.000
 -0.053  -0.000   0.000  -0.000   0.000   0.277   0.000  -0.000
 -0.000  -0.053  -0.000  -0.000   0.000   0.000   0.277   0.000
  0.000  -0.000  -0.055  -0.000   0.000  -0.000   0.000   0.278
 -0.000  -0.000  -0.000  -0.053  -0.000   0.000   0.000   0.000
  0.000   0.000   0.000  -0.000  -0.055  -0.000  -0.000  -0.000
 -0.000  -0.000  -0.000  -0.000  -0.000   0.000   0.000  -0.000
  0.000   0.000   0.000   0.000   0.000  -0.000  -0.000  -0.000
  0.000  -0.000  -0.000   0.000  -0.000  -0.000   0.000   0.000
  0.000   0.000  -0.000   0.000   0.000  -0.000  -0.000   0.000
  0.000   0.000  -0.000  -0.000   0.000  -0.000  -0.000   0.000
 -0.000   0.000   0.000  -0.000   0.000   0.000  -0.000  -0.000
 -0.000  -0.000   0.000  -0.000  -0.000   0.000   0.000  -0.000
 -0.000  -0.000   0.000   0.000  -0.000   0.000   0.000  -0.000
 total augmentation occupancy for first ion, spin component:           1
  1.899  -0.001  -0.004   0.001   0.001  -0.049   0.001   0.001  -0.001  -0.001   0.007   0.001  -0.000   0.000  -0.000  -0.000
 -0.001   1.917  -0.004  -0.002  -0.001   0.001  -0.067   0.005   0.002  -0.001   0.001  -0.002   0.000  -0.000  -0.000   0.000
 -0.004  -0.004   1.965  -0.001   0.004   0.001   0.005  -0.104   0.002  -0.003   0.020   0.005   0.000  -0.000  -0.000   0.000
  0.001  -0.002  -0.001   1.911   0.003  -0.001   0.002   0.002  -0.056  -0.001   0.006   0.001   0.000   0.000  -0.000   0.000
  0.001  -0.001   0.004   0.003   1.943  -0.001  -0.001  -0.003  -0.001  -0.087  -0.007  -0.003  -0.000   0.000  -0.000  -0.000
 -0.049   0.001   0.001  -0.001  -0.001   0.163  -0.001   0.002   0.001   0.000  -0.002   0.002   0.000  -0.000  -0.000   0.000
  0.001  -0.067   0.005   0.002  -0.001  -0.001   0.176  -0.005  -0.001   0.003   0.003   0.003  -0.000   0.000  -0.000  -0.000
  0.001   0.005  -0.104   0.002  -0.003   0.002  -0.005   0.137  -0.002   0.000  -0.013  -0.001  -0.000   0.000   0.000  -0.000
 -0.001   0.002   0.002  -0.056  -0.001   0.001  -0.001  -0.002   0.162  -0.000  -0.002   0.001  -0.000   0.000   0.000  -0.000
 -0.001  -0.001  -0.003  -0.001  -0.087   0.000   0.003   0.000  -0.000   0.127   0.006   0.002   0.000  -0.000   0.000   0.000
  0.007   0.001   0.020   0.006  -0.007  -0.002   0.003  -0.013  -0.002   0.006   1.036  -0.333  -0.000  -0.000  -0.000   0.000
  0.001  -0.002   0.005   0.001  -0.003   0.002   0.003  -0.001   0.001   0.002  -0.333   0.202  -0.000  -0.000  -0.000   0.000
 -0.000   0.000   0.000   0.000  -0.000   0.000  -0.000  -0.000  -0.000   0.000  -0.000  -0.000   0.132  -0.001   0.003  -0.010
  0.000  -0.000  -0.000   0.000   0.000  -0.000   0.000   0.000   0.000  -0.000  -0.000  -0.000  -0.001   0.135   0.001  -0.000
 -0.000  -0.000  -0.000  -0.000  -0.000  -0.000  -0.000   0.000   0.000   0.000  -0.000  -0.000   0.003   0.001   0.135  -0.000
 -0.000   0.000   0.000   0.000  -0.000   0.000  -0.000  -0.000  -0.000   0.000   0.000   0.000  -0.010  -0.000  -0.000   0.001
  0.000  -0.000  -0.000   0.000   0.000  -0.000   0.000   0.000   0.000  -0.000  -0.000  -0.000  -0.000  -0.010  -0.000   0.000
 -0.000  -0.000  -0.000  -0.000  -0.000  -0.000   0.000   0.000   0.000   0.000  -0.000   0.000  -0.000  -0.000  -0.010   0.000


------------------------ aborting loop because EDIFF is reached ----------------------------------------




--------------------------------------------------------------------------------------------------------


    CHARGE:  VPU time    7.54: CPU time    7.54
    FORLOC:  VPU time    0.10: CPU time    0.10
    FORNL :  VPU time   65.66: CPU time   65.63
    STRESS:  VPU time   94.45: CPU time   94.41
    FORCOR:  VPU time    0.54: CPU time    0.54
    FORHAR:  VPU time    0.17: CPU time    0.17
    MIXING:  VPU time    0.01: CPU time    0.01


--------------------------------------------------------------------------------------------------------



  FREE ENERGIE OF THE ION-ELECTRON SYSTEM (eV)
  ---------------------------------------------------
  free  energy   TOTEN  =      -104.533185 eV

  energy  without entropy=     -104.541628  energy(sigma->0) =     -104.535999
 

  FORCE on cell =-STRESS in cart. coord.  units (eV/reduce length):
  Direction    X        Y        Z        XY       YZ       ZX
  --------------------------------------------------------------------------------------
  Alpha Z   3212.27   3212.27   3212.27
  Ewald   -10119.77 -10119.77 -10119.77     -0.00     -0.00     -0.00
  Hartree   1333.67   1333.67   1333.67     -0.00     -0.00     -0.00
  E(xc)    -1583.46  -1583.46  -1583.46     -0.00     -0.00     -0.00
  Local     2501.98   2501.98   2501.98      0.00      0.00      0.00
  n-local  -1629.45  -1625.16  -1612.49      5.24      0.45      3.49
  augment   1375.72   1375.72   1375.72     -0.00     -0.00     -0.00
  Kinetic   4882.17   4887.43   4898.92      1.53     -3.93     -0.10
  -------------------------------------------------------------------------------------
  Total      -12.44    -12.44    -12.44     -0.00     -0.00     -0.00
  in kB      -33.39    -33.39    -33.39     -0.00     -0.00     -0.00
  external pressure =      -33.39 kB  Pullay stress =        0.00 kB


 VOLUME and BASIS-vectors are now :
 -----------------------------------------------------------------------------
  energy-cutoff  :      600.00
  volume of cell :      597.01
      direct lattice vectors                 reciprocal lattice vectors
     8.420304790  0.000000000  0.000000000     0.118760547 -0.000000002 -0.000000002
     0.000000150  8.420304790  0.000000000     0.000000000  0.118760547 -0.000000002
     0.000000150  0.000000150  8.420304790     0.000000000  0.000000000  0.118760547

  length of vectors
     8.420304790  8.420304790  8.420304790     0.118760547  0.118760547  0.118760547


 FORCES acting on ions
    electron-ion (+dipol)            ewald-force                    non-local-force                 convergence-correction
 -----------------------------------------------------------------------------------------------
   0.442E-12 -.126E-10 0.187E-11   0.639E-13 -.995E-13 0.667E-13   0.111E-22 -.228E-22 -.306E-22   0.899E-13 0.101E-13 -.693E-12
   0.436E-12 -.603E-12 -.597E-13   0.142E-13 0.284E-13 0.925E-13   0.293E-23 0.262E-22 0.409E-23   -.295E-13 -.399E-12 0.938E-12
   0.434E-12 -.533E-13 -.536E-11   0.711E-14 -.145E-13 0.320E-13   -.787E-22 0.696E-23 -.375E-23   -.135E-12 -.359E-12 -.995E-13
   0.447E-12 0.379E-11 0.150E-11   -.249E-13 -.320E-13 0.981E-13   -.100E-21 0.779E-22 0.156E-22   0.425E-13 -.568E-13 -.277E-12
   -.245E-13 0.411E-12 0.134E-12   0.558E-13 0.888E-13 0.355E-13   -.422E-22 -.515E-22 -.255E-22   -.102E-12 -.769E-13 -.253E-12
   -.320E-13 -.420E-13 0.269E-12   0.724E-13 -.571E-13 0.247E-15   -.277E-22 -.390E-22 -.409E-22   0.456E-13 -.174E-12 -.392E-12
   0.123E-12 -.114E-11 0.117E-11   0.533E-13 0.426E-13 0.121E-13   -.228E-23 0.117E-22 0.180E-22   -.940E-13 -.514E-14 -.347E-12
   0.440E-12 0.223E-13 0.231E-11   -.675E-13 -.855E-13 0.497E-13   0.263E-22 -.237E-22 -.172E-22   0.475E-13 0.475E-13 -.226E-12
   0.441E-12 -.825E-11 -.138E-12   0.284E-13 0.142E-13 0.319E-13   -.445E-22 0.680E-24 0.636E-23   -.216E-12 0.376E-12 0.544E-12
   0.441E-12 -.135E-11 0.671E-11   0.568E-13 0.207E-14 -.284E-13   -.190E-22 0.141E-22 -.928E-23   -.415E-13 0.407E-12 -.517E-12
   -.309E-13 0.417E-12 0.421E-12   -.324E-14 -.533E-13 0.178E-13   0.361E-22 -.194E-22 -.621E-23   0.240E-12 -.166E-12 -.389E-13
   -.382E-13 -.350E-13 -.131E-13   -.123E-12 -.776E-13 -.391E-13   -.158E-22 0.232E-22 -.160E-22   0.388E-12 -.976E-13 0.647E-12
   -.323E-13 0.148E-12 0.128E-12   0.517E-13 0.142E-13 -.284E-13   -.428E-22 0.172E-22 -.113E-22   0.229E-12 0.534E-13 -.326E-12
   -.248E-13 0.290E-12 0.263E-12   -.740E-13 -.107E-13 0.208E-13   0.180E-22 -.726E-23 0.267E-22   0.707E-13 0.213E-12 -.310E-12
   0.130E-12 0.198E-11 0.888E-12   0.142E-13 -.142E-13 0.179E-13   0.146E-22 0.192E-22 0.169E-22   0.252E-13 -.781E-13 0.594E-12
   0.131E-12 -.427E-13 -.129E-11   0.533E-13 -.572E-13 -.391E-13   -.304E-22 -.638E-22 -.453E-22   0.135E-12 -.189E-13 -.428E-12
   0.117E-12 0.168E-11 0.116E-11   0.568E-13 -.178E-13 0.428E-13   0.443E-22 -.145E-22 -.176E-22   -.341E-13 -.291E-13 -.282E-12
   0.274E-12 -.333E-11 -.283E-12   0.879E-14 0.711E-13 0.000E+00   0.105E-23 -.383E-22 -.227E-22   0.134E-12 0.550E-14 -.382E-12
   0.281E-12 -.389E-13 -.253E-11   -.266E-13 0.153E-13 -.280E-13   -.142E-22 0.425E-22 0.296E-22   -.232E-13 -.104E-12 -.562E-12
   0.448E-12 -.106E-11 -.960E-11   0.000E+00 0.116E-13 -.711E-13   0.715E-22 -.353E-23 -.314E-22   0.304E-14 0.983E-15 0.199E-12
   -.388E-13 0.141E-12 0.428E-12   -.121E-12 -.782E-13 -.213E-13   -.421E-22 -.110E-22 0.936E-23   0.225E-12 0.143E-12 0.526E-13
   -.311E-13 0.283E-12 -.694E-14   -.449E-13 0.319E-13 -.426E-13   -.574E-22 -.239E-22 0.466E-22   0.656E-13 0.124E-12 0.549E-12
   0.125E-12 -.488E-13 0.211E-11   -.639E-13 0.666E-14 -.533E-13   0.101E-21 0.440E-22 0.115E-22   -.487E-13 0.352E-13 0.137E-12
   0.123E-12 -.140E-11 0.899E-12   -.142E-12 -.142E-13 0.282E-13   0.365E-23 -.145E-22 -.152E-22   0.222E-12 0.392E-13 0.548E-12
   0.124E-12 0.291E-12 0.179E-11   -.284E-13 -.435E-13 -.853E-13   -.645E-22 -.627E-23 0.255E-22   0.403E-13 0.703E-13 -.498E-12
   0.281E-12 0.263E-11 0.459E-11   -.562E-13 0.284E-13 -.284E-13   0.825E-22 -.158E-22 0.237E-22   -.209E-12 -.222E-12 0.724E-13
   0.287E-12 0.100E-13 0.203E-11   -.128E-12 -.414E-13 -.710E-13   0.222E-22 -.265E-22 0.113E-22   -.366E-12 0.116E-12 0.846E-12
   0.282E-12 -.228E-11 -.352E-12   0.457E-13 0.000E+00 -.284E-13   -.511E-23 0.510E-22 -.202E-23   -.206E-12 -.558E-13 -.606E-12
   0.275E-12 -.272E-11 -.239E-11   -.849E-13 0.712E-13 -.573E-13   -.136E-22 -.126E-22 -.309E-22   -.494E-13 0.174E-12 -.346E-12
   0.117E-12 0.296E-12 -.977E-12   -.156E-12 -.660E-13 -.284E-13   0.279E-22 -.976E-23 -.595E-23   -.467E-14 0.157E-13 0.210E-12
   0.289E-12 -.208E-11 -.151E-11   0.372E-13 -.568E-13 -.853E-13   -.228E-23 0.248E-22 0.529E-23   -.201E-12 0.173E-12 0.289E-12
   0.281E-12 -.276E-11 0.179E-11   0.511E-14 0.140E-13 -.994E-13   0.148E-22 0.189E-23 -.277E-22   -.438E-13 -.463E-13 0.603E-12
 -----------------------------------------------------------------------------------------------
   0.651E-11 -.274E-10 0.594E-11   -.520E-12 -.379E-12 -.289E-12   -.125E-21 -.431E-22 -.109E-21   0.198E-12 0.116E-12 -.355E-12
 
 
 POSITION                                       TOTAL-FORCE (eV/Angst)
 -----------------------------------------------------------------------------------
      6.31523      6.31523      4.21015         0.000000      0.000000      0.000000
      6.31523      6.31523      0.00000         0.000000     -0.000000     -0.000000
      6.31523      0.00000      2.10508         0.000000     -0.000000      0.000000
      6.31523      2.10508      4.21015         0.000000     -0.000000     -0.000000
      0.00000      6.31523      2.10508         0.000000      0.000000     -0.000000
      0.00000      0.00000      4.21015        -0.000000     -0.000000      0.000000
      2.10508      6.31523      4.21015         0.000000      0.000000     -0.000000
      6.31523      0.00000      6.31523        -0.000000     -0.000000      0.000000
      6.31523      2.10508      0.00000         0.000000      0.000000      0.000000
      6.31523      4.21015      2.10508         0.000000      0.000000     -0.000000
      0.00000      6.31523      6.31523         0.000000     -0.000000     -0.000000
      0.00000      0.00000      0.00000         0.000000     -0.000000     -0.000000
      0.00000      2.10508      2.10508         0.000000      0.000000      0.000000
      0.00000      4.21015      4.21015         0.000000     -0.000000     -0.000000
      2.10508      6.31523      0.00000         0.000000      0.000000     -0.000000
      2.10508      0.00000      2.10508         0.000000      0.000000     -0.000000
      2.10508      2.10508      4.21015        -0.000000     -0.000000      0.000000
      4.21015      6.31523      2.10508        -0.000000      0.000000     -0.000000
      4.21015      0.00000      4.21015         0.000000      0.000000     -0.000000
      6.31523      4.21015      6.31523        -0.000000     -0.000000      0.000000
      0.00000      2.10508      6.31523        -0.000000     -0.000000      0.000000
      0.00000      4.21015      0.00000         0.000000     -0.000000      0.000000
      2.10508      0.00000      6.31523        -0.000000     -0.000000      0.000000
      2.10508      2.10508      0.00000         0.000000     -0.000000      0.000000
      2.10508      4.21015      2.10508        -0.000000     -0.000000     -0.000000
      4.21015      6.31523      6.31523        -0.000000     -0.000000      0.000000
      4.21015      0.00000      0.00000         0.000000      0.000000     -0.000000
      4.21015      2.10508      2.10508         0.000000      0.000000     -0.000000
      4.21015      4.21015      4.21015        -0.000000      0.000000      0.000000
      2.10508      4.21015      6.31523        -0.000000      0.000000      0.000000
      4.21015      2.10508      6.31523        -0.000000     -0.000000      0.000000
      4.21015      4.21015      0.00000         0.000000     -0.000000     -0.000000
 -----------------------------------------------------------------------------------
    total drift:                                0.000000     -0.000000      0.000000


--------------------------------------------------------------------------------------------------------




--------------------------------------------------------------------------------------------------------


  
 reached required accuracy - stopping structural energy minimisation
 writing wavefunctions
     LOOP+:  VPU time 1716.52: CPU time 1721.54

 ----------------------------------------------------------------------------- 
|                                                                             |
|           W    W    AA    RRRRR   N    N  II  N    N   GGGG   !!!           |
|           W    W   A  A   R    R  NN   N  II  NN   N  G    G  !!!           |
|           W    W  A    A  R    R  N N  N  II  N N  N  G       !!!           |
|           W WW W  AAAAAA  RRRRR   N  N N  II  N  N N  G  GGG   !            |
|           WW  WW  A    A  R   R   N   NN  II  N   NN  G    G                |
|           W    W  A    A  R    R  N    N  II  N    N   GGGG   !!!           |
|                                                                             |
|      The partial DOS and the PROCAR file are not evaluated for NPAR/=1      |
|      please rerun with NPAR=1                                               |
|                                                                             |
 ----------------------------------------------------------------------------- 

  
  
 General timing and accounting informations for this job:
 ========================================================
  
                  Total CPU time used (sec):     1739.026
                            User time (sec):     1684.054
                          System time (sec):       54.972
                         Elapsed time (sec):     1744.046
  
                   Maximum memory used (kb):     1957972.
                   Average memory used (kb):           0.
  
                          Minor page faults:       417201
                          Major page faults:            0
                 Voluntary context switches:        48181
