       N       E                     dE             d eps       ncg     rms          rms(c)
DAV:   1    -0.120349815836E+03   -0.12035E+03   -0.64345E+01  1088   0.968E+00    0.501E-01
DAV:   2    -0.120527301276E+03   -0.17749E+00   -0.18420E+00   932   0.293E+00    0.144E-01
DAV:   3    -0.120528526840E+03   -0.12256E-02   -0.22436E-02   992   0.470E-01    0.765E-02
DAV:   4    -0.120528414784E+03    0.11206E-03   -0.69723E-04   956   0.822E-02    0.333E-02
DAV:   5    -0.120528392702E+03    0.22083E-04   -0.41850E-05   968   0.209E-02    0.942E-03
DAV:   6    -0.120528389290E+03    0.34117E-05   -0.42149E-06   588   0.623E-03
   1 F= -.12052839E+03 E0= -.12051346E+03  d E =-.447818E-01
