 running on    4 nodes
 distr:  one band on    1 nodes,    4 groups
 vasp.4.6.28 25Jul05 complex 
 POSCAR found :  1 types and   32 ions

 ----------------------------------------------------------------------------- 
|                                                                             |
|  ADVICE TO THIS USER RUNNING 'VASP/VAMP'   (HEAR YOUR MASTER'S VOICE ...):  |
|                                                                             |
|      You have a (more or less) 'large supercell' and for larger cells       |
|      it might be more efficient to use real space projection operators      |
|      So try LREAL= Auto  in the INCAR   file.                               |
|      Mind: If you want to do an extremely accurate calculations keep the    |
|      reciprocal projection scheme          (i.e. LREAL=.FALSE.)             |
|                                                                             |
 ----------------------------------------------------------------------------- 

 LDA part: xc-table for Pade appr. of Perdew
 POSCAR, INCAR and KPOINTS ok, starting setup
 FFT: planning ...           2
 reading WAVECAR
 entering main loop
       N       E                     dE             d eps       ncg     rms          rms(c)
DAV:   1     0.154423689265E+03    0.15442E+03   -0.37285E+04   544   0.128E+03
DAV:   2    -0.106039697791E+03   -0.26046E+03   -0.24455E+03   644   0.154E+02
DAV:   3    -0.120896105094E+03   -0.14856E+02   -0.14148E+02   688   0.296E+01
DAV:   4    -0.121232331317E+03   -0.33623E+00   -0.33298E+00   636   0.445E+00
DAV:   5    -0.121236461341E+03   -0.41300E-02   -0.41272E-02   656   0.586E-01    0.521E+00
DAV:   6    -0.120827398928E+03    0.40906E+00   -0.48762E-02   632   0.724E-01    0.324E+00
DAV:   7    -0.120529172530E+03    0.29823E+00   -0.14537E-01   612   0.116E+00    0.131E-01
DAV:   8    -0.120529318557E+03   -0.14603E-03   -0.11153E-03   660   0.135E-01    0.329E-02
DAV:   9    -0.120529335573E+03   -0.17016E-04   -0.33501E-05   508   0.162E-02    0.308E-03
DAV:  10    -0.120529330869E+03    0.47042E-05   -0.23137E-06   372   0.620E-03
   1 F= -.12052933E+03 E0= -.12051439E+03  d E =-.120529E+03
 curvature:   0.00 expect dE= 0.000E+00 dE for cont linesearch  0.000E+00
 trial: gam= 0.00000 g(F)=  0.701E-60 g(S)=  0.000E+00 ort = 0.000E+00 (trialstep = 0.100E+01)
 search vector abs. value=  0.100E-09
 reached required accuracy - stopping structural energy minimisation
 writing wavefunctions

 ----------------------------------------------------------------------------- 
|                                                                             |
|           W    W    AA    RRRRR   N    N  II  N    N   GGGG   !!!           |
|           W    W   A  A   R    R  NN   N  II  NN   N  G    G  !!!           |
|           W    W  A    A  R    R  N N  N  II  N N  N  G       !!!           |
|           W WW W  AAAAAA  RRRRR   N  N N  II  N  N N  G  GGG   !            |
|           WW  WW  A    A  R   R   N   NN  II  N   NN  G    G                |
|           W    W  A    A  R    R  N    N  II  N    N   GGGG   !!!           |
|                                                                             |
|      The partial DOS and the PROCAR file are not evaluated for NPAR/=1      |
|      please rerun with NPAR=1                                               |
|                                                                             |
 ----------------------------------------------------------------------------- 

