 running on    4 nodes
 distr:  one band on    1 nodes,    4 groups
 vasp.4.6.28 25Jul05 complex 
 POSCAR found :  1 types and   32 ions

 ----------------------------------------------------------------------------- 
|                                                                             |
|  ADVICE TO THIS USER RUNNING 'VASP/VAMP'   (HEAR YOUR MASTER'S VOICE ...):  |
|                                                                             |
|      You have a (more or less) 'large supercell' and for larger cells       |
|      it might be more efficient to use real space projection operators      |
|      So try LREAL= Auto  in the INCAR   file.                               |
|      Mind: If you want to do an extremely accurate calculations keep the    |
|      reciprocal projection scheme          (i.e. LREAL=.FALSE.)             |
|                                                                             |
 ----------------------------------------------------------------------------- 

 LDA part: xc-table for Pade appr. of Perdew
 POSCAR, INCAR and KPOINTS ok, starting setup
 WARNING: wrap around errors must be expected
 FFT: planning ...           4
 reading WAVECAR
 entering main loop
       N       E                     dE             d eps       ncg     rms          rms(c)
DAV:   1     0.197483250845E+04    0.19748E+04   -0.11494E+05   432   0.942E+02
DAV:   2    -0.313024289149E+00   -0.19751E+04   -0.18746E+04   428   0.323E+02
DAV:   3    -0.918485947115E+02   -0.91536E+02   -0.88927E+02   456   0.732E+01
DAV:   4    -0.929823675043E+02   -0.11338E+01   -0.11295E+01   440   0.815E+00
DAV:   5    -0.929900113094E+02   -0.76438E-02   -0.76408E-02   448   0.593E-01    0.134E+01
DAV:   6    -0.876918764532E+02    0.52981E+01   -0.21317E+01   448   0.157E+01    0.258E+00
DAV:   7    -0.875851834640E+02    0.10669E+00   -0.29951E-01   440   0.115E+00    0.148E+00
DAV:   8    -0.875282922731E+02    0.56891E-01   -0.21202E-02   440   0.459E-01    0.846E-02
DAV:   9    -0.875288292186E+02   -0.53695E-03   -0.12453E-03   440   0.989E-02    0.573E-02
DAV:  10    -0.875287610619E+02    0.68157E-04   -0.12263E-04   416   0.304E-02    0.714E-03
DAV:  11    -0.875287563045E+02    0.47574E-05   -0.45880E-06   240   0.537E-03
   1 F= -.87528756E+02 E0= -.87471085E+02  d E =-.875288E+02
 curvature:   0.00 expect dE= 0.000E+00 dE for cont linesearch  0.000E+00
 trial: gam= 0.00000 g(F)=  0.318E-57 g(S)=  0.000E+00 ort = 0.000E+00 (trialstep = 0.100E+01)
 search vector abs. value=  0.100E-09
 reached required accuracy - stopping structural energy minimisation
 writing wavefunctions

 ----------------------------------------------------------------------------- 
|                                                                             |
|           W    W    AA    RRRRR   N    N  II  N    N   GGGG   !!!           |
|           W    W   A  A   R    R  NN   N  II  NN   N  G    G  !!!           |
|           W    W  A    A  R    R  N N  N  II  N N  N  G       !!!           |
|           W WW W  AAAAAA  RRRRR   N  N N  II  N  N N  G  GGG   !            |
|           WW  WW  A    A  R   R   N   NN  II  N   NN  G    G                |
|           W    W  A    A  R    R  N    N  II  N    N   GGGG   !!!           |
|                                                                             |
|      The partial DOS and the PROCAR file are not evaluated for NPAR/=1      |
|      please rerun with NPAR=1                                               |
|                                                                             |
 ----------------------------------------------------------------------------- 

