 running on    4 nodes
 distr:  one band on    1 nodes,    4 groups
 vasp.4.6.28 25Jul05 complex 
 POSCAR found :  1 types and   32 ions

 ----------------------------------------------------------------------------- 
|                                                                             |
|  ADVICE TO THIS USER RUNNING 'VASP/VAMP'   (HEAR YOUR MASTER'S VOICE ...):  |
|                                                                             |
|      You have a (more or less) 'large supercell' and for larger cells       |
|      it might be more efficient to use real space projection operators      |
|      So try LREAL= Auto  in the INCAR   file.                               |
|      Mind: If you want to do an extremely accurate calculations keep the    |
|      reciprocal projection scheme          (i.e. LREAL=.FALSE.)             |
|                                                                             |
 ----------------------------------------------------------------------------- 

 LDA part: xc-table for Pade appr. of Perdew
 found WAVECAR, reading the header
  number of k-points has changed, file:   4 present:   6
  trying to continue reading WAVECAR, but it might fail
 POSCAR, INCAR and KPOINTS ok, starting setup
 FFT: planning ...           1
 reading WAVECAR
 the WAVECAR file was read sucessfully
 initial charge from wavefunction
 entering main loop
       N       E                     dE             d eps       ncg     rms          rms(c)
DAV:   1    -0.103745608454E+03   -0.10375E+03   -0.55425E+02  2756   0.378E+01BRMIX: very serious problems
 the old and the new charge density differ
 old charge density:   347.45744 new  352.00000
    0.543E+00
DAV:   2    -0.103809293052E+03   -0.63685E-01   -0.13841E+01  2664   0.107E+01    0.985E-01
DAV:   3    -0.103828350922E+03   -0.19058E-01   -0.36409E-01  2704   0.208E+00    0.584E-01
DAV:   4    -0.103829164874E+03   -0.81395E-03   -0.80517E-03  3096   0.384E-01    0.306E-01
DAV:   5    -0.103829511058E+03   -0.34618E-03   -0.10210E-03  2720   0.120E-01    0.329E-02
DAV:   6    -0.103829500685E+03    0.10373E-04   -0.17119E-04  2720   0.477E-02    0.103E-02
DAV:   7    -0.103829497547E+03    0.31379E-05   -0.10469E-05  1456   0.187E-02
   1 F= -.10382950E+03 E0= -.10382163E+03  d E =-.236082E-01

 ----------------------------------------------------------------------------- 
|                                                                             |
|           W    W    AA    RRRRR   N    N  II  N    N   GGGG   !!!           |
|           W    W   A  A   R    R  NN   N  II  NN   N  G    G  !!!           |
|           W    W  A    A  R    R  N N  N  II  N N  N  G       !!!           |
|           W WW W  AAAAAA  RRRRR   N  N N  II  N  N N  G  GGG   !            |
|           WW  WW  A    A  R   R   N   NN  II  N   NN  G    G                |
|           W    W  A    A  R    R  N    N  II  N    N   GGGG   !!!           |
|                                                                             |
|      The partial DOS and the PROCAR file are not evaluated for NPAR/=1      |
|      please rerun with NPAR=1                                               |
|                                                                             |
 ----------------------------------------------------------------------------- 

