       N       E                     dE             d eps       ncg     rms          rms(c)
DAV:   1    -0.103746326362E+03   -0.10375E+03   -0.55426E+02  2756   0.378E+01    0.544E+00
DAV:   2    -0.103809572788E+03   -0.63246E-01   -0.13840E+01  2672   0.107E+01    0.989E-01
DAV:   3    -0.103828354073E+03   -0.18781E-01   -0.36351E-01  2704   0.210E+00    0.584E-01
DAV:   4    -0.103829157904E+03   -0.80383E-03   -0.81835E-03  3044   0.395E-01    0.311E-01
DAV:   5    -0.103829510956E+03   -0.35305E-03   -0.10586E-03  2728   0.119E-01    0.333E-02
DAV:   6    -0.103829500728E+03    0.10227E-04   -0.17420E-04  2712   0.489E-02    0.104E-02
DAV:   7    -0.103829497642E+03    0.30858E-05   -0.11761E-05  1472   0.204E-02
   1 F= -.10382950E+03 E0= -.10382163E+03  d E =-.236082E-01
