       N       E                     dE             d eps       ncg     rms          rms(c)
DAV:   1     0.413764704268E+04    0.41376E+04   -0.18224E+05  1696   0.185E+03
DAV:   2     0.137406556900E+03   -0.40002E+04   -0.38329E+04  1700   0.518E+02
DAV:   3    -0.102761017231E+03   -0.24017E+03   -0.21944E+03  1876   0.131E+02
DAV:   4    -0.111308488107E+03   -0.85475E+01   -0.84204E+01  1816   0.243E+01
DAV:   5    -0.111500759428E+03   -0.19227E+00   -0.19154E+00  1904   0.305E+00    0.157E+01
DAV:   6    -0.104274132544E+03    0.72266E+01   -0.20670E+01  1776   0.158E+01    0.403E+00
DAV:   7    -0.103900367213E+03    0.37377E+00   -0.12547E+00  1896   0.318E+00    0.179E+00
DAV:   8    -0.103829940005E+03    0.70427E-01   -0.61615E-02  1744   0.909E-01    0.153E-01
DAV:   9    -0.103830185623E+03   -0.24562E-03   -0.63080E-03  1888   0.251E-01    0.898E-02
DAV:  10    -0.103830208470E+03   -0.22847E-04   -0.69787E-04  1760   0.774E-02    0.103E-02
DAV:  11    -0.103830220490E+03   -0.12020E-04   -0.16247E-05  1088   0.119E-02    0.265E-03
DAV:  12    -0.103830216819E+03    0.36710E-05   -0.22070E-06   936   0.540E-03
   1 F= -.10383022E+03 E0= -.10382235E+03  d E =-.103830E+03
