   4   4   0   0
  0.1710438E+02  0.4089992E-09  0.4089992E-09  0.4089992E-09  0.5000000E-15
  1.000000000000000E-004
  CAR 
 unknown system                          
     22.47751095     -5.37480438  301      5.71068032      1.00000000
     -5.375  0.0000E+00  0.0000E+00
     -5.282  0.0000E+00  0.0000E+00
     -5.189  0.0000E+00  0.0000E+00
     -5.096  0.0000E+00  0.0000E+00
     -5.003  0.0000E+00  0.0000E+00
     -4.911  0.0000E+00  0.0000E+00
     -4.818  0.0000E+00  0.0000E+00
     -4.725  0.0000E+00  0.0000E+00
     -4.632  0.0000E+00  0.0000E+00
     -4.539  0.0000E+00  0.0000E+00
     -4.446  0.0000E+00  0.0000E+00
     -4.354  0.0000E+00  0.0000E+00
     -4.261  0.0000E+00  0.0000E+00
     -4.168  0.2563E-19  0.2380E-20
     -4.075  0.1342E-01  0.1246E-02
     -3.982  0.7865E-01  0.9748E-02
     -3.889  0.1104E+00  0.2101E-01
     -3.797  0.1432E+00  0.3746E-01
     -3.704  0.1798E+00  0.5635E-01
     -3.611  0.2033E+00  0.7705E-01
     -3.518  0.2259E+00  0.9984E-01
     -3.425  0.2357E+00  0.1257E+00
     -3.332  0.2998E+00  0.1541E+00
     -3.239  0.2579E+00  0.1824E+00
     -3.147  0.2889E+00  0.2138E+00
     -3.054  0.2926E+00  0.2474E+00
     -2.961  0.3599E+00  0.2868E+00
     -2.868  0.3349E+00  0.3221E+00
     -2.775  0.3896E+00  0.3658E+00
     -2.682  0.4166E+00  0.4105E+00
     -2.590  0.4578E+00  0.4584E+00
     -2.497  0.4214E+00  0.5036E+00
     -2.404  0.5551E+00  0.5616E+00
     -2.311  0.4367E+00  0.6128E+00
     -2.218  0.5994E+00  0.6768E+00
     -2.125  0.6020E+00  0.7399E+00
     -2.033  0.5711E+00  0.8075E+00
     -1.940  0.7483E+00  0.8894E+00
     -1.847  0.7958E+00  0.9740E+00
     -1.754  0.8305E+00  0.1063E+01
     -1.661  0.1041E+01  0.1179E+01
     -1.568  0.1784E+01  0.1370E+01
     -1.475  0.2240E+01  0.1604E+01
     -1.383  0.2173E+01  0.1850E+01
     -1.290  0.2819E+01  0.2156E+01
     -1.197  0.3273E+01  0.2498E+01
     -1.104  0.4116E+01  0.2927E+01
     -1.011  0.4712E+01  0.3436E+01
     -0.918  0.5624E+01  0.4035E+01
     -0.826  0.6390E+01  0.4716E+01
     -0.733  0.6701E+01  0.5444E+01
     -0.640  0.6347E+01  0.6141E+01
     -0.547  0.6042E+01  0.6797E+01
     -0.454  0.5720E+01  0.7425E+01
     -0.361  0.5625E+01  0.8047E+01
     -0.269  0.5864E+01  0.8659E+01
     -0.176  0.5431E+01  0.9244E+01
     -0.083  0.4621E+01  0.9734E+01
      0.010  0.4123E+01  0.1016E+02
      0.103  0.4357E+01  0.1063E+02
      0.196  0.5655E+01  0.1123E+02
      0.288  0.5952E+01  0.1189E+02
      0.381  0.6557E+01  0.1258E+02
      0.474  0.6716E+01  0.1331E+02
      0.567  0.6988E+01  0.1406E+02
      0.660  0.6581E+01  0.1476E+02
      0.753  0.7086E+01  0.1551E+02
      0.846  0.6588E+01  0.1624E+02
      0.938  0.7635E+01  0.1704E+02
      1.031  0.8051E+01  0.1789E+02
      1.124  0.8711E+01  0.1883E+02
      1.217  0.9766E+01  0.1988E+02
      1.310  0.1291E+02  0.2124E+02
      1.403  0.9763E+01  0.2238E+02
      1.495  0.7545E+01  0.2320E+02
      1.588  0.5982E+01  0.2388E+02
      1.681  0.5705E+01  0.2450E+02
      1.774  0.5992E+01  0.2515E+02
      1.867  0.5762E+01  0.2577E+02
      1.960  0.5247E+01  0.2633E+02
      2.052  0.5791E+01  0.2695E+02
      2.145  0.6775E+01  0.2768E+02
      2.238  0.6976E+01  0.2845E+02
      2.331  0.7136E+01  0.2920E+02
      2.424  0.8151E+01  0.3008E+02
      2.517  0.6857E+01  0.3082E+02
      2.610  0.6888E+01  0.3154E+02
      2.702  0.6137E+01  0.3220E+02
      2.795  0.5605E+01  0.3281E+02
      2.888  0.5590E+01  0.3342E+02
      2.981  0.5528E+01  0.3403E+02
      3.074  0.5533E+01  0.3463E+02
      3.167  0.5814E+01  0.3526E+02
      3.259  0.5610E+01  0.3588E+02
      3.352  0.6068E+01  0.3654E+02
      3.445  0.7213E+01  0.3730E+02
      3.538  0.8574E+01  0.3820E+02
      3.631  0.1053E+02  0.3933E+02
      3.724  0.1006E+02  0.4043E+02
      3.816  0.6793E+01  0.4115E+02
      3.909  0.4694E+01  0.4165E+02
      4.002  0.3518E+01  0.4205E+02
      4.095  0.1237E+01  0.4219E+02
      4.188  0.6708E+00  0.4228E+02
      4.281  0.1189E+01  0.4240E+02
      4.374  0.7456E+00  0.4249E+02
      4.466  0.1021E+01  0.4260E+02
      4.559  0.9014E+00  0.4270E+02
      4.652  0.1090E+01  0.4281E+02
      4.745  0.8517E+00  0.4290E+02
      4.838  0.1139E+01  0.4302E+02
      4.931  0.8946E+00  0.4311E+02
      5.023  0.1098E+01  0.4323E+02
      5.116  0.8131E+00  0.4332E+02
      5.209  0.1184E+01  0.4344E+02
      5.302  0.8560E+00  0.4353E+02
      5.395  0.1003E+01  0.4364E+02
      5.488  0.8870E+00  0.4374E+02
      5.580  0.9154E+00  0.4384E+02
      5.673  0.1148E+01  0.4395E+02
      5.766  0.8200E+00  0.4405E+02
      5.859  0.1094E+01  0.4416E+02
      5.952  0.1065E+01  0.4427E+02
      6.045  0.7855E+00  0.4435E+02
      6.137  0.1004E+01  0.4447E+02
      6.230  0.7719E+00  0.4456E+02
      6.323  0.1029E+01  0.4468E+02
      6.416  0.9260E+00  0.4477E+02
      6.509  0.8209E+00  0.4487E+02
      6.602  0.8755E+00  0.4497E+02
      6.695  0.1063E+01  0.4508E+02
      6.787  0.9029E+00  0.4518E+02
      6.880  0.9642E+00  0.4528E+02
      6.973  0.9366E+00  0.4538E+02
      7.066  0.1103E+01  0.4550E+02
      7.159  0.7912E+00  0.4559E+02
      7.252  0.9309E+00  0.4569E+02
      7.344  0.9545E+00  0.4579E+02
      7.437  0.8713E+00  0.4588E+02
      7.530  0.8845E+00  0.4598E+02
      7.623  0.8749E+00  0.4607E+02
      7.716  0.7816E+00  0.4616E+02
      7.809  0.8682E+00  0.4626E+02
      7.901  0.9239E+00  0.4636E+02
      7.994  0.8112E+00  0.4645E+02
      8.087  0.7657E+00  0.4653E+02
      8.180  0.8832E+00  0.4662E+02
      8.273  0.8345E+00  0.4671E+02
      8.366  0.7533E+00  0.4680E+02
      8.459  0.7471E+00  0.4687E+02
      8.551  0.1049E+01  0.4697E+02
      8.644  0.6328E+00  0.4704E+02
      8.737  0.9493E+00  0.4714E+02
      8.830  0.1966E+01  0.4734E+02
      8.923  0.1598E+01  0.4751E+02
      9.016  0.1165E+01  0.4765E+02
      9.108  0.1411E+01  0.4780E+02
      9.201  0.1103E+01  0.4792E+02
      9.294  0.1260E+01  0.4806E+02
      9.387  0.1003E+01  0.4816E+02
      9.480  0.1205E+01  0.4829E+02
      9.573  0.8837E+00  0.4839E+02
      9.665  0.1008E+01  0.4850E+02
      9.758  0.9645E+00  0.4861E+02
      9.851  0.9365E+00  0.4870E+02
      9.944  0.9329E+00  0.4881E+02
     10.037  0.8083E+00  0.4890E+02
     10.130  0.1005E+01  0.4900E+02
     10.222  0.7895E+00  0.4909E+02
     10.315  0.1115E+01  0.4921E+02
     10.408  0.1027E+01  0.4932E+02
     10.501  0.9269E+00  0.4943E+02
     10.594  0.1098E+01  0.4955E+02
     10.687  0.1120E+01  0.4967E+02
     10.780  0.1050E+01  0.4978E+02
     10.872  0.1209E+01  0.4991E+02
     10.965  0.1136E+01  0.5003E+02
     11.058  0.1245E+01  0.5018E+02
     11.151  0.1064E+01  0.5029E+02
     11.244  0.1538E+01  0.5045E+02
     11.337  0.1183E+01  0.5058E+02
     11.429  0.1067E+01  0.5071E+02
     11.522  0.1362E+01  0.5085E+02
     11.615  0.1270E+01  0.5098E+02
     11.708  0.1078E+01  0.5110E+02
     11.801  0.1149E+01  0.5123E+02
     11.894  0.9927E+00  0.5134E+02
     11.986  0.1237E+01  0.5146E+02
     12.079  0.9670E+00  0.5157E+02
     12.172  0.8800E+00  0.5166E+02
     12.265  0.1022E+01  0.5178E+02
     12.358  0.9335E+00  0.5188E+02
     12.451  0.9544E+00  0.5198E+02
     12.544  0.1004E+01  0.5208E+02
     12.636  0.8640E+00  0.5218E+02
     12.729  0.1027E+01  0.5229E+02
     12.822  0.9684E+00  0.5240E+02
     12.915  0.1098E+01  0.5251E+02
     13.008  0.1189E+01  0.5264E+02
     13.101  0.1144E+01  0.5276E+02
     13.193  0.1296E+01  0.5291E+02
     13.286  0.1019E+01  0.5302E+02
     13.379  0.1243E+01  0.5315E+02
     13.472  0.1052E+01  0.5327E+02
     13.565  0.1320E+01  0.5342E+02
     13.658  0.1143E+01  0.5355E+02
     13.750  0.1377E+01  0.5369E+02
     13.843  0.9167E+00  0.5379E+02
     13.936  0.1231E+01  0.5392E+02
     14.029  0.1359E+01  0.5407E+02
     14.122  0.1198E+01  0.5420E+02
     14.215  0.1221E+01  0.5433E+02
     14.307  0.1068E+01  0.5444E+02
     14.400  0.1342E+01  0.5458E+02
     14.493  0.1397E+01  0.5474E+02
     14.586  0.1098E+01  0.5485E+02
     14.679  0.1140E+01  0.5499E+02
     14.772  0.1229E+01  0.5511E+02
     14.865  0.1071E+01  0.5523E+02
     14.957  0.1404E+01  0.5538E+02
     15.050  0.1242E+01  0.5551E+02
     15.143  0.1223E+01  0.5565E+02
     15.236  0.1253E+01  0.5578E+02
     15.329  0.1081E+01  0.5590E+02
     15.422  0.1790E+01  0.5610E+02
     15.514  0.1279E+01  0.5624E+02
     15.607  0.1467E+01  0.5641E+02
     15.700  0.1341E+01  0.5657E+02
     15.793  0.1541E+01  0.5673E+02
     15.886  0.1585E+01  0.5691E+02
     15.979  0.1951E+01  0.5711E+02
     16.071  0.1514E+01  0.5727E+02
     16.164  0.1778E+01  0.5746E+02
     16.257  0.1554E+01  0.5764E+02
     16.350  0.1463E+01  0.5779E+02
     16.443  0.1982E+01  0.5801E+02
     16.536  0.1667E+01  0.5819E+02
     16.629  0.1176E+01  0.5834E+02
     16.721  0.1670E+01  0.5851E+02
     16.814  0.1699E+01  0.5870E+02
     16.907  0.1366E+01  0.5884E+02
     17.000  0.1903E+01  0.5904E+02
     17.093  0.1646E+01  0.5921E+02
     17.186  0.1320E+01  0.5936E+02
     17.278  0.1812E+01  0.5956E+02
     17.371  0.1246E+01  0.5969E+02
     17.464  0.1833E+01  0.5987E+02
     17.557  0.1617E+01  0.6005E+02
     17.650  0.1308E+01  0.6019E+02
     17.743  0.1810E+01  0.6038E+02
     17.835  0.1198E+01  0.6052E+02
     17.928  0.1345E+01  0.6067E+02
     18.021  0.1801E+01  0.6086E+02
     18.114  0.1269E+01  0.6102E+02
     18.207  0.1256E+01  0.6116E+02
     18.300  0.1516E+01  0.6133E+02
     18.393  0.1305E+01  0.6147E+02
     18.485  0.1477E+01  0.6163E+02
     18.578  0.1273E+01  0.6177E+02
     18.671  0.1040E+01  0.6189E+02
     18.764  0.1127E+01  0.6201E+02
     18.857  0.1091E+01  0.6213E+02
     18.950  0.9358E+00  0.6223E+02
     19.042  0.1029E+01  0.6235E+02
     19.135  0.7981E+00  0.6244E+02
     19.228  0.8908E+00  0.6254E+02
     19.321  0.9251E+00  0.6264E+02
     19.414  0.8169E+00  0.6273E+02
     19.507  0.8201E+00  0.6282E+02
     19.599  0.6587E+00  0.6290E+02
     19.692  0.8110E+00  0.6298E+02
     19.785  0.7099E+00  0.6305E+02
     19.878  0.6696E+00  0.6313E+02
     19.971  0.6374E+00  0.6319E+02
     20.064  0.7227E+00  0.6327E+02
     20.156  0.6505E+00  0.6334E+02
     20.249  0.6039E+00  0.6341E+02
     20.342  0.7821E+00  0.6349E+02
     20.435  0.1545E+01  0.6366E+02
     20.528  0.9885E+00  0.6377E+02
     20.621  0.8867E+00  0.6387E+02
     20.714  0.6425E+00  0.6393E+02
     20.806  0.3771E+00  0.6397E+02
     20.899  0.1447E+00  0.6399E+02
     20.992  0.5320E-01  0.6400E+02
     21.085  0.2216E-01  0.6400E+02
     21.178  0.1108E-01  0.6400E+02
     21.271  0.3694E-02  0.6400E+02
     21.363  0.0000E+00  0.6400E+02
     21.456  0.0000E+00  0.6400E+02
     21.549  0.0000E+00  0.6400E+02
     21.642  0.0000E+00  0.6400E+02
     21.735  0.0000E+00  0.6400E+02
     21.828  0.0000E+00  0.6400E+02
     21.920  0.0000E+00  0.6400E+02
     22.013  0.0000E+00  0.6400E+02
     22.106  0.0000E+00  0.6400E+02
     22.199  0.0000E+00  0.6400E+02
     22.292  0.0000E+00  0.6400E+02
     22.385  0.0000E+00  0.6400E+02
     22.478  0.0000E+00  0.6400E+02
