    4    4    1    1
  0.1710438E+02  0.4089992E-09  0.4089992E-09  0.4089992E-09  0.5000000E-15
  1.000000000000000E-004
  CAR 
 unknown system                          
   44 1330   32
 
  0.0000000E+00  0.0000000E+00  0.0000000E+00  0.2143347E-04
   1       -4.1088
   2       -1.3723
   3       -1.3723
   4       -1.3723
   5       -1.0667
   6       -1.0667
   7       -1.0667
   8        0.9824
   9        0.9824
  10        0.9824
  11        2.4922
  12        2.4922
  13        3.6420
  14        3.6420
  15        3.6420
  16        4.0050
  17        4.0050
  18        4.0050
  19        4.0050
  20        4.0050
  21        4.0050
  22        6.7471
  23        6.7471
  24        6.7471
  25       11.4978
  26       11.4978
  27       11.4978
  28       15.9156
  29       15.9156
  30       15.9156
  31       15.9156
  32       15.9156
 
  0.2777778E-01  0.0000000E+00  0.0000000E+00  0.1286008E-03
   1       -4.0998
   2       -1.3691
   3       -1.3663
   4       -1.3663
   5       -1.0634
   6       -1.0617
   7       -1.0617
   8        0.9777
   9        0.9865
  10        0.9865
  11        2.4872
  12        2.4942
  13        3.6348
  14        3.6348
  15        3.6396
  16        3.9691
  17        3.9691
  18        3.9962
  19        3.9962
  20        4.0050
  21        4.0050
  22        6.6747
  23        6.7892
  24        6.7892
  25       11.4891
  26       11.4891
  27       11.5855
  28       15.9003
  29       15.9003
  30       15.9048
  31       15.9048
  32       15.9344
 
  0.5555556E-01  0.0000000E+00  0.0000000E+00  0.1286008E-03
   1       -4.0727
   2       -1.3595
   3       -1.3481
   4       -1.3481
   5       -1.0535
   6       -1.0467
   7       -1.0467
   8        0.9637
   9        0.9987
  10        0.9987
  11        2.4722
  12        2.5003
  13        3.6134
  14        3.6134
  15        3.6325
  16        3.8674
  17        3.8674
  18        3.9699
  19        3.9699
  20        4.0051
  21        4.0051
  22        6.4721
  23        6.9094
  24        6.9094
  25       11.4633
  26       11.4633
  27       11.8341
  28       15.8545
  29       15.8545
  30       15.8734
  31       15.8734
  32       15.9905
 
  0.8333333E-01  0.0000000E+00  0.0000000E+00  0.1286008E-03
   1       -4.0277
   2       -1.3440
   3       -1.3181
   4       -1.3181
   5       -1.0371
   6       -1.0218
   7       -1.0218
   8        0.9405
   9        1.0189
  10        1.0189
  11        2.4474
  12        2.5103
  13        3.5779
  14        3.5779
  15        3.6207
  16        3.7144
  17        3.7144
  18        3.9267
  19        3.9267
  20        4.0051
  21        4.0051
  22        6.1728
  23        7.0933
  24        7.0933
  25       11.4215
  26       11.4215
  27       12.2104
  28       15.7787
  29       15.7787
  30       15.8245
  31       15.8245
  32       16.0832
 
  0.1111111E+00  0.0000000E+00  0.0000000E+00  0.1286008E-03
   1       -3.9649
   2       -1.3229
   3       -1.2765
   4       -1.2765
   5       -1.0142
   6       -0.9868
   7       -0.9868
   8        0.9085
   9        1.0473
  10        1.0473
  11        2.4132
  12        2.5242
  13        3.5260
  14        3.5260
  15        3.5287
  16        3.5287
  17        3.6043
  18        3.8677
  19        3.8677
  20        4.0052
  21        4.0052
  22        5.8111
  23        7.3248
  24        7.3248
  25       11.3655
  26       11.3655
  27       12.6804
  28       15.6738
  29       15.6738
  30       15.7626
  31       15.7626
  32       16.2115
 
  0.1388889E+00  0.0000000E+00  0.0000000E+00  0.1286008E-03
   1       -3.8847
   2       -1.2972
   3       -1.2240
   4       -1.2240
   5       -0.9849
   6       -0.9418
   7       -0.9418
   8        0.8680
   9        1.0836
  10        1.0836
  11        2.3702
  12        2.5420
  13        3.3148
  14        3.3148
  15        3.4664
  16        3.4664
  17        3.5836
  18        3.7940
  19        3.7940
  20        4.0053
  21        4.0053
  22        5.4137
  23        7.5911
  24        7.5911
  25       11.2977
  26       11.2977
  27       13.2180
  28       15.5410
  29       15.5410
  30       15.6923
  31       15.6923
  32       16.3739
 
  0.1666667E+00  0.0000000E+00  0.0000000E+00  0.1286008E-03
   1       -3.7873
   2       -1.2680
   3       -1.1610
   4       -1.1610
   5       -0.9494
   6       -0.8870
   7       -0.8870
   8        0.8196
   9        1.1279
  10        1.1279
  11        2.3190
  12        2.5636
  13        3.0903
  14        3.0903
  15        3.3917
  16        3.3917
  17        3.5586
  18        3.7071
  19        3.7071
  20        4.0055
  21        4.0055
  22        4.9993
  23        7.8826
  24        7.8826
  25       11.2208
  26       11.2208
  27       13.8052
  28       15.3815
  29       15.3815
  30       15.6181
  31       15.6181
  32       16.5687
 
  0.1944444E+00  0.0000000E+00  0.0000000E+00  0.1286008E-03
   1       -3.6732
   2       -1.2368
   3       -1.0887
   4       -1.0887
   5       -0.9078
   6       -0.8222
   7       -0.8222
   8        0.7638
   9        1.1800
  10        1.1800
  11        2.2606
  12        2.5887
  13        2.8587
  14        2.8587
  15        3.3058
  16        3.3058
  17        3.5297
  18        3.6087
  19        3.6087
  20        4.0056
  21        4.0056
  22        4.5810
  23        8.1926
  24        8.1926
  25       11.1378
  26       11.1378
  27       14.4303
  28       15.1971
  29       15.1971
  30       15.5436
  31       15.5436
  32       16.7939
 
  0.2222222E+00  0.0000000E+00  0.0000000E+00  0.1286008E-03
   1       -3.5431
   2       -1.2056
   3       -1.0080
   4       -1.0080
   5       -0.8604
   6       -0.7476
   7       -0.7476
   8        0.7012
   9        1.2398
  10        1.2398
  11        2.1959
  12        2.6173
  13        2.6246
  14        2.6246
  15        3.2100
  16        3.2100
  17        3.4970
  18        3.5004
  19        3.5004
  20        4.0058
  21        4.0058
  22        4.1681
  23        8.5165
  24        8.5165
  25       11.0518
  26       11.0518
  27       14.9893
  28       14.9893
  29       15.0853
  30       15.4716
  31       15.4716
  32       17.0477
 
  0.2500000E+00  0.0000000E+00  0.0000000E+00  0.1286008E-03
   1       -3.3977
   2       -1.1770
   3       -0.9204
   4       -0.9204
   5       -0.8073
   6       -0.6631
   7       -0.6631
   8        0.6326
   9        1.3071
  10        1.3071
  11        2.1264
  12        2.3908
  13        2.3908
  14        2.6491
  15        3.1060
  16        3.1060
  17        3.3839
  18        3.3839
  19        3.4610
  20        3.7680
  21        4.0059
  22        4.0059
  23        8.8509
  24        8.8509
  25       10.9657
  26       10.9657
  27       14.7600
  28       14.7600
  29       15.4041
  30       15.4041
  31       15.7647
  32       17.3277
 
  0.2777778E+00  0.0000000E+00  0.0000000E+00  0.1286008E-03
   1       -3.2379
   2       -1.1540
   3       -0.8277
   4       -0.8277
   5       -0.7489
   6       -0.5689
   7       -0.5689
   8        0.5587
   9        1.3818
  10        1.3818
  11        2.0536
  12        2.1595
  13        2.1595
  14        2.6841
  15        2.9963
  16        2.9963
  17        3.2610
  18        3.2610
  19        3.3872
  20        3.4219
  21        4.0061
  22        4.0061
  23        9.1932
  24        9.1932
  25       10.8821
  26       10.8821
  27       14.5109
  28       14.5109
  29       15.3424
  30       15.3424
  31       16.4646
  32       17.6317
 
  0.3055556E+00  0.0000000E+00  0.0000000E+00  0.1286008E-03
   1       -3.0651
   2       -1.1409
   3       -0.7320
   4       -0.7320
   5       -0.6853
   6       -0.4650
   7       -0.4650
   8        0.4802
   9        1.4637
  10        1.4637
  11        1.9323
  12        1.9323
  13        1.9794
  14        2.7219
  15        2.8835
  16        2.8835
  17        3.0317
  18        3.1332
  19        3.1332
  20        3.3801
  21        4.0063
  22        4.0063
  23        9.5415
  24        9.5415
  25       10.8036
  26       10.8036
  27       14.2440
  28       14.2440
  29       15.2873
  30       15.2873
  31       17.1820
  32       17.9577
 
  0.3333333E+00  0.0000000E+00  0.0000000E+00  0.1286008E-03
   1       -2.8807
   2       -1.1424
   3       -0.6361
   4       -0.6361
   5       -0.6171
   6       -0.3515
   7       -0.3515
   8        0.3980
   9        1.5526
  10        1.5526
  11        1.7104
  12        1.7104
  13        1.9060
  14        2.7078
  15        2.7622
  16        2.7709
  17        2.7709
  18        3.0019
  19        3.0019
  20        3.3359
  21        4.0064
  22        4.0064
  23        9.8939
  24        9.8939
  25       10.7321
  26       10.7321
  27       13.9610
  28       13.9610
  29       15.2393
  30       15.2393
  31       17.9143
  32       18.3032
 
  0.3611111E+00  0.0000000E+00  0.0000000E+00  0.1286008E-03
   1       -2.6869
   2       -1.1639
   3       -0.5444
   4       -0.5434
   5       -0.5434
   6       -0.2284
   7       -0.2284
   8        0.3128
   9        1.4945
  10        1.4945
  11        1.6480
  12        1.6480
  13        1.8363
  14        2.4216
  15        2.6626
  16        2.6626
  17        2.8050
  18        2.8686
  19        2.8686
  20        3.2898
  21        4.0066
  22        4.0066
  23       10.2491
  24       10.2491
  25       10.6692
  26       10.6692
  27       13.6637
  28       13.6637
  29       15.1986
  30       15.1986
  31       18.6655
  32       18.6660
 
  0.3888889E+00  0.0000000E+00  0.0000000E+00  0.1286008E-03
   1       -2.4863
   2       -1.2109
   3       -0.4679
   4       -0.4577
   5       -0.4577
   6       -0.0959
   7       -0.0959
   8        0.2254
   9        1.2854
  10        1.2854
  11        1.7498
  12        1.7498
  13        1.7736
  14        2.1789
  15        2.5632
  16        2.5632
  17        2.7346
  18        2.7346
  19        2.8498
  20        3.2421
  21        4.0067
  22        4.0067
  23       10.6058
  24       10.6058
  25       10.6163
  26       10.6163
  27       13.3539
  28       13.3539
  29       15.1654
  30       15.1654
  31       19.0439
  32       19.0439
 
  0.4166667E+00  0.0000000E+00  0.0000000E+00  0.1286008E-03
   1       -2.2823
   2       -1.2875
   3       -0.3878
   4       -0.3837
   5       -0.3837
   6        0.0460
   7        0.0460
   8        0.1365
   9        1.0835
  10        1.0835
  11        1.7220
  12        1.8576
  13        1.8576
  14        1.9843
  15        2.4777
  16        2.4777
  17        2.6010
  18        2.6010
  19        2.8963
  20        3.1931
  21        4.0068
  22        4.0068
  23       10.5742
  24       10.5742
  25       10.9625
  26       10.9625
  27       13.0331
  28       13.0331
  29       15.1395
  30       15.1395
  31       19.4345
  32       19.4345
 
  0.4444444E+00  0.0000000E+00  0.0000000E+00  0.1286008E-03
   1       -2.0793
   2       -1.3958
   3       -0.3261
   4       -0.3261
   5       -0.3046
   6        0.0470
   7        0.1970
   8        0.1970
   9        0.8895
  10        0.8895
  11        1.6867
  12        1.8395
  13        1.9710
  14        1.9710
  15        2.4116
  16        2.4116
  17        2.4688
  18        2.4688
  19        2.9443
  20        3.1434
  21        4.0069
  22        4.0069
  23       10.5437
  24       10.5437
  25       11.3180
  26       11.3180
  27       12.7029
  28       12.7029
  29       15.1211
  30       15.1211
  31       19.8352
  32       19.8352
 
  0.4722222E+00  0.0000000E+00  0.0000000E+00  0.1286008E-03
   1       -1.8826
   2       -1.5343
   3       -0.2894
   4       -0.2894
   5       -0.2190
   6       -0.0426
   7        0.3570
   8        0.3570
   9        0.7035
  10        0.7035
  11        1.6737
  12        1.7430
  13        2.0893
  14        2.0893
  15        2.3389
  16        2.3389
  17        2.3695
  18        2.3695
  19        2.9933
  20        3.0932
  21        4.0069
  22        4.0069
  23       10.5252
  24       10.5252
  25       11.6711
  26       11.6711
  27       12.3649
  28       12.3649
  29       15.1100
  30       15.1100
  31       20.2434
  32       20.2434
 
  0.5000000E+00  0.0000000E+00  0.0000000E+00  0.6430041E-04
   1       -1.6986
   2       -1.6986
   3       -0.2768
   4       -0.2768
   5       -0.1315
   6       -0.1315
   7        0.5260
   8        0.5260
   9        0.5260
  10        0.5260
  11        1.6900
  12        1.6900
  13        2.2122
  14        2.2122
  15        2.2122
  16        2.2122
  17        2.3551
  18        2.3551
  19        3.0431
  20        3.0431
  21        4.0069
  22        4.0069
  23       10.5191
  24       10.5191
  25       12.0205
  26       12.0205
  27       12.0205
  28       12.0205
  29       15.1063
  30       15.1063
  31       20.6562
  32       20.6562
 
  0.2777778E-01  0.2777778E-01  0.0000000E+00  0.2572016E-03
   1       -4.0908
   2       -1.3630
   3       -1.3630
   4       -1.3603
   5       -1.0584
   6       -1.0584
   7       -1.0567
   8        0.9755
   9        0.9880
  10        0.9905
  11        2.4857
  12        2.4927
  13        3.6277
  14        3.6322
  15        3.6322
  16        3.9398
  17        3.9602
  18        3.9602
  19        3.9962
  20        3.9962
  21        3.9993
  22        6.7168
  23        6.7168
  24        6.8304
  25       11.4802
  26       11.5769
  27       11.5769
  28       15.8290
  29       15.9190
  30       15.9193
  31       15.9236
  32       15.9238
 
  0.5555556E-01  0.2777778E-01  0.0000000E+00  0.5144033E-03
   1       -4.0637
   2       -1.3535
   3       -1.3449
   4       -1.3424
   5       -1.0486
   6       -1.0435
   7       -1.0415
   8        0.9628
   9        0.9990
  10        1.0026
  11        2.4721
  12        2.4975
  13        3.6064
  14        3.6095
  15        3.6241
  16        3.8436
  17        3.8590
  18        3.9339
  19        3.9699
  20        3.9962
  21        3.9962
  22        6.5146
  23        6.8370
  24        6.9483
  25       11.4539
  26       11.5514
  27       11.8256
  28       15.7335
  29       15.8731
  30       15.8923
  31       15.9737
  32       15.9753
 
  0.8333333E-01  0.2777778E-01  0.0000000E+00  0.5144033E-03
   1       -4.0187
   2       -1.3378
   3       -1.3148
   4       -1.3128
   5       -1.0322
   6       -1.0185
   7       -1.0162
   8        0.9400
   9        1.0189
  10        1.0227
  11        2.4477
  12        2.5074
  13        3.5696
  14        3.5712
  15        3.6106
  16        3.6946
  17        3.7098
  18        3.8908
  19        3.9267
  20        3.9954
  21        3.9963
  22        6.2165
  23        7.0201
  24        7.1292
  25       11.4114
  26       11.5102
  27       12.2016
  28       15.6191
  29       15.7972
  30       15.8436
  31       15.9692
  32       16.0681
 
  0.1111111E+00  0.2777778E-01  0.0000000E+00  0.5144033E-03
   1       -3.9561
   2       -1.3167
   3       -1.2732
   4       -1.2719
   5       -1.0093
   6       -0.9836
   7       -0.9808
   8        0.9082
   9        1.0472
  10        1.0507
  11        2.4137
  12        2.5215
  13        3.4830
  14        3.5094
  15        3.5223
  16        3.5582
  17        3.5912
  18        3.8321
  19        3.8676
  20        3.9952
  21        3.9963
  22        5.8570
  23        7.2501
  24        7.3577
  25       11.3544
  26       11.4553
  27       12.6707
  28       15.4886
  29       15.6922
  30       15.7820
  31       15.9399
  32       16.1961
 
  0.1388889E+00  0.2777778E-01  0.0000000E+00  0.5144033E-03
   1       -3.8759
   2       -1.2910
   3       -1.2206
   4       -1.2201
   5       -0.9801
   6       -0.9387
   7       -0.9353
   8        0.8679
   9        1.0835
  10        1.0867
  11        2.3709
  12        2.5395
  13        3.2915
  14        3.3012
  15        3.4604
  16        3.4761
  17        3.5648
  18        3.7598
  19        3.7939
  20        3.9952
  21        3.9964
  22        5.4636
  23        7.5135
  24        7.6213
  25       11.2853
  26       11.3891
  27       13.2066
  28       15.3437
  29       15.5591
  30       15.7122
  31       15.8891
  32       16.3578
 
  0.1666667E+00  0.2777778E-01  0.0000000E+00  0.5144033E-03
   1       -3.7787
   2       -1.2617
   3       -1.1581
   4       -1.1576
   5       -0.9447
   6       -0.8839
   7       -0.8798
   8        0.8197
   9        1.1277
  10        1.1305
  11        2.3201
  12        2.5614
  13        3.0702
  14        3.0791
  15        3.3862
  16        3.3984
  17        3.5285
  18        3.6780
  19        3.7070
  20        3.9953
  21        3.9965
  22        5.0556
  23        7.8006
  24        7.9104
  25       11.2068
  26       11.3148
  27       13.7912
  28       15.1849
  29       15.3995
  30       15.6388
  31       15.8216
  32       16.5522
 
  0.1944444E+00  0.2777778E-01  0.0000000E+00  0.5144033E-03
   1       -3.6647
   2       -1.2304
   3       -1.0868
   4       -1.0851
   5       -0.9032
   6       -0.8192
   7       -0.8144
   8        0.7640
   9        1.1798
  10        1.1819
  11        2.2620
  12        2.5869
  13        2.8399
  14        2.8495
  15        3.3007
  16        3.3116
  17        3.4725
  18        3.5965
  19        3.6086
  20        3.9954
  21        3.9967
  22        4.6475
  23        8.1045
  24        8.2185
  25       11.1219
  26       11.2355
  27       14.4125
  28       15.0113
  29       15.2148
  30       15.5653
  31       15.7430
  32       16.7772
 
  0.2222222E+00  0.2777778E-01  0.0000000E+00  0.5144033E-03
   1       -3.5348
   2       -1.1991
   3       -1.0072
   4       -1.0043
   5       -0.8559
   6       -0.7447
   7       -0.7391
   8        0.7017
   9        1.2396
  10        1.2408
  11        2.1980
  12        2.6067
  13        2.6159
  14        2.6171
  15        3.2055
  16        3.2155
  17        3.3811
  18        3.5003
  19        3.5300
  20        3.9956
  21        3.9968
  22        4.2520
  23        8.4199
  24        8.5407
  25       11.0338
  26       11.1552
  27       14.8216
  28       15.0068
  29       15.0619
  30       15.4947
  31       15.6592
  32       17.0336
 
  0.2500000E+00  0.2777778E-01  0.0000000E+00  0.5144033E-03
   1       -3.3895
   2       -1.1704
   3       -0.9206
   4       -0.9166
   5       -0.8029
   6       -0.6604
   7       -0.6541
   8        0.6333
   9        1.3069
  10        1.3070
  11        2.1293
  12        2.3737
  13        2.3847
  14        2.6482
  15        3.1021
  16        3.1115
  17        3.2513
  18        3.3838
  19        3.4754
  20        3.8841
  21        3.9958
  22        3.9969
  23        8.7424
  24        8.8738
  25       10.9452
  26       11.0778
  27       14.6143
  28       14.7772
  29       15.4287
  30       15.5754
  31       15.7332
  32       17.3123
 
  0.2777778E+00  0.2777778E-01  0.0000000E+00  0.5144033E-03
   1       -3.2300
   2       -1.1474
   3       -0.8287
   4       -0.8237
   5       -0.7446
   6       -0.5663
   7       -0.5596
   8        0.5596
   9        1.3800
  10        1.3816
  11        2.0578
  12        2.1433
  13        2.1547
  14        2.6836
  15        2.9929
  16        3.0018
  17        3.0811
  18        3.2608
  19        3.4129
  20        3.5743
  21        3.9960
  22        3.9970
  23        9.0677
  24        9.2149
  25       10.8590
  26       11.0079
  27       14.3886
  28       14.5280
  29       15.3689
  30       15.4957
  31       16.4202
  32       17.6135
 
  0.3055556E+00  0.2777778E-01  0.0000000E+00  0.5144033E-03
   1       -3.0573
   2       -1.1341
   3       -0.7335
   4       -0.7279
   5       -0.6812
   6       -0.4626
   7       -0.4559
   8        0.4814
   9        1.4591
  10        1.4635
  11        1.9170
  12        1.9285
  13        1.9859
  14        2.7220
  15        2.8607
  16        2.8807
  17        2.8890
  18        3.1330
  19        3.2653
  20        3.4176
  21        3.9962
  22        3.9971
  23        9.3901
  24        9.5622
  25       10.7774
  26       10.9515
  27       14.1445
  28       14.2609
  29       15.3161
  30       15.4229
  31       17.1143
  32       17.9380
 
  0.3333333E+00  0.2777778E-01  0.0000000E+00  0.5144033E-03
   1       -2.8732
   2       -1.1356
   3       -0.6376
   4       -0.6318
   5       -0.6131
   6       -0.3493
   7       -0.3432
   8        0.3994
   9        1.5428
  10        1.5523
  11        1.6960
  12        1.7074
  13        1.9172
  14        2.6059
  15        2.7630
  16        2.7687
  17        2.7764
  18        3.0017
  19        3.0818
  20        3.3570
  21        3.9964
  22        3.9972
  23        9.7003
  24        9.9139
  25       10.7024
  26       10.9181
  27       13.8829
  28       13.9778
  29       15.2706
  30       15.3585
  31       17.7946
  32       18.2823
 
  0.3611111E+00  0.2777778E-01  0.0000000E+00  0.5144033E-03
   1       -2.6796
   2       -1.1571
   3       -0.5443
   4       -0.5406
   5       -0.5389
   6       -0.2264
   7       -0.2216
   8        0.3144
   9        1.4812
  10        1.4923
  11        1.6256
  12        1.6478
  13        1.8595
  14        2.3537
  15        2.6610
  16        2.6679
  17        2.8064
  18        2.8684
  19        2.9206
  20        3.3052
  21        3.9966
  22        3.9973
  23        9.9804
  24       10.2684
  25       10.6354
  26       10.9261
  27       13.6056
  28       13.6805
  29       15.2329
  30       15.3032
  31       18.4003
  32       18.6438
 
  0.3888889E+00  0.2777778E-01  0.0000000E+00  0.5144033E-03
   1       -2.4792
   2       -1.2041
   3       -0.4642
   4       -0.4576
   5       -0.4530
   6       -0.0941
   7       -0.0911
   8        0.2272
   9        1.2733
  10        1.2839
  11        1.6839
  12        1.7496
  13        1.8397
  14        2.1295
  15        2.5622
  16        2.5681
  17        2.7344
  18        2.7719
  19        2.8520
  20        3.2544
  21        3.9968
  22        3.9974
  23       10.1976
  24       10.5774
  25       10.6244
  26       11.0079
  27       13.3144
  28       13.3706
  29       15.2029
  30       15.2572
  31       18.8815
  32       19.0201
 
  0.4166667E+00  0.2777778E-01  0.0000000E+00  0.5144033E-03
   1       -2.2754
   2       -1.2808
   3       -0.3843
   4       -0.3823
   5       -0.3789
   6        0.0475
   7        0.0482
   8        0.1386
   9        1.0728
  10        1.0827
  11        1.6809
  12        1.8574
  13        1.8982
  14        1.9458
  15        2.4775
  16        2.4822
  17        2.6008
  18        2.6301
  19        2.8993
  20        3.2032
  21        3.9970
  22        3.9974
  23       10.3258
  24       10.5290
  25       10.9807
  26       11.1892
  27       13.0118
  28       13.0498
  29       15.1809
  30       15.2204
  31       19.3034
  32       19.4086
 
  0.4444444E+00  0.2777778E-01  0.0000000E+00  0.5144033E-03
   1       -2.0726
   2       -1.3891
   3       -0.3234
   4       -0.3212
   5       -0.3014
   6        0.0493
   7        0.1966
   8        0.1982
   9        0.8804
  10        0.8891
  11        1.6580
  12        1.8078
  13        1.9707
  14        1.9981
  15        2.4121
  16        2.4154
  17        2.4686
  18        2.4932
  19        2.9481
  20        3.1518
  21        3.9971
  22        3.9974
  23       10.3855
  24       10.4900
  25       11.3358
  26       11.4491
  27       12.7002
  28       12.7198
  29       15.1668
  30       15.1926
  31       19.7104
  32       19.8068
 
  0.4722222E+00  0.2777778E-01  0.0000000E+00  0.5144033E-03
   1       -1.8760
   2       -1.5277
   3       -0.2857
   4       -0.2846
   5       -0.2160
   6       -0.0400
   7        0.3542
   8        0.3579
   9        0.6962
  10        0.7036
  11        1.6484
  12        1.7155
  13        2.0891
  14        2.1119
  15        2.3387
  16        2.3609
  17        2.3709
  18        2.3726
  19        2.9981
  20        3.1003
  21        3.9972
  22        3.9974
  23       10.4149
  24       10.4598
  25       11.6886
  26       11.7483
  27       12.3819
  28       12.3827
  29       15.1608
  30       15.1736
  31       20.1120
  32       20.2117
 
  0.5000000E+00  0.2777778E-01  0.0000000E+00  0.2572016E-03
   1       -1.6921
   2       -1.6921
   3       -0.2723
   4       -0.2723
   5       -0.1286
   6       -0.1286
   7        0.5208
   8        0.5208
   9        0.5265
  10        0.5265
  11        1.6647
  12        1.6647
  13        2.2119
  14        2.2119
  15        2.2335
  16        2.2335
  17        2.3573
  18        2.3573
  19        3.0490
  20        3.0490
  21        3.9973
  22        3.9973
  23       10.4363
  24       10.4363
  25       12.0377
  26       12.0377
  27       12.0634
  28       12.0634
  29       15.1630
  30       15.1630
  31       20.5081
  32       20.5611
 
  0.5555556E-01  0.5555556E-01  0.0000000E+00  0.2572016E-03
   1       -4.0368
   2       -1.3352
   3       -1.3352
   4       -1.3253
   5       -1.0337
   6       -1.0337
   7       -1.0258
   8        0.9553
   9        1.0048
  10        1.0143
  11        2.4664
  12        2.4948
  13        3.5856
  14        3.5976
  15        3.5976
  16        3.7645
  17        3.8344
  18        3.8344
  19        3.9699
  20        3.9699
  21        3.9822
  22        6.6352
  23        6.6352
  24        7.0601
  25       11.4264
  26       11.8005
  27       11.8005
  28       15.5875
  29       15.9289
  30       15.9289
  31       15.9487
  32       15.9487
 
  0.8333333E-01  0.5555556E-01  0.0000000E+00  0.5144033E-03
   1       -3.9920
   2       -1.3195
   3       -1.3051
   4       -1.2970
   5       -1.0174
   6       -1.0088
   7       -0.9996
   8        0.9359
   9        1.0216
  10        1.0338
  11        2.4462
  12        2.5013
  13        3.5438
  14        3.5510
  15        3.5764
  16        3.6309
  17        3.6967
  18        3.7950
  19        3.9267
  20        3.9699
  21        3.9739
  22        6.3390
  23        6.8173
  24        7.2330
  25       11.3816
  26       11.7601
  27       12.1757
  28       15.4297
  29       15.8526
  30       15.9006
  31       16.0210
  32       16.0421
 
  0.1111111E+00  0.5555556E-01  0.0000000E+00  0.5144033E-03
   1       -3.9295
   2       -1.2983
   3       -1.2634
   4       -1.2579
   5       -0.9947
   6       -0.9740
   7       -0.9630
   8        0.9059
   9        1.0484
  10        1.0610
  11        2.4140
  12        2.5147
  13        3.4245
  14        3.4578
  15        3.5031
  16        3.5433
  17        3.5764
  18        3.7440
  19        3.8676
  20        3.9699
  21        3.9699
  22        5.9844
  23        7.0440
  24        7.4535
  25       11.3215
  26       11.7065
  27       12.6422
  28       15.2637
  29       15.7470
  30       15.8401
  31       16.1402
  32       16.1485
 
  0.1388889E+00  0.5555556E-01  0.0000000E+00  0.5144033E-03
   1       -3.8497
   2       -1.2724
   3       -1.2105
   4       -1.2084
   5       -0.9656
   6       -0.9293
   7       -0.9160
   8        0.8667
   9        1.0840
  10        1.0959
  11        2.3723
  12        2.5330
  13        3.2334
  14        3.2591
  15        3.4424
  16        3.4934
  17        3.4934
  18        3.6866
  19        3.7938
  20        3.9680
  21        3.9699
  22        5.5992
  23        7.3013
  24        7.7096
  25       11.2485
  26       11.6427
  27       13.1730
  28       15.0921
  29       15.6133
  30       15.7721
  31       16.1381
  32       16.3123
 
  0.1666667E+00  0.5555556E-01  0.0000000E+00  0.5144033E-03
   1       -3.7528
   2       -1.2429
   3       -1.1491
   4       -1.1473
   5       -0.9304
   6       -0.8748
   7       -0.8587
   8        0.8193
   9        1.1278
  10        1.1381
  11        2.3226
  12        2.5555
  13        3.0152
  14        3.0447
  15        3.3695
  16        3.4131
  17        3.4202
  18        3.6293
  19        3.7068
  20        3.9670
  21        3.9700
  22        5.2037
  23        7.5791
  24        7.9922
  25       11.1652
  26       11.5720
  27       13.7498
  28       14.9160
  29       15.4530
  30       15.7011
  31       16.1096
  32       16.5032
 
  0.1944444E+00  0.5555556E-01  0.0000000E+00  0.5144033E-03
   1       -3.6393
   2       -1.2114
   3       -1.0807
   4       -1.0746
   5       -0.8892
   6       -0.8104
   7       -0.7914
   8        0.7644
   9        1.1796
  10        1.1876
  11        2.2659
  12        2.5820
  13        2.7871
  14        2.8215
  15        3.2856
  16        3.3198
  17        3.3254
  18        3.5752
  19        3.6083
  20        3.9665
  21        3.9700
  22        4.8133
  23        7.8701
  24        8.2948
  25       11.0747
  26       11.4986
  27       14.3597
  28       14.7354
  29       15.2676
  30       15.6308
  31       16.0588
  32       16.7268
 
  0.2222222E+00  0.5555556E-01  0.0000000E+00  0.5144033E-03
   1       -3.5098
   2       -1.1798
   3       -1.0041
   4       -0.9935
   5       -0.8422
   6       -0.7362
   7       -0.7144
   8        0.7028
   9        1.2393
  10        1.2440
  11        2.2035
  12        2.5557
  13        2.5943
  14        2.6122
  15        3.1919
  16        3.1919
  17        3.2293
  18        3.4999
  19        3.5223
  20        3.9663
  21        3.9700
  22        4.4414
  23        8.1685
  24        8.6124
  25       10.9802
  26       11.4269
  27       14.5490
  28       14.9932
  29       15.0589
  30       15.5642
  31       15.9907
  32       16.9784
 
  0.2500000E+00  0.5555556E-01  0.0000000E+00  0.5144033E-03
   1       -3.3651
   2       -1.1508
   3       -0.9204
   4       -0.9054
   5       -0.7896
   6       -0.6523
   7       -0.6281
   8        0.6351
   9        1.3065
  10        1.3068
  11        2.1373