 running on    4 nodes
 distr:  one band on    1 nodes,    4 groups
 vasp.4.6.28 25Jul05 complex 
 POSCAR found :  1 types and    4 ions
 LDA part: xc-table for Pade appr. of Perdew
 POSCAR, INCAR and KPOINTS ok, starting setup
 FFT: planning ...           1
 reading WAVECAR
 WARNING: random wavefunctions but no delay for mixing, default for NELMDL
 entering main loop
       N       E                     dE             d eps       ncg     rms          rms(c)
DAV:   1     0.977573285456E+01    0.97757E+01   -0.49675E+03  2016   0.101E+03
DAV:   2    -0.133737429774E+02   -0.23149E+02   -0.21649E+02  2420   0.974E+01
DAV:   3    -0.142214435044E+02   -0.84770E+00   -0.82842E+00  2684   0.158E+01
DAV:   4    -0.142289946573E+02   -0.75512E-02   -0.75329E-02  2348   0.175E+00
DAV:   5    -0.142290824379E+02   -0.87781E-04   -0.87777E-04  2480   0.212E-01    0.163E+00
DAV:   6    -0.141839545730E+02    0.45128E-01   -0.10255E-02  2296   0.655E-01    0.101E+00
DAV:   7    -0.141520403621E+02    0.31914E-01   -0.30169E-02  2184   0.107E+00    0.480E-02
DAV:   8    -0.141520005842E+02    0.39778E-04   -0.17925E-04  2452   0.111E-01    0.127E-02
DAV:   9    -0.141520035581E+02   -0.29739E-05   -0.51889E-06  2408   0.144E-02    0.141E-03
DAV:  10    -0.141520020260E+02    0.15321E-05   -0.84183E-08  2500   0.225E-03    0.315E-04
DAV:  11    -0.141520019602E+02    0.65848E-07   -0.17768E-09  1560   0.286E-04    0.390E-05
DAV:  12    -0.141520019958E+02   -0.35629E-07   -0.42440E-10  1404   0.160E-04    0.964E-06
DAV:  13    -0.141520019926E+02    0.31358E-08   -0.66357E-11  1324   0.542E-05
   1 F= -.14152002E+02 E0= -.14151932E+02  d E =-.139129E-03
