   4   4   0   0
  0.2130564E+02  0.4400664E-09  0.4400664E-09  0.4400664E-09  0.5000000E-15
  1.000000000000000E-004
  CAR 
 unknown system                          
     15.47608160     -4.83191233  301      5.52878749      1.00000000
     -4.832  0.0000E+00  0.0000E+00
     -4.764  0.0000E+00  0.0000E+00
     -4.697  0.0000E+00  0.0000E+00
     -4.629  0.0000E+00  0.0000E+00
     -4.561  0.0000E+00  0.0000E+00
     -4.493  0.0000E+00  0.0000E+00
     -4.426  0.0000E+00  0.0000E+00
     -4.358  0.0000E+00  0.0000E+00
     -4.290  0.0000E+00  0.0000E+00
     -4.223  0.0000E+00  0.0000E+00
     -4.155  0.0000E+00  0.0000E+00
     -4.087  0.0000E+00  0.0000E+00
     -4.020  0.0000E+00  0.0000E+00
     -3.952  0.9528E-11  0.6450E-12
     -3.884  0.1710E-01  0.1157E-02
     -3.817  0.1081E+00  0.8472E-02
     -3.749  0.2763E+00  0.2718E-01
     -3.681  0.1615E+00  0.3811E-01
     -3.613  0.4107E+00  0.6599E-01
     -3.546  0.4100E+00  0.9375E-01
     -3.478  0.1741E+00  0.1055E+00
     -3.410  0.5435E+00  0.1423E+00
     -3.343  0.4154E+00  0.1705E+00
     -3.275  0.4664E+00  0.2021E+00
     -3.207  0.4759E+00  0.2343E+00
     -3.140  0.8207E+00  0.2905E+00
     -3.072  0.1008E-01  0.2912E+00
     -3.004  0.7491E+00  0.3419E+00
     -2.936  0.7786E+00  0.3946E+00
     -2.869  0.4140E+00  0.4227E+00
     -2.801  0.7380E+00  0.4727E+00
     -2.733  0.8882E+00  0.5328E+00
     -2.666  0.1319E-03  0.5336E+00
     -2.598  0.4602E+00  0.5647E+00
     -2.530  0.1447E+01  0.6627E+00
     -2.463  0.7929E+00  0.7164E+00
     -2.395  0.1371E-01  0.7174E+00
     -2.327  0.1571E+01  0.8237E+00
     -2.260  0.4666E+00  0.8553E+00
     -2.192  0.2056E+00  0.8692E+00
     -2.124  0.9342E+00  0.9325E+00
     -2.056  0.1406E+01  0.1028E+01
     -1.989  0.6340E+00  0.1071E+01
     -1.921  0.4357E+00  0.1100E+01
     -1.853  0.1206E+01  0.1182E+01
     -1.786  0.4051E+00  0.1209E+01
     -1.718  0.1643E+01  0.1321E+01
     -1.650  0.9227E+00  0.1383E+01
     -1.583  0.6841E+00  0.1429E+01
     -1.515  0.1264E+01  0.1515E+01
     -1.447  0.8206E+00  0.1571E+01
     -1.380  0.1069E+00  0.1578E+01
     -1.312  0.9507E+00  0.1642E+01
     -1.244  0.1442E+01  0.1740E+01
     -1.176  0.9872E+00  0.1807E+01
     -1.109  0.1439E+01  0.1904E+01
     -1.041  0.1641E+01  0.2017E+01
     -0.973  0.1592E+00  0.2028E+01
     -0.906  0.1409E+01  0.2123E+01
     -0.838  0.4839E+00  0.2156E+01
     -0.770  0.1231E+01  0.2240E+01
     -0.703  0.9333E+00  0.2303E+01
     -0.635  0.1935E+01  0.2434E+01
     -0.567  0.5003E-03  0.2434E+01
     -0.500  0.8601E+00  0.2492E+01
     -0.432  0.2497E+01  0.2661E+01
     -0.364  0.4127E+00  0.2691E+01
     -0.296  0.1175E+01  0.2771E+01
     -0.229  0.2080E+01  0.2912E+01
     -0.161  0.8449E-04  0.2913E+01
     -0.093  0.6886E+00  0.2960E+01
     -0.026  0.2459E+01  0.3126E+01
      0.042  0.1297E+01  0.3214E+01
      0.110  0.5412E+00  0.3251E+01
      0.177  0.2110E+01  0.3394E+01
      0.245  0.2212E+00  0.3409E+01
      0.313  0.4506E+00  0.3439E+01
      0.380  0.2054E+01  0.3578E+01
      0.448  0.1687E+01  0.3692E+01
      0.516  0.8222E+00  0.3749E+01
      0.584  0.1616E+01  0.3858E+01
      0.651  0.1255E+01  0.3943E+01
      0.719  0.4145E+00  0.3971E+01
      0.787  0.3198E+01  0.4188E+01
      0.854  0.2032E+01  0.4325E+01
      0.922  0.1008E+00  0.4332E+01
      0.990  0.1262E+01  0.4418E+01
      1.057  0.1200E+01  0.4499E+01
      1.125  0.6319E+00  0.4542E+01
      1.193  0.8717E+00  0.4601E+01
      1.260  0.2653E+01  0.4780E+01
      1.328  0.9132E+00  0.4842E+01
      1.396  0.2695E+01  0.5024E+01
      1.464  0.7496E+00  0.5075E+01
      1.531  0.1416E+01  0.5171E+01
      1.599  0.1634E+01  0.5282E+01
      1.667  0.2439E+01  0.5447E+01
      1.734  0.7781E+00  0.5500E+01
      1.802  0.1233E+01  0.5583E+01
      1.870  0.2002E+01  0.5719E+01
      1.937  0.4089E+00  0.5746E+01
      2.005  0.1720E+01  0.5864E+01
      2.073  0.2023E+01  0.6001E+01
      2.140  0.4130E+00  0.6029E+01
      2.208  0.2072E+01  0.6170E+01
      2.276  0.2435E+01  0.6334E+01
      2.344  0.8506E+00  0.6392E+01
      2.411  0.1357E+01  0.6484E+01
      2.479  0.1547E+01  0.6589E+01
      2.547  0.4171E+00  0.6617E+01
      2.614  0.1820E+01  0.6740E+01
      2.682  0.3137E+01  0.6953E+01
      2.750  0.2380E+00  0.6969E+01
      2.817  0.2105E+01  0.7111E+01
      2.885  0.4343E+01  0.7405E+01
      2.953  0.4823E+00  0.7438E+01
      3.021  0.3081E+00  0.7460E+01
      3.088  0.1692E+01  0.7574E+01
      3.156  0.8661E+00  0.7633E+01
      3.224  0.2402E+01  0.7796E+01
      3.291  0.2908E+01  0.7993E+01
      3.359  0.1227E+01  0.8076E+01
      3.427  0.9425E+00  0.8140E+01
      3.494  0.2531E+01  0.8311E+01
      3.562  0.9121E+00  0.8373E+01
      3.630  0.1188E+01  0.8454E+01
      3.697  0.3409E+01  0.8684E+01
      3.765  0.7087E+00  0.8734E+01
      3.833  0.1824E+01  0.8857E+01
      3.901  0.1633E+01  0.8968E+01
      3.968  0.6558E+00  0.9012E+01
      4.036  0.3073E+01  0.9220E+01
      4.104  0.2280E+01  0.9375E+01
      4.171  0.3047E+01  0.9581E+01
      4.239  0.1765E+00  0.9594E+01
      4.307  0.1363E+01  0.9686E+01
      4.374  0.5692E+00  0.9725E+01
      4.442  0.3027E+01  0.9930E+01
      4.510  0.2216E+01  0.1008E+02
      4.577  0.1453E+01  0.1018E+02
      4.645  0.2022E+01  0.1032E+02
      4.713  0.2550E+01  0.1049E+02
      4.781  0.1525E+01  0.1059E+02
      4.848  0.2507E+00  0.1061E+02
      4.916  0.2233E+01  0.1076E+02
      4.984  0.1728E+01  0.1088E+02
      5.051  0.2533E+01  0.1105E+02
      5.119  0.2892E+01  0.1125E+02
      5.187  0.9309E+00  0.1131E+02
      5.254  0.9505E+00  0.1137E+02
      5.322  0.2371E+01  0.1153E+02
      5.390  0.3463E+01  0.1177E+02
      5.457  0.1758E+01  0.1189E+02
      5.525  0.1505E+01  0.1199E+02
      5.593  0.8156E+00  0.1205E+02
      5.661  0.2400E+01  0.1221E+02
      5.728  0.2424E+01  0.1237E+02
      5.796  0.1889E+01  0.1250E+02
      5.864  0.2020E+01  0.1264E+02
      5.931  0.2097E+01  0.1278E+02
      5.999  0.1284E+01  0.1287E+02
      6.067  0.2008E+01  0.1300E+02
      6.134  0.1660E+01  0.1312E+02
      6.202  0.1528E+01  0.1322E+02
      6.270  0.1967E+01  0.1335E+02
      6.337  0.1965E+01  0.1349E+02
      6.405  0.2321E+01  0.1364E+02
      6.473  0.2607E+01  0.1382E+02
      6.541  0.3391E+01  0.1405E+02
      6.608  0.1592E+01  0.1416E+02
      6.676  0.3147E+01  0.1437E+02
      6.744  0.5334E+00  0.1441E+02
      6.811  0.9440E+00  0.1447E+02
      6.879  0.3058E+01  0.1468E+02
      6.947  0.3903E+01  0.1494E+02
      7.014  0.1071E+01  0.1502E+02
      7.082  0.1780E+01  0.1514E+02
      7.150  0.6904E+00  0.1518E+02
      7.217  0.1663E+01  0.1530E+02
      7.285  0.3468E+01  0.1553E+02
      7.353  0.1685E+01  0.1564E+02
      7.421  0.2205E+01  0.1579E+02
      7.488  0.2505E+01  0.1596E+02
      7.556  0.2326E+01  0.1612E+02
      7.624  0.2153E+01  0.1627E+02
      7.691  0.2496E+01  0.1644E+02
      7.759  0.2365E+01  0.1660E+02
      7.827  0.2203E+01  0.1675E+02
      7.894  0.1634E+01  0.1686E+02
      7.962  0.1622E+01  0.1697E+02
      8.030  0.1307E+01  0.1706E+02
      8.098  0.3293E+01  0.1728E+02
      8.165  0.3501E+01  0.1752E+02
      8.233  0.2955E+01  0.1772E+02
      8.301  0.2267E+01  0.1787E+02
      8.368  0.2462E+01  0.1804E+02
      8.436  0.1034E+01  0.1811E+02
      8.504  0.1900E+01  0.1824E+02
      8.571  0.1258E+01  0.1832E+02
      8.639  0.3557E+01  0.1857E+02
      8.707  0.1644E+01  0.1868E+02
      8.774  0.2527E+01  0.1885E+02
      8.842  0.1637E+01  0.1896E+02
      8.910  0.3964E+01  0.1923E+02
      8.978  0.3653E+01  0.1947E+02
      9.045  0.1315E+01  0.1956E+02
      9.113  0.1392E+01  0.1966E+02
      9.181  0.2373E+01  0.1982E+02
      9.248  0.1247E+01  0.1990E+02
      9.316  0.2897E+01  0.2010E+02
      9.384  0.2763E+01  0.2029E+02
      9.451  0.3844E+01  0.2055E+02
      9.519  0.2163E+01  0.2070E+02
      9.587  0.1519E+01  0.2080E+02
      9.654  0.1972E+01  0.2093E+02
      9.722  0.3247E+01  0.2115E+02
      9.790  0.2835E+01  0.2134E+02
      9.858  0.3139E+01  0.2156E+02
      9.925  0.1149E+01  0.2164E+02
      9.993  0.1417E+01  0.2173E+02
     10.061  0.1348E+01  0.2182E+02
     10.128  0.2507E+01  0.2199E+02
     10.196  0.2071E+01  0.2213E+02
     10.264  0.7934E+00  0.2219E+02
     10.331  0.1308E+01  0.2228E+02
     10.399  0.1546E+01  0.2238E+02
     10.467  0.1056E+01  0.2245E+02
     10.534  0.1600E+01  0.2256E+02
     10.602  0.1227E+01  0.2264E+02
     10.670  0.2818E+01  0.2283E+02
     10.738  0.6244E+00  0.2288E+02
     10.805  0.6258E+00  0.2292E+02
     10.873  0.9157E-01  0.2293E+02
     10.941  0.1102E-01  0.2293E+02
     11.008  0.4449E+00  0.2296E+02
     11.076  0.1348E+01  0.2305E+02
     11.144  0.1845E+01  0.2317E+02
     11.211  0.1102E+01  0.2325E+02
     11.279  0.2067E+00  0.2326E+02
     11.347  0.7972E-01  0.2327E+02
     11.414  0.9575E+00  0.2333E+02
     11.482  0.8132E+00  0.2339E+02
     11.550  0.6046E-02  0.2339E+02
     11.618  0.4043E+00  0.2341E+02
     11.685  0.2876E-08  0.2341E+02
     11.753  0.1640E+01  0.2353E+02
     11.821  0.1025E+00  0.2353E+02
     11.888  0.4098E+00  0.2356E+02
     11.956  0.0000E+00  0.2356E+02
     12.024  0.5239E-02  0.2356E+02
     12.091  0.8155E+00  0.2362E+02
     12.159  0.4898E-11  0.2362E+02
     12.227  0.8158E+00  0.2367E+02
     12.294  0.1369E-03  0.2367E+02
     12.362  0.5466E+00  0.2371E+02
     12.430  0.7440E-02  0.2371E+02
     12.498  0.8133E+00  0.2376E+02
     12.565  0.4103E+00  0.2379E+02
     12.633  0.0000E+00  0.2379E+02
     12.701  0.0000E+00  0.2379E+02
     12.768  0.1597E-07  0.2379E+02
     12.836  0.4103E+00  0.2382E+02
     12.904  0.0000E+00  0.2382E+02
     12.971  0.1186E-09  0.2382E+02
     13.039  0.5348E+00  0.2386E+02
     13.107  0.6961E+00  0.2390E+02
     13.175  0.0000E+00  0.2390E+02
     13.242  0.5467E-15  0.2390E+02
     13.310  0.3907E+00  0.2393E+02
     13.378  0.1964E-01  0.2393E+02
     13.445  0.0000E+00  0.2393E+02
     13.513  0.1859E-08  0.2393E+02
     13.581  0.1368E+00  0.2394E+02
     13.648  0.4103E+00  0.2397E+02
     13.716  0.0000E+00  0.2397E+02
     13.784  0.9112E-16  0.2397E+02
     13.851  0.3792E+00  0.2399E+02
     13.919  0.3116E-01  0.2400E+02
     13.987  0.0000E+00  0.2400E+02
     14.055  0.0000E+00  0.2400E+02
     14.122  0.0000E+00  0.2400E+02
     14.190  0.0000E+00  0.2400E+02
     14.258  0.0000E+00  0.2400E+02
     14.325  0.0000E+00  0.2400E+02
     14.393  0.0000E+00  0.2400E+02
     14.461  0.0000E+00  0.2400E+02
     14.528  0.1707E-04  0.2400E+02
     14.596  0.6837E-01  0.2400E+02
     14.664  0.0000E+00  0.2400E+02
     14.731  0.0000E+00  0.2400E+02
     14.799  0.0000E+00  0.2400E+02
     14.867  0.0000E+00  0.2400E+02
     14.935  0.0000E+00  0.2400E+02
     15.002  0.0000E+00  0.2400E+02
     15.070  0.0000E+00  0.2400E+02
     15.138  0.0000E+00  0.2400E+02
     15.205  0.0000E+00  0.2400E+02
     15.273  0.0000E+00  0.2400E+02
     15.341  0.0000E+00  0.2400E+02
     15.408  0.0000E+00  0.2400E+02
     15.476  0.0000E+00  0.2400E+02
