    4    4    1    1
  0.2130564E+02  0.4400664E-09  0.4400664E-09  0.4400664E-09  0.5000000E-15
  1.000000000000000E-004
  CAR 
 unknown system                          
   12   84   12
 
  0.0000000E+00  0.0000000E+00  0.0000000E+00  0.5787037E-03
   1       -3.9088
   2        3.2661
   3        3.2661
   4        3.2661
   5        3.9052
   6        3.9052
   7        3.9052
   8       10.1163
   9       10.1163
  10       10.1163
  11       10.1163
  12       10.1163
 
  0.8333333E-01  0.0000000E+00  0.0000000E+00  0.3472222E-02
   1       -3.8558
   2        2.3685
   3        3.3157
   4        3.3157
   5        3.9562
   6        3.9562
   7        4.8956
   8        9.2515
   9        9.2515
  10        9.6968
  11        9.6968
  12       10.1630
 
  0.1666667E+00  0.0000000E+00  0.0000000E+00  0.3472222E-02
   1       -3.6969
   2        1.3081
   3        3.4648
   4        3.4648
   5        4.1086
   6        4.1086
   7        6.2338
   8        8.2274
   9        8.2274
  10        8.8832
  11        8.8832
  12       10.3033
 
  0.2500000E+00  0.0000000E+00  0.0000000E+00  0.3472222E-02
   1       -3.4324
   2        0.3317
   3        3.7132
   4        3.7132
   5        4.3602
   6        4.3602
   7        7.2885
   8        7.2885
   9        7.6698
  10        8.0286
  11        8.0286
  12       10.5370
 
  0.3333333E+00  0.0000000E+00  0.0000000E+00  0.3472222E-02
   1       -3.0628
   2       -0.5490
   3        4.0610
   4        4.0610
   5        4.7050
   6        4.7050
   7        6.4455
   8        6.4455
   9        7.2296
  10        7.2296
  11        9.1847
  12       10.8642
 
  0.4166667E+00  0.0000000E+00  0.0000000E+00  0.3472222E-02
   1       -2.5886
   2       -1.3304
   3        4.5082
   4        4.5082
   5        5.1197
   6        5.1197
   7        5.7007
   8        5.7007
   9        6.5363
  10        6.5363
  11       10.7580
  12       11.2845
 
  0.5000000E+00  0.0000000E+00  0.0000000E+00  0.1736111E-02
   1       -2.0108
   2       -2.0108
   3        5.0548
   4        5.0548
   5        5.0548
   6        5.0548
   7        5.4155
   8        5.4155
   9        6.1468
  10        6.1468
  11       11.7977
  12       11.7977
 
  0.8333333E-01  0.8333333E-01  0.0000000E+00  0.6944444E-02
   1       -3.8029
   2        2.4191
   3        2.4191
   4        3.3654
   5        4.0069
   6        4.9454
   7        4.9454
   8        8.4024
   9        9.3004
  10        9.3004
  11        9.7447
  12        9.7447
 
  0.1666667E+00  0.8333333E-01  0.0000000E+00  0.1388889E-01
   1       -3.6440
   2        1.3592
   3        2.5710
   4        3.5144
   5        4.1581
   6        5.0943
   7        6.2824
   8        7.4009
   9        8.2767
  10        8.9329
  11        9.4470
  12        9.7334
 
  0.2500000E+00  0.8333333E-01  0.0000000E+00  0.1388889E-01
   1       -3.3796
   2        0.3833
   3        2.8236
   4        3.7628
   5        4.4059
   6        5.3396
   7        6.4753
   8        7.3380
   9        7.7158
  10        8.0811
  11        8.9187
  12        9.6911
 
  0.3333333E+00  0.8333333E-01  0.0000000E+00  0.1388889E-01
   1       -3.0100
   2       -0.4971
   3        3.1762
   4        4.1106
   5        4.7293
   6        5.6617
   7        5.6715
   8        6.4951
   9        7.2904
  10        8.1242
  11        9.2215
  12       10.0323
 
  0.4166667E+00  0.8333333E-01  0.0000000E+00  0.1388889E-01
   1       -2.5360
   2       -1.2783
   3        3.6268
   4        4.5579
   5        4.7524
   6        5.3352
   7        5.7503
   8        6.0100
   9        6.6697
  10        7.4086
  11       10.4701
  12       10.6653
 
  0.5000000E+00  0.8333333E-01  0.0000000E+00  0.6944444E-02
   1       -1.9584
   2       -1.9584
   3        4.1695
   4        4.1695
   5        5.1044
   6        5.1044
   7        5.7764
   8        5.7764
   9        6.8128
  10        6.8128
  11       11.0036
  12       11.0036
 
  0.1666667E+00  0.1666667E+00  0.0000000E+00  0.6944444E-02
   1       -3.4853
   2        1.5126
   3        1.5126
   4        3.6635
   5        4.3040
   6        6.3959
   7        6.4267
   8        6.4267
   9        8.4246
  10        8.4246
  11        9.0832
  12        9.0832
 
  0.2500000E+00  0.1666667E+00  0.0000000E+00  0.1388889E-01
   1       -3.2212
   2        0.5378
   3        1.7678
   4        3.9119
   5        4.5244
   6        5.4914
   7        6.6586
   8        7.4864
   9        7.8478
  10        8.2439
  11        8.6709
  12        9.3409
 
  0.3333333E+00  0.1666667E+00  0.0000000E+00  0.1388889E-01
   1       -2.8520
   2       -0.3417
   3        2.1242
   4        4.2597
   5        4.4517
   6        5.0699
   7        6.6438
   8        6.9068
   9        7.5337
  10        9.0154
  11        9.2578
  12        9.3888
 
  0.4166667E+00  0.1666667E+00  0.0000000E+00  0.1388889E-01
   1       -2.3785
   2       -1.1221
   3        2.5805
   4        3.7783
   5        4.7069
   6        5.4415
   7        5.8991
   8        6.5751
   9        7.5766
  10        8.6914
  11        9.4578
  12       10.0085
 
  0.5000000E+00  0.1666667E+00  0.0000000E+00  0.6944444E-02
   1       -1.8015
   2       -1.8015
   3        3.1344
   4        3.1344
   5        5.2534
   6        5.2534
   7        5.9719
   8        5.9719
   9        8.0749
  10        8.0749
  11        9.9973
  12        9.9973
 
  0.2500000E+00  0.2500000E+00  0.0000000E+00  0.6944444E-02
   1       -2.9575
   2        0.7949
   3        0.7949
   4        4.1603
   5        4.3500
   6        4.9754
   7        7.7336
   8        7.7336
   9        7.9945
  10        7.9945
  11        8.5878
  12        8.5878
 
  0.3333333E+00  0.2500000E+00  0.0000000E+00  0.1388889E-01
   1       -2.5889
   2       -0.0829
   3        1.1542
   4        3.5777
   5        4.5080
   6        5.2483
   7        6.8915
   8        7.5623
   9        8.0796
  10        8.5555
  11        8.7171
  12        9.7246
 
  0.4166667E+00  0.2500000E+00  0.0000000E+00  0.1388889E-01
   1       -2.1162
   2       -0.8620
   3        1.6146
   4        2.8318
   5        4.9552
   6        5.6888
   7        6.1472
   8        6.8677
   9        8.5239
  10        8.9543
  11        9.1893
  12        9.7057
 
  0.5000000E+00  0.2500000E+00  0.0000000E+00  0.6944444E-02
   1       -1.5402
   2       -1.5402
   3        2.1747
   4        2.1747
   5        5.5016
   6        5.5016
   7        6.2334
   8        6.2334
   9        9.0662
  10        9.0662
  11        9.4692
  12        9.4692
 
  0.3333333E+00  0.3333333E+00  0.0000000E+00  0.6944444E-02
   1       -2.2213
   2        0.2786
   3        0.2786
   4        2.7303
   5        4.8558
   6        5.5911
   7        7.2382
   8        7.2382
   9        7.9472
  10        7.9472
  11        9.6078
  12       10.0266
 
  0.4166667E+00  0.3333333E+00  0.0000000E+00  0.1388889E-01
   1       -1.7497
   2       -0.4985
   3        0.7422
   4        1.9705
   5        5.3028
   6        6.0408
   7        6.4944
   8        7.2273
   9        7.6837
  10        8.3991
  11        8.8693
  12        9.5643
 
  0.5000000E+00  0.3333333E+00  0.0000000E+00  0.6944444E-02
   1       -1.1751
   2       -1.1751
   3        1.3068
   4        1.3068
   5        5.8491
   6        5.8491
   7        6.5884
   8        6.5884
   9        8.2276
  10        8.2276
  11        8.9381
  12        8.9381
 
  0.4166667E+00  0.4166667E+00  0.0000000E+00  0.6944444E-02
   1       -1.2796
   2       -0.0323
   3       -0.0323
   4        1.2039
   5        5.7497
   6        6.4921
   7        6.9405
   8        6.9405
   9        7.6773
  10        7.6773
  11        8.1287
  12        8.8502
 
  0.5000000E+00  0.4166667E+00  0.0000000E+00  0.6944444E-02
   1       -0.7067
   2       -0.7067
   3        0.5356
   4        0.5356
   5        6.2957
   6        6.2957
   7        7.0391
   8        7.0391
   9        7.4855
  10        7.4855
  11        8.2192
  12        8.2192
 
  0.5000000E+00  0.5000000E+00  0.0000000E+00  0.1736111E-02
   1       -0.1361
   2       -0.1361
   3       -0.1361
   4       -0.1361
   5        6.8413
   6        6.8413
   7        6.8413
   8        6.8413
   9        7.5840
  10        7.5840
  11        7.5840
  12        7.5840
 
  0.8333333E-01  0.8333333E-01  0.8333333E-01  0.4629630E-02
   1       -3.7499
   2        2.4697
   3        2.4697
   4        2.4697
   5        4.9949
   6        4.9949
   7        4.9949
   8        8.4521
   9        8.4521
  10        8.4521
  11       10.2563
  12       10.2563
 
  0.1666667E+00  0.8333333E-01  0.8333333E-01  0.1388889E-01
   1       -3.5911
   2        1.4104
   3        2.6214
   4        2.6214
   5        5.1422
   6        5.1422
   7        6.3300
   8        7.4520
   9        7.4520
  10        8.6017
  11        9.7817
  12        9.7817
 
  0.2500000E+00  0.8333333E-01  0.8333333E-01  0.1388889E-01
   1       -3.3268
   2        0.4348
   3        2.8736
   4        2.8736
   5        5.3797
   6        5.3797
   7        6.5324
   8        6.5324
   9        7.7571
  10        8.8556
  11        8.9685
  12        8.9685
 
  0.3333333E+00  0.8333333E-01  0.8333333E-01  0.1388889E-01
   1       -2.9574
   2       -0.4453
   3        3.2251
   4        3.2251
   5        5.5322
   6        5.5322
   7        5.8841
   8        5.8841
   9        8.1764
  10        8.1764
  11        9.0865
  12        9.3843
 
  0.4166667E+00  0.8333333E-01  0.8333333E-01  0.1388889E-01
   1       -2.4835
   2       -1.2262
   3        3.6708
   4        3.6708
   5        4.8986
   6        4.8986
   7        6.2066
   8        6.2066
   9        7.4699
  10        7.4699
  11        9.6038
  12       10.7758
 
  0.5000000E+00  0.8333333E-01  0.8333333E-01  0.6944444E-02
   1       -1.9061
   2       -1.9061
   3        4.0978
   4        4.0978
   5        4.3798
   6        4.3798
   7        6.5592
   8        6.5592
   9        7.0173
  10        7.0173
  11       10.1451
  12       10.1451
 
  0.1666667E+00  0.1666667E+00  0.8333333E-01  0.1388889E-01
   1       -3.4325
   2        1.5636
   3        1.5636
   4        2.7724
   5        5.2796
   6        6.4540
   7        6.4681
   8        6.4681
   9        7.6095
  10        7.6095
  11        9.9268
  12        9.9268
 
  0.2500000E+00  0.1666667E+00  0.8333333E-01  0.2777778E-01
   1       -3.1684
   2        0.5892
   3        1.8185
   4        3.0228
   5        5.3335
   6        5.7138
   7        6.5350
   8        6.8554
   9        7.7245
  10        8.0323
  11        9.1191
  12       10.1580
 
  0.3333333E+00  0.1666667E+00  0.8333333E-01  0.2777778E-01
   1       -2.7994
   2       -0.2899
   3        2.1743
   4        3.3674
   5        4.6164
   6        5.7941
   7        5.9393
   8        7.0847
   9        8.1639
  10        8.3394
  11        9.4384
  12        9.4424
 
  0.4166667E+00  0.1666667E+00  0.8333333E-01  0.2777778E-01
   1       -2.3260
   2       -1.0701
   3        2.6291
   4        3.6892
   5        4.0048
   6        5.0560
   7        6.3723
   8        7.3527
   9        7.7821
  10        8.6145
  11        8.7432
  12        9.7916
 
  0.5000000E+00  0.1666667E+00  0.8333333E-01  0.1388889E-01
   1       -1.7492
   2       -1.7492
   3        3.1767
   4        3.1767
   5        4.4158
   6        4.4158
   7        6.8975
   8        6.8975
   9        8.1351
  10        8.1351
  11        9.1563
  12        9.1563
 
  0.2500000E+00  0.2500000E+00  0.8333333E-01  0.1388889E-01
   1       -2.9048
   2        0.8461
   3        0.8461
   4        3.2659
   5        4.5191
   6        5.8432
   7        6.8870
   8        6.8870
   9        8.1695
  10        8.1695
  11        9.3780
  12        9.3780
 
  0.3333333E+00  0.2500000E+00  0.8333333E-01  0.2777778E-01
   1       -2.5364
   2       -0.0313
   3        1.2050
   4        3.4835
   5        3.8109
   6        6.0529
   7        6.1818
   8        7.2428
   9        8.3356
  10        8.7529
  11        9.4948
  12        9.6072
 
  0.4166667E+00  0.2500000E+00  0.8333333E-01  0.2777778E-01
   1       -2.0639
   2       -0.8101
   3        1.6647
   4        2.8734
   5        4.1180
   6        5.3082
   7        6.6254
   8        7.6911
   9        7.7848
  10        8.8745
  11        9.0138
  12       10.0812
 
  0.5000000E+00  0.2500000E+00  0.8333333E-01  0.1388889E-01
   1       -1.4881
   2       -1.4881
   3        2.2232
   4        2.2232
   5        4.6606
   6        4.6606
   7        7.1642
   8        7.1642
   9        8.2352
  10        8.2352
  11        9.5205
  12        9.5205
 
  0.3333333E+00  0.3333333E+00  0.8333333E-01  0.1388889E-01
   1       -2.1689
   2        0.3300
   3        0.3300
   4        2.7717
   5        4.0183
   6        6.4047
   7        6.4047
   8        6.5291
   9        8.7794
  10        8.8525
  11        8.8525
  12       10.0847
 
  0.4166667E+00  0.3333333E+00  0.8333333E-01  0.2777778E-01
   1       -1.6975
   2       -0.4468
   3        0.7931
   4        2.0189
   5        4.4612
   6        5.6592
   7        6.8537
   8        6.9752
   9        8.0425
  10        8.1472
  11        9.3070
  12       10.4666
 
  0.5000000E+00  0.3333333E+00  0.8333333E-01  0.1388889E-01
   1       -1.1231
   2       -1.1231
   3        1.3569
   4        1.3569
   5        5.0103
   6        5.0103
   7        7.4000
   8        7.4000
   9        7.5164
  10        7.5164
  11        9.8433
  12        9.8433
 
  0.4166667E+00  0.4166667E+00  0.8333333E-01  0.1388889E-01
   1       -1.2276
   2        0.0191
   3        0.0191
   4        1.2540
   5        4.9107
   6        6.1091
   7        6.1091
   8        7.3023
   9        7.4215
  10        8.5936
  11        8.5936
  12        9.7573
 
  0.5000000E+00  0.4166667E+00  0.8333333E-01  0.1388889E-01
   1       -0.6550
   2       -0.6550
   3        0.5866
   4        0.5866
   5        5.4607
   6        5.4607
   7        6.6572
   8        6.6572
   9        7.9624
  10        7.9624
  11        9.1310
  12        9.1310
 
  0.5000000E+00  0.5000000E+00  0.8333333E-01  0.3472222E-02
   1       -0.0847
   2       -0.0847
   3       -0.0847
   4       -0.0847
   5        6.0101
   6        6.0101
   7        6.0101
   8        6.0101
   9        8.5017
  10        8.5017
  11        8.5017
  12        8.5017
 
  0.1666667E+00  0.1666667E+00  0.1666667E+00  0.4629630E-02
   1       -3.2740
   2        1.7163
   3        1.7163
   4        1.7163
   5        6.4384
   6        6.4384
   7        6.4384
   8        6.7779
   9        6.7779
  10        6.7779
  11       10.6759
  12       10.6759
 
  0.2500000E+00  0.1666667E+00  0.1666667E+00  0.1388889E-01
   1       -3.0102
   2        0.7432
   3        1.9702
   4        1.9702
   5        5.6127
   6        5.6127
   7        6.8030
   8        6.9133
   9        6.9133
  10        8.0939
  11       10.3026
  12       10.3029
 
  0.3333333E+00  0.1666667E+00  0.1666667E+00  0.1388889E-01
   1       -2.6416
   2       -0.1348
   3        2.3235
   4        2.3235
   5        4.7762
   6        4.7762
   7        7.1604
   8        7.2463
   9        7.2463
  10        9.5264
  11        9.5882
  12        9.5913
 
  0.4166667E+00  0.1666667E+00  0.1666667E+00  0.1388889E-01
   1       -2.1688
   2       -0.9141
   3        2.7694
   4        2.7694
   5        4.0362
   6        4.0362
   7        7.6094
   8        7.6715
   9        7.6715
  10        8.7935
  11        8.9047
  12        8.9047
 
  0.5000000E+00  0.1666667E+00  0.1666667E+00  0.6944444E-02
   1       -1.5925
   2       -1.5925
   3        3.1747
   4        3.1747
   5        3.5325
   6        3.5325
   7        8.0399
   8        8.0399
   9        8.1539
  10        8.1539
  11        8.4475
  12        8.4475
 
  0.2500000E+00  0.2500000E+00  0.1666667E+00  0.1388889E-01
   1       -2.7469
   2        0.9995
   3        0.9995
   4        2.2214
   5        4.6794
   6        5.8739
   7        5.8739
   8        7.1538
   9        8.3281
  10        8.3281
  11        9.4346
  12       10.5448
 
  0.3333333E+00  0.2500000E+00  0.1666667E+00  0.2777778E-01
   1       -2.3789
   2        0.1232
   3        1.3571
   4        2.5648
   5        3.8400
   6        5.0296
   7        6.2269
   8        7.4963
   9        8.6055
  10        8.6522
  11        9.8211
  12        9.8458
 
  0.4166667E+00  0.2500000E+00  0.1666667E+00  0.2777778E-01
   1       -1.9069
   2       -0.6545
   3        1.8139
   4        2.8638
   5        3.2399
   6        4.2808
   7        6.6769
   8        7.8677
   9        7.9337
  10        8.9168
  11        9.3188
  12       10.2623
 
  0.5000000E+00  0.2500000E+00  0.1666667E+00  0.1388889E-01
   1       -1.3317
   2       -1.3317
   3        2.3623
   4        2.3623
   5        3.6379
   6        3.6379
   7        7.2242
   8        7.2242
   9        8.4543
  10        8.4543
  11        9.6806
  12        9.6806
 
  0.3333333E+00  0.3333333E+00  0.1666667E+00  0.1388889E-01
   1       -2.0118
   2        0.4837
   3        0.4837
   4        2.7599
   5        3.1417
   6        5.3818
   7        5.3818
   8        7.7714
   9        7.8418
  10        9.9708
  11        9.9708
  12       10.3677
 
  0.4166667E+00  0.3333333E+00  0.1666667E+00  0.2777778E-01
   1       -1.5410
   2       -0.2919
   3        0.9454
   4        2.1574
   5        3.4376
   6        4.6315
   7        5.8331
   8        7.0294
   9        8.2819
  10        9.4189
  11       10.5462
  12       10.6476
 
  0.5000000E+00  0.3333333E+00  0.1666667E+00  0.1388889E-01
   1       -0.9673
   2       -0.9673
   3        1.5060
   4        1.5060
   5        3.9805
   6        3.9805
   7        6.3827
   8        6.3827
   9        8.8120
  10        8.8120
  11       11.0821
  12       11.0826
 
  0.4166667E+00  0.4166667E+00  0.1666667E+00  0.1388889E-01
   1       -1.0717
   2        0.1730
   3        0.1730
   4        1.4031
   5        3.8802
   6        5.0835
   7        5.0835
   8        6.2841
   9        8.7226
  10        9.8685
  11        9.8685
  12       11.0113
 
  0.5000000E+00  0.4166667E+00  0.1666667E+00  0.1388889E-01
   1       -0.4999
   2       -0.4999
   3        0.7389
   4        0.7389
   5        4.4314
   6        4.4314
   7        5.6348
   8        5.6348
   9        9.2538
  10        9.2538
  11       10.3988
  12       10.3988
 
  0.5000000E+00  0.5000000E+00  0.1666667E+00  0.3472222E-02
   1        0.0693
   2        0.0693
   3        0.0693
   4        0.0693
   5        4.9837
   6        4.9837
   7        4.9837
   8        4.9837
   9        9.7843
  10        9.7843
  11        9.7843
  12        9.7843
 
  0.2500000E+00  0.2500000E+00  0.2500000E+00  0.4629630E-02
   1       -2.4841
   2        1.2543
   3        1.2543
   4        1.2543
   5        4.9331
   6        4.9331
   7        4.9331
   8        8.5124
   9        8.5735
  10        8.5735
  11        8.5735
  12       11.3736
 
  0.3333333E+00  0.2500000E+00  0.2500000E+00  0.1388889E-01
   1       -2.1168
   2        0.3804
   3        1.6085
   4        1.6085
   5        4.0844
   6        4.0844
   7        5.2857
   8        7.6773
   9        8.9105
  10        8.9105
  11       10.0715
  12       11.1136
 
  0.4166667E+00  0.2500000E+00  0.2500000E+00  0.1388889E-01
   1       -1.6456
   2       -0.3957
   3        2.0540
   4        2.0540
   5        3.3410
   6        3.3410
   7        5.7374
   8        6.9347
   9        9.3293
  10        9.3293
  11       10.5180
  12       10.5180
 
  0.5000000E+00  0.2500000E+00  0.2500000E+00  0.6944444E-02
   1       -1.0715
   2       -1.0715
   3        2.4475
   4        2.4475
   5        2.8481
   6        2.8481
   7        6.2874
   8        6.2874
   9        9.6866
  10        9.6866
  11       10.0879
  12       10.0879
 
  0.3333333E+00  0.3333333E+00  0.2500000E+00  0.1388889E-01
   1       -1.7504
   2        0.7391
   3        0.7391
   4        1.9511
   5        3.2414
   6        4.4356
   7        4.4356
   8        6.8373
   9        9.2525
  10       10.3913
  11       10.3913
  12       11.4579
 
  0.4166667E+00  0.3333333E+00  0.2500000E+00  0.2777778E-01
   1       -1.2805
   2       -0.0342
   3        1.1970
   4        2.2386
   5        2.6508
   6        3.6834
   7        4.8882
   8        6.0908
   9        9.6820
  10       10.6325
  11       11.0323
  12       11.7262
 
  0.5000000E+00  0.3333333E+00  0.2500000E+00  0.1388889E-01
   1       -0.7080
   2       -0.7080
   3        1.7454
   4        1.7454
   5        3.0398
   6        3.0398
   7        5.4404
   8        5.4404
   9       10.1870
  10       10.1870
  11       11.3779
  12       11.3779
 
  0.4166667E+00  0.4166667E+00  0.2500000E+00  0.1388889E-01
   1       -0.8123
   2        0.4287
   3        0.4287
   4        1.6422
   5        2.9391
   6        4.1351
   7        4.1351
   8        5.3411
   9       10.1153
  10       11.2060
  11       11.2060
  12       12.3186
 
  0.5000000E+00  0.4166667E+00  0.2500000E+00  0.1388889E-01
   1       -0.2420
   2       -0.2420
   3        0.9905
   4        0.9905
   5        3.4822
   6        3.4822
   7        4.6885
   8        4.6885
   9       10.6298
  10       10.6298
  11       11.7312
  12       11.7312
 
  0.5000000E+00  0.5000000E+00  0.2500000E+00  0.3472222E-02
   1        0.3250
   2        0.3250
   3        0.3250
   4        0.3250
   5        4.0346
   6        4.0346
   7        4.0346
   8        4.0346
   9       11.1469
  10       11.1469
  11       11.1469
  12       11.1469
 
  0.3333333E+00  0.3333333E+00  0.3333333E+00  0.4629630E-02
   1       -1.3850
   2        1.0938
   3        1.0938
   4        1.0938
   5        3.5837
   6        3.5837
   7        3.5837
   8        5.9927
   9       10.7333
  10       10.7333
  11       10.7333
  12       12.3429
 
  0.4166667E+00  0.3333333E+00  0.3333333E+00  0.1388889E-01
   1       -0.9166
   2        0.3251
   3        1.5388
   4        1.5388
   5        2.8394
   6        2.8394
   7        4.0356
   8        5.2424
   9       11.1385
  10       11.1385
  11       12.2064
  12       12.2103
 
  0.5000000E+00  0.3333333E+00  0.3333333E+00  0.6944444E-02
   1       -0.3460
   2       -0.3460
   3        1.9242
   4        1.9242
   5        2.3541
   6        2.3541
   7        4.5893
   8        4.5893
   9       11.4673
  10       11.4673
  11       11.8673
  12       11.8673
 
  0.4166667E+00  0.4166667E+00  0.3333333E+00  0.1388889E-01
   1       -0.4501
   2        0.7837
   3        0.7837
   4        1.8192
   5        2.2549
   6        3.2817
   7        3.2817
   8        4.4893
   9       11.5653
  10       12.4466
  11       12.4466
  12       12.8063
 
  0.5000000E+00  0.4166667E+00  0.3333333E+00  0.1388889E-01
   1        0.1176
   2        0.1176
   3        1.3318
   4        1.3318
   5        2.6379
   6        2.6379
   7        3.8347
   8        3.8347
   9       12.0413
  10       12.0413
  11       13.0435
  12       13.0517
 
  0.5000000E+00  0.5000000E+00  0.3333333E+00  0.3472222E-02
   1        0.6801
   2        0.6801
   3        0.6801
   4        0.6801
   5        3.1808
   6        3.1808
   7        3.1808
   8        3.1808
   9       12.5384
  10       12.5384
  11       12.5384
  12       12.5384
 
  0.4166667E+00  0.4166667E+00  0.4166667E+00  0.4629630E-02
   1        0.0137
   2        1.2282
   3        1.2282
   4        1.2282
   5        2.5372
   6        2.5372
   7        2.5372
   8        3.7342
   9       13.0152
  10       13.0152
  11       13.0152
  12       13.5523
 
  0.5000000E+00  0.4166667E+00  0.4166667E+00  0.6944444E-02
   1        0.5764
   2        0.5764
   3        1.6087
   4        1.6087
   5        2.0565
   6        2.0565
   7        3.0801
   8        3.0801
   9       13.2981
  10       13.2981
  11       13.6135
  12       13.6135
 
  0.5000000E+00  0.5000000E+00  0.4166667E+00  0.3472222E-02
   1        1.1244
   2        1.1244
   3        1.1244
   4        1.1244
   5        2.4363
   6        2.4363
   7        2.4363
   8        2.4363
   9       13.8413
  10       13.8413
  11       13.8413
  12       13.8413
 
  0.5000000E+00  0.5000000E+00  0.5000000E+00  0.5787037E-03
   1        1.5033
   2        1.5033
   3        1.5033
   4        1.5033
   5        1.9571
   6        1.9571
   7        1.9571
   8        1.9571
   9       14.5530
  10       14.5530
  11       14.5530
  12       14.5530
