<?xml version="1.0" encoding="ISO-8859-1"?>
<modeling>
 <generator>
  <i name="program" type="string">vasp</i>
  <i name="version" type="string">4.6.28 </i>
  <i name="subversion" type="string">25Jul05 complex  parallel</i>
  <i name="platform" type="string">LinuxIFC</i>
  <i name="date" type="string">2017 01 08</i>
  <i name="time" type="string">10:03:51</i>
 </generator>
 <incar>
  <i type="string" name="PREC">accurate</i>
  <i type="int" name="IALGO">    38</i>
  <i type="logical" name="ADDGRID"> T  </i>
  <i name="EDIFF">      0.00000001</i>
  <i type="int" name="IBRION">    -1</i>
  <i name="ENCUT">    750.00000000</i>
  <i type="logical" name="LREAL"> F  </i>
  <i type="int" name="ISMEAR">     0</i>
  <i name="SIGMA">      0.01000000</i>
  <i type="logical" name="LWAVE"> F  </i>
  <i type="logical" name="LCHARG"> F  </i>
 </incar>
 <kpoints>
  <generation param="Gamma">
   <v type="int" name="divisions">      12      12      12</v>
   <v name="usershift">      0.00000000      0.00000000      0.00000000</v>
   <v name="genvec1">      0.08333333      0.00000000      0.00000000</v>
   <v name="genvec2">      0.00000000      0.08333333      0.00000000</v>
   <v name="genvec3">      0.00000000      0.00000000      0.08333333</v>
   <v name="shift">      0.00000000      0.00000000      0.00000000</v>
  </generation>
  <varray name="kpointlist" >
   <v>       0.00000000      0.00000000      0.00000000</v>
   <v>       0.08333333      0.00000000      0.00000000</v>
   <v>       0.16666667      0.00000000      0.00000000</v>
   <v>       0.25000000      0.00000000      0.00000000</v>
   <v>       0.33333333      0.00000000      0.00000000</v>
   <v>       0.41666667      0.00000000      0.00000000</v>
   <v>       0.50000000      0.00000000      0.00000000</v>
   <v>       0.08333333      0.08333333      0.00000000</v>
   <v>       0.16666667      0.08333333      0.00000000</v>
   <v>       0.25000000      0.08333333      0.00000000</v>
   <v>       0.33333333      0.08333333      0.00000000</v>
   <v>       0.41666667      0.08333333      0.00000000</v>
   <v>       0.50000000      0.08333333      0.00000000</v>
   <v>       0.16666667      0.16666667      0.00000000</v>
   <v>       0.25000000      0.16666667      0.00000000</v>
   <v>       0.33333333      0.16666667      0.00000000</v>
   <v>       0.41666667      0.16666667      0.00000000</v>
   <v>       0.50000000      0.16666667      0.00000000</v>
   <v>       0.25000000      0.25000000      0.00000000</v>
   <v>       0.33333333      0.25000000      0.00000000</v>
   <v>       0.41666667      0.25000000      0.00000000</v>
   <v>       0.50000000      0.25000000      0.00000000</v>
   <v>       0.33333333      0.33333333      0.00000000</v>
   <v>       0.41666667      0.33333333      0.00000000</v>
   <v>       0.50000000      0.33333333      0.00000000</v>
   <v>       0.41666667      0.41666667      0.00000000</v>
   <v>       0.50000000      0.41666667      0.00000000</v>
   <v>       0.50000000      0.50000000      0.00000000</v>
   <v>       0.08333333      0.08333333      0.08333333</v>
   <v>       0.16666667      0.08333333      0.08333333</v>
   <v>       0.25000000      0.08333333      0.08333333</v>
   <v>       0.33333333      0.08333333      0.08333333</v>
   <v>       0.41666667      0.08333333      0.08333333</v>
   <v>       0.50000000      0.08333333      0.08333333</v>
   <v>       0.16666667      0.16666667      0.08333333</v>
   <v>       0.25000000      0.16666667      0.08333333</v>
   <v>       0.33333333      0.16666667      0.08333333</v>
   <v>       0.41666667      0.16666667      0.08333333</v>
   <v>       0.50000000      0.16666667      0.08333333</v>
   <v>       0.25000000      0.25000000      0.08333333</v>
   <v>       0.33333333      0.25000000      0.08333333</v>
   <v>       0.41666667      0.25000000      0.08333333</v>
   <v>       0.50000000      0.25000000      0.08333333</v>
   <v>       0.33333333      0.33333333      0.08333333</v>
   <v>       0.41666667      0.33333333      0.08333333</v>
   <v>       0.50000000      0.33333333      0.08333333</v>
   <v>       0.41666667      0.41666667      0.08333333</v>
   <v>       0.50000000      0.41666667      0.08333333</v>
   <v>       0.50000000      0.50000000      0.08333333</v>
   <v>       0.16666667      0.16666667      0.16666667</v>
   <v>       0.25000000      0.16666667      0.16666667</v>
   <v>       0.33333333      0.16666667      0.16666667</v>
   <v>       0.41666667      0.16666667      0.16666667</v>
   <v>       0.50000000      0.16666667      0.16666667</v>
   <v>       0.25000000      0.25000000      0.16666667</v>
   <v>       0.33333333      0.25000000      0.16666667</v>
   <v>       0.41666667      0.25000000      0.16666667</v>
   <v>       0.50000000      0.25000000      0.16666667</v>
   <v>       0.33333333      0.33333333      0.16666667</v>
   <v>       0.41666667      0.33333333      0.16666667</v>
   <v>       0.50000000      0.33333333      0.16666667</v>
   <v>       0.41666667      0.41666667      0.16666667</v>
   <v>       0.50000000      0.41666667      0.16666667</v>
   <v>       0.50000000      0.50000000      0.16666667</v>
   <v>       0.25000000      0.25000000      0.25000000</v>
   <v>       0.33333333      0.25000000      0.25000000</v>
   <v>       0.41666667      0.25000000      0.25000000</v>
   <v>       0.50000000      0.25000000      0.25000000</v>
   <v>       0.33333333      0.33333333      0.25000000</v>
   <v>       0.41666667      0.33333333      0.25000000</v>
   <v>       0.50000000      0.33333333      0.25000000</v>
   <v>       0.41666667      0.41666667      0.25000000</v>
   <v>       0.50000000      0.41666667      0.25000000</v>
   <v>       0.50000000      0.50000000      0.25000000</v>
   <v>       0.33333333      0.33333333      0.33333333</v>
   <v>       0.41666667      0.33333333      0.33333333</v>
   <v>       0.50000000      0.33333333      0.33333333</v>
   <v>       0.41666667      0.41666667      0.33333333</v>
   <v>       0.50000000      0.41666667      0.33333333</v>
   <v>       0.50000000      0.50000000      0.33333333</v>
   <v>       0.41666667      0.41666667      0.41666667</v>
   <v>       0.50000000      0.41666667      0.41666667</v>
   <v>       0.50000000      0.50000000      0.41666667</v>
   <v>       0.50000000      0.50000000      0.50000000</v>
  </varray>
  <varray name="weights" >
   <v>       0.00057870</v>
   <v>       0.00347222</v>
   <v>       0.00347222</v>
   <v>       0.00347222</v>
   <v>       0.00347222</v>
   <v>       0.00347222</v>
   <v>       0.00173611</v>
   <v>       0.00694444</v>
   <v>       0.01388889</v>
   <v>       0.01388889</v>
   <v>       0.01388889</v>
   <v>       0.01388889</v>
   <v>       0.00694444</v>
   <v>       0.00694444</v>
   <v>       0.01388889</v>
   <v>       0.01388889</v>
   <v>       0.01388889</v>
   <v>       0.00694444</v>
   <v>       0.00694444</v>
   <v>       0.01388889</v>
   <v>       0.01388889</v>
   <v>       0.00694444</v>
   <v>       0.00694444</v>
   <v>       0.01388889</v>
   <v>       0.00694444</v>
   <v>       0.00694444</v>
   <v>       0.00694444</v>
   <v>       0.00173611</v>
   <v>       0.00462963</v>
   <v>       0.01388889</v>
   <v>       0.01388889</v>
   <v>       0.01388889</v>
   <v>       0.01388889</v>
   <v>       0.00694444</v>
   <v>       0.01388889</v>
   <v>       0.02777778</v>
   <v>       0.02777778</v>
   <v>       0.02777778</v>
   <v>       0.01388889</v>
   <v>       0.01388889</v>
   <v>       0.02777778</v>
   <v>       0.02777778</v>
   <v>       0.01388889</v>
   <v>       0.01388889</v>
   <v>       0.02777778</v>
   <v>       0.01388889</v>
   <v>       0.01388889</v>
   <v>       0.01388889</v>
   <v>       0.00347222</v>
   <v>       0.00462963</v>
   <v>       0.01388889</v>
   <v>       0.01388889</v>
   <v>       0.01388889</v>
   <v>       0.00694444</v>
   <v>       0.01388889</v>
   <v>       0.02777778</v>
   <v>       0.02777778</v>
   <v>       0.01388889</v>
   <v>       0.01388889</v>
   <v>       0.02777778</v>
   <v>       0.01388889</v>
   <v>       0.01388889</v>
   <v>       0.01388889</v>
   <v>       0.00347222</v>
   <v>       0.00462963</v>
   <v>       0.01388889</v>
   <v>       0.01388889</v>
   <v>       0.00694444</v>
   <v>       0.01388889</v>
   <v>       0.02777778</v>
   <v>       0.01388889</v>
   <v>       0.01388889</v>
   <v>       0.01388889</v>
   <v>       0.00347222</v>
   <v>       0.00462963</v>
   <v>       0.01388889</v>
   <v>       0.00694444</v>
   <v>       0.01388889</v>
   <v>       0.01388889</v>
   <v>       0.00347222</v>
   <v>       0.00462963</v>
   <v>       0.00694444</v>
   <v>       0.00347222</v>
   <v>       0.00057870</v>
  </varray>
 </kpoints>
 <parameters>
  <separator name="general" >
   <i type="string" name="SYSTEM">unknown system</i>
   <i type="logical" name="LCOMPAT"> F  </i>
  </separator>
  <separator name="electronic" >
   <i type="string" name="PREC">accura</i>
   <i name="ENMAX">    750.00000000</i>
   <i name="ENAUG">    291.05200000</i>
   <i name="EDIFF">      0.00000001</i>
   <i type="int" name="IALGO">    38</i>
   <i type="int" name="IWAVPR">    10</i>
   <i type="int" name="NBANDS">    10</i>
   <i name="NELECT">     12.00000000</i>
   <separator name="electronic smearing" >
    <i type="int" name="ISMEAR">     0</i>
    <i name="SIGMA">      0.01000000</i>
   </separator>
   <separator name="electronic projectors" >
    <i type="logical" name="LREAL"> F  </i>
    <v name="ROPT">      0.00000000</v>
    <i type="int" name="LMAXPAW">  -100</i>
    <i type="int" name="LMAXMIX">     2</i>
   </separator>
   <separator name="electronic startup" >
    <i type="int" name="ISTART">     0</i>
    <i type="int" name="ICHARG">     2</i>
    <i type="int" name="INIWAV">     1</i>
   </separator>
   <separator name="electronic spin" >
    <i type="int" name="ISPIN">     1</i>
    <i type="logical" name="LNONCOLLINEAR"> F  </i>
    <v name="MAGMOM">      1.00000000      1.00000000      1.00000000      1.00000000</v>
    <i name="NUPDOWN">     -1.00000000</i>
    <i type="logical" name="LSORBIT"> F  </i>
    <v name="SAXIS">      0.00000000      0.00000000      1.00000000</v>
    <i type="logical" name="LSPIRAL"> F  </i>
    <v name="QSPIRAL">      0.00000000      0.00000000      0.00000000</v>
    <i type="logical" name="LZEROZ"> F  </i>
   </separator>
   <separator name="electronic exchange-correlation" >
    <i type="string" name="GGA">--</i>
    <i type="int" name="VOSKOWN">     0</i>
    <i type="logical" name="LASPH"> F  </i>
    <i type="logical" name="LMETAGGA"> F  </i>
    <i type="string" name="GGA2">--</i>
   </separator>
   <separator name="electronic convergence" >
    <i type="int" name="NELM">    60</i>
    <i type="int" name="NELMDL">     0</i>
    <i type="int" name="NELMIN">     2</i>
    <i name="ENINI">    750.00000000</i>
    <separator name="electronic convergence detail" >
     <i type="logical" name="LDIAG"> T  </i>
     <i name="WEIMIN">      0.00000000</i>
     <i name="EBREAK">      0.00000000</i>
     <i name="DEPER">      0.30000000</i>
     <i type="int" name="NRMM">     4</i>
     <i name="TIME">      0.10000000</i>
    </separator>
   </separator>
   <separator name="electronic mixer" >
    <i name="AMIX">      0.40000000</i>
    <i name="BMIX">      1.00000000</i>
    <i name="AMIN">      0.10000000</i>
    <i name="AMIX_MAG">      1.60000000</i>
    <i name="BMIX_MAG">      1.00000000</i>
    <separator name="electronic mixer details" >
     <i type="int" name="IMIX">     4</i>
     <i type="int" name="MAXMIX">   -45</i>
     <i name="WC">    100.00000000</i>
     <i type="int" name="INIMIX">     1</i>
     <i type="int" name="MIXPRE">     1</i>
     <i type="int" name="MREMOVE">     5</i>
    </separator>
   </separator>
   <separator name="electronic dipolcorrection" >
    <i type="int" name="IDIPOL">     0</i>
    <i type="logical" name="LDIPOL"> F  </i>
    <v name="DIPOL">   -100.00000000</v>
    <i name="EFIELD">      0.00000000</i>
   </separator>
  </separator>
  <separator name="grids" >
   <i type="int" name="NGX">    40</i>
   <i type="int" name="NGY">    40</i>
   <i type="int" name="NGZ">    40</i>
   <i type="int" name="NGXF">    80</i>
   <i type="int" name="NGYF">    80</i>
   <i type="int" name="NGZF">    80</i>
   <i type="logical" name="ADDGRID"> T  </i>
  </separator>
  <separator name="ionic" >
   <i type="int" name="NSW">     0</i>
   <i type="int" name="IBRION">    -1</i>
   <i type="int" name="ISIF">     2</i>
   <i name="PSTRESS">      0.00000000</i>
   <i name="EDIFFG">      0.00000010</i>
   <i type="int" name="NFREE">     0</i>
   <i name="POTIM">      0.50000000</i>
   <i name="SMASS">     -3.00000000</i>
  </separator>
  <separator name="ionic md" >
   <i name="TEBEG">      0.00010000</i>
   <i name="TEEND">      0.00010000</i>
   <i type="int" name="NBLOCK">     1</i>
   <i type="int" name="KBLOCK">     1</i>
   <i type="int" name="NPACO">   256</i>
   <i name="APACO">     16.00000000</i>
  </separator>
  <separator name="symmetry" >
   <i type="int" name="ISYM">     2</i>
   <i name="SYMPREC">      0.00001000</i>
  </separator>
  <separator name="dos" >
   <i type="logical" name="LORBIT"> F  </i>
   <v name="RWIGS">     -1.00000000</v>
   <i type="int" name="NEDOS">   301</i>
   <i name="EMIN">     10.00000000</i>
   <i name="EMAX">    -10.00000000</i>
  </separator>
  <separator name="writing" >
   <i type="int" name="NWRITE">     2</i>
   <i type="logical" name="LWAVE"> F  </i>
   <i type="logical" name="LCHARG"> F  </i>
   <i type="logical" name="LPARD"> F  </i>
   <i type="logical" name="LVTOT"> F  </i>
   <i type="logical" name="LELF"> F  </i>
   <i type="logical" name="LOPTICS"> F  </i>
   <i name="STM">      0.00000000</i>
  </separator>
  <separator name="performance" >
   <i type="int" name="NPAR">     4</i>
   <i type="int" name="NSIM">     4</i>
   <i type="int" name="NBLK">   256</i>
   <i type="logical" name="LPLANE"> T  </i>
   <i type="logical" name="LCRITICAL_MEM"> F  </i>
   <i type="logical" name="LSCALAPACK"> F  </i>
   <i type="logical" name="LSCALU"> F  </i>
   <i type="logical" name="LASYNC"> F  </i>
  </separator>
  <separator name="miscellaneous" >
   <i type="int" name="IDIOT">     3</i>
   <i type="logical" name="LMUSIC"> F  </i>
   <v name="POMASS">     26.98200000</v>
   <i type="logical" name="LCORR"> T  </i>
  </separator>
  <i type="logical" name="LREAL_COMPAT"> F  </i>
  <i type="logical" name="GGA_COMPAT"> T  </i>
  <i type="logical" name="LBERRY"> F  </i>
  <i type="int" name="ICORELEVEL">     0</i>
  <i type="logical" name="LDAU"> F  </i>
  <i type="int" name="I_CONSTRAINED_M">     0</i>
 </parameters>
 <atominfo>
  <atoms>       4</atoms>
  <types>       1</types>
  <array name="atoms" >
   <dimension dim="1">ion</dimension>
   <field type="string">element</field>
   <field type="int">atomtype</field>
   <set>
    <rc><c>Al</c><c>   1</c></rc>
    <rc><c>Al</c><c>   1</c></rc>
    <rc><c>Al</c><c>   1</c></rc>
    <rc><c>Al</c><c>   1</c></rc>
   </set>
  </array>
  <array name="atomtypes" >
   <dimension dim="1">type</dimension>
   <field type="int">atomspertype</field>
   <field type="string">element</field>
   <field>mass</field>
   <field>valence</field>
   <field type="string">pseudopotential</field>
   <set>
    <rc><c>   4</c><c>Al</c><c>     26.98200000</c><c>      3.00000000</c><c> PAW_PBE Al 04Jan2001                   </c></rc>
   </set>
  </array>
 </atominfo>
 <structure name="initialpos" >
  <crystal>
   <varray name="basis" >
    <v>       4.40066394      0.00000000      0.00000000</v>
    <v>       0.00000000      4.40066394      0.00000000</v>
    <v>       0.00000000      0.00000000      4.40066394</v>
   </varray>
   <i name="volume">     85.22256763</i>
   <varray name="rec_basis" >
    <v>       0.22723844      0.00000000      0.00000000</v>
    <v>       0.00000000      0.22723844      0.00000000</v>
    <v>       0.00000000      0.00000000      0.22723844</v>
   </varray>
  </crystal>
  <varray name="positions" >
   <v>       0.50000000      0.50000000      0.00000000</v>
   <v>       0.50000000      0.00000000      0.50000000</v>
   <v>       0.00000000      0.50000000      0.50000000</v>
   <v>       0.00000000      0.00000000      0.00000000</v>
  </varray>
 </structure>
 <calculation>
  <scstep>
   <time name="dav">    4.99    5.08</time>
   <time name="total">    5.27    5.37</time>
   <energy>
    <i name="alphaZ">     -0.63059579</i>
    <i name="ewald">   -270.04531885</i>
    <i name="hartreedc">     -1.10380228</i>
    <i name="XCdc">   -106.69771158</i>
    <i name="pawpsdc">    142.21701965</i>
    <i name="pawaedc">    -14.39593217</i>
    <i name="eentropy">     -0.00011127</i>
    <i name="bandstr">     46.27779856</i>
    <i name="atom">    214.15438658</i>
    <i name="e_fr_energy">      9.77573285</i>
    <i name="e_wo_entrp">      9.77584413</i>
    <i name="e_0_energy">      9.77578849</i>
   </energy>
  </scstep>
  <scstep>
   <time name="dav">    5.60    5.60</time>
   <time name="total">    5.60    5.61</time>
   <energy>
    <i name="e_fr_energy">    -13.37374298</i>
    <i name="e_wo_entrp">    -13.37370164</i>
    <i name="e_0_energy">    -13.37372231</i>
   </energy>
  </scstep>
  <scstep>
   <time name="dav">    5.98    5.98</time>
   <time name="total">    5.98    5.99</time>
   <energy>
    <i name="e_fr_energy">    -14.22144350</i>
    <i name="e_wo_entrp">    -14.22132078</i>
    <i name="e_0_energy">    -14.22138214</i>
   </energy>
  </scstep>
  <scstep>
   <time name="dav">    5.04    5.05</time>
   <time name="total">    5.04    5.05</time>
   <energy>
    <i name="e_fr_energy">    -14.22899466</i>
    <i name="e_wo_entrp">    -14.22885559</i>
    <i name="e_0_energy">    -14.22892512</i>
   </energy>
  </scstep>
  <scstep>
   <time name="dav">    3.76    3.76</time>
   <time name="total">    4.05    4.06</time>
   <energy>
    <i name="e_fr_energy">    -14.22908244</i>
    <i name="e_wo_entrp">    -14.22894336</i>
    <i name="e_0_energy">    -14.22901290</i>
   </energy>
  </scstep>
  <scstep>
   <time name="dav">    3.56    3.56</time>
   <time name="total">    4.07    4.07</time>
   <energy>
    <i name="e_fr_energy">    -14.18395457</i>
    <i name="e_wo_entrp">    -14.18381550</i>
    <i name="e_0_energy">    -14.18388504</i>
   </energy>
  </scstep>
  <scstep>
   <time name="dav">    3.42    3.43</time>
   <time name="total">    3.94    3.94</time>
   <energy>
    <i name="e_fr_energy">    -14.15204036</i>
    <i name="e_wo_entrp">    -14.15190122</i>
    <i name="e_0_energy">    -14.15197079</i>
   </energy>
  </scstep>
  <scstep>
   <time name="dav">    3.74    3.74</time>
   <time name="total">    4.26    4.26</time>
   <energy>
    <i name="e_fr_energy">    -14.15200058</i>
    <i name="e_wo_entrp">    -14.15186146</i>
    <i name="e_0_energy">    -14.15193102</i>
   </energy>
  </scstep>
  <scstep>
   <time name="dav">    3.69    3.70</time>
   <time name="total">    4.21    4.22</time>
   <energy>
    <i name="e_fr_energy">    -14.15200356</i>
    <i name="e_wo_entrp">    -14.15186443</i>
    <i name="e_0_energy">    -14.15193399</i>
   </energy>
  </scstep>
  <scstep>
   <time name="dav">    3.80    3.80</time>
   <time name="total">    4.32    4.32</time>
   <energy>
    <i name="e_fr_energy">    -14.15200203</i>
    <i name="e_wo_entrp">    -14.15186290</i>
    <i name="e_0_energy">    -14.15193246</i>
   </energy>
  </scstep>
  <scstep>
   <time name="dav">    2.79    2.79</time>
   <time name="total">    3.31    3.31</time>
   <energy>
    <i name="e_fr_energy">    -14.15200196</i>
    <i name="e_wo_entrp">    -14.15186283</i>
    <i name="e_0_energy">    -14.15193240</i>
   </energy>
  </scstep>
  <scstep>
   <time name="dav">    2.59    2.59</time>
   <time name="total">    3.11    3.12</time>
   <energy>
    <i name="e_fr_energy">    -14.15200200</i>
    <i name="e_wo_entrp">    -14.15186287</i>
    <i name="e_0_energy">    -14.15193243</i>
   </energy>
  </scstep>
  <scstep>
   <time name="dav">    2.52    2.53</time>
   <time name="total">    2.75    2.75</time>
   <energy>
    <i name="alphaZ">     -0.63059579</i>
    <i name="ewald">   -270.04531885</i>
    <i name="hartreedc">     -0.55890996</i>
    <i name="XCdc">   -106.48411147</i>
    <i name="pawpsdc">    140.65905961</i>
    <i name="pawaedc">    -12.78072083</i>
    <i name="eentropy">     -0.00013913</i>
    <i name="bandstr">     21.53434784</i>
    <i name="atom">    214.15438658</i>
    <i name="e_fr_energy">    -14.15200199</i>
    <i name="e_wo_entrp">    -14.15186286</i>
    <i name="e_0_energy">    -14.15193243</i>
   </energy>
  </scstep>
  <structure>
   <crystal>
    <varray name="basis" >
     <v>       4.40066394      0.00000000      0.00000000</v>
     <v>       0.00000000      4.40066394      0.00000000</v>
     <v>       0.00000000      0.00000000      4.40066394</v>
    </varray>
    <i name="volume">     85.22256763</i>
    <varray name="rec_basis" >
     <v>       0.22723844      0.00000000      0.00000000</v>
     <v>       0.00000000      0.22723844      0.00000000</v>
     <v>       0.00000000      0.00000000      0.22723844</v>
    </varray>
   </crystal>
   <varray name="positions" >
    <v>       0.50000000      0.50000000      0.00000000</v>
    <v>       0.50000000      0.00000000      0.50000000</v>
    <v>       0.00000000      0.50000000      0.50000000</v>
    <v>       0.00000000      0.00000000      0.00000000</v>
   </varray>
  </structure>
  <varray name="forces" >
   <v>       0.00000000     -0.00000000     -0.00000000</v>
   <v>       0.00000000     -0.00000000      0.00000000</v>
   <v>      -0.00000000     -0.00000000      0.00000000</v>
   <v>       0.00000000      0.00000000      0.00000000</v>
  </varray>
  <varray name="stress" >
   <v>    -105.90034522     -0.00000000      0.00000000</v>
   <v>       0.00000000   -105.90034522      0.00000000</v>
   <v>      -0.00000000     -0.00000000   -105.90034522</v>
  </varray>
  <energy>
   <i name="e_fr_energy">    -14.15200199</i>
   <i name="e_wo_entrp">    -14.15193243</i>
   <i name="e_0_energy">     -0.00013913</i>
  </energy>
  <eigenvalues>
   <array>
    <dimension dim="1">band</dimension>
    <dimension dim="2">kpoint</dimension>
    <dimension dim="3">spin</dimension>
    <field>eigene</field>
    <field>occ</field>
    <set>
     <set comment="spin 1">
      <set comment="kpoint 1">
       <r>  -3.9088  1.0000</r>
       <r>   3.2661  1.0000</r>
       <r>   3.2661  1.0000</r>
       <r>   3.2661  1.0000</r>
       <r>   3.9052  1.0000</r>
       <r>   3.9052  1.0000</r>
       <r>   3.9052  1.0000</r>
       <r>  10.1163  0.0000</r>
       <r>  10.1163  0.0000</r>
       <r>  10.1163  0.0000</r>
       <r>  10.1163  0.0000</r>
       <r>  10.1163  0.0000</r>
      </set>
      <set comment="kpoint 2">
       <r>  -3.8558  1.0000</r>
       <r>   2.3685  1.0000</r>
       <r>   3.3157  1.0000</r>
       <r>   3.3157  1.0000</r>
       <r>   3.9562  1.0000</r>
       <r>   3.9562  1.0000</r>
       <r>   4.8956  1.0000</r>
       <r>   9.2515  0.0000</r>
       <r>   9.2515  0.0000</r>
       <r>   9.6968  0.0000</r>
       <r>   9.6968  0.0000</r>
       <r>  10.1630  0.0000</r>
      </set>
      <set comment="kpoint 3">
       <r>  -3.6969  1.0000</r>
       <r>   1.3081  1.0000</r>
       <r>   3.4648  1.0000</r>
       <r>   3.4648  1.0000</r>
       <r>   4.1086  1.0000</r>
       <r>   4.1086  1.0000</r>
       <r>   6.2338  0.0000</r>
       <r>   8.2274  0.0000</r>
       <r>   8.2274  0.0000</r>
       <r>   8.8832  0.0000</r>
       <r>   8.8832  0.0000</r>
       <r>  10.3033  0.0000</r>
      </set>
      <set comment="kpoint 4">
       <r>  -3.4324  1.0000</r>
       <r>   0.3317  1.0000</r>
       <r>   3.7132  1.0000</r>
       <r>   3.7132  1.0000</r>
       <r>   4.3602  1.0000</r>
       <r>   4.3602  1.0000</r>
       <r>   7.2885  0.0000</r>
       <r>   7.2885  0.0000</r>
       <r>   7.6698  0.0000</r>
       <r>   8.0286  0.0000</r>
       <r>   8.0286  0.0000</r>
       <r>  10.5370  0.0000</r>
      </set>
      <set comment="kpoint 5">
       <r>  -3.0628  1.0000</r>
       <r>  -0.5490  1.0000</r>
       <r>   4.0610  1.0000</r>
       <r>   4.0610  1.0000</r>
       <r>   4.7050  1.0000</r>
       <r>   4.7050  1.0000</r>
       <r>   6.4455  0.0000</r>
       <r>   6.4455  0.0000</r>
       <r>   7.2296  0.0000</r>
       <r>   7.2296  0.0000</r>
       <r>   9.1847  0.0000</r>
       <r>  10.8642  0.0000</r>
      </set>
      <set comment="kpoint 6">
       <r>  -2.5886  1.0000</r>
       <r>  -1.3304  1.0000</r>
       <r>   4.5082  1.0000</r>
       <r>   4.5082  1.0000</r>
       <r>   5.1197  1.0000</r>
       <r>   5.1197  1.0000</r>
       <r>   5.7007  0.0000</r>
       <r>   5.7007  0.0000</r>
       <r>   6.5363  0.0000</r>
       <r>   6.5363  0.0000</r>
       <r>  10.7580  0.0000</r>
       <r>  11.2845  0.0000</r>
      </set>
      <set comment="kpoint 7">
       <r>  -2.0108  1.0000</r>
       <r>  -2.0108  1.0000</r>
       <r>   5.0548  1.0000</r>
       <r>   5.0548  1.0000</r>
       <r>   5.0548  1.0000</r>
       <r>   5.0548  1.0000</r>
       <r>   5.4155  1.0000</r>
       <r>   5.4155  1.0000</r>
       <r>   6.1468  0.0000</r>
       <r>   6.1468  0.0000</r>
       <r>  11.7977  0.0000</r>
       <r>  11.7977  0.0000</r>
      </set>
      <set comment="kpoint 8">
       <r>  -3.8029  1.0000</r>
       <r>   2.4191  1.0000</r>
       <r>   2.4191  1.0000</r>
       <r>   3.3654  1.0000</r>
       <r>   4.0069  1.0000</r>
       <r>   4.9454  1.0000</r>
       <r>   4.9454  1.0000</r>
       <r>   8.4024  0.0000</r>
       <r>   9.3004  0.0000</r>
       <r>   9.3004  0.0000</r>
       <r>   9.7447  0.0000</r>
       <r>   9.7447  0.0000</r>
      </set>
      <set comment="kpoint 9">
       <r>  -3.6440  1.0000</r>
       <r>   1.3592  1.0000</r>
       <r>   2.5710  1.0000</r>
       <r>   3.5144  1.0000</r>
       <r>   4.1581  1.0000</r>
       <r>   5.0943  1.0000</r>
       <r>   6.2824  0.0000</r>
       <r>   7.4009  0.0000</r>
       <r>   8.2767  0.0000</r>
       <r>   8.9329  0.0000</r>
       <r>   9.4470  0.0000</r>
       <r>   9.7334  0.0000</r>
      </set>
      <set comment="kpoint 10">
       <r>  -3.3796  1.0000</r>
       <r>   0.3833  1.0000</r>
       <r>   2.8236  1.0000</r>
       <r>   3.7628  1.0000</r>
       <r>   4.4059  1.0000</r>
       <r>   5.3396  1.0000</r>
       <r>   6.4753  0.0000</r>
       <r>   7.3380  0.0000</r>
       <r>   7.7158  0.0000</r>
       <r>   8.0811  0.0000</r>
       <r>   8.9187  0.0000</r>
       <r>   9.6911  0.0000</r>
      </set>
      <set comment="kpoint 11">
       <r>  -3.0100  1.0000</r>
       <r>  -0.4971  1.0000</r>
       <r>   3.1762  1.0000</r>
       <r>   4.1106  1.0000</r>
       <r>   4.7293  1.0000</r>
       <r>   5.6617  0.0000</r>
       <r>   5.6715  0.0000</r>
       <r>   6.4951  0.0000</r>
       <r>   7.2904  0.0000</r>
       <r>   8.1242  0.0000</r>
       <r>   9.2215  0.0000</r>
       <r>  10.0323  0.0000</r>
      </set>
      <set comment="kpoint 12">
       <r>  -2.5360  1.0000</r>
       <r>  -1.2783  1.0000</r>
       <r>   3.6268  1.0000</r>
       <r>   4.5579  1.0000</r>
       <r>   4.7524  1.0000</r>
       <r>   5.3352  1.0000</r>
       <r>   5.7503  0.0000</r>
       <r>   6.0100  0.0000</r>
       <r>   6.6697  0.0000</r>
       <r>   7.4086  0.0000</r>
       <r>  10.4701  0.0000</r>
       <r>  10.6653  0.0000</r>
      </set>
      <set comment="kpoint 13">
       <r>  -1.9584  1.0000</r>
       <r>  -1.9584  1.0000</r>
       <r>   4.1695  1.0000</r>
       <r>   4.1695  1.0000</r>
       <r>   5.1044  1.0000</r>
       <r>   5.1044  1.0000</r>
       <r>   5.7764  0.0000</r>
       <r>   5.7764  0.0000</r>
       <r>   6.8128  0.0000</r>
       <r>   6.8128  0.0000</r>
       <r>  11.0036  0.0000</r>
       <r>  11.0036  0.0000</r>
      </set>
      <set comment="kpoint 14">
       <r>  -3.4853  1.0000</r>
       <r>   1.5126  1.0000</r>
       <r>   1.5126  1.0000</r>
       <r>   3.6635  1.0000</r>
       <r>   4.3040  1.0000</r>
       <r>   6.3959  0.0000</r>
       <r>   6.4267  0.0000</r>
       <r>   6.4267  0.0000</r>
       <r>   8.4246  0.0000</r>
       <r>   8.4246  0.0000</r>
       <r>   9.0832  0.0000</r>
       <r>   9.0832  0.0000</r>
      </set>
      <set comment="kpoint 15">
       <r>  -3.2212  1.0000</r>
       <r>   0.5378  1.0000</r>
       <r>   1.7678  1.0000</r>
       <r>   3.9119  1.0000</r>
       <r>   4.5244  1.0000</r>
       <r>   5.4914  1.0000</r>
       <r>   6.6586  0.0000</r>
       <r>   7.4864  0.0000</r>
       <r>   7.8478  0.0000</r>
       <r>   8.2439  0.0000</r>
       <r>   8.6709  0.0000</r>
       <r>   9.3409  0.0000</r>
      </set>
      <set comment="kpoint 16">
       <r>  -2.8520  1.0000</r>
       <r>  -0.3417  1.0000</r>
       <r>   2.1242  1.0000</r>
       <r>   4.2597  1.0000</r>
       <r>   4.4517  1.0000</r>
       <r>   5.0699  1.0000</r>
       <r>   6.6438  0.0000</r>
       <r>   6.9068  0.0000</r>
       <r>   7.5337  0.0000</r>
       <r>   9.0154  0.0000</r>
       <r>   9.2578  0.0000</r>
       <r>   9.3888  0.0000</r>
      </set>
      <set comment="kpoint 17">
       <r>  -2.3785  1.0000</r>
       <r>  -1.1221  1.0000</r>
       <r>   2.5805  1.0000</r>
       <r>   3.7783  1.0000</r>
       <r>   4.7069  1.0000</r>
       <r>   5.4415  1.0000</r>
       <r>   5.8991  0.0000</r>
       <r>   6.5751  0.0000</r>
       <r>   7.5766  0.0000</r>
       <r>   8.6914  0.0000</r>
       <r>   9.4578  0.0000</r>
       <r>  10.0085  0.0000</r>
      </set>
      <set comment="kpoint 18">
       <r>  -1.8015  1.0000</r>
       <r>  -1.8015  1.0000</r>
       <r>   3.1344  1.0000</r>
       <r>   3.1344  1.0000</r>
       <r>   5.2534  1.0000</r>
       <r>   5.2534  1.0000</r>
       <r>   5.9719  0.0000</r>
       <r>   5.9719  0.0000</r>
       <r>   8.0749  0.0000</r>
       <r>   8.0749  0.0000</r>
       <r>   9.9973  0.0000</r>
       <r>   9.9973  0.0000</r>
      </set>
      <set comment="kpoint 19">
       <r>  -2.9575  1.0000</r>
       <r>   0.7949  1.0000</r>
       <r>   0.7949  1.0000</r>
       <r>   4.1603  1.0000</r>
       <r>   4.3500  1.0000</r>
       <r>   4.9754  1.0000</r>
       <r>   7.7336  0.0000</r>
       <r>   7.7336  0.0000</r>
       <r>   7.9945  0.0000</r>
       <r>   7.9945  0.0000</r>
       <r>   8.5878  0.0000</r>
       <r>   8.5878  0.0000</r>
      </set>
      <set comment="kpoint 20">
       <r>  -2.5889  1.0000</r>
       <r>  -0.0829  1.0000</r>
       <r>   1.1542  1.0000</r>
       <r>   3.5777  1.0000</r>
       <r>   4.5080  1.0000</r>
       <r>   5.2483  1.0000</r>
       <r>   6.8915  0.0000</r>
       <r>   7.5623  0.0000</r>
       <r>   8.0796  0.0000</r>
       <r>   8.5555  0.0000</r>
       <r>   8.7171  0.0000</r>
       <r>   9.7246  0.0000</r>
      </set>
      <set comment="kpoint 21">
       <r>  -2.1162  1.0000</r>
       <r>  -0.8620  1.0000</r>
       <r>   1.6146  1.0000</r>
       <r>   2.8318  1.0000</r>
       <r>   4.9552  1.0000</r>
       <r>   5.6888  0.0000</r>
       <r>   6.1472  0.0000</r>
       <r>   6.8677  0.0000</r>
       <r>   8.5239  0.0000</r>
       <r>   8.9543  0.0000</r>
       <r>   9.1893  0.0000</r>
       <r>   9.7057  0.0000</r>
      </set>
      <set comment="kpoint 22">
       <r>  -1.5402  1.0000</r>
       <r>  -1.5402  1.0000</r>
       <r>   2.1747  1.0000</r>
       <r>   2.1747  1.0000</r>
       <r>   5.5016  0.9999</r>
       <r>   5.5016  0.9999</r>
       <r>   6.2334  0.0000</r>
       <r>   6.2334  0.0000</r>
       <r>   9.0662  0.0000</r>
       <r>   9.0662  0.0000</r>
       <r>   9.4692  0.0000</r>
       <r>   9.4692  0.0000</r>
      </set>
      <set comment="kpoint 23">
       <r>  -2.2213  1.0000</r>
       <r>   0.2786  1.0000</r>
       <r>   0.2786  1.0000</r>
       <r>   2.7303  1.0000</r>
       <r>   4.8558  1.0000</r>
       <r>   5.5911  0.0000</r>
       <r>   7.2382  0.0000</r>
       <r>   7.2382  0.0000</r>
       <r>   7.9472  0.0000</r>
       <r>   7.9472  0.0000</r>
       <r>   9.6078  0.0000</r>
       <r>  10.0266  0.0000</r>
      </set>
      <set comment="kpoint 24">
       <r>  -1.7497  1.0000</r>
       <r>  -0.4985  1.0000</r>
       <r>   0.7422  1.0000</r>
       <r>   1.9705  1.0000</r>
       <r>   5.3028  1.0000</r>
       <r>   6.0408  0.0000</r>
       <r>   6.4944  0.0000</r>
       <r>   7.2273  0.0000</r>
       <r>   7.6837  0.0000</r>
       <r>   8.3991  0.0000</r>
       <r>   8.8693  0.0000</r>
       <r>   9.5643  0.0000</r>
      </set>
      <set comment="kpoint 25">
       <r>  -1.1751  1.0000</r>
       <r>  -1.1751  1.0000</r>
       <r>   1.3068  1.0000</r>
       <r>   1.3068  1.0000</r>
       <r>   5.8491  0.0000</r>
       <r>   5.8491  0.0000</r>
       <r>   6.5884  0.0000</r>
       <r>   6.5884  0.0000</r>
       <r>   8.2276  0.0000</r>
       <r>   8.2276  0.0000</r>
       <r>   8.9381  0.0000</r>
       <r>   8.9381  0.0000</r>
      </set>
      <set comment="kpoint 26">
       <r>  -1.2796  1.0000</r>
       <r>  -0.0323  1.0000</r>
       <r>  -0.0323  1.0000</r>
       <r>   1.2039  1.0000</r>
       <r>   5.7497  0.0000</r>
       <r>   6.4921  0.0000</r>
       <r>   6.9405  0.0000</r>
       <r>   6.9405  0.0000</r>
       <r>   7.6773  0.0000</r>
       <r>   7.6773  0.0000</r>
       <r>   8.1287  0.0000</r>
       <r>   8.8502  0.0000</r>
      </set>
      <set comment="kpoint 27">
       <r>  -0.7067  1.0000</r>
       <r>  -0.7067  1.0000</r>
       <r>   0.5356  1.0000</r>
       <r>   0.5356  1.0000</r>
       <r>   6.2957  0.0000</r>
       <r>   6.2957  0.0000</r>
       <r>   7.0391  0.0000</r>
       <r>   7.0391  0.0000</r>
       <r>   7.4855  0.0000</r>
       <r>   7.4855  0.0000</r>
       <r>   8.2192  0.0000</r>
       <r>   8.2192  0.0000</r>
      </set>
      <set comment="kpoint 28">
       <r>  -0.1361  1.0000</r>
       <r>  -0.1361  1.0000</r>
       <r>  -0.1361  1.0000</r>
       <r>  -0.1361  1.0000</r>
       <r>   6.8413  0.0000</r>
       <r>   6.8413  0.0000</r>
       <r>   6.8413  0.0000</r>
       <r>   6.8413  0.0000</r>
       <r>   7.5840  0.0000</r>
       <r>   7.5840  0.0000</r>
       <r>   7.5840  0.0000</r>
       <r>   7.5840  0.0000</r>
      </set>
      <set comment="kpoint 29">
       <r>  -3.7499  1.0000</r>
       <r>   2.4697  1.0000</r>
       <r>   2.4697  1.0000</r>
       <r>   2.4697  1.0000</r>
       <r>   4.9949  1.0000</r>
       <r>   4.9949  1.0000</r>
       <r>   4.9949  1.0000</r>
       <r>   8.4521  0.0000</r>
       <r>   8.4521  0.0000</r>
       <r>   8.4521  0.0000</r>
       <r>  10.2563  0.0000</r>
       <r>  10.2563  0.0000</r>
      </set>
      <set comment="kpoint 30">
       <r>  -3.5911  1.0000</r>
       <r>   1.4104  1.0000</r>
       <r>   2.6214  1.0000</r>
       <r>   2.6214  1.0000</r>
       <r>   5.1422  1.0000</r>
       <r>   5.1422  1.0000</r>
       <r>   6.3300  0.0000</r>
       <r>   7.4520  0.0000</r>
       <r>   7.4520  0.0000</r>
       <r>   8.6017  0.0000</r>
       <r>   9.7817  0.0000</r>
       <r>   9.7817  0.0000</r>
      </set>
      <set comment="kpoint 31">
       <r>  -3.3268  1.0000</r>
       <r>   0.4348  1.0000</r>
       <r>   2.8736  1.0000</r>
       <r>   2.8736  1.0000</r>
       <r>   5.3797  1.0000</r>
       <r>   5.3797  1.0000</r>
       <r>   6.5324  0.0000</r>
       <r>   6.5324  0.0000</r>
       <r>   7.7571  0.0000</r>
       <r>   8.8556  0.0000</r>
       <r>   8.9685  0.0000</r>
       <r>   8.9685  0.0000</r>
      </set>
      <set comment="kpoint 32">
       <r>  -2.9574  1.0000</r>
       <r>  -0.4453  1.0000</r>
       <r>   3.2251  1.0000</r>
       <r>   3.2251  1.0000</r>
       <r>   5.5322  0.3125</r>
       <r>   5.5322  0.3125</r>
       <r>   5.8841  0.0000</r>
       <r>   5.8841  0.0000</r>
       <r>   8.1764  0.0000</r>
       <r>   8.1764  0.0000</r>
       <r>   9.0865  0.0000</r>
       <r>   9.3843  0.0000</r>
      </set>
      <set comment="kpoint 33">
       <r>  -2.4835  1.0000</r>
       <r>  -1.2262  1.0000</r>
       <r>   3.6708  1.0000</r>
       <r>   3.6708  1.0000</r>
       <r>   4.8986  1.0000</r>
       <r>   4.8986  1.0000</r>
       <r>   6.2066  0.0000</r>
       <r>   6.2066  0.0000</r>
       <r>   7.4699  0.0000</r>
       <r>   7.4699  0.0000</r>
       <r>   9.6038  0.0000</r>
       <r>  10.7758  0.0000</r>
      </set>
      <set comment="kpoint 34">
       <r>  -1.9061  1.0000</r>
       <r>  -1.9061  1.0000</r>
       <r>   4.0978  1.0000</r>
       <r>   4.0978  1.0000</r>
       <r>   4.3798  1.0000</r>
       <r>   4.3798  1.0000</r>
       <r>   6.5592  0.0000</r>
       <r>   6.5592  0.0000</r>
       <r>   7.0173  0.0000</r>
       <r>   7.0173  0.0000</r>
       <r>  10.1451  0.0000</r>
       <r>  10.1451  0.0000</r>
      </set>
      <set comment="kpoint 35">
       <r>  -3.4325  1.0000</r>
       <r>   1.5636  1.0000</r>
       <r>   1.5636  1.0000</r>
       <r>   2.7724  1.0000</r>
       <r>   5.2796  1.0000</r>
       <r>   6.4540  0.0000</r>
       <r>   6.4681  0.0000</r>
       <r>   6.4681  0.0000</r>
       <r>   7.6095  0.0000</r>
       <r>   7.6095  0.0000</r>
       <r>   9.9268  0.0000</r>
       <r>   9.9268  0.0000</r>
      </set>
      <set comment="kpoint 36">
       <r>  -3.1684  1.0000</r>
       <r>   0.5892  1.0000</r>
       <r>   1.8185  1.0000</r>
       <r>   3.0228  1.0000</r>
       <r>   5.3335  1.0000</r>
       <r>   5.7138  0.0000</r>
       <r>   6.5350  0.0000</r>
       <r>   6.8554  0.0000</r>
       <r>   7.7245  0.0000</r>
       <r>   8.0323  0.0000</r>
       <r>   9.1191  0.0000</r>
       <r>  10.1580  0.0000</r>
      </set>
      <set comment="kpoint 37">
       <r>  -2.7994  1.0000</r>
       <r>  -0.2899  1.0000</r>
       <r>   2.1743  1.0000</r>
       <r>   3.3674  1.0000</r>
       <r>   4.6164  1.0000</r>
       <r>   5.7941  0.0000</r>
       <r>   5.9393  0.0000</r>
       <r>   7.0847  0.0000</r>
       <r>   8.1639  0.0000</r>
       <r>   8.3394  0.0000</r>
       <r>   9.4384  0.0000</r>
       <r>   9.4424  0.0000</r>
      </set>
      <set comment="kpoint 38">
       <r>  -2.3260  1.0000</r>
       <r>  -1.0701  1.0000</r>
       <r>   2.6291  1.0000</r>
       <r>   3.6892  1.0000</r>
       <r>   4.0048  1.0000</r>
       <r>   5.0560  1.0000</r>
       <r>   6.3723  0.0000</r>
       <r>   7.3527  0.0000</r>
       <r>   7.7821  0.0000</r>
       <r>   8.6145  0.0000</r>
       <r>   8.7432  0.0000</r>
       <r>   9.7916  0.0000</r>
      </set>
      <set comment="kpoint 39">
       <r>  -1.7492  1.0000</r>
       <r>  -1.7492  1.0000</r>
       <r>   3.1767  1.0000</r>
       <r>   3.1767  1.0000</r>
       <r>   4.4158  1.0000</r>
       <r>   4.4158  1.0000</r>
       <r>   6.8975  0.0000</r>
       <r>   6.8975  0.0000</r>
       <r>   8.1351  0.0000</r>
       <r>   8.1351  0.0000</r>
       <r>   9.1563  0.0000</r>
       <r>   9.1563  0.0000</r>
      </set>
      <set comment="kpoint 40">
       <r>  -2.9048  1.0000</r>
       <r>   0.8461  1.0000</r>
       <r>   0.8461  1.0000</r>
       <r>   3.2659  1.0000</r>
       <r>   4.5191  1.0000</r>
       <r>   5.8432  0.0000</r>
       <r>   6.8870  0.0000</r>
       <r>   6.8870  0.0000</r>
       <r>   8.1695  0.0000</r>
       <r>   8.1695  0.0000</r>
       <r>   9.3780  0.0000</r>
       <r>   9.3780  0.0000</r>
      </set>
      <set comment="kpoint 41">
       <r>  -2.5364  1.0000</r>
       <r>  -0.0313  1.0000</r>
       <r>   1.2050  1.0000</r>
       <r>   3.4835  1.0000</r>
       <r>   3.8109  1.0000</r>
       <r>   6.0529  0.0000</r>
       <r>   6.1818  0.0000</r>
       <r>   7.2428  0.0000</r>
       <r>   8.3356  0.0000</r>
       <r>   8.7529  0.0000</r>
       <r>   9.4948  0.0000</r>
       <r>   9.6072  0.0000</r>
      </set>
      <set comment="kpoint 42">
       <r>  -2.0639  1.0000</r>
       <r>  -0.8101  1.0000</r>
       <r>   1.6647  1.0000</r>
       <r>   2.8734  1.0000</r>
       <r>   4.1180  1.0000</r>
       <r>   5.3082  1.0000</r>
       <r>   6.6254  0.0000</r>
       <r>   7.6911  0.0000</r>
       <r>   7.7848  0.0000</r>
       <r>   8.8745  0.0000</r>
       <r>   9.0138  0.0000</r>
       <r>  10.0812  0.0000</r>
      </set>
      <set comment="kpoint 43">
       <r>  -1.4881  1.0000</r>
       <r>  -1.4881  1.0000</r>
       <r>   2.2232  1.0000</r>
       <r>   2.2232  1.0000</r>
       <r>   4.6606  1.0000</r>
       <r>   4.6606  1.0000</r>
       <r>   7.1642  0.0000</r>
       <r>   7.1642  0.0000</r>
       <r>   8.2352  0.0000</r>
       <r>   8.2352  0.0000</r>
       <r>   9.5205  0.0000</r>
       <r>   9.5205  0.0000</r>
      </set>
      <set comment="kpoint 44">
       <r>  -2.1689  1.0000</r>
       <r>   0.3300  1.0000</r>
       <r>   0.3300  1.0000</r>
       <r>   2.7717  1.0000</r>
       <r>   4.0183  1.0000</r>
       <r>   6.4047  0.0000</r>
       <r>   6.4047  0.0000</r>
       <r>   6.5291  0.0000</r>
       <r>   8.7794  0.0000</r>
       <r>   8.8525  0.0000</r>
       <r>   8.8525  0.0000</r>
       <r>  10.0847  0.0000</r>
      </set>
      <set comment="kpoint 45">
       <r>  -1.6975  1.0000</r>
       <r>  -0.4468  1.0000</r>
       <r>   0.7931  1.0000</r>
       <r>   2.0189  1.0000</r>
       <r>   4.4612  1.0000</r>
       <r>   5.6592  0.0000</r>
       <r>   6.8537  0.0000</r>
       <r>   6.9752  0.0000</r>
       <r>   8.0425  0.0000</r>
       <r>   8.1472  0.0000</r>
       <r>   9.3070  0.0000</r>
       <r>  10.4666  0.0000</r>
      </set>
      <set comment="kpoint 46">
       <r>  -1.1231  1.0000</r>
       <r>  -1.1231  1.0000</r>
       <r>   1.3569  1.0000</r>
       <r>   1.3569  1.0000</r>
       <r>   5.0103  1.0000</r>
       <r>   5.0103  1.0000</r>
       <r>   7.4000  0.0000</r>
       <r>   7.4000  0.0000</r>
       <r>   7.5164  0.0000</r>
       <r>   7.5164  0.0000</r>
       <r>   9.8433  0.0000</r>
       <r>   9.8433  0.0000</r>
      </set>
      <set comment="kpoint 47">
       <r>  -1.2276  1.0000</r>
       <r>   0.0191  1.0000</r>
       <r>   0.0191  1.0000</r>
       <r>   1.2540  1.0000</r>
       <r>   4.9107  1.0000</r>
       <r>   6.1091  0.0000</r>
       <r>   6.1091  0.0000</r>
       <r>   7.3023  0.0000</r>
       <r>   7.4215  0.0000</r>
       <r>   8.5936  0.0000</r>
       <r>   8.5936  0.0000</r>
       <r>   9.7573  0.0000</r>
      </set>
      <set comment="kpoint 48">
       <r>  -0.6550  1.0000</r>
       <r>  -0.6550  1.0000</r>
       <r>   0.5866  1.0000</r>
       <r>   0.5866  1.0000</r>
       <r>   5.4607  1.0000</r>
       <r>   5.4607  1.0000</r>
       <r>   6.6572  0.0000</r>
       <r>   6.6572  0.0000</r>
       <r>   7.9624  0.0000</r>
       <r>   7.9624  0.0000</r>
       <r>   9.1310  0.0000</r>
       <r>   9.1310  0.0000</r>
      </set>
      <set comment="kpoint 49">
       <r>  -0.0847  1.0000</r>
       <r>  -0.0847  1.0000</r>
       <r>  -0.0847  1.0000</r>
       <r>  -0.0847  1.0000</r>
       <r>   6.0101  0.0000</r>
       <r>   6.0101  0.0000</r>
       <r>   6.0101  0.0000</r>
       <r>   6.0101  0.0000</r>
       <r>   8.5017  0.0000</r>
       <r>   8.5017  0.0000</r>
       <r>   8.5017  0.0000</r>
       <r>   8.5017  0.0000</r>
      </set>
      <set comment="kpoint 50">
       <r>  -3.2740  1.0000</r>
       <r>   1.7163  1.0000</r>
       <r>   1.7163  1.0000</r>
       <r>   1.7163  1.0000</r>
       <r>   6.4384  0.0000</r>
       <r>   6.4384  0.0000</r>
       <r>   6.4384  0.0000</r>
       <r>   6.7779  0.0000</r>
       <r>   6.7779  0.0000</r>
       <r>   6.7779  0.0000</r>
       <r>  10.6759  0.0000</r>
       <r>  10.6759  0.0000</r>
      </set>
      <set comment="kpoint 51">
       <r>  -3.0102  1.0000</r>
       <r>   0.7432  1.0000</r>
       <r>   1.9702  1.0000</r>
       <r>   1.9702  1.0000</r>
       <r>   5.6127  0.0000</r>
       <r>   5.6127  0.0000</r>
       <r>   6.8030  0.0000</r>
       <r>   6.9133  0.0000</r>
       <r>   6.9133  0.0000</r>
       <r>   8.0939  0.0000</r>
       <r>  10.3026  0.0000</r>
       <r>  10.3029  0.0000</r>
      </set>
      <set comment="kpoint 52">
       <r>  -2.6416  1.0000</r>
       <r>  -0.1348  1.0000</r>
       <r>   2.3235  1.0000</r>
       <r>   2.3235  1.0000</r>
       <r>   4.7762  1.0000</r>
       <r>   4.7762  1.0000</r>
       <r>   7.1604  0.0000</r>
       <r>   7.2463  0.0000</r>
       <r>   7.2463  0.0000</r>
       <r>   9.5264  0.0000</r>
       <r>   9.5882  0.0000</r>
       <r>   9.5913  0.0000</r>
      </set>
      <set comment="kpoint 53">
       <r>  -2.1688  1.0000</r>
       <r>  -0.9141  1.0000</r>
       <r>   2.7694  1.0000</r>
       <r>   2.7694  1.0000</r>
       <r>   4.0362  1.0000</r>
       <r>   4.0362  1.0000</r>
       <r>   7.6094  0.0000</r>
       <r>   7.6715  0.0000</r>
       <r>   7.6715  0.0000</r>
       <r>   8.7935  0.0000</r>
       <r>   8.9047  0.0000</r>
       <r>   8.9047  0.0000</r>
      </set>
      <set comment="kpoint 54">
       <r>  -1.5925  1.0000</r>
       <r>  -1.5925  1.0000</r>
       <r>   3.1747  1.0000</r>
       <r>   3.1747  1.0000</r>
       <r>   3.5325  1.0000</r>
       <r>   3.5325  1.0000</r>
       <r>   8.0399  0.0000</r>
       <r>   8.0399  0.0000</r>
       <r>   8.1539  0.0000</r>
       <r>   8.1539  0.0000</r>
       <r>   8.4475  0.0000</r>
       <r>   8.4475  0.0000</r>
      </set>
      <set comment="kpoint 55">
       <r>  -2.7469  1.0000</r>
       <r>   0.9995  1.0000</r>
       <r>   0.9995  1.0000</r>
       <r>   2.2214  1.0000</r>
       <r>   4.6794  1.0000</r>
       <r>   5.8739  0.0000</r>
       <r>   5.8739  0.0000</r>
       <r>   7.1538  0.0000</r>
       <r>   8.3281  0.0000</r>
       <r>   8.3281  0.0000</r>
       <r>   9.4346  0.0000</r>
       <r>  10.5448  0.0000</r>
      </set>
      <set comment="kpoint 56">
       <r>  -2.3789  1.0000</r>
       <r>   0.1232  1.0000</r>
       <r>   1.3571  1.0000</r>
       <r>   2.5648  1.0000</r>
       <r>   3.8400  1.0000</r>
       <r>   5.0296  1.0000</r>
       <r>   6.2269  0.0000</r>
       <r>   7.4963  0.0000</r>
       <r>   8.6055  0.0000</r>
       <r>   8.6522  0.0000</r>
       <r>   9.8211  0.0000</r>
       <r>   9.8458  0.0000</r>
      </set>
      <set comment="kpoint 57">
       <r>  -1.9069  1.0000</r>
       <r>  -0.6545  1.0000</r>
       <r>   1.8139  1.0000</r>
       <r>   2.8638  1.0000</r>
       <r>   3.2399  1.0000</r>
       <r>   4.2808  1.0000</r>
       <r>   6.6769  0.0000</r>
       <r>   7.8677  0.0000</r>
       <r>   7.9337  0.0000</r>
       <r>   8.9168  0.0000</r>
       <r>   9.3188  0.0000</r>
       <r>  10.2623  0.0000</r>
      </set>
      <set comment="kpoint 58">
       <r>  -1.3317  1.0000</r>
       <r>  -1.3317  1.0000</r>
       <r>   2.3623  1.0000</r>
       <r>   2.3623  1.0000</r>
       <r>   3.6379  1.0000</r>
       <r>   3.6379  1.0000</r>
       <r>   7.2242  0.0000</r>
       <r>   7.2242  0.0000</r>
       <r>   8.4543  0.0000</r>
       <r>   8.4543  0.0000</r>
       <r>   9.6806  0.0000</r>
       <r>   9.6806  0.0000</r>
      </set>
      <set comment="kpoint 59">
       <r>  -2.0118  1.0000</r>
       <r>   0.4837  1.0000</r>
       <r>   0.4837  1.0000</r>
       <r>   2.7599  1.0000</r>
       <r>   3.1417  1.0000</r>
       <r>   5.3818  1.0000</r>
       <r>   5.3818  1.0000</r>
       <r>   7.7714  0.0000</r>
       <r>   7.8418  0.0000</r>
       <r>   9.9708  0.0000</r>
       <r>   9.9708  0.0000</r>
       <r>  10.3677  0.0000</r>
      </set>
      <set comment="kpoint 60">
       <r>  -1.5410  1.0000</r>
       <r>  -0.2919  1.0000</r>
       <r>   0.9454  1.0000</r>
       <r>   2.1574  1.0000</r>
       <r>   3.4376  1.0000</r>
       <r>   4.6315  1.0000</r>
       <r>   5.8331  0.0000</r>
       <r>   7.0294  0.0000</r>
       <r>   8.2819  0.0000</r>
       <r>   9.4189  0.0000</r>
       <r>  10.5462  0.0000</r>
       <r>  10.6476  0.0000</r>
      </set>
      <set comment="kpoint 61">
       <r>  -0.9673  1.0000</r>
       <r>  -0.9673  1.0000</r>
       <r>   1.5060  1.0000</r>
       <r>   1.5060  1.0000</r>
       <r>   3.9805  1.0000</r>
       <r>   3.9805  1.0000</r>
       <r>   6.3827  0.0000</r>
       <r>   6.3827  0.0000</r>
       <r>   8.8120  0.0000</r>
       <r>   8.8120  0.0000</r>
       <r>  11.0821  0.0000</r>
       <r>  11.0826  0.0000</r>
      </set>
      <set comment="kpoint 62">
       <r>  -1.0717  1.0000</r>
       <r>   0.1730  1.0000</r>
       <r>   0.1730  1.0000</r>
       <r>   1.4031  1.0000</r>
       <r>   3.8802  1.0000</r>
       <r>   5.0835  1.0000</r>
       <r>   5.0835  1.0000</r>
       <r>   6.2841  0.0000</r>
       <r>   8.7226  0.0000</r>
       <r>   9.8685  0.0000</r>
       <r>   9.8685  0.0000</r>
       <r>  11.0113  0.0000</r>
      </set>
      <set comment="kpoint 63">
       <r>  -0.4999  1.0000</r>
       <r>  -0.4999  1.0000</r>
       <r>   0.7389  1.0000</r>
       <r>   0.7389  1.0000</r>
       <r>   4.4314  1.0000</r>
       <r>   4.4314  1.0000</r>
       <r>   5.6348  0.0000</r>
       <r>   5.6348  0.0000</r>
       <r>   9.2538  0.0000</r>
       <r>   9.2538  0.0000</r>
       <r>  10.3988  0.0000</r>
       <r>  10.3988  0.0000</r>
      </set>
      <set comment="kpoint 64">
       <r>   0.0693  1.0000</r>
       <r>   0.0693  1.0000</r>
       <r>   0.0693  1.0000</r>
       <r>   0.0693  1.0000</r>
       <r>   4.9837  1.0000</r>
       <r>   4.9837  1.0000</r>
       <r>   4.9837  1.0000</r>
       <r>   4.9837  1.0000</r>
       <r>   9.7843  0.0000</r>
       <r>   9.7843  0.0000</r>
       <r>   9.7843  0.0000</r>
       <r>   9.7843  0.0000</r>
      </set>
      <set comment="kpoint 65">
       <r>  -2.4841  1.0000</r>
       <r>   1.2543  1.0000</r>
       <r>   1.2543  1.0000</r>
       <r>   1.2543  1.0000</r>
       <r>   4.9331  1.0000</r>
       <r>   4.9331  1.0000</r>
       <r>   4.9331  1.0000</r>
       <r>   8.5124  0.0000</r>
       <r>   8.5735  0.0000</r>
       <r>   8.5735  0.0000</r>
       <r>   8.5735  0.0000</r>
       <r>  11.3736  0.0000</r>
      </set>
      <set comment="kpoint 66">
       <r>  -2.1168  1.0000</r>
       <r>   0.3804  1.0000</r>
       <r>   1.6085  1.0000</r>
       <r>   1.6085  1.0000</r>
       <r>   4.0844  1.0000</r>
       <r>   4.0844  1.0000</r>
       <r>   5.2857  1.0000</r>
       <r>   7.6773  0.0000</r>
       <r>   8.9105  0.0000</r>
       <r>   8.9105  0.0000</r>
       <r>  10.0715  0.0000</r>
       <r>  11.1136  0.0000</r>
      </set>
      <set comment="kpoint 67">
       <r>  -1.6456  1.0000</r>
       <r>  -0.3957  1.0000</r>
       <r>   2.0540  1.0000</r>
       <r>   2.0540  1.0000</r>
       <r>   3.3410  1.0000</r>
       <r>   3.3410  1.0000</r>
       <r>   5.7374  0.0000</r>
       <r>   6.9347  0.0000</r>
       <r>   9.3293  0.0000</r>
       <r>   9.3293  0.0000</r>
       <r>  10.5180  0.0000</r>
       <r>  10.5180  0.0000</r>
      </set>
      <set comment="kpoint 68">
       <r>  -1.0715  1.0000</r>
       <r>  -1.0715  1.0000</r>
       <r>   2.4475  1.0000</r>
       <r>   2.4475  1.0000</r>
       <r>   2.8481  1.0000</r>
       <r>   2.8481  1.0000</r>
       <r>   6.2874  0.0000</r>
       <r>   6.2874  0.0000</r>
       <r>   9.6866  0.0000</r>
       <r>   9.6866  0.0000</r>
       <r>  10.0879  0.0000</r>
       <r>  10.0879  0.0000</r>
      </set>
      <set comment="kpoint 69">
       <r>  -1.7504  1.0000</r>
       <r>   0.7391  1.0000</r>
       <r>   0.7391  1.0000</r>
       <r>   1.9511  1.0000</r>
       <r>   3.2414  1.0000</r>
       <r>   4.4356  1.0000</r>
       <r>   4.4356  1.0000</r>
       <r>   6.8373  0.0000</r>
       <r>   9.2525  0.0000</r>
       <r>  10.3913  0.0000</r>
       <r>  10.3913  0.0000</r>
       <r>  11.4579  0.0000</r>
      </set>
      <set comment="kpoint 70">
       <r>  -1.2805  1.0000</r>
       <r>  -0.0342  1.0000</r>
       <r>   1.1970  1.0000</r>
       <r>   2.2386  1.0000</r>
       <r>   2.6508  1.0000</r>
       <r>   3.6834  1.0000</r>
       <r>   4.8882  1.0000</r>
       <r>   6.0908  0.0000</r>
       <r>   9.6820  0.0000</r>
       <r>  10.6325  0.0000</r>
       <r>  11.0323  0.0000</r>
       <r>  11.7262  0.0000</r>
      </set>
      <set comment="kpoint 71">
       <r>  -0.7080  1.0000</r>
       <r>  -0.7080  1.0000</r>
       <r>   1.7454  1.0000</r>
       <r>   1.7454  1.0000</r>
       <r>   3.0398  1.0000</r>
       <r>   3.0398  1.0000</r>
       <r>   5.4404  1.0000</r>
       <r>   5.4404  1.0000</r>
       <r>  10.1870  0.0000</r>
       <r>  10.1870  0.0000</r>
       <r>  11.3779  0.0000</r>
       <r>  11.3779  0.0000</r>
      </set>
      <set comment="kpoint 72">
       <r>  -0.8123  1.0000</r>
       <r>   0.4287  1.0000</r>
       <r>   0.4287  1.0000</r>
       <r>   1.6422  1.0000</r>
       <r>   2.9391  1.0000</r>
       <r>   4.1351  1.0000</r>
       <r>   4.1351  1.0000</r>
       <r>   5.3411  1.0000</r>
       <r>  10.1153  0.0000</r>
       <r>  11.2060  0.0000</r>
       <r>  11.2060  0.0000</r>
       <r>  12.3186  0.0000</r>
      </set>
      <set comment="kpoint 73">
       <r>  -0.2420  1.0000</r>
       <r>  -0.2420  1.0000</r>
       <r>   0.9905  1.0000</r>
       <r>   0.9905  1.0000</r>
       <r>   3.4822  1.0000</r>
       <r>   3.4822  1.0000</r>
       <r>   4.6885  1.0000</r>
       <r>   4.6885  1.0000</r>
       <r>  10.6298  0.0000</r>
       <r>  10.6298  0.0000</r>
       <r>  11.7312  0.0000</r>
       <r>  11.7312  0.0000</r>
      </set>
      <set comment="kpoint 74">
       <r>   0.3250  1.0000</r>
       <r>   0.3250  1.0000</r>
       <r>   0.3250  1.0000</r>
       <r>   0.3250  1.0000</r>
       <r>   4.0346  1.0000</r>
       <r>   4.0346  1.0000</r>
       <r>   4.0346  1.0000</r>
       <r>   4.0346  1.0000</r>
       <r>  11.1469  0.0000</r>
       <r>  11.1469  0.0000</r>
       <r>  11.1469  0.0000</r>
       <r>  11.1469  0.0000</r>
      </set>
      <set comment="kpoint 75">
       <r>  -1.3850  1.0000</r>
       <r>   1.0938  1.0000</r>
       <r>   1.0938  1.0000</r>
       <r>   1.0938  1.0000</r>
       <r>   3.5837  1.0000</r>
       <r>   3.5837  1.0000</r>
       <r>   3.5837  1.0000</r>
       <r>   5.9927  0.0000</r>
       <r>  10.7333  0.0000</r>
       <r>  10.7333  0.0000</r>
       <r>  10.7333  0.0000</r>
       <r>  12.3429  0.0000</r>
      </set>
      <set comment="kpoint 76">
       <r>  -0.9166  1.0000</r>
       <r>   0.3251  1.0000</r>
       <r>   1.5388  1.0000</r>
       <r>   1.5388  1.0000</r>
       <r>   2.8394  1.0000</r>
       <r>   2.8394  1.0000</r>
       <r>   4.0356  1.0000</r>
       <r>   5.2424  1.0000</r>
       <r>  11.1385  0.0000</r>
       <r>  11.1385  0.0000</r>
       <r>  12.2064  0.0000</r>
       <r>  12.2103  0.0000</r>
      </set>
      <set comment="kpoint 77">
       <r>  -0.3460  1.0000</r>
       <r>  -0.3460  1.0000</r>
       <r>   1.9242  1.0000</r>
       <r>   1.9242  1.0000</r>
       <r>   2.3541  1.0000</r>
       <r>   2.3541  1.0000</r>
       <r>   4.5893  1.0000</r>
       <r>   4.5893  1.0000</r>
       <r>  11.4673  0.0000</r>
       <r>  11.4673  0.0000</r>
       <r>  11.8673  0.0000</r>
       <r>  11.8673  0.0000</r>
      </set>
      <set comment="kpoint 78">
       <r>  -0.4501  1.0000</r>
       <r>   0.7837  1.0000</r>
       <r>   0.7837  1.0000</r>
       <r>   1.8192  1.0000</r>
       <r>   2.2549  1.0000</r>
       <r>   3.2817  1.0000</r>
       <r>   3.2817  1.0000</r>
       <r>   4.4893  1.0000</r>
       <r>  11.5653  0.0000</r>
       <r>  12.4466  0.0000</r>
       <r>  12.4466  0.0000</r>
       <r>  12.8063  0.0000</r>
      </set>
      <set comment="kpoint 79">
       <r>   0.1176  1.0000</r>
       <r>   0.1176  1.0000</r>
       <r>   1.3318  1.0000</r>
       <r>   1.3318  1.0000</r>
       <r>   2.6379  1.0000</r>
       <r>   2.6379  1.0000</r>
       <r>   3.8347  1.0000</r>
       <r>   3.8347  1.0000</r>
       <r>  12.0413  0.0000</r>
       <r>  12.0413  0.0000</r>
       <r>  13.0435  0.0000</r>
       <r>  13.0517  0.0000</r>
      </set>
      <set comment="kpoint 80">
       <r>   0.6801  1.0000</r>
       <r>   0.6801  1.0000</r>
       <r>   0.6801  1.0000</r>
       <r>   0.6801  1.0000</r>
       <r>   3.1808  1.0000</r>
       <r>   3.1808  1.0000</r>
       <r>   3.1808  1.0000</r>
       <r>   3.1808  1.0000</r>
       <r>  12.5384  0.0000</r>
       <r>  12.5384  0.0000</r>
       <r>  12.5384  0.0000</r>
       <r>  12.5384  0.0000</r>
      </set>
      <set comment="kpoint 81">
       <r>   0.0137  1.0000</r>
       <r>   1.2282  1.0000</r>
       <r>   1.2282  1.0000</r>
       <r>   1.2282  1.0000</r>
       <r>   2.5372  1.0000</r>
       <r>   2.5372  1.0000</r>
       <r>   2.5372  1.0000</r>
       <r>   3.7342  1.0000</r>
       <r>  13.0152  0.0000</r>
       <r>  13.0152  0.0000</r>
       <r>  13.0152  0.0000</r>
       <r>  13.5523  0.0000</r>
      </set>
      <set comment="kpoint 82">
       <r>   0.5764  1.0000</r>
       <r>   0.5764  1.0000</r>
       <r>   1.6087  1.0000</r>
       <r>   1.6087  1.0000</r>
       <r>   2.0565  1.0000</r>
       <r>   2.0565  1.0000</r>
       <r>   3.0801  1.0000</r>
       <r>   3.0801  1.0000</r>
       <r>  13.2981  0.0000</r>
       <r>  13.2981  0.0000</r>
       <r>  13.6135  0.0000</r>
       <r>  13.6135  0.0000</r>
      </set>
      <set comment="kpoint 83">
       <r>   1.1244  1.0000</r>
       <r>   1.1244  1.0000</r>
       <r>   1.1244  1.0000</r>
       <r>   1.1244  1.0000</r>
       <r>   2.4363  1.0000</r>
       <r>   2.4363  1.0000</r>
       <r>   2.4363  1.0000</r>
       <r>   2.4363  1.0000</r>
       <r>  13.8413  0.0000</r>
       <r>  13.8413  0.0000</r>
       <r>  13.8413  0.0000</r>
       <r>  13.8413  0.0000</r>
      </set>
      <set comment="kpoint 84">
       <r>   1.5033  1.0000</r>
       <r>   1.5033  1.0000</r>
       <r>   1.5033  1.0000</r>
       <r>   1.5033  1.0000</r>
       <r>   1.9571  1.0000</r>
       <r>   1.9571  1.0000</r>
       <r>   1.9571  1.0000</r>
       <r>   1.9571  1.0000</r>
       <r>  14.5530  0.0000</r>
       <r>  14.5530  0.0000</r>
       <r>  14.5530  0.0000</r>
       <r>  14.5530  0.0000</r>
      </set>
     </set>
    </set>
   </array>
  </eigenvalues>
 </calculation>
 <structure name="finalpos" >
  <crystal>
   <varray name="basis" >
    <v>       4.40066394      0.00000000      0.00000000</v>
    <v>       0.00000000      4.40066394      0.00000000</v>
    <v>       0.00000000      0.00000000      4.40066394</v>
   </varray>
   <i name="volume">     85.22256763</i>
   <varray name="rec_basis" >
    <v>       0.22723844      0.00000000      0.00000000</v>
    <v>       0.00000000      0.22723844      0.00000000</v>
    <v>       0.00000000      0.00000000      0.22723844</v>
   </varray>
  </crystal>
  <varray name="positions" >
   <v>       0.50000000      0.50000000      0.00000000</v>
   <v>       0.50000000      0.00000000      0.50000000</v>
   <v>       0.00000000      0.50000000      0.50000000</v>
   <v>       0.00000000      0.00000000      0.00000000</v>
  </varray>
 </structure>
</modeling>
