       N       E                     dE             d eps       ncg     rms          rms(c)
DAV:   1     0.201134671511E+04    0.20113E+04   -0.10734E+05   432   0.867E+02
DAV:   2    -0.109459808128E+02   -0.20223E+04   -0.19158E+04   448   0.330E+02
DAV:   3    -0.108556146218E+03   -0.97610E+02   -0.93370E+02   464   0.713E+01
DAV:   4    -0.110435191026E+03   -0.18790E+01   -0.18678E+01   452   0.988E+00
DAV:   5    -0.110474608938E+03   -0.39418E-01   -0.39398E-01   472   0.119E+00    0.157E+01
DAV:   6    -0.103513839675E+03    0.69608E+01   -0.18314E+01   444   0.136E+01    0.425E+00
DAV:   7    -0.103019644858E+03    0.49419E+00   -0.12665E+00   468   0.312E+00    0.166E+00
DAV:   8    -0.102922860196E+03    0.96785E-01   -0.47701E-02   440   0.608E-01    0.125E-01
DAV:   9    -0.102922804603E+03    0.55594E-04   -0.41523E-03   480   0.190E-01    0.700E-02
DAV:  10    -0.102922828328E+03   -0.23726E-04   -0.33234E-04   440   0.451E-02    0.680E-03
DAV:  11    -0.102922837361E+03   -0.90330E-05   -0.63285E-06   236   0.685E-03
   1 F= -.10292284E+03 E0= -.10286924E+03  d E =-.102923E+03
