   4   4   0   0
  0.1928545E+02  0.4256931E-09  0.4256931E-09  0.4256931E-09  0.5000000E-15
  1.000000000000000E-004
  CAR 
 unknown system                          
     20.47571267     -5.53952611  301      4.25446225      1.00000000
     -5.540  0.0000E+00  0.0000E+00
     -5.453  0.0000E+00  0.0000E+00
     -5.366  0.0000E+00  0.0000E+00
     -5.279  0.0000E+00  0.0000E+00
     -5.193  0.0000E+00  0.0000E+00
     -5.106  0.0000E+00  0.0000E+00
     -5.019  0.0000E+00  0.0000E+00
     -4.933  0.0000E+00  0.0000E+00
     -4.846  0.0000E+00  0.0000E+00
     -4.759  0.0000E+00  0.0000E+00
     -4.672  0.0000E+00  0.0000E+00
     -4.586  0.0000E+00  0.0000E+00
     -4.499  0.0000E+00  0.0000E+00
     -4.412  0.1482E-17  0.1285E-18
     -4.325  0.1533E-01  0.1330E-02
     -4.239  0.1011E+00  0.1030E-01
     -4.152  0.1373E+00  0.2269E-01
     -4.065  0.1660E+00  0.3963E-01
     -3.979  0.2025E+00  0.5839E-01
     -3.892  0.2566E+00  0.8093E-01
     -3.805  0.2730E+00  0.1067E+00
     -3.718  0.2692E+00  0.1313E+00
     -3.632  0.3415E+00  0.1627E+00
     -3.545  0.3214E+00  0.1927E+00
     -3.458  0.3823E+00  0.2271E+00
     -3.372  0.3660E+00  0.2625E+00
     -3.285  0.4329E+00  0.3030E+00
     -3.198  0.4512E+00  0.3455E+00
     -3.111  0.4661E+00  0.3878E+00
     -3.025  0.4872E+00  0.4323E+00
     -2.938  0.5470E+00  0.4839E+00
     -2.851  0.5318E+00  0.5353E+00
     -2.765  0.5712E+00  0.5891E+00
     -2.678  0.6434E+00  0.6500E+00
     -2.591  0.7008E+00  0.7153E+00
     -2.504  0.6785E+00  0.7790E+00
     -2.418  0.8865E+00  0.8599E+00
     -2.331  0.7997E+00  0.9342E+00
     -2.244  0.9613E+00  0.1029E+01
     -2.158  0.1173E+01  0.1136E+01
     -2.071  0.1336E+01  0.1257E+01
     -1.984  0.2394E+01  0.1477E+01
     -1.897  0.2766E+01  0.1738E+01
     -1.811  0.2828E+01  0.2001E+01
     -1.724  0.3272E+01  0.2303E+01
     -1.637  0.4059E+01  0.2695E+01
     -1.551  0.5006E+01  0.3162E+01
     -1.464  0.6398E+01  0.3759E+01
     -1.377  0.7359E+01  0.4461E+01
     -1.290  0.8414E+01  0.5251E+01
     -1.204  0.8210E+01  0.6026E+01
     -1.117  0.7638E+01  0.6745E+01
     -1.030  0.7294E+01  0.7436E+01
     -0.944  0.7025E+01  0.8099E+01
     -0.857  0.7220E+01  0.8772E+01
     -0.770  0.6399E+01  0.9383E+01
     -0.683  0.5604E+01  0.9909E+01
     -0.597  0.4859E+01  0.1037E+02
     -0.510  0.6431E+01  0.1099E+02
     -0.423  0.7676E+01  0.1171E+02
     -0.336  0.8545E+01  0.1250E+02
     -0.250  0.9175E+01  0.1337E+02
     -0.163  0.9158E+01  0.1424E+02
     -0.076  0.8813E+01  0.1507E+02
      0.010  0.9136E+01  0.1592E+02
      0.097  0.9339E+01  0.1680E+02
      0.184  0.9800E+01  0.1775E+02
      0.271  0.1138E+02  0.1882E+02
      0.357  0.1354E+02  0.2009E+02
      0.444  0.1620E+02  0.2164E+02
      0.531  0.1122E+02  0.2274E+02
      0.617  0.8976E+01  0.2359E+02
      0.704  0.7158E+01  0.2427E+02
      0.791  0.8091E+01  0.2503E+02
      0.878  0.7257E+01  0.2571E+02
      0.964  0.7439E+01  0.2641E+02
      1.051  0.8375E+01  0.2719E+02
      1.138  0.9234E+01  0.2806E+02
      1.224  0.9215E+01  0.2893E+02
      1.311  0.1053E+02  0.2992E+02
      1.398  0.9251E+01  0.3081E+02
      1.485  0.8851E+01  0.3164E+02
      1.571  0.8093E+01  0.3240E+02
      1.658  0.7461E+01  0.3312E+02
      1.745  0.7346E+01  0.3383E+02
      1.831  0.7653E+01  0.3455E+02
      1.918  0.7623E+01  0.3529E+02
      2.005  0.7859E+01  0.3603E+02
      2.092  0.8829E+01  0.3687E+02
      2.178  0.1012E+02  0.3782E+02
      2.265  0.1408E+02  0.3913E+02
      2.352  0.1311E+02  0.4038E+02
      2.438  0.8374E+01  0.4119E+02
      2.525  0.5378E+01  0.4170E+02
      2.612  0.3459E+01  0.4202E+02
      2.699  0.1057E+01  0.4212E+02
      2.785  0.9945E+00  0.4223E+02
      2.872  0.1255E+01  0.4235E+02
      2.959  0.9347E+00  0.4244E+02
      3.046  0.1272E+01  0.4256E+02
      3.132  0.8660E+00  0.4264E+02
      3.219  0.1260E+01  0.4276E+02
      3.306  0.9618E+00  0.4285E+02
      3.392  0.1106E+01  0.4296E+02
      3.479  0.1082E+01  0.4306E+02
      3.566  0.1134E+01  0.4317E+02
      3.653  0.9795E+00  0.4326E+02
      3.739  0.1309E+01  0.4338E+02
      3.826  0.8490E+00  0.4346E+02
      3.913  0.1401E+01  0.4360E+02
      3.999  0.9295E+00  0.4369E+02
      4.086  0.1107E+01  0.4379E+02
      4.173  0.1235E+01  0.4391E+02
      4.260  0.1046E+01  0.4401E+02
      4.346  0.1058E+01  0.4411E+02
      4.433  0.1193E+01  0.4422E+02
      4.520  0.1125E+01  0.4432E+02
      4.606  0.9759E+00  0.4442E+02
      4.693  0.1234E+01  0.4453E+02
      4.780  0.1182E+01  0.4464E+02
      4.867  0.9490E+00  0.4473E+02
      4.953  0.1253E+01  0.4484E+02
      5.040  0.1059E+01  0.4495E+02
      5.127  0.1023E+01  0.4504E+02
      5.213  0.1106E+01  0.4515E+02
      5.300  0.1033E+01  0.4525E+02
      5.387  0.1133E+01  0.4536E+02
      5.474  0.1078E+01  0.4546E+02
      5.560  0.1062E+01  0.4556E+02
      5.647  0.1108E+01  0.4566E+02
      5.734  0.1086E+01  0.4576E+02
      5.820  0.1085E+01  0.4587E+02
      5.907  0.1010E+01  0.4597E+02
      5.994  0.9557E+00  0.4606E+02
      6.081  0.1151E+01  0.4617E+02
      6.167  0.8548E+00  0.4625E+02
      6.254  0.1047E+01  0.4635E+02
      6.341  0.1036E+01  0.4645E+02
      6.427  0.1134E+01  0.4655E+02
      6.514  0.9225E+00  0.4664E+02
      6.601  0.1111E+01  0.4674E+02
      6.688  0.9523E+00  0.4683E+02
      6.774  0.1714E+01  0.4698E+02
      6.861  0.1549E+01  0.4714E+02
      6.948  0.1730E+01  0.4730E+02
      7.035  0.1535E+01  0.4745E+02
      7.121  0.1402E+01  0.4758E+02
      7.208  0.1423E+01  0.4771E+02
      7.295  0.1374E+01  0.4784E+02
      7.381  0.1317E+01  0.4797E+02
      7.468  0.9894E+00  0.4807E+02
      7.555  0.1214E+01  0.4819E+02
      7.642  0.1018E+01  0.4829E+02
      7.728  0.1182E+01  0.4840E+02
      7.815  0.1141E+01  0.4851E+02
      7.902  0.8851E+00  0.4859E+02
      7.988  0.1235E+01  0.4870E+02
      8.075  0.9456E+00  0.4879E+02
      8.162  0.7904E+00  0.4887E+02
      8.249  0.9126E+00  0.4896E+02
      8.335  0.1051E+01  0.4906E+02
      8.422  0.9018E+00  0.4915E+02
      8.509  0.1051E+01  0.4925E+02
      8.595  0.1262E+01  0.4936E+02
      8.682  0.1339E+01  0.4949E+02
      8.769  0.1214E+01  0.4960E+02
      8.856  0.1622E+01  0.4975E+02
      8.942  0.1528E+01  0.4989E+02
      9.029  0.1254E+01  0.5001E+02
      9.116  0.1580E+01  0.5015E+02
      9.202  0.1531E+01  0.5030E+02
      9.289  0.1455E+01  0.5044E+02
      9.376  0.1414E+01  0.5057E+02
      9.463  0.1393E+01  0.5070E+02
      9.549  0.1301E+01  0.5083E+02
      9.636  0.1424E+01  0.5096E+02
      9.723  0.1271E+01  0.5108E+02
      9.809  0.1364E+01  0.5121E+02
      9.896  0.1176E+01  0.5132E+02
      9.983  0.1306E+01  0.5144E+02
     10.070  0.1180E+01  0.5155E+02
     10.156  0.1114E+01  0.5165E+02
     10.243  0.1210E+01  0.5177E+02
     10.330  0.1126E+01  0.5188E+02
     10.416  0.8799E+00  0.5196E+02
     10.503  0.1230E+01  0.5208E+02
     10.590  0.9837E+00  0.5217E+02
     10.677  0.1139E+01  0.5228E+02
     10.763  0.1178E+01  0.5239E+02
     10.850  0.1314E+01  0.5251E+02
     10.937  0.1244E+01  0.5263E+02
     11.024  0.1362E+01  0.5276E+02
     11.110  0.1356E+01  0.5289E+02
     11.197  0.1221E+01  0.5300E+02
     11.284  0.1303E+01  0.5312E+02
     11.370  0.1463E+01  0.5326E+02
     11.457  0.1404E+01  0.5339E+02
     11.544  0.1281E+01  0.5351E+02
     11.631  0.1373E+01  0.5364E+02
     11.717  0.1099E+01  0.5375E+02
     11.804  0.1566E+01  0.5389E+02
     11.891  0.1367E+01  0.5402E+02
     11.977  0.1494E+01  0.5416E+02
     12.064  0.1263E+01  0.5428E+02
     12.151  0.1033E+01  0.5438E+02
     12.238  0.1514E+01  0.5453E+02
     12.324  0.1623E+01  0.5468E+02
     12.411  0.1060E+01  0.5479E+02
     12.498  0.1258E+01  0.5491E+02
     12.584  0.1378E+01  0.5504E+02
     12.671  0.1282E+01  0.5516E+02
     12.758  0.1490E+01  0.5531E+02
     12.845  0.1429E+01  0.5544E+02
     12.931  0.1358E+01  0.5556E+02
     13.018  0.1540E+01  0.5570E+02
     13.105  0.1315E+01  0.5582E+02
     13.191  0.1588E+01  0.5597E+02
     13.278  0.1713E+01  0.5614E+02
     13.365  0.1516E+01  0.5628E+02
     13.452  0.1643E+01  0.5643E+02
     13.538  0.1684E+01  0.5659E+02
     13.625  0.1427E+01  0.5672E+02
     13.712  0.2208E+01  0.5693E+02
     13.798  0.1585E+01  0.5708E+02
     13.885  0.1727E+01  0.5724E+02
     13.972  0.2056E+01  0.5742E+02
     14.059  0.1815E+01  0.5760E+02
     14.145  0.1885E+01  0.5777E+02
     14.232  0.2145E+01  0.5797E+02
     14.319  0.1801E+01  0.5815E+02
     14.405  0.1875E+01  0.5832E+02
     14.492  0.1915E+01  0.5850E+02
     14.579  0.1764E+01  0.5866E+02
     14.666  0.2089E+01  0.5886E+02
     14.752  0.1866E+01  0.5903E+02
     14.839  0.1638E+01  0.5919E+02
     14.926  0.1972E+01  0.5937E+02
     15.013  0.1726E+01  0.5953E+02
     15.099  0.1713E+01  0.5969E+02
     15.186  0.1809E+01  0.5987E+02
     15.273  0.1741E+01  0.6003E+02
     15.359  0.2013E+01  0.6022E+02
     15.446  0.1483E+01  0.6036E+02
     15.533  0.1687E+01  0.6052E+02
     15.620  0.1671E+01  0.6067E+02
     15.706  0.1852E+01  0.6085E+02
     15.793  0.1645E+01  0.6101E+02
     15.880  0.1431E+01  0.6115E+02
     15.966  0.1887E+01  0.6132E+02
     16.053  0.1390E+01  0.6146E+02
     16.140  0.1572E+01  0.6161E+02
     16.227  0.1608E+01  0.6176E+02
     16.313  0.9876E+00  0.6186E+02
     16.400  0.1439E+01  0.6199E+02
     16.487  0.1073E+01  0.6210E+02
     16.573  0.1009E+01  0.6219E+02
     16.660  0.1334E+01  0.6232E+02
     16.747  0.9035E+00  0.6240E+02
     16.834  0.8901E+00  0.6249E+02
     16.920  0.1154E+01  0.6260E+02
     17.007  0.6834E+00  0.6267E+02
     17.094  0.9379E+00  0.6275E+02
     17.180  0.9409E+00  0.6284E+02
     17.267  0.5167E+00  0.6290E+02
     17.354  0.8449E+00  0.6297E+02
     17.441  0.7499E+00  0.6304E+02
     17.527  0.6300E+00  0.6310E+02
     17.614  0.7153E+00  0.6317E+02
     17.701  0.5105E+00  0.6322E+02
     17.787  0.5928E+00  0.6327E+02
     17.874  0.6204E+00  0.6333E+02
     17.961  0.5158E+00  0.6338E+02
     18.048  0.4982E+00  0.6343E+02
     18.134  0.4341E+00  0.6347E+02
     18.221  0.4691E+00  0.6351E+02
     18.308  0.5016E+00  0.6356E+02
     18.394  0.4212E+00  0.6360E+02
     18.481  0.4545E+00  0.6365E+02
     18.568  0.4356E+00  0.6369E+02
     18.655  0.4475E+00  0.6373E+02
     18.741  0.5333E+00  0.6378E+02
     18.828  0.8378E+00  0.6386E+02
     18.915  0.7649E+00  0.6394E+02
     19.002  0.4333E+00  0.6398E+02
     19.088  0.1379E+00  0.6399E+02
     19.175  0.4991E-01  0.6400E+02
     19.262  0.1759E-01  0.6400E+02
     19.348  0.3955E-02  0.6400E+02
     19.435  0.0000E+00  0.6400E+02
     19.522  0.0000E+00  0.6400E+02
     19.609  0.0000E+00  0.6400E+02
     19.695  0.0000E+00  0.6400E+02
     19.782  0.0000E+00  0.6400E+02
     19.869  0.0000E+00  0.6400E+02
     19.955  0.0000E+00  0.6400E+02
     20.042  0.0000E+00  0.6400E+02
     20.129  0.0000E+00  0.6400E+02
     20.216  0.0000E+00  0.6400E+02
     20.302  0.0000E+00  0.6400E+02
     20.389  0.0000E+00  0.6400E+02
     20.476  0.0000E+00  0.6400E+02
