    4    4    1    1
  0.1928545E+02  0.4256931E-09  0.4256931E-09  0.4256931E-09  0.5000000E-15
  1.000000000000000E-004
  CAR 
 unknown system                          
   44 1330   32
 
  0.0000000E+00  0.0000000E+00  0.0000000E+00  0.2143347E-04
   1       -4.3570
   2       -1.7866
   3       -1.7866
   4       -1.7866
   5       -1.5409
   6       -1.5409
   7       -1.5409
   8        0.1305
   9        0.1305
  10        0.1305
  11        1.3492
  12        1.3492
  13        2.2759
  14        2.2759
  15        2.2759
  16        2.5704
  17        2.5704
  18        2.5704
  19        2.5704
  20        2.5704
  21        2.5704
  22        5.6197
  23        5.6197
  24        5.6197
  25        9.1432
  26        9.1432
  27        9.1432
  28       14.0530
  29       14.0530
  30       14.0530
  31       14.0530
  32       14.0530
 
  0.2777778E-01  0.0000000E+00  0.0000000E+00  0.1286008E-03
   1       -4.3489
   2       -1.7840
   3       -1.7814
   4       -1.7814
   5       -1.5381
   6       -1.5367
   7       -1.5367
   8        0.1267
   9        0.1338
  10        0.1338
  11        1.3452
  12        1.3508
  13        2.2704
  14        2.2704
  15        2.2740
  16        2.5460
  17        2.5460
  18        2.5636
  19        2.5636
  20        2.5705
  21        2.5705
  22        5.5390
  23        5.6502
  24        5.6502
  25        9.1373
  26        9.1373
  27        9.2382
  28       14.0362
  29       14.0362
  30       14.0384
  31       14.0384
  32       14.0689
 
  0.5555556E-01  0.0000000E+00  0.0000000E+00  0.1286008E-03
   1       -4.3247
   2       -1.7763
   3       -1.7660
   4       -1.7660
   5       -1.5299
   6       -1.5242
   7       -1.5242
   8        0.1156
   9        0.1439
  10        0.1439
  11        1.3335
  12        1.3557
  13        2.2539
  14        2.2539
  15        2.2684
  16        2.4754
  17        2.4754
  18        2.5432
  19        2.5432
  20        2.5705
  21        2.5705
  22        5.3193
  23        5.7389
  24        5.7389
  25        9.1198
  26        9.1198
  27        9.5007
  28       13.9859
  29       13.9859
  30       13.9959
  31       13.9959
  32       14.1165
 
  0.8333333E-01  0.0000000E+00  0.0000000E+00  0.1286008E-03
   1       -4.2843
   2       -1.7637
   3       -1.7404
   4       -1.7404
   5       -1.5162
   6       -1.5034
   7       -1.5034
   8        0.0972
   9        0.1607
  10        0.1607
  11        1.3141
  12        1.3639
  13        2.2266
  14        2.2266
  15        2.2590
  16        2.3661
  17        2.3661
  18        2.5097
  19        2.5097
  20        2.5705
  21        2.5705
  22        5.0065
  23        5.8785
  24        5.8785
  25        9.0914
  26        9.0914
  27        9.8852
  28       13.9032
  29       13.9032
  30       13.9300
  31       13.9300
  32       14.1951
 
  0.1111111E+00  0.0000000E+00  0.0000000E+00  0.1286008E-03
   1       -4.2279
   2       -1.7469
   3       -1.7051
   4       -1.7051
   5       -1.4971
   6       -1.4742
   7       -1.4742
   8        0.0718
   9        0.1841
  10        0.1841
  11        1.2874
  12        1.3752
  13        2.1887
  14        2.1887
  15        2.2270
  16        2.2270
  17        2.2460
  18        2.4637
  19        2.4637
  20        2.5706
  21        2.5706
  22        4.6409
  23        6.0598
  24        6.0598
  25        9.0529
  26        9.0529
  27       10.3516
  28       13.7897
  29       13.7897
  30       13.8463
  31       13.8463
  32       14.3042
 
  0.1388889E+00  0.0000000E+00  0.0000000E+00  0.1286008E-03
   1       -4.1559
   2       -1.7264
   3       -1.6604
   4       -1.6604
   5       -1.4727
   6       -1.4368
   7       -1.4368
   8        0.0395
   9        0.2141
  10        0.2141
  11        1.2537
  12        1.3897
  13        2.0667
  14        2.0667
  15        2.1405
  16        2.1405
  17        2.2294
  18        2.4062
  19        2.4062
  20        2.5707
  21        2.5707
  22        4.2495
  23        6.2740
  24        6.2740
  25        9.0058
  26        9.0058
  27       10.8735
  28       13.6474
  29       13.6474
  30       13.7512
  31       13.7512
  32       14.4426
 
  0.1666667E+00  0.0000000E+00  0.0000000E+00  0.1286008E-03
   1       -4.0683
   2       -1.7032
   3       -1.6069
   4       -1.6069
   5       -1.4431
   6       -1.3911
   7       -1.3911
   8        0.0009
   9        0.2506
  10        0.2506
  11        1.2137
  12        1.4073
  13        1.8923
  14        1.8923
  15        2.0828
  16        2.0828
  17        2.2095
  18        2.3382
  19        2.3382
  20        2.5708
  21        2.5708
  22        3.8490
  23        6.5140
  24        6.5140
  25        8.9518
  26        8.9518
  27       11.4350
  28       13.4784
  29       13.4784
  30       13.6507
  31       13.6507
  32       14.6091
 
  0.1944444E+00  0.0000000E+00  0.0000000E+00  0.1286008E-03
   1       -3.9657
   2       -1.6788
   3       -1.5454
   4       -1.5454
   5       -1.4085
   6       -1.3371
   7       -1.3371
   8       -0.0436
   9        0.2936
  10        0.2936
  11        1.1680
  12        1.4277
  13        1.7092
  14        1.7092
  15        2.0161
  16        2.0161
  17        2.1864
  18        2.2608
  19        2.2608
  20        2.5709
  21        2.5709
  22        3.4500
  23        6.7742
  24        6.7742
  25        8.8926
  26        8.8926
  27       12.0263
  28       13.2852
  29       13.2852
  30       13.5494
  31       13.5494
  32       14.8022
 
  0.2222222E+00  0.0000000E+00  0.0000000E+00  0.1286008E-03
   1       -3.8486
   2       -1.6548
   3       -1.4769
   4       -1.4769
   5       -1.3691
   6       -1.2749
   7       -1.2749
   8       -0.0937
   9        0.3429
  10        0.3429
  11        1.1175
  12        1.4510
  13        1.5214
  14        1.5214
  15        1.9416
  16        1.9416
  17        2.1603
  18        2.1754
  19        2.1754
  20        2.5710
  21        2.5710
  22        3.0599
  23        7.0502
  24        7.0502
  25        8.8304
  26        8.8304
  27       12.6416
  28       13.0702
  29       13.0702
  30       13.4514
  31       13.4514
  32       15.0205
 
  0.2500000E+00  0.0000000E+00  0.0000000E+00  0.1286008E-03
   1       -3.7174
   2       -1.6335
   3       -1.4025
   4       -1.4025
   5       -1.3250
   6       -1.2044
   7       -1.2044
   8       -0.1486
   9        0.3984
  10        0.3984
  11        1.0631
  12        1.3321
  13        1.3321
  14        1.4769
  15        1.8606
  16        1.8606
  17        2.0832
  18        2.0832
  19        2.1315
  20        2.5711
  21        2.5711
  22        2.6844
  23        7.3387
  24        7.3387
  25        8.7672
  26        8.7672
  27       12.8360
  28       12.8360
  29       13.2768
  30       13.3593
  31       13.3593
  32       15.2623
 
  0.2777778E+00  0.0000000E+00  0.0000000E+00  0.1286008E-03
   1       -3.5731
   2       -1.6177
   3       -1.3239
   4       -1.3239
   5       -1.2765
   6       -1.1259
   7       -1.1259
   8       -0.2080
   9        0.4600
  10        0.4600
  11        1.0063
  12        1.1432
  13        1.1432
  14        1.5052
  15        1.7748
  16        1.7748
  17        1.9856
  18        1.9856
  19        2.1003
  20        2.3287
  21        2.5713
  22        2.5713
  23        7.6372
  24        7.6372
  25        8.7049
  26        8.7049
  27       12.5847
  28       12.5847
  29       13.2750
  30       13.2750
  31       13.9293
  32       15.5259
 
  0.3055556E+00  0.0000000E+00  0.0000000E+00  0.1286008E-03
   1       -3.4166
   2       -1.6111
   3       -1.2427
   4       -1.2427
   5       -1.2239
   6       -1.0392
   7       -1.0392
   8       -0.2711
   9        0.5274
  10        0.5274
  11        0.9485
  12        0.9566
  13        0.9566
  14        1.5359
  15        1.6862
  16        1.6862
  17        1.8837
  18        1.8837
  19        1.9976
  20        2.0668
  21        2.5714
  22        2.5714
  23        7.9437
  24        7.9437
  25        8.6455
  26        8.6455
  27       12.3185
  28       12.3185
  29       13.1998
  30       13.1998
  31       14.5971
  32       15.8096
 
  0.3333333E+00  0.0000000E+00  0.0000000E+00  0.1286008E-03
   1       -3.2494
   2       -1.6181
   3       -1.1674
   4       -1.1614
   5       -1.1614
   6       -0.9444
   7       -0.9444
   8       -0.3375
   9        0.6004
  10        0.6004
  11        0.7734
  12        0.7734
  13        0.8915
  14        1.5687
  15        1.5975
  16        1.5975
  17        1.6964
  18        1.7787
  19        1.7787
  20        2.0314
  21        2.5715
  22        2.5715
  23        8.2564
  24        8.2564
  25        8.5907
  26        8.5907
  27       12.0394
  28       12.0394
  29       13.1342
  30       13.1342
  31       15.2789
  32       16.1117
 
  0.3611111E+00  0.0000000E+00  0.0000000E+00  0.1286008E-03
   1       -3.0731
   2       -1.6436
   3       -1.1074
   4       -1.0828
   5       -1.0828
   6       -0.8416
   7       -0.8416
   8       -0.4063
   9        0.5947
  10        0.5947
  11        0.6788
  12        0.6788
  13        0.8377
  14        1.4305
  15        1.5118
  16        1.5118
  17        1.6033
  18        1.6717
  19        1.6717
  20        1.9944
  21        2.5716
  22        2.5716
  23        8.5419
  24        8.5419
  25        8.5740
  26        8.5740
  27       11.7495
  28       11.7495
  29       13.0786
  30       13.0786
  31       15.9733
  32       16.4304
 
  0.3888889E+00  0.0000000E+00  0.0000000E+00  0.1286008E-03
   1       -2.8899
   2       -1.6925
   3       -1.0442
   4       -1.0102
   5       -1.0102
   6       -0.7310
   7       -0.7310
   8       -0.4772
   9        0.4211
  10        0.4211
  11        0.7624
  12        0.7624
  13        0.7899
  14        1.2049
  15        1.4328
  16        1.4328
  17        1.5638
  18        1.5638
  19        1.6396
  20        1.9560
  21        2.5717
  22        2.5717
  23        8.5004
  24        8.5004
  25        8.8951
  26        8.8951
  27       11.4502
  28       11.4502
  29       13.0332
  30       13.0332
  31       16.6803
  32       16.7640
 
  0.4166667E+00  0.0000000E+00  0.0000000E+00  0.1286008E-03
   1       -2.7028
   2       -1.7687
   3       -0.9782
   4       -0.9475
   5       -0.9475
   6       -0.6126
   7       -0.6126
   8       -0.5493
   9        0.2532
  10        0.2532
  11        0.7516
  12        0.8507
  13        0.8507
  14        1.0236
  15        1.3646
  16        1.3646
  17        1.4558
  18        1.4558
  19        1.6773
  20        1.9167
  21        2.5718
  22        2.5718
  23        8.4671
  24        8.4671
  25        9.2185
  26        9.2185
  27       11.1434
  28       11.1434
  29       12.9980
  30       12.9980
  31       17.1105
  32       17.1105
 
  0.4444444E+00  0.0000000E+00  0.0000000E+00  0.1286008E-03
   1       -2.5156
   2       -1.8737
   3       -0.9098
   4       -0.8986
   5       -0.8986
   6       -0.6222
   7       -0.4864
   8       -0.4864
   9        0.0915
  10        0.0915
  11        0.7272
  12        0.8878
  13        0.9434
  14        0.9434
  15        1.3117
  16        1.3117
  17        1.3488
  18        1.3488
  19        1.7160
  20        1.8767
  21        2.5718
  22        2.5718
  23        8.4428
  24        8.4428
  25        9.5431
  26        9.5431
  27       10.8304
  28       10.8304
  29       12.9729
  30       12.9729
  31       17.4681
  32       17.4681
 
  0.4722222E+00  0.0000000E+00  0.0000000E+00  0.1286008E-03
   1       -2.3331
   2       -2.0060
   3       -0.8675
   4       -0.8675
   5       -0.8396
   6       -0.6952
   7       -0.3527
   8       -0.3527
   9       -0.0636
  10       -0.0636
  11        0.7222
  12        0.7958
  13        1.0401
  14        1.0401
  15        1.2434
  16        1.2434
  17        1.2780
  18        1.2780
  19        1.7557
  20        1.8363
  21        2.5718
  22        2.5718
  23        8.4281
  24        8.4281
  25        9.8677
  26        9.8677
  27       10.5126
  28       10.5126
  29       12.9579
  30       12.9579
  31       17.8349
  32       17.8349
 
  0.5000000E+00  0.0000000E+00  0.0000000E+00  0.6430041E-04
   1       -2.1611
   2       -2.1611
   3       -0.8568
   4       -0.8568
   5       -0.7679
   6       -0.7679
   7       -0.2117
   8       -0.2117
   9       -0.2117
  10       -0.2117
  11        0.7427
  12        0.7427
  13        1.1403
  14        1.1403
  15        1.1403
  16        1.1403
  17        1.2665
  18        1.2665
  19        1.7959
  20        1.7959
  21        2.5719
  22        2.5719
  23        8.4231
  24        8.4231
  25       10.1913
  26       10.1913
  27       10.1913
  28       10.1913
  29       12.9529
  30       12.9529
  31       18.2087
  32       18.2087
 
  0.2777778E-01  0.2777778E-01  0.0000000E+00  0.2572016E-03
   1       -4.3408
   2       -1.7788
   3       -1.7788
   4       -1.7763
   5       -1.5339
   6       -1.5339
   7       -1.5325
   8        0.1251
   9        0.1351
  10        0.1371
  11        1.3441
  12        1.3497
  13        2.2650
  14        2.2683
  15        2.2683
  16        2.5264
  17        2.5392
  18        2.5392
  19        2.5636
  20        2.5636
  21        2.5659
  22        5.5693
  23        5.5693
  24        5.6803
  25        9.1313
  26        9.2325
  27        9.2325
  28       13.9613
  29       14.0520
  30       14.0522
  31       14.0543
  32       14.0543
 
  0.5555556E-01  0.2777778E-01  0.0000000E+00  0.5144033E-03
   1       -4.3166
   2       -1.7711
   3       -1.7633
   4       -1.7611
   5       -1.5257
   6       -1.5215
   7       -1.5198
   8        0.1151
   9        0.1441
  10        0.1471
  11        1.3335
  12        1.3536
  13        2.2486
  14        2.2510
  15        2.2620
  16        2.4594
  17        2.4690
  18        2.5189
  19        2.5432
  20        2.5635
  21        2.5636
  22        5.3494
  23        5.6573
  24        5.7679
  25        9.1136
  26        9.2158
  27        9.4955
  28       13.8588
  29       14.0017
  30       14.0119
  31       14.0973
  32       14.1006
 
  0.8333333E-01  0.2777778E-01  0.0000000E+00  0.5144033E-03
   1       -4.2762
   2       -1.7585
   3       -1.7378
   4       -1.7360
   5       -1.5120
   6       -1.5007
   7       -1.4987
   8        0.0970
   9        0.1606
  10        0.1637
  11        1.3144
  12        1.3617
  13        2.2211
  14        2.2214
  15        2.2513
  16        2.3523
  17        2.3617
  18        2.4857
  19        2.5097
  20        2.5629
  21        2.5637
  22        5.0368
  23        5.7954
  24        5.9060
  25        9.0846
  26        9.1888
  27        9.8801
  28       13.7340
  29       13.9189
  30       13.9461
  31       14.0796
  32       14.1800
 
  0.1111111E+00  0.2777778E-01  0.0000000E+00  0.5144033E-03
   1       -4.2200
   2       -1.7416
   3       -1.7024
   4       -1.7012
   5       -1.4930
   6       -1.4716
   7       -1.4692
   8        0.0717
   9        0.1840
  10        0.1869
  11        1.2878
  12        1.3732
  13        2.1693
  14        2.1837
  15        2.2151
  16        2.2361
  17        2.2361
  18        2.4404
  19        2.4637
  20        2.5628
  21        2.5637
  22        4.6722
  23        5.9740
  24        6.0856
  25        9.0455
  26        9.1525
  27       10.3459
  28       13.5910
  29       13.8052
  30       13.8627
  31       14.0326
  32       14.2870
 
  0.1388889E+00  0.2777778E-01  0.0000000E+00  0.5144033E-03
   1       -4.1480
   2       -1.7210
   3       -1.6576
   4       -1.6572
   5       -1.4687
   6       -1.4342
   7       -1.4312
   8        0.0396
   9        0.2139
  10        0.2166
  11        1.2544
  12        1.3878
  13        2.0442
  14        2.0566
  15        2.1359
  16        2.1525
  17        2.2158
  18        2.3845
  19        2.4061
  20        2.5628
  21        2.5638
  22        4.2829
  23        6.1841
  24        6.2982
  25        8.9976
  26        9.1086
  27       10.8666
  28       13.4331
  29       13.6626
  30       13.7681
  31       13.9604
  32       14.4251
 
  0.1666667E+00  0.2777778E-01  0.0000000E+00  0.5144033E-03
   1       -4.0606
   2       -1.6978
   3       -1.6046
   4       -1.6041
   5       -1.4392
   6       -1.3885
   7       -1.3849
   8        0.0011
   9        0.2505
  10        0.2528
  11        1.2146
  12        1.4056
  13        1.8748
  14        1.8838
  15        2.0784
  16        2.0898
  17        2.1885
  18        2.3206
  19        2.3381
  20        2.5628
  21        2.5639
  22        3.8856
  23        6.4182
  24        6.5367
  25        8.9425
  26        9.0591
  27       11.4261
  28       13.2622
  29       13.4934
  30       13.6682
  31       13.8687
  32       14.5912
 
  0.1944444E+00  0.2777778E-01  0.0000000E+00  0.5144033E-03
   1       -3.9581
   2       -1.6733
   3       -1.5442
   4       -1.5425
   5       -1.4046
   6       -1.3346
   7       -1.3302
   8       -0.0433
   9        0.2934
  10        0.2952
  11        1.1692
  12        1.4263
  13        1.6933
  14        1.7021
  15        2.0122
  16        2.0217
  17        2.1493
  18        2.2544
  19        2.2607
  20        2.5629
  21        2.5639
  22        3.4917
  23        6.6698
  24        6.7955
  25        8.8821
  26        9.0066
  27       12.0147
  28       13.0787
  29       13.3000
  30       13.5679
  31       13.7641
  32       14.7845
 
  0.2222222E+00  0.2777778E-01  0.0000000E+00  0.5144033E-03
   1       -3.8410
   2       -1.6493
   3       -1.4767
   4       -1.4739
   5       -1.3653
   6       -1.2725
   7       -1.2673
   8       -0.0932
   9        0.3427
  10        0.3438
  11        1.1191
  12        1.4499
  13        1.5065
  14        1.5156
  15        1.9381
  16        1.9467
  17        2.0876
  18        2.1753
  19        2.1969
  20        2.5631
  21        2.5640
  22        3.1096
  23        6.9337
  24        7.0703
  25        8.8183
  26        8.9542
  27       12.6261
  28       12.8819
  29       13.0849
  30       13.4712
  31       13.6536
  32       15.0016
 
  0.2500000E+00  0.2777778E-01  0.0000000E+00  0.5144033E-03
   1       -3.7101
   2       -1.6278
   3       -1.4034
   4       -1.3994
   5       -1.3213
   6       -1.2022
   7       -1.1963
   8       -0.1480
   9        0.3982
  10        0.3984
  11        1.0655
  12        1.3178
  13        1.3273
  14        1.4762
  15        1.8575
  16        1.8655
  17        1.9989
  18        2.0831
  19        2.1514
  20        2.5632
  21        2.5641
  22        2.7476
  23        7.2046
  24        7.3578
  25        8.7533
  26        8.9059
  27       12.6708
  28       12.8504
  29       13.2559
  30       13.3806
  31       13.5433
  32       15.2429
 
  0.2777778E+00  0.2777778E-01  0.0000000E+00  0.5144033E-03
   1       -3.5659
   2       -1.6120
   3       -1.3255
   4       -1.3206
   5       -1.2729
   6       -1.1237
   7       -1.1174
   8       -0.2072
   9        0.4586
  10        0.4598
  11        1.0097
  12        1.1297
  13        1.1394
  14        1.5050
  15        1.7721
  16        1.7796
  17        1.8864
  18        1.9854
  19        2.1096
  20        2.4175
  21        2.5634
  22        2.5642
  23        7.4763
  24        7.6554
  25        8.6890
  26        8.8674
  27       12.4445
  28       12.5990
  29       13.2983
  30       13.4387
  31       13.9003
  32       15.5055
 
  0.3055556E+00  0.2777778E-01  0.0000000E+00  0.5144033E-03
   1       -3.4096
   2       -1.6053
   3       -1.2448
   4       -1.2394
   5       -1.2204
   6       -1.0372
   7       -1.0307
   8       -0.2701
   9        0.5237
  10        0.5272
  11        0.9438
  12        0.9536
  13        0.9537
  14        1.5361
  15        1.6839
  16        1.6909
  17        1.7440
  18        1.8835
  19        2.0525
  20        2.1509
  21        2.5635
  22        2.5643
  23        7.7393
  24        7.9611
  25        8.6273
  26        8.8480
  27       12.2029
  28       12.3327
  29       13.2252
  30       13.3431
  31       14.5554
  32       15.7883
 
  0.3333333E+00  0.2777778E-01  0.0000000E+00  0.5144033E-03
   1       -3.2426
   2       -1.6122
   3       -1.1641
   4       -1.1635
   5       -1.1579
   6       -0.9426
   7       -0.9366
   8       -0.3362
   9        0.5926
  10        0.6002
  11        0.7614
  12        0.7711
  13        0.9005
  14        1.5603
  15        1.5694
  16        1.5957
  17        1.6021
  18        1.7785
  19        1.8933
  20        2.0524
  21        2.5637
  22        2.5643
  23        7.9761
  24        8.2732
  25        8.5697
  26        8.8653
  27       11.9468
  28       12.0536
  29       13.1623
  30       13.2588
  31       15.2144
  32       16.0909
 
  0.3611111E+00  0.2777778E-01  0.0000000E+00  0.5144033E-03
   1       -3.0665
   2       -1.6377
   3       -1.1042
   4       -1.0843
   5       -1.0791
   6       -0.8400
   7       -0.8352
   8       -0.4049
   9        0.5835
  10        0.5929
  11        0.6611
  12        0.6786
  13        0.8561
  14        1.3514
  15        1.5104
  16        1.5162
  17        1.6046
  18        1.6715
  19        1.7372
  20        2.0079
  21        2.5638
  22        2.5644
  23        8.1587
  24        8.5177
  25        8.5902
  26        8.9473
  27       11.6778
  28       11.7635
  29       13.1097
  30       13.1867
  31       15.8599
  32       16.4068
 
  0.3888889E+00  0.2777778E-01  0.0000000E+00  0.5144033E-03
   1       -2.8835
   2       -1.6866
   3       -1.0411
   4       -1.0107
   5       -1.0063
   6       -0.7295
   7       -0.7264
   8       -0.4755
   9        0.4109
  10        0.4198
  11        0.7117
  12        0.7622
  13        0.8407
  14        1.1527
  15        1.4319
  16        1.4369
  17        1.5636
  18        1.6060
  19        1.6415
  20        1.9664
  21        2.5640
  22        2.5644
  23        8.2669
  24        8.4722
  25        8.9109
  26        9.1140
  27       11.3978
  28       11.4643
  29       13.0679
  30       13.1270
  31       16.4430
  32       16.7387
 
  0.4166667E+00  0.2777778E-01  0.0000000E+00  0.5144033E-03
   1       -2.6966
   2       -1.7628
   3       -0.9753
   4       -0.9467
   5       -0.9435
   6       -0.6113
   7       -0.6102
   8       -0.5475
   9        0.2442
  10        0.2524
  11        0.7153
  12        0.8505
  13        0.8865
  14        0.9854
  15        1.3644
  16        1.3683
  17        1.4556
  18        1.4864
  19        1.6798
  20        1.9251
  21        2.5641
  22        2.5644
  23        8.3169
  24        8.4340
  25        9.2339
  26        9.3492
  27       11.1089
  28       11.1575
  29       13.0367
  30       13.0796
  31       16.9111
  32       17.0833
 
  0.4444444E+00  0.2777778E-01  0.0000000E+00  0.5144033E-03
   1       -2.5096
   2       -1.8679
   3       -0.9071
   4       -0.8967
   5       -0.8946
   6       -0.6202
   7       -0.4864
   8       -0.4854
   9        0.0839
  10        0.0912
  11        0.7020
  12        0.8577
  13        0.9432
  14        0.9675
  15        1.3121
  16        1.3148
  17        1.3486
  18        1.3731
  19        1.7193
  20        1.8837
  21        2.5642
  22        2.5644
  23        8.3386
  24        8.4034
  25        9.5581
  26        9.6221
  27       10.8133
  28       10.8446
  29       13.0163
  30       13.0442
  31       17.3100
  32       17.4387
 
  0.4722222E+00  0.2777778E-01  0.0000000E+00  0.5144033E-03
   1       -2.3272
   2       -2.0001
   3       -0.8645
   4       -0.8635
   5       -0.8370
   6       -0.6931
   7       -0.3550
   8       -0.3520
   9       -0.0696
  10       -0.0635
  11        0.6997
  12        0.7705
  13        1.0399
  14        1.0605
  15        1.2432
  16        1.2643
  17        1.2790
  18        1.2805
  19        1.7597
  20        1.8421
  21        2.5643
  22        2.5644
  23        8.3511
  24        8.3802
  25        9.8825
  26        9.9132
  27       10.5135
  28       10.5269
  29       13.0067
  30       13.0205
  31       17.6875
  32       17.8026
 
  0.5000000E+00  0.2777778E-01  0.0000000E+00  0.2572016E-03
   1       -2.1553
   2       -2.1553
   3       -0.8531
   4       -0.8531
   5       -0.7655
   6       -0.7655
   7       -0.2160
   8       -0.2160
   9       -0.2113
  10       -0.2113
  11        0.7199
  12        0.7199
  13        1.1400
  14        1.1400
  15        1.1600
  16        1.1600
  17        1.2682
  18        1.2682
  19        1.8007
  20        1.8007
  21        2.5644
  22        2.5644
  23        8.3635
  24        8.3635
  25       10.2058
  26       10.2058
  27       10.2122
  28       10.2122
  29       13.0080
  30       13.0080
  31       18.0578
  32       18.0612
 
  0.5555556E-01  0.5555556E-01  0.0000000E+00  0.2572016E-03
   1       -4.2924
   2       -1.7556
   3       -1.7556
   4       -1.7466
   5       -1.5133
   6       -1.5133
   7       -1.5066
   8        0.1093
   9        0.1489
  10        0.1568
  11        1.3291
  12        1.3516
  13        2.2325
  14        2.2420
  15        2.2420
  16        2.4042
  17        2.4501
  18        2.4501
  19        2.5432
  20        2.5432
  21        2.5524
  22        5.4362
  23        5.4362
  24        5.8525
  25        9.0950
  26        9.4801
  27        9.4801
  28       13.7064
  29       14.0489
  30       14.0489
  31       14.0596
  32       14.0596
 
  0.8333333E-01  0.5555556E-01  0.0000000E+00  0.5144033E-03
   1       -4.2522
   2       -1.7429
   3       -1.7299
   4       -1.7227
   5       -1.4997
   6       -1.4926
   7       -1.4847
   8        0.0940
   9        0.1628
  10        0.1730
  11        1.3133
  12        1.3570
  13        2.2040
  14        2.2058
  15        2.2262
  16        2.3072
  17        2.3494
  18        2.4196
  19        2.5097
  20        2.5432
  21        2.5460
  22        5.1238
  23        5.5716
  24        5.9864
  25        9.0647
  26        9.4553
  27        9.8649
  28       13.5388
  29       13.9657
  30       13.9942
  31       14.1269
  32       14.1387
 
  0.1111111E+00  0.5555556E-01  0.0000000E+00  0.5144033E-03
   1       -4.1961
   2       -1.7259
   3       -1.6944
   4       -1.6896
   5       -1.4808
   6       -1.4636
   7       -1.4540
   8        0.0702
   9        0.1850
  10        0.1955
  11        1.2881
  12        1.3679
  13        2.1288
  14        2.1688
  15        2.1777
  16        2.2022
  17        2.2459
  18        2.3796
  19        2.4636
  20        2.5429
  21        2.5432
  22        4.7615
  23        5.7453
  24        6.1613
  25        9.0236
  26        9.4226
  27       10.3291
  28       13.3605
  29       13.8515
  30       13.9117
  31       14.2250
  32       14.2352
 
  0.1388889E+00  0.5555556E-01  0.0000000E+00  0.5144033E-03
   1       -4.1244
   2       -1.7052
   3       -1.6495
   4       -1.6477
   5       -1.4566
   6       -1.4264
   7       -1.4146
   8        0.0390
   9        0.2143
  10        0.2242
  11        1.2556
  12        1.3828
  13        1.9951
  14        2.0254
  15        2.1218
  16        2.1671
  17        2.1703
  18        2.3333
  19        2.4060
  20        2.5414
  21        2.5432
  22        4.3768
  23        5.9476
  24        6.3693
  25        8.9731
  26        9.3837
  27       10.8461
  28       13.1754
  29       13.7083
  30       13.8185
  31       14.2017
  32       14.3724
 
  0.1666667E+00  0.5555556E-01  0.0000000E+00  0.5144033E-03
   1       -4.0373
   2       -1.6818
   3       -1.5976
   4       -1.5958
   5       -1.4273
   6       -1.3810
   7       -1.3665
   8        0.0012
   9        0.2505
  10        0.2592
  11        1.2167
  12        1.4012
  13        1.8288
  14        1.8578
  15        2.0654
  16        2.1044
  17        2.1166
  18        2.2852
  19        2.3379
  20        2.5407
  21        2.5432
  22        3.9870
  23        6.1704
  24        6.6035
  25        8.9147
  26        9.3412
  27       11.3998
  28       12.9856
  29       13.5384
  30       13.7208
  31       14.1498
  32       14.5392
 
  0.1944444E+00  0.5555556E-01  0.0000000E+00  0.5144033E-03
   1       -3.9351
   2       -1.6570
   3       -1.5399
   4       -1.5340
   5       -1.3930
   6       -1.3273
   7       -1.3100
   8       -0.0426
   9        0.2933
  10        0.3001
  11        1.1724
  12        1.4227
  13        1.6494
  14        1.6805
  15        2.0002
  16        2.0349
  17        2.0470
  18        2.2392
  19        2.2605
  20        2.5403
  21        2.5432
  22        3.6038
  23        6.4067
  24        6.8585
  25        8.8504
  26        9.2984
  27       11.9801
  28       12.7922
  29       13.3444
  30       13.6236
  31       14.0742
  32       14.7293
 
  0.2222222E+00  0.5555556E-01  0.0000000E+00  0.5144033E-03
   1       -3.8185
   2       -1.6327
   3       -1.4753
   4       -1.4650
   5       -1.3539
   6       -1.2654
   7       -1.2454
   8       -0.0919
   9        0.3425
  10        0.3466
  11        1.1237
  12        1.4473
  13        1.4642
  14        1.4978
  15        1.9273
  16        1.9570
  17        1.9594
  18        2.1750
  19        2.1955
  20        2.5402
  21        2.5432
  22        3.2368
  23        6.6507
  24        7.1299
  25        8.7822
  26        9.2589
  27       12.5800
  28       12.5953
  29       13.1286
  30       13.5307
  31       13.9810
  32       14.9451
 
  0.2500000E+00  0.5555556E-01  0.0000000E+00  0.5144033E-03
   1       -3.6880
   2       -1.6110
   3       -1.4047
   4       -1.3902
   5       -1.3102
   6       -1.1954
   7       -1.1730
   8       -0.1462
   9        0.3979
  10        0.3984
  11        1.0720