       N       E                     dE             d eps       ncg     rms          rms(c)
DAV:   1     0.592049373186E+03    0.59205E+03   -0.31197E+04 85120   0.228E+03
DAV:   2     0.678900274521E+01   -0.58526E+03   -0.54062E+03 85152   0.499E+02
DAV:   3    -0.137288001268E+02   -0.20518E+02   -0.20072E+02100496   0.112E+02
DAV:   4    -0.139364469202E+02   -0.20765E+00   -0.20749E+00 92240   0.967E+00
DAV:   5    -0.139382486352E+02   -0.18017E-02   -0.18015E-02102208   0.849E-01    0.556E+00
DAV:   6    -0.130371951903E+02    0.90105E+00   -0.20980E+00 96224   0.133E+01    0.139E+00
DAV:   7    -0.129931179655E+02    0.44077E-01   -0.11498E-01 99200   0.243E+00    0.616E-01
DAV:   8    -0.129847222281E+02    0.83957E-02   -0.68665E-03 91440   0.746E-01    0.447E-02
DAV:   9    -0.129848167020E+02   -0.94474E-04   -0.28466E-04101904   0.129E-01    0.280E-02
DAV:  10    -0.129848137472E+02    0.29548E-05   -0.27934E-05 94584   0.346E-02    0.220E-03
DAV:  11    -0.129848150026E+02   -0.12555E-05   -0.63127E-07100408   0.547E-03    0.809E-04
DAV:  12    -0.129848145134E+02    0.48927E-06   -0.39808E-08 92840   0.172E-03    0.114E-04
DAV:  13    -0.129848144491E+02    0.64261E-07   -0.97371E-10 62400   0.239E-04    0.208E-05
DAV:  14    -0.129848144606E+02   -0.11484E-07   -0.12456E-10 55448   0.914E-05    0.510E-06
DAV:  15    -0.129848144582E+02    0.23538E-08   -0.13340E-11 54944   0.284E-05
   1 F= -.12984814E+02 E0= -.12984779E+02  d E =-.706302E-04
