   4   4   0   0
  0.2149401E+02  0.4413595E-09  0.4413595E-09  0.4413595E-09  0.5000000E-15
  1.000000000000000E-004
  CAR 
 unknown system                          
     17.83588443     -5.57908456  301      1.76557168      1.00000000
     -5.579  0.0000E+00  0.0000E+00
     -5.501  0.0000E+00  0.0000E+00
     -5.423  0.0000E+00  0.0000E+00
     -5.345  0.0000E+00  0.0000E+00
     -5.267  0.0000E+00  0.0000E+00
     -5.189  0.0000E+00  0.0000E+00
     -5.111  0.0000E+00  0.0000E+00
     -5.033  0.0000E+00  0.0000E+00
     -4.955  0.0000E+00  0.0000E+00
     -4.877  0.0000E+00  0.0000E+00
     -4.799  0.0000E+00  0.0000E+00
     -4.721  0.0000E+00  0.0000E+00
     -4.642  0.0000E+00  0.0000E+00
     -4.564  0.5939E-15  0.4635E-16
     -4.486  0.1965E-01  0.1534E-02
     -4.408  0.1224E+00  0.1114E-01
     -4.330  0.1949E+00  0.2643E-01
     -4.252  0.2255E+00  0.4455E-01
     -4.174  0.2862E+00  0.6708E-01
     -4.096  0.3113E+00  0.9196E-01
     -4.018  0.4011E+00  0.1233E+00
     -3.940  0.4121E+00  0.1560E+00
     -3.862  0.4210E+00  0.1899E+00
     -3.784  0.5061E+00  0.2297E+00
     -3.706  0.5791E+00  0.2759E+00
     -3.628  0.5558E+00  0.3212E+00
     -3.550  0.7303E+00  0.3796E+00
     -3.472  0.8755E+00  0.4490E+00
     -3.394  0.3910E+01  0.7557E+00
     -3.316  0.9118E+01  0.1479E+01
     -3.238  0.1206E+02  0.2441E+01
     -3.160  0.1536E+02  0.3668E+01
     -3.081  0.2097E+02  0.5337E+01
     -3.003  0.1987E+02  0.6932E+01
     -2.925  0.1653E+02  0.8259E+01
     -2.847  0.1424E+02  0.9400E+01
     -2.769  0.1145E+02  0.1032E+02
     -2.691  0.1317E+02  0.1137E+02
     -2.613  0.1592E+02  0.1264E+02
     -2.535  0.1722E+02  0.1402E+02
     -2.457  0.1543E+02  0.1526E+02
     -2.379  0.1486E+02  0.1645E+02
     -2.301  0.1828E+02  0.1791E+02
     -2.223  0.2585E+02  0.1996E+02
     -2.145  0.2305E+02  0.2183E+02
     -2.067  0.1649E+02  0.2316E+02
     -1.989  0.1358E+02  0.2425E+02
     -1.911  0.1657E+02  0.2558E+02
     -1.833  0.1824E+02  0.2704E+02
     -1.755  0.1871E+02  0.2854E+02
     -1.677  0.2044E+02  0.3017E+02
     -1.599  0.1751E+02  0.3157E+02
     -1.520  0.1601E+02  0.3285E+02
     -1.442  0.1555E+02  0.3410E+02
     -1.364  0.1640E+02  0.3541E+02
     -1.286  0.1873E+02  0.3691E+02
     -1.208  0.2793E+02  0.3912E+02
     -1.130  0.1762E+02  0.4055E+02
     -1.052  0.7354E+01  0.4115E+02
     -0.974  0.7793E+00  0.4121E+02
     -0.896  0.1079E+01  0.4130E+02
     -0.818  0.8863E+00  0.4137E+02
     -0.740  0.9001E+00  0.4144E+02
     -0.662  0.9984E+00  0.4152E+02
     -0.584  0.8639E+00  0.4159E+02
     -0.506  0.9468E+00  0.4167E+02
     -0.428  0.9088E+00  0.4174E+02
     -0.350  0.8384E+00  0.4181E+02
     -0.272  0.9434E+00  0.4188E+02
     -0.194  0.8199E+00  0.4195E+02
     -0.116  0.1035E+01  0.4203E+02
     -0.038  0.8747E+00  0.4210E+02
      0.041  0.9676E+00  0.4218E+02
      0.119  0.9458E+00  0.4226E+02
      0.197  0.8444E+00  0.4232E+02
      0.275  0.1003E+01  0.4241E+02
      0.353  0.9781E+00  0.4248E+02
      0.431  0.9443E+00  0.4256E+02
      0.509  0.1050E+01  0.4264E+02
      0.587  0.8301E+00  0.4271E+02
      0.665  0.1080E+01  0.4280E+02
      0.743  0.9942E+00  0.4288E+02
      0.821  0.9496E+00  0.4295E+02
      0.899  0.1056E+01  0.4304E+02
      0.977  0.1034E+01  0.4312E+02
      1.055  0.9532E+00  0.4320E+02
      1.133  0.1193E+01  0.4329E+02
      1.211  0.9656E+00  0.4337E+02
      1.289  0.1023E+01  0.4345E+02
      1.367  0.1124E+01  0.4354E+02
      1.445  0.1156E+01  0.4364E+02
      1.523  0.9502E+00  0.4371E+02
      1.602  0.1249E+01  0.4381E+02
      1.680  0.1098E+01  0.4390E+02
      1.758  0.1169E+01  0.4399E+02
      1.836  0.1193E+01  0.4409E+02
      1.914  0.1217E+01  0.4419E+02
      1.992  0.1173E+01  0.4428E+02
      2.070  0.1266E+01  0.4438E+02
      2.148  0.1253E+01  0.4448E+02
      2.226  0.1159E+01  0.4457E+02
      2.304  0.1263E+01  0.4467E+02
      2.382  0.1182E+01  0.4477E+02
      2.460  0.1292E+01  0.4487E+02
      2.538  0.1132E+01  0.4496E+02
      2.616  0.1322E+01  0.4506E+02
      2.694  0.1131E+01  0.4516E+02
      2.772  0.1186E+01  0.4525E+02
      2.850  0.1032E+01  0.4534E+02
      2.928  0.1187E+01  0.4543E+02
      3.006  0.1155E+01  0.4552E+02
      3.084  0.1131E+01  0.4561E+02
      3.163  0.1234E+01  0.4571E+02
      3.241  0.1096E+01  0.4580E+02
      3.319  0.1065E+01  0.4589E+02
      3.397  0.1117E+01  0.4598E+02
      3.475  0.1106E+01  0.4607E+02
      3.553  0.1257E+01  0.4617E+02
      3.631  0.1091E+01  0.4626E+02
      3.709  0.1149E+01  0.4635E+02
      3.787  0.1055E+01  0.4643E+02
      3.865  0.1124E+01  0.4652E+02
      3.943  0.1030E+01  0.4660E+02
      4.021  0.9670E+00  0.4668E+02
      4.099  0.1075E+01  0.4677E+02
      4.177  0.1023E+01  0.4685E+02
      4.255  0.9221E+00  0.4692E+02
      4.333  0.1337E+01  0.4703E+02
      4.411  0.1521E+01  0.4715E+02
      4.489  0.1518E+01  0.4727E+02
      4.567  0.1356E+01  0.4738E+02
      4.645  0.1451E+01  0.4750E+02
      4.724  0.1573E+01  0.4762E+02
      4.802  0.1497E+01  0.4774E+02
      4.880  0.1355E+01  0.4785E+02
      4.958  0.1598E+01  0.4798E+02
      5.036  0.1446E+01  0.4809E+02
      5.114  0.1431E+01  0.4821E+02
      5.192  0.1382E+01  0.4832E+02
      5.270  0.1350E+01  0.4843E+02
      5.348  0.1523E+01  0.4855E+02
      5.426  0.1243E+01  0.4865E+02
      5.504  0.1366E+01  0.4876E+02
      5.582  0.1303E+01  0.4887E+02
      5.660  0.1486E+01  0.4898E+02
      5.738  0.1164E+01  0.4908E+02
      5.816  0.1351E+01  0.4919E+02
      5.894  0.1342E+01  0.4929E+02
      5.972  0.1381E+01  0.4940E+02
      6.050  0.1159E+01  0.4950E+02
      6.128  0.1259E+01  0.4960E+02
      6.206  0.1398E+01  0.4971E+02
      6.284  0.1193E+01  0.4981E+02
      6.363  0.1232E+01  0.4991E+02
      6.441  0.1415E+01  0.5002E+02
      6.519  0.1029E+01  0.5010E+02
      6.597  0.1236E+01  0.5020E+02
      6.675  0.1288E+01  0.5031E+02
      6.753  0.1240E+01  0.5040E+02
      6.831  0.1261E+01  0.5051E+02
      6.909  0.1492E+01  0.5062E+02
      6.987  0.1868E+01  0.5077E+02
      7.065  0.1999E+01  0.5093E+02
      7.143  0.1380E+01  0.5105E+02
      7.221  0.1762E+01  0.5119E+02
      7.299  0.1724E+01  0.5133E+02
      7.377  0.1209E+01  0.5142E+02
      7.455  0.1187E+01  0.5152E+02
      7.533  0.1680E+01  0.5165E+02
      7.611  0.1644E+01  0.5178E+02
      7.689  0.1928E+01  0.5194E+02
      7.767  0.1669E+01  0.5207E+02
      7.845  0.1461E+01  0.5219E+02
      7.924  0.2063E+01  0.5235E+02
      8.002  0.1933E+01  0.5251E+02
      8.080  0.1909E+01  0.5266E+02
      8.158  0.1501E+01  0.5278E+02
      8.236  0.1557E+01  0.5291E+02
      8.314  0.1875E+01  0.5306E+02
      8.392  0.2026E+01  0.5322E+02
      8.470  0.1812E+01  0.5336E+02
      8.548  0.1616E+01  0.5349E+02
      8.626  0.1594E+01  0.5362E+02
      8.704  0.1752E+01  0.5376E+02
      8.782  0.1732E+01  0.5390E+02
      8.860  0.2170E+01  0.5407E+02
      8.938  0.1581E+01  0.5420E+02
      9.016  0.1628E+01  0.5433E+02
      9.094  0.2123E+01  0.5450E+02
      9.172  0.1658E+01  0.5463E+02
      9.250  0.1857E+01  0.5478E+02
      9.328  0.1955E+01  0.5494E+02
      9.406  0.1773E+01  0.5508E+02
      9.485  0.2099E+01  0.5525E+02
      9.563  0.1794E+01  0.5539E+02
      9.641  0.1819E+01  0.5553E+02
      9.719  0.1819E+01  0.5568E+02
      9.797  0.1835E+01  0.5583E+02
      9.875  0.2271E+01  0.5601E+02
      9.953  0.2067E+01  0.5617E+02
     10.031  0.1901E+01  0.5632E+02
     10.109  0.1761E+01  0.5646E+02
     10.187  0.2105E+01  0.5663E+02
     10.265  0.1724E+01  0.5677E+02
     10.343  0.2205E+01  0.5694E+02
     10.421  0.2459E+01  0.5714E+02
     10.499  0.1843E+01  0.5729E+02
     10.577  0.1959E+01  0.5744E+02
     10.655  0.2094E+01  0.5761E+02
     10.733  0.1819E+01  0.5776E+02
     10.811  0.2363E+01  0.5794E+02
     10.889  0.2290E+01  0.5813E+02
     10.967  0.2207E+01  0.5830E+02
     11.046  0.2179E+01  0.5848E+02
     11.124  0.1991E+01  0.5864E+02
     11.202  0.2260E+01  0.5882E+02
     11.280  0.2298E+01  0.5901E+02
     11.358  0.2589E+01  0.5921E+02
     11.436  0.2076E+01  0.5938E+02
     11.514  0.2510E+01  0.5958E+02
     11.592  0.2300E+01  0.5976E+02
     11.670  0.1996E+01  0.5992E+02
     11.748  0.2348E+01  0.6011E+02
     11.826  0.2005E+01  0.6027E+02
     11.904  0.2205E+01  0.6045E+02
     11.982  0.1931E+01  0.6060E+02
     12.060  0.2220E+01  0.6078E+02
     12.138  0.1745E+01  0.6092E+02
     12.216  0.2029E+01  0.6108E+02
     12.294  0.2084E+01  0.6125E+02
     12.372  0.1797E+01  0.6140E+02
     12.450  0.1735E+01  0.6154E+02
     12.528  0.1671E+01  0.6167E+02
     12.607  0.1630E+01  0.6180E+02
     12.685  0.1782E+01  0.6194E+02
     12.763  0.1334E+01  0.6205E+02
     12.841  0.1312E+01  0.6215E+02
     12.919  0.1142E+01  0.6224E+02
     12.997  0.1185E+01  0.6234E+02
     13.075  0.1206E+01  0.6243E+02
     13.153  0.7675E+00  0.6250E+02
     13.231  0.1228E+01  0.6259E+02
     13.309  0.8644E+00  0.6266E+02
     13.387  0.8945E+00  0.6273E+02
     13.465  0.9674E+00  0.6281E+02
     13.543  0.7269E+00  0.6287E+02
     13.621  0.7982E+00  0.6293E+02
     13.699  0.8681E+00  0.6301E+02
     13.777  0.5783E+00  0.6305E+02
     13.855  0.6107E+00  0.6310E+02
     13.933  0.8639E+00  0.6317E+02
     14.011  0.4355E+00  0.6321E+02
     14.089  0.5830E+00  0.6325E+02
     14.168  0.5989E+00  0.6330E+02
     14.246  0.5279E+00  0.6335E+02
     14.324  0.3103E+00  0.6337E+02
     14.402  0.7180E+00  0.6343E+02
     14.480  0.2846E+00  0.6345E+02
     14.558  0.4219E+00  0.6349E+02
     14.636  0.4558E+00  0.6352E+02
     14.714  0.3554E+00  0.6355E+02
     14.792  0.3855E+00  0.6358E+02
     14.870  0.3429E+00  0.6361E+02
     14.948  0.3322E+00  0.6364E+02
     15.026  0.2922E+00  0.6366E+02
     15.104  0.3046E+00  0.6369E+02
     15.182  0.2709E+00  0.6371E+02
     15.260  0.2920E+00  0.6373E+02
     15.338  0.3040E+00  0.6376E+02
     15.416  0.2662E+00  0.6378E+02
     15.494  0.2000E+00  0.6379E+02
     15.572  0.2548E+00  0.6381E+02
     15.650  0.1989E+00  0.6383E+02
     15.729  0.1956E+00  0.6384E+02
     15.807  0.2297E+00  0.6386E+02
     15.885  0.1586E+00  0.6388E+02
     15.963  0.2022E+00  0.6389E+02
     16.041  0.1047E+00  0.6390E+02
     16.119  0.1544E+00  0.6391E+02
     16.197  0.2338E+00  0.6393E+02
     16.275  0.6069E-01  0.6394E+02
     16.353  0.2076E+00  0.6395E+02
     16.431  0.6856E-01  0.6396E+02
     16.509  0.1661E+00  0.6397E+02
     16.587  0.9526E-01  0.6398E+02
     16.665  0.1391E+00  0.6399E+02
     16.743  0.1072E+00  0.6400E+02
     16.821  0.4394E-02  0.6400E+02
     16.899  0.0000E+00  0.6400E+02
     16.977  0.0000E+00  0.6400E+02
     17.055  0.0000E+00  0.6400E+02
     17.133  0.0000E+00  0.6400E+02
     17.211  0.0000E+00  0.6400E+02
     17.290  0.0000E+00  0.6400E+02
     17.368  0.0000E+00  0.6400E+02
     17.446  0.0000E+00  0.6400E+02
     17.524  0.0000E+00  0.6400E+02
     17.602  0.0000E+00  0.6400E+02
     17.680  0.0000E+00  0.6400E+02
     17.758  0.0000E+00  0.6400E+02
     17.836  0.0000E+00  0.6400E+02
