    4    4    1    1
  0.2149401E+02  0.4413595E-09  0.4413595E-09  0.4413595E-09  0.5000000E-15
  1.000000000000000E-004
  CAR 
 unknown system                          
   44 1330   32
 
  0.0000000E+00  0.0000000E+00  0.0000000E+00  0.2143347E-04
   1       -4.5148
   2       -3.4772
   3       -3.4772
   4       -3.4772
   5       -3.4115
   6       -3.4115
   7       -3.4115
   8       -2.4196
   9       -2.4196
  10       -2.4196
  11       -1.7385
  12       -1.7385
  13       -1.2337
  14       -1.2337
  15       -1.2337
  16       -1.0734
  17       -1.0734
  18       -1.0734
  19       -1.0734
  20       -1.0734
  21       -1.0734
  22        3.5248
  23        3.5248
  24        3.5248
  25        6.8547
  26        6.8547
  27        6.8547
  28       11.3258
  29       11.3258
  30       11.3258
  31       11.3258
  32       11.3258
 
  0.2777778E-01  0.0000000E+00  0.0000000E+00  0.1286008E-03
   1       -4.5080
   2       -3.4749
   3       -3.4742
   4       -3.4742
   5       -3.4098
   6       -3.4088
   7       -3.4088
   8       -2.4216
   9       -2.4175
  10       -2.4175
  11       -1.7405
  12       -1.7375
  13       -1.2364
  14       -1.2364
  15       -1.2347
  16       -1.0823
  17       -1.0823
  18       -1.0767
  19       -1.0767
  20       -1.0734
  21       -1.0734
  22        3.4598
  23        3.5397
  24        3.5397
  25        6.8563
  26        6.8563
  27        6.9312
  28       11.2953
  29       11.2953
  30       11.2954
  31       11.2954
  32       11.3367
 
  0.5555556E-01  0.0000000E+00  0.0000000E+00  0.1286008E-03
   1       -4.4878
   2       -3.4678
   3       -3.4650
   4       -3.4650
   5       -3.4045
   6       -3.4007
   7       -3.4007
   8       -2.4277
   9       -2.4115
  10       -2.4115
  11       -1.7466
  12       -1.7348
  13       -1.2443
  14       -1.2443
  15       -1.2377
  16       -1.1086
  17       -1.1086
  18       -1.0866
  19       -1.0866
  20       -1.0734
  21       -1.0734
  22        3.2803
  23        3.5841
  24        3.5841
  25        6.8614
  26        6.8614
  27        7.1454
  28       11.2067
  29       11.2067
  30       11.2076
  31       11.2076
  32       11.3695
 
  0.8333333E-01  0.0000000E+00  0.0000000E+00  0.1286008E-03
   1       -4.4542
   2       -3.4560
   3       -3.4499
   4       -3.4499
   5       -3.3959
   6       -3.3871
   7       -3.3871
   8       -2.4379
   9       -2.4014
  10       -2.4014
  11       -1.7565
  12       -1.7302
  13       -1.2575
  14       -1.2575
  15       -1.2426
  16       -1.1512
  17       -1.1512
  18       -1.1030
  19       -1.1030
  20       -1.0734
  21       -1.0734
  22        3.0200
  23        3.6568
  24        3.6568
  25        6.8698
  26        6.8698
  27        7.4636
  28       11.0662
  29       11.0662
  30       11.0719
  31       11.0719
  32       11.4239
 
  0.1111111E+00  0.0000000E+00  0.0000000E+00  0.1286008E-03
   1       -4.4074
   2       -3.4398
   3       -3.4290
   4       -3.4290
   5       -3.3838
   6       -3.3682
   7       -3.3682
   8       -2.4519
   9       -2.3873
  10       -2.3873
  11       -1.7701
  12       -1.7238
  13       -1.2758
  14       -1.2758
  15       -1.2495
  16       -1.2085
  17       -1.2085
  18       -1.1255
  19       -1.1255
  20       -1.0733
  21       -1.0733
  22        2.7103
  23        3.7562
  24        3.7562
  25        6.8817
  26        6.8817
  27        7.8544
  28       10.8824
  29       10.8824
  30       10.9003
  31       10.9003
  32       11.4996
 
  0.1388889E+00  0.0000000E+00  0.0000000E+00  0.1286008E-03
   1       -4.3477
   2       -3.4193
   3       -3.4027
   4       -3.4027
   5       -3.3684
   6       -3.3439
   7       -3.3439
   8       -2.4698
   9       -2.3693
  10       -2.3693
  11       -1.7870
  12       -1.7156
  13       -1.2989
  14       -1.2989
  15       -1.2786
  16       -1.2786
  17       -1.2582
  18       -1.1540
  19       -1.1540
  20       -1.0733
  21       -1.0733
  22        2.3733
  23        3.8802
  24        3.8802
  25        6.8971
  26        6.8971
  27        8.2957
  28       10.6642
  29       10.6642
  30       10.7046
  31       10.7046
  32       11.5963
 
  0.1666667E+00  0.0000000E+00  0.0000000E+00  0.1286008E-03
   1       -4.2754
   2       -3.3949
   3       -3.3714
   4       -3.3714
   5       -3.3498
   6       -3.3142
   7       -3.3142
   8       -2.4912
   9       -2.3474
  10       -2.3474
  11       -1.8067
  12       -1.7058
  13       -1.3593
  14       -1.3593
  15       -1.3265
  16       -1.3265
  17       -1.2687
  18       -1.1879
  19       -1.1879
  20       -1.0732
  21       -1.0732
  22        2.0231
  23        4.0267
  24        4.0267
  25        6.9160
  26        6.9160
  27        8.7735
  28       10.4196
  29       10.4196
  30       10.4947
  31       10.4947
  32       11.7134
 
  0.1944444E+00  0.0000000E+00  0.0000000E+00  0.1286008E-03
   1       -4.1911
   2       -3.3669
   3       -3.3357
   4       -3.3357
   5       -3.3280
   6       -3.2791
   7       -3.2791
   8       -2.5161
   9       -2.3217
  10       -2.3217
  11       -1.8284
  12       -1.6943
  13       -1.4485
  14       -1.4485
  15       -1.3583
  16       -1.3583
  17       -1.2809
  18       -1.2267
  19       -1.2267
  20       -1.0732
  21       -1.0732
  22        1.6688
  23        4.1935
  24        4.1935
  25        6.9385
  26        6.9385
  27        9.2790
  28       10.1552
  29       10.1552
  30       10.2789
  31       10.2789
  32       11.8504
 
  0.2222222E+00  0.0000000E+00  0.0000000E+00  0.1286008E-03
   1       -4.0955
   2       -3.3357
   3       -3.3033
   4       -3.2960
   5       -3.2960
   6       -3.2388
   7       -3.2388
   8       -2.5442
   9       -2.2922
  10       -2.2922
  11       -1.8514
  12       -1.6813
  13       -1.5442
  14       -1.5442
  15       -1.3936
  16       -1.3936
  17       -1.2947
  18       -1.2701
  19       -1.2701
  20       -1.0731
  21       -1.0731
  22        1.3159
  23        4.3784
  24        4.3784
  25        6.9645
  26        6.9645
  27        9.8065
  28        9.8764
  29        9.8764
  30       10.0635
  31       10.0635
  32       12.0066
 
  0.2500000E+00  0.0000000E+00  0.0000000E+00  0.1286008E-03
   1       -3.9896
   2       -3.3020
   3       -3.2757
   4       -3.2534
   5       -3.2534
   6       -3.1932
   7       -3.1932
   8       -2.5752
   9       -2.2592
  10       -2.2592
  11       -1.8742
  12       -1.6669
  13       -1.6446
  14       -1.6446
  15       -1.4319
  16       -1.4319
  17       -1.3175
  18       -1.3175
  19       -1.3100
  20       -1.0731
  21       -1.0731
  22        0.9683
  23        4.5795
  24        4.5795
  25        6.9938
  26        6.9938
  27        9.5872
  28        9.5872
  29        9.8533
  30        9.8533
  31       10.3524
  32       12.1813
 
  0.2777778E+00  0.0000000E+00  0.0000000E+00  0.1286008E-03
   1       -3.8750
   2       -3.2664
   3       -3.2455
   4       -3.2087
   5       -3.2087
   6       -3.1423
   7       -3.1423
   8       -2.6088
   9       -2.2227
  10       -2.2227
  11       -1.8954
  12       -1.7481
  13       -1.7481
  14       -1.6510
  15       -1.4723
  16       -1.4723
  17       -1.3682
  18       -1.3682
  19       -1.3267
  20       -1.0730
  21       -1.0730
  22        0.6290
  23        4.7951
  24        4.7951
  25        7.0262
  26        7.0262
  27        9.2909
  28        9.2909
  29        9.6523
  30        9.6523
  31       10.9140
  32       12.3738
 
  0.3055556E+00  0.0000000E+00  0.0000000E+00  0.1286008E-03
   1       -3.7536
   2       -3.2298
   3       -3.2128
   4       -3.1630
   5       -3.1630
   6       -3.0863
   7       -3.0863
   8       -2.6448
   9       -2.1829
  10       -2.1829
  11       -1.9125
  12       -1.8533
  13       -1.8533
  14       -1.6340
  15       -1.5139
  16       -1.5139
  17       -1.4217
  18       -1.4217
  19       -1.3446
  20       -1.0730
  21       -1.0730
  22        0.3003
  23        5.0236
  24        5.0236
  25        7.0613
  26        7.0613
  27        8.9901
  28        8.9901
  29        9.4636
  30        9.4636
  31       11.4894
  32       12.5832
 
  0.3333333E+00  0.0000000E+00  0.0000000E+00  0.1286008E-03
   1       -3.6284
   2       -3.1933
   3       -3.1779
   4       -3.1178
   5       -3.1178
   6       -3.0252
   7       -3.0252
   8       -2.6829
   9       -2.1399
  10       -2.1399
  11       -1.9590
  12       -1.9590
  13       -1.9223
  14       -1.6158
  15       -1.5552
  16       -1.5552
  17       -1.4775
  18       -1.4775
  19       -1.3635
  20       -1.0729
  21       -1.0729
  22       -0.0161
  23        5.2636
  24        5.2636
  25        7.0982
  26        7.0982
  27        8.6866
  28        8.6866
  29        9.2902
  30        9.2902
  31       12.0770
  32       12.8087
 
  0.3611111E+00  0.0000000E+00  0.0000000E+00  0.1286008E-03
   1       -3.5036
   2       -3.1584
   3       -3.1410
   4       -3.0746
   5       -3.0746
   6       -2.9591
   7       -2.9591
   8       -2.7226
   9       -2.0940
  10       -2.0940
  11       -2.0643
  12       -2.0643
  13       -1.9205
  14       -1.5966
  15       -1.5950
  16       -1.5950
  17       -1.5349
  18       -1.5349
  19       -1.3834
  20       -1.0729
  21       -1.0729
  22       -0.3180
  23        5.5140
  24        5.5140
  25        7.1357
  26        7.1357
  27        8.3822
  28        8.3822
  29        9.1348
  30        9.1348
  31       12.6754
  32       13.0495
 
  0.3888889E+00  0.0000000E+00  0.0000000E+00  0.1286008E-03
   1       -3.3847
   2       -3.1267
   3       -3.1023
   4       -3.0352
   5       -3.0352
   6       -2.8881
   7       -2.8881
   8       -2.7638
   9       -2.1682
  10       -2.1682
  11       -2.0454
  12       -2.0454
  13       -1.9012
  14       -1.6315
  15       -1.6315
  16       -1.5934
  17       -1.5934
  18       -1.5766
  19       -1.4040
  20       -1.0729
  21       -1.0729
  22       -0.6033
  23        5.7736
  24        5.7736
  25        7.1722
  26        7.1722
  27        8.0781
  28        8.0781
  29        9.0004
  30        9.0004
  31       13.2979
  32       13.3048
 
  0.4166667E+00  0.0000000E+00  0.0000000E+00  0.1286008E-03
   1       -3.2786
   2       -3.1008
   3       -3.0621
   4       -3.0016
   5       -3.0016
   6       -2.8124
   7       -2.8124
   8       -2.8059
   9       -2.2702
  10       -2.2702
  11       -1.9942
  12       -1.9942
  13       -1.8572
  14       -1.6628
  15       -1.6628
  16       -1.6526
  17       -1.6526
  18       -1.5558
  19       -1.4253
  20       -1.0729
  21       -1.0729
  22       -0.8695
  23        6.0415
  24        6.0415
  25        7.2052
  26        7.2052
  27        7.7755
  28        7.7755
  29        8.8903
  30        8.8903
  31       13.5736
  32       13.5736
 
  0.4444444E+00  0.0000000E+00  0.0000000E+00  0.1286008E-03
   1       -3.1921
   2       -3.0838
   3       -3.0207
   4       -2.9757
   5       -2.9757
   6       -2.8488
   7       -2.7320
   8       -2.7320
   9       -2.3695
  10       -2.3695
  11       -1.9408
  12       -1.9408
  13       -1.7814
  14       -1.7118
  15       -1.7118
  16       -1.6869
  17       -1.6869
  18       -1.5345
  19       -1.4469
  20       -1.1134
  21       -1.0728
  22       -1.0728
  23        6.3168
  24        6.3168
  25        7.2321
  26        7.2321
  27        7.4754
  28        7.4754
  29        8.8079
  30        8.8079
  31       13.8551
  32       13.8551
 
  0.4722222E+00  0.0000000E+00  0.0000000E+00  0.1286008E-03
   1       -3.1303
   2       -3.0799
   3       -2.9783
   4       -2.9593
   5       -2.9593
   6       -2.8921
   7       -2.6473
   8       -2.6473
   9       -2.4657
  10       -2.4657
  11       -1.8855
  12       -1.8855
  13       -1.7706
  14       -1.7706
  15       -1.7022
  16       -1.7022
  17       -1.6685
  18       -1.5128
  19       -1.4688
  20       -1.3310
  21       -1.0728
  22       -1.0728
  23        6.5986
  24        6.5986
  25        7.1787
  26        7.1787
  27        7.2498
  28        7.2498
  29        8.7568
  30        8.7568
  31       14.1483
  32       14.1483
 
  0.5000000E+00  0.0000000E+00  0.0000000E+00  0.6430041E-04
   1       -3.0938
   2       -3.0938
   3       -2.9537
   4       -2.9537
   5       -2.9353
   6       -2.9353
   7       -2.5584
   8       -2.5584
   9       -2.5584
  10       -2.5584
  11       -1.8287
  12       -1.8287
  13       -1.8287
  14       -1.8287
  15       -1.7074
  16       -1.7074
  17       -1.5175
  18       -1.5175
  19       -1.4908
  20       -1.4908
  21       -1.0728
  22       -1.0728
  23        6.8862
  24        6.8862
  25        6.8862
  26        6.8862
  27        7.2560
  28        7.2560
  29        8.7394
  30        8.7394
  31       14.4524
  32       14.4524
 
  0.2777778E-01  0.2777778E-01  0.0000000E+00  0.2572016E-03
   1       -4.5013
   2       -3.4718
   3       -3.4718
   4       -3.4712
   5       -3.4071
   6       -3.4071
   7       -3.4060
   8       -2.4224
   9       -2.4168
  10       -2.4155
  11       -1.7410
  12       -1.7381
  13       -1.2390
  14       -1.2375
  15       -1.2375
  16       -1.0888
  17       -1.0855
  18       -1.0855
  19       -1.0767
  20       -1.0767
  21       -1.0757
  22        3.4745
  23        3.4745
  24        3.5546
  25        6.8580
  26        6.9331
  27        6.9331
  28       11.1865
  29       11.3062
  30       11.3062
  31       11.3063
  32       11.3063
 
  0.5555556E-01  0.2777778E-01  0.0000000E+00  0.5144033E-03
   1       -4.4811
   2       -3.4647
   3       -3.4626
   4       -3.4623
   5       -3.4018
   6       -3.3989
   7       -3.3976
   8       -2.4278
   9       -2.4114
  10       -2.4095
  11       -1.7465
  12       -1.7358
  13       -1.2470
  14       -1.2458
  15       -1.2407
  16       -1.1137
  17       -1.1115
  18       -1.0951
  19       -1.0866
  20       -1.0769
  21       -1.0767
  22        3.2946
  23        3.5183
  24        3.5988
  25        6.8630
  26        6.9387
  27        7.1476
  28       11.0287
  29       11.2175
  30       11.2183
  31       11.3375
  32       11.3388
 
  0.8333333E-01  0.2777778E-01  0.0000000E+00  0.5144033E-03
   1       -4.4475
   2       -3.4529
   3       -3.4477
   4       -3.4475
   5       -3.3932
   6       -3.3854
   7       -3.3837
   8       -2.4378
   9       -2.4015
  10       -2.3995
  11       -1.7564
  12       -1.7313
  13       -1.2601
  14       -1.2597
  15       -1.2462
  16       -1.1558
  17       -1.1534
  18       -1.1110
  19       -1.1030
  20       -1.0772
  21       -1.0767
  22        3.0339
  23        3.5901
  24        3.6713
  25        6.8715
  26        6.9480
  27        7.4662
  28       10.8326
  29       11.0768
  30       11.0823
  31       11.2690
  32       11.3928
 
  0.1111111E+00  0.2777778E-01  0.0000000E+00  0.5144033E-03
   1       -4.4008
   2       -3.4367
   3       -3.4275
   4       -3.4266
   5       -3.3811
   6       -3.3665
   7       -3.3642
   8       -2.4518
   9       -2.3874
  10       -2.3855
  11       -1.7699
  12       -1.7248
  13       -1.2799
  14       -1.2783
  15       -1.2540
  16       -1.2128
  17       -1.2087
  18       -1.1327
  19       -1.1256
  20       -1.0772
  21       -1.0767
  22        2.7239
  23        3.6882
  24        3.7704
  25        6.8833
  26        6.9611
  27        7.8573
  28       10.6083
  29       10.8927
  30       10.9104
  31       11.1495
  32       11.4680
 
  0.1388889E+00  0.2777778E-01  0.0000000E+00  0.5144033E-03
   1       -4.3411
   2       -3.4162
   3       -3.4020
   4       -3.4003
   5       -3.3658
   6       -3.3422
   7       -3.3391
   8       -2.4695
   9       -2.3694
  10       -2.3676
  11       -1.7867
  12       -1.7166
  13       -1.3109
  14       -1.3013
  15       -1.2824
  16       -1.2708
  17       -1.2641
  18       -1.1597
  19       -1.1540
  20       -1.0772
  21       -1.0766
  22        2.3867
  23        3.8104
  24        3.8941
  25        6.8986
  26        6.9780
  27        8.2986
  28       10.3646
  29       10.6743
  30       10.7144
  31       10.9891
  32       11.5640
 
  0.1666667E+00  0.2777778E-01  0.0000000E+00  0.5144033E-03
   1       -4.2690
   2       -3.3918
   3       -3.3717
   4       -3.3690
   5       -3.3472
   6       -3.3126
   7       -3.3086
   8       -2.4909
   9       -2.3475
  10       -2.3459
  11       -1.8062
  12       -1.7066
  13       -1.3723
  14       -1.3627
  15       -1.3288
  16       -1.3177
  17       -1.2771
  18       -1.1912
  19       -1.1879
  20       -1.0772
  21       -1.0766
  22        2.0365
  23        3.9547
  24        4.0402
  25        6.9173
  26        6.9989
  27        8.7763
  28       10.1082
  29       10.4295
  30       10.5045
  31       10.7990
  32       11.6803
 
  0.1944444E+00  0.2777778E-01  0.0000000E+00  0.5144033E-03
   1       -4.1848
   2       -3.3637
   3       -3.3369
   4       -3.3332
   5       -3.3255
   6       -3.2776
   7       -3.2727
   8       -2.5157
   9       -2.3218
  10       -2.3204
  11       -1.8278
  12       -1.6950
  13       -1.4574
  14       -1.4515
  15       -1.3604
  16       -1.3534
  17       -1.2939
  18       -1.2268
  19       -1.2256
  20       -1.0771
  21       -1.0766
  22        1.6821
  23        4.1186
  24        4.2066
  25        6.9395
  26        7.0237
  27        9.2815
  28        9.8439
  29       10.1650
  30       10.2887
  31       10.5892
  32       11.8170
 
  0.2222222E+00  0.2777778E-01  0.0000000E+00  0.5144033E-03
   1       -4.0894
   2       -3.3325
   3       -3.3008
   4       -3.2982
   5       -3.2936
   6       -3.2373
   7       -3.2316
   8       -2.5437
   9       -2.2924
  10       -2.2914
  11       -1.8504
  12       -1.6818
  13       -1.5516
  14       -1.5468
  15       -1.3957
  16       -1.3901
  17       -1.3172
  18       -1.2702
  19       -1.2596
  20       -1.0771
  21       -1.0766
  22        1.3294
  23        4.3000
  24        4.3911
  25        6.9650
  26        7.0525
  27        9.5751
  28        9.8086
  29        9.8860
  30       10.0735
  31       10.3684
  32       11.9721
 
  0.2500000E+00  0.2777778E-01  0.0000000E+00  0.5144033E-03
   1       -3.9838
   2       -3.2987
   3       -3.2733
   4       -3.2563
   5       -3.2509
   6       -3.1917
   7       -3.1855
   8       -2.5746
   9       -2.2594
  10       -2.2589
  11       -1.8728
  12       -1.6671
  13       -1.6512
  14       -1.6468
  15       -1.4338
  16       -1.4291
  17       -1.3507
  18       -1.3175
  19       -1.2890
  20       -1.0770
  21       -1.0765
  22        0.9821
  23        4.4969
  24        4.5918
  25        6.9935
  26        7.0852
  27        9.3039
  28        9.5967
  29        9.8638
  30       10.1442
  31       10.3539
  32       12.1449
 
  0.2777778E+00  0.2777778E-01  0.0000000E+00  0.5144033E-03
   1       -3.8694
   2       -3.2631
   3       -3.2432
   4       -3.2118
   5       -3.2061
   6       -3.1410
   7       -3.1346
   8       -2.6082
   9       -2.2232
  10       -2.2229
  11       -1.8932
  12       -1.7540
  13       -1.7499
  14       -1.6511
  15       -1.4741
  16       -1.4699
  17       -1.3942
  18       -1.3683
  19       -1.3131
  20       -1.0769
  21       -1.0765
  22        0.6432
  23        4.7074
  24        4.8071
  25        7.0245
  26        7.1214
  27        9.0316
  28        9.3004
  29        9.6635
  30        9.9227
  31       10.9145
  32       12.3373
 
  0.3055556E+00  0.2777778E-01  0.0000000E+00  0.5144033E-03
   1       -3.7482
   2       -3.2264
   3       -3.2106
   4       -3.1660
   5       -3.1605
   6       -3.0851
   7       -3.0791
   8       -2.6441
   9       -2.1848
  10       -2.1831
  11       -1.9089
  12       -1.8587
  13       -1.8548
  14       -1.6337
  15       -1.5154
  16       -1.5118
  17       -1.4442
  18       -1.4218
  19       -1.3349
  20       -1.0769
  21       -1.0765
  22        0.3148
  23        4.9298
  24        5.0352
  25        7.0571
  26        7.1608
  27        8.7592
  28        8.9995
  29        9.4762
  30        9.7095
  31       11.4884
  32       12.5445
 
  0.3333333E+00  0.2777778E-01  0.0000000E+00  0.5144033E-03
   1       -3.6233
   2       -3.1899
   3       -3.1758
   4       -3.1202
   5       -3.1152
   6       -3.0240
   7       -3.0188
   8       -2.6820
   9       -2.1444
  10       -2.1401
  11       -1.9639
  12       -1.9602
  13       -1.9164
  14       -1.6152
  15       -1.5566
  16       -1.5534
  17       -1.4982
  18       -1.4776
  19       -1.3561
  20       -1.0768
  21       -1.0764
  22       -0.0009
  23        5.1625
  24        5.2749
  25        7.0897
  26        7.2026
  27        8.4880
  28        8.6960
  29        9.3048
  30        9.5093
  31       12.0733
  32       12.7693
 
  0.3611111E+00  0.2777778E-01  0.0000000E+00  0.5144033E-03
   1       -3.4988
   2       -3.1548
   3       -3.1389
   4       -3.0762
   5       -3.0720
   6       -2.9581
   7       -2.9539
   8       -2.7216
   9       -2.1026
  10       -2.0942
  11       -2.0686
  12       -2.0652
  13       -1.9105
  14       -1.5962
  15       -1.5957
  16       -1.5935
  17       -1.5548
  18       -1.5350
  19       -1.3775
  20       -1.0767
  21       -1.0764
  22       -0.3020
  23        5.4039
  24        5.5250
  25        7.1189
  26        7.2455
  27        8.2204
  28        8.3916
  29        9.1525
  30        9.3263
  31       12.6640
  32       13.0080
 
  0.3888889E+00  0.2777778E-01  0.0000000E+00  0.5144033E-03
   1       -3.3802
   2       -3.1231
   3       -3.1003
   4       -3.0358
   5       -3.0325
   6       -2.8872
   7       -2.8842
   8       -2.7627
   9       -2.1720
  10       -2.1689
  11       -2.0601
  12       -2.0455
  13       -1.8853
  14       -1.6325
  15       -1.6302
  16       -1.6132
  17       -1.5936
  18       -1.5753
  19       -1.3992
  20       -1.0767
  21       -1.0764
  22       -0.5863
  23        5.6526
  24        5.7844
  25        7.1380
  26        7.2878
  27        7.9617
  28        8.0876
  29        9.0227
  30        9.1646
  31       13.1984
  32       13.2608
 
  0.4166667E+00  0.2777778E-01  0.0000000E+00  0.5144033E-03
   1       -3.2742
   2       -3.0971
   3       -3.0602
   4       -3.0013
   5       -2.9989
   6       -2.8116
   7       -2.8098
   8       -2.8047
   9       -2.2733
  10       -2.2706
  11       -2.0154
  12       -1.9944
  13       -1.8352
  14       -1.6727
  15       -1.6636
  16       -1.6618
  17       -1.6527
  18       -1.5542
  19       -1.4213
  20       -1.0766
  21       -1.0764
  22       -0.8511
  23        5.9068
  24        6.0520
  25        7.1312
  26        7.3274
  27        7.7261
  28        7.7851
  29        8.9194
  30        9.0280
  31       13.5056
  32       13.5268
 
  0.4444444E+00  0.2777778E-01  0.0000000E+00  0.5144033E-03
   1       -3.1879
   2       -3.0800
   3       -3.0189
   4       -2.9746
   5       -2.9731
   6       -2.8475
   7       -2.7314
   8       -2.7307
   9       -2.3719
  10       -2.3697
  11       -1.9660
  12       -1.9410
  13       -1.7558
  14       -1.7329
  15       -1.7119
  16       -1.6875
  17       -1.6863
  18       -1.5324
  19       -1.4437
  20       -1.0932
  21       -1.0766
  22       -1.0764
  23        6.1642
  24        6.3271
  25        7.0620
  26        7.3620
  27        7.4851
  28        7.5475
  29        8.8468
  30        8.9205
  31       13.7881
  32       13.8049
 
  0.4722222E+00  0.2777778E-01  0.0000000E+00  0.5144033E-03
   1       -3.1261
   2       -3.0759
   3       -2.9766
   4       -2.9576
   5       -2.9569
   6       -2.8906
   7       -2.6471
   8       -2.6469
   9       -2.4674
  10       -2.4657
  11       -1.9113
  12       -1.8857
  13       -1.7932
  14       -1.7708
  15       -1.7025
  16       -1.7019
  17       -1.6432
  18       -1.5099
  19       -1.4667
  20       -1.3083
  21       -1.0765
  22       -1.0764
  23        6.4216
  24        6.6087
  25        6.8985
  26        7.1885
  27        7.3906
  28        7.4556
  29        8.8088
  30        8.8462
  31       14.0782
  32       14.0940
 
  0.5000000E+00  0.2777778E-01  0.0000000E+00  0.2572016E-03
   1       -3.0897
   2       -3.0897
   3       -2.9516
   4       -2.9516
   5       -2.9338
   6       -2.9338
   7       -2.5592
   8       -2.5592
   9       -2.5582
  10       -2.5582
  11       -1.8531
  12       -1.8531
  13       -1.8289
  14       -1.8289
  15       -1.7075
  16       -1.7075
  17       -1.5022
  18       -1.5022
  19       -1.4794
  20       -1.4794
  21       -1.0765
  22       -1.0765
  23        6.6719
  24        6.6719
  25        6.8961
  26        6.8961
  27        7.4166
  28        7.4166
  29        8.8084
  30        8.8084
  31       14.3792
  32       14.3845
 
  0.5555556E-01  0.5555556E-01  0.0000000E+00  0.2572016E-03
   1       -4.4610
   2       -3.4555
   3       -3.4555
   4       -3.4543
   5       -3.3938
   6       -3.3938
   7       -3.3885
   8       -2.4306
   9       -2.4086
  10       -2.4036
  11       -1.7487
  12       -1.7367
  13       -1.2548
  14       -1.2500
  15       -1.2500
  16       -1.1336
  17       -1.1201
  18       -1.1201
  19       -1.0866
  20       -1.0866
  21       -1.0827
  22        3.3372
  23        3.3372
  24        3.6426
  25        6.8680
  26        7.1543
  27        7.1543
  28       10.8129
  29       11.2497
  30       11.2497
  31       11.2502
  32       11.2502
 
  0.8333333E-01  0.5555556E-01  0.0000000E+00  0.5144033E-03
   1       -4.4276
   2       -3.4437
   3       -3.4410
   4       -3.4403
   5       -3.3852
   6       -3.3803
   7       -3.3734
   8       -2.4388
   9       -2.4003
  10       -2.3938
  11       -1.7568
  12       -1.7336
  13       -1.2678
  14       -1.2663
  15       -1.2574
  16       -1.1721
  17       -1.1597
  18       -1.1341
  19       -1.1030
  20       -1.0866
  21       -1.0859
  22        3.0752
  23        3.4069
  24        3.7144
  25        6.8763
  26        7.1655
  27        7.4740
  28       10.5702
  29       11.1083
  30       11.1134
  31       11.3031
  32       11.3032
 
  0.1111111E+00  0.5555556E-01  0.0000000E+00  0.5144033E-03
   1       -4.3810
   2       -3.4275
   3       -3.4226
   4       -3.4194
   5       -3.3732
   6       -3.3615
   7       -3.3524
   8       -2.4520
   9       -2.3870
  10       -2.3801
  11       -1.7697
  12       -1.7274
  13       -1.2918
  14       -1.2857
  15       -1.2681
  16       -1.2267
  17       -1.2097
  18       -1.1529
  19       -1.1256
  20       -1.0873
  21       -1.0866
  22        2.7642
  23        3.5020
  24        3.8126
  25        6.8880
  26        7.1812
  27        7.8657
  28       10.3095
  29       10.9236
  30       10.9407
  31       11.3714
  32       11.3771
 
  0.1388889E+00  0.5555556E-01  0.0000000E+00  0.5144033E-03
   1       -4.3217
   2       -3.4069
   3       -3.3993
   4       -3.3931
   5       -3.3579
   6       -3.3373
   7       -3.3256
   8       -2.4692
   9       -2.3694
  10       -2.3626
  11       -1.7860
  12       -1.7190
  13       -1.3333
  14       -1.3085
  15       -1.2947
  16       -1.2827
  17       -1.2612
  18       -1.1755
  19       -1.1541
  20       -1.0880
  21       -1.0866
  22        2.4264
  23        3.6202
  24        3.9353
  25        6.9029
  26        7.2015
  27        8.3073
  28       10.0379
  29       10.7046
  30       10.7441
  31       11.2688
  32       11.4716
 
  0.1666667E+00  0.5555556E-01  0.0000000E+00  0.5144033E-03
   1       -4.2499
   2       -3.3824
   3       -3.3712
   4       -3.3617
   5       -3.3395
   6       -3.3078
   7       -3.2932
   8       -2.4902
   9       -2.3477
  10       -2.3414
  11       -1.8051
  12       -1.7087
  13       -1.3980
  14       -1.3735
  15       -1.3356
  16       -1.3046
  17       -1.3022
  18       -1.2006
  19       -1.1880
  20       -1.0883
  21       -1.0867
  22        2.0760
  23        3.7594
  24        4.0803
  25        6.9210
  26        7.2265
  27        8.7846
  28        9.7605
  29       10.4592
  30       10.5337
  31       11.1237
  32       11.5854
 
  0.1944444E+00  0.5555556E-01  0.0000000E+00  0.5144033E-03
   1       -4.1661
   2       -3.3542
   3       -3.3386
   4       -3.3258
   5       -3.3179
   6       -3.2730
   7       -3.2556
   8       -2.5147
   9       -2.3221
  10       -2.3167
  11       -1.8260
  12       -1.6966
  13       -1.4800
  14       -1.4609
  15       -1.3669
  16       -1.3430
  17       -1.3278
  18       -1.2269
  19       -1.2265
  20       -1.0884
  21       -1.0867
  22        1.7218
  23        3.9170
  24        4.2455
  25        6.9422
  26        7.2561
  27        9.2890
  28        9.4816
  29       10.1941
  30       10.3181
  31       10.9474
  32       11.7187
 
  0.2222222E+00  0.5555556E-01  0.0000000E+00  0.5144033E-03
   1       -4.0712
   2       -3.3229
   3       -3.3019
   4       -3.2934
   5       -3.2861
   6       -3.2329
   7       -3.2131
   8       -2.5424
   9       -2.2927
  10       -2.2887
  11       -1.8478
  12       -1.6828
  13       -1.5720
  14       -1.5549
  15       -1.4017
  16       -1.3816
  17       -1.3602
  18       -1.2704
  19       -1.2518
  20       -1.0884
  21       -1.0867
  22        1.3694
  23        4.0910
  24        4.4289
  25        6.9660
  26        7.2903
  27        9.2041
  28        9.8147
  29        9.9147
  30       10.1036
  31       10.7499
  32       11.8714
 
  0.2500000E+00  0.5555556E-01  0.0000000E+00  0.5144033E-03
   1       -3.9662
   2       -3.2890
   3       -3.2661
   4       -3.2615
   5       -3.2433
   6       -3.1875
   7       -3.1661
   8       -2.5730
   9       -2.2598
  10       -2.2578
  11       -1.8689