   4   4   0   0
  0.2193893E+02  0.4443840E-09  0.4443840E-09  0.4443840E-09  0.5000000E-15
  1.000000000000000E-004
  CAR 
 unknown system                          
     15.30129213     -4.90201884  301      5.29607835      1.00000000
     -4.902  0.0000E+00  0.0000E+00
     -4.835  0.0000E+00  0.0000E+00
     -4.767  0.0000E+00  0.0000E+00
     -4.700  0.0000E+00  0.0000E+00
     -4.633  0.0000E+00  0.0000E+00
     -4.565  0.0000E+00  0.0000E+00
     -4.498  0.0000E+00  0.0000E+00
     -4.431  0.0000E+00  0.0000E+00
     -4.363  0.0000E+00  0.0000E+00
     -4.296  0.0000E+00  0.0000E+00
     -4.229  0.0000E+00  0.0000E+00
     -4.161  0.0000E+00  0.0000E+00
     -4.094  0.0000E+00  0.0000E+00
     -4.027  0.4432E-12  0.2985E-13
     -3.959  0.2362E-01  0.1590E-02
     -3.892  0.1426E+00  0.1121E-01
     -3.825  0.2226E+00  0.2621E-01
     -3.757  0.2623E+00  0.4391E-01
     -3.690  0.3111E+00  0.6489E-01
     -3.622  0.3549E+00  0.8880E-01
     -3.555  0.3916E+00  0.1152E+00
     -3.488  0.4143E+00  0.1431E+00
     -3.420  0.4218E+00  0.1715E+00
     -3.353  0.5189E+00  0.2065E+00
     -3.286  0.4748E+00  0.2386E+00
     -3.218  0.5548E+00  0.2759E+00
     -3.151  0.4885E+00  0.3089E+00
     -3.084  0.6518E+00  0.3528E+00
     -3.016  0.5458E+00  0.3897E+00
     -2.949  0.6279E+00  0.4320E+00
     -2.882  0.6331E+00  0.4747E+00
     -2.814  0.6635E+00  0.5195E+00
     -2.747  0.6930E+00  0.5664E+00
     -2.680  0.6743E+00  0.6118E+00
     -2.612  0.7625E+00  0.6632E+00
     -2.545  0.7389E+00  0.7130E+00
     -2.478  0.7229E+00  0.7618E+00
     -2.410  0.7907E+00  0.8151E+00
     -2.343  0.7529E+00  0.8658E+00
     -2.276  0.8393E+00  0.9224E+00
     -2.208  0.8364E+00  0.9787E+00
     -2.141  0.7510E+00  0.1029E+01
     -2.074  0.9233E+00  0.1092E+01
     -2.006  0.9005E+00  0.1152E+01
     -1.939  0.8531E+00  0.1210E+01
     -1.872  0.8139E+00  0.1265E+01
     -1.804  0.1034E+01  0.1335E+01
     -1.737  0.8615E+00  0.1393E+01
     -1.669  0.9306E+00  0.1456E+01
     -1.602  0.9989E+00  0.1523E+01
     -1.535  0.9971E+00  0.1590E+01
     -1.467  0.9111E+00  0.1652E+01
     -1.400  0.1017E+01  0.1721E+01
     -1.333  0.1074E+01  0.1793E+01
     -1.265  0.9845E+00  0.1860E+01
     -1.198  0.9905E+00  0.1926E+01
     -1.131  0.1100E+01  0.2001E+01
     -1.063  0.1089E+01  0.2074E+01
     -0.996  0.1036E+01  0.2144E+01
     -0.929  0.1107E+01  0.2218E+01
     -0.861  0.1090E+01  0.2292E+01
     -0.794  0.1152E+01  0.2369E+01
     -0.727  0.1146E+01  0.2447E+01
     -0.659  0.1031E+01  0.2516E+01
     -0.592  0.1255E+01  0.2601E+01
     -0.525  0.1164E+01  0.2679E+01
     -0.457  0.1109E+01  0.2754E+01
     -0.390  0.1260E+01  0.2839E+01
     -0.323  0.1128E+01  0.2915E+01
     -0.255  0.1287E+01  0.3002E+01
     -0.188  0.1263E+01  0.3087E+01
     -0.121  0.1143E+01  0.3164E+01
     -0.053  0.1274E+01  0.3250E+01
      0.014  0.1322E+01  0.3339E+01
      0.081  0.1259E+01  0.3424E+01
      0.149  0.1158E+01  0.3502E+01
      0.216  0.1408E+01  0.3597E+01
      0.283  0.1352E+01  0.3688E+01
      0.351  0.1261E+01  0.3774E+01
      0.418  0.1322E+01  0.3863E+01
      0.486  0.1316E+01  0.3952E+01
      0.553  0.1340E+01  0.4042E+01
      0.620  0.1499E+01  0.4143E+01
      0.688  0.1331E+01  0.4233E+01
      0.755  0.1311E+01  0.4321E+01
      0.822  0.1354E+01  0.4412E+01
      0.890  0.1560E+01  0.4518E+01
      0.957  0.1462E+01  0.4616E+01
      1.024  0.1353E+01  0.4707E+01
      1.092  0.1466E+01  0.4806E+01
      1.159  0.1488E+01  0.4907E+01
      1.226  0.1556E+01  0.5012E+01
      1.294  0.1491E+01  0.5112E+01
      1.361  0.1676E+01  0.5225E+01
      1.428  0.1471E+01  0.5324E+01
      1.496  0.1478E+01  0.5424E+01
      1.563  0.1507E+01  0.5526E+01
      1.630  0.1656E+01  0.5637E+01
      1.698  0.1292E+01  0.5725E+01
      1.765  0.1380E+01  0.5818E+01
      1.832  0.1442E+01  0.5915E+01
      1.900  0.1441E+01  0.6012E+01
      1.967  0.1574E+01  0.6118E+01
      2.034  0.1427E+01  0.6215E+01
      2.102  0.1572E+01  0.6321E+01
      2.169  0.1554E+01  0.6425E+01
      2.236  0.1541E+01  0.6529E+01
      2.304  0.1604E+01  0.6638E+01
      2.371  0.1654E+01  0.6749E+01
      2.439  0.1525E+01  0.6852E+01
      2.506  0.1479E+01  0.6952E+01
      2.573  0.1710E+01  0.7067E+01
      2.641  0.1792E+01  0.7188E+01
      2.708  0.1536E+01  0.7292E+01
      2.775  0.1661E+01  0.7404E+01
      2.843  0.1716E+01  0.7520E+01
      2.910  0.1604E+01  0.7628E+01
      2.977  0.1782E+01  0.7748E+01
      3.045  0.1648E+01  0.7859E+01
      3.112  0.1871E+01  0.7985E+01
      3.179  0.1783E+01  0.8106E+01
      3.247  0.1805E+01  0.8228E+01
      3.314  0.1586E+01  0.8334E+01
      3.381  0.1818E+01  0.8457E+01
      3.449  0.1894E+01  0.8585E+01
      3.516  0.1454E+01  0.8683E+01
      3.583  0.1819E+01  0.8806E+01
      3.651  0.1691E+01  0.8920E+01
      3.718  0.1612E+01  0.9028E+01
      3.785  0.1911E+01  0.9157E+01
      3.853  0.1647E+01  0.9268E+01
      3.920  0.1773E+01  0.9388E+01
      3.987  0.1750E+01  0.9506E+01
      4.055  0.1896E+01  0.9634E+01
      4.122  0.1953E+01  0.9766E+01
      4.189  0.1784E+01  0.9886E+01
      4.257  0.1942E+01  0.1002E+02
      4.324  0.1992E+01  0.1015E+02
      4.392  0.1996E+01  0.1029E+02
      4.459  0.1978E+01  0.1042E+02
      4.526  0.1836E+01  0.1054E+02
      4.594  0.1751E+01  0.1066E+02
      4.661  0.1878E+01  0.1079E+02
      4.728  0.1804E+01  0.1091E+02
      4.796  0.1979E+01  0.1104E+02
      4.863  0.1754E+01  0.1116E+02
      4.930  0.1889E+01  0.1129E+02
      4.998  0.1800E+01  0.1141E+02
      5.065  0.1871E+01  0.1154E+02
      5.132  0.2126E+01  0.1168E+02
      5.200  0.1826E+01  0.1180E+02
      5.267  0.2063E+01  0.1194E+02
      5.334  0.1970E+01  0.1207E+02
      5.402  0.2055E+01  0.1221E+02
      5.469  0.1787E+01  0.1233E+02
      5.536  0.2122E+01  0.1248E+02
      5.604  0.2161E+01  0.1262E+02
      5.671  0.1972E+01  0.1276E+02
      5.738  0.1865E+01  0.1288E+02
      5.806  0.2210E+01  0.1303E+02
      5.873  0.2052E+01  0.1317E+02
      5.940  0.1915E+01  0.1330E+02
      6.008  0.1925E+01  0.1343E+02
      6.075  0.2195E+01  0.1358E+02
      6.142  0.2055E+01  0.1371E+02
      6.210  0.2008E+01  0.1385E+02
      6.277  0.2282E+01  0.1400E+02
      6.344  0.2113E+01  0.1415E+02
      6.412  0.1803E+01  0.1427E+02
      6.479  0.2152E+01  0.1441E+02
      6.547  0.2111E+01  0.1456E+02
      6.614  0.2452E+01  0.1472E+02
      6.681  0.2208E+01  0.1487E+02
      6.749  0.2038E+01  0.1501E+02
      6.816  0.1791E+01  0.1513E+02
      6.883  0.2220E+01  0.1528E+02
      6.951  0.2265E+01  0.1543E+02
      7.018  0.2441E+01  0.1560E+02
      7.085  0.2099E+01  0.1574E+02
      7.153  0.2138E+01  0.1588E+02
      7.220  0.2294E+01  0.1604E+02
      7.287  0.1991E+01  0.1617E+02
      7.355  0.2002E+01  0.1631E+02
      7.422  0.2510E+01  0.1647E+02
      7.489  0.2536E+01  0.1665E+02
      7.557  0.2357E+01  0.1680E+02
      7.624  0.1901E+01  0.1693E+02
      7.691  0.2257E+01  0.1709E+02
      7.759  0.2191E+01  0.1723E+02
      7.826  0.2418E+01  0.1740E+02
      7.893  0.2373E+01  0.1756E+02
      7.961  0.2296E+01  0.1771E+02
      8.028  0.2486E+01  0.1788E+02
      8.095  0.2033E+01  0.1802E+02
      8.163  0.2235E+01  0.1817E+02
      8.230  0.2530E+01  0.1834E+02
      8.297  0.2425E+01  0.1850E+02
      8.365  0.2336E+01  0.1866E+02
      8.432  0.2455E+01  0.1882E+02
      8.500  0.2360E+01  0.1898E+02
      8.567  0.2252E+01  0.1913E+02
      8.634  0.2489E+01  0.1930E+02
      8.702  0.2539E+01  0.1947E+02
      8.769  0.2261E+01  0.1963E+02
      8.836  0.2556E+01  0.1980E+02
      8.904  0.2634E+01  0.1998E+02
      8.971  0.2218E+01  0.2013E+02
      9.038  0.2496E+01  0.2029E+02
      9.106  0.2651E+01  0.2047E+02
      9.173  0.2516E+01  0.2064E+02
      9.240  0.2424E+01  0.2081E+02
      9.308  0.2554E+01  0.2098E+02
      9.375  0.2683E+01  0.2116E+02
      9.442  0.2602E+01  0.2134E+02
      9.510  0.2552E+01  0.2151E+02
      9.577  0.2656E+01  0.2169E+02
      9.644  0.2899E+01  0.2188E+02
      9.712  0.2612E+01  0.2206E+02
      9.779  0.2613E+01  0.2223E+02
      9.846  0.3234E+01  0.2245E+02
      9.914  0.2795E+01  0.2264E+02
      9.981  0.2747E+01  0.2283E+02
     10.048  0.2949E+01  0.2303E+02
     10.116  0.2555E+01  0.2320E+02
     10.183  0.2993E+01  0.2340E+02
     10.250  0.2460E+01  0.2357E+02
     10.318  0.2789E+01  0.2375E+02
     10.385  0.2635E+01  0.2393E+02
     10.452  0.2816E+01  0.2412E+02
     10.520  0.2647E+01  0.2430E+02
     10.587  0.2389E+01  0.2446E+02
     10.655  0.2588E+01  0.2464E+02
     10.722  0.2541E+01  0.2481E+02
     10.789  0.2800E+01  0.2500E+02
     10.857  0.2224E+01  0.2515E+02
     10.924  0.2500E+01  0.2531E+02
     10.991  0.2503E+01  0.2548E+02
     11.059  0.2416E+01  0.2565E+02
     11.126  0.2553E+01  0.2582E+02
     11.193  0.2465E+01  0.2598E+02
     11.261  0.2243E+01  0.2614E+02
     11.328  0.2371E+01  0.2630E+02
     11.395  0.2648E+01  0.2647E+02
     11.463  0.2242E+01  0.2663E+02
     11.530  0.2243E+01  0.2678E+02
     11.597  0.2771E+01  0.2696E+02
     11.665  0.2345E+01  0.2712E+02
     11.732  0.2379E+01  0.2728E+02
     11.799  0.2671E+01  0.2746E+02
     11.867  0.2217E+01  0.2761E+02
     11.934  0.2464E+01  0.2778E+02
     12.001  0.2770E+01  0.2796E+02
     12.069  0.2077E+01  0.2811E+02
     12.136  0.2465E+01  0.2827E+02
     12.203  0.2570E+01  0.2844E+02
     12.271  0.2661E+01  0.2862E+02
     12.338  0.2148E+01  0.2877E+02
     12.405  0.2213E+01  0.2892E+02
     12.473  0.2510E+01  0.2909E+02
     12.540  0.2591E+01  0.2926E+02
     12.608  0.2451E+01  0.2943E+02
     12.675  0.1923E+01  0.2956E+02
     12.742  0.2713E+01  0.2974E+02
     12.810  0.2280E+01  0.2989E+02
     12.877  0.2402E+01  0.3006E+02
     12.944  0.2070E+01  0.3020E+02
     13.012  0.1967E+01  0.3033E+02
     13.079  0.1968E+01  0.3046E+02
     13.146  0.1955E+01  0.3059E+02
     13.214  0.1902E+01  0.3072E+02
     13.281  0.1747E+01  0.3084E+02
     13.348  0.1505E+01  0.3094E+02
     13.416  0.1429E+01  0.3104E+02
     13.483  0.1650E+01  0.3115E+02
     13.550  0.1406E+01  0.3124E+02
     13.618  0.1303E+01  0.3133E+02
     13.685  0.1254E+01  0.3142E+02
     13.752  0.1182E+01  0.3150E+02
     13.820  0.1112E+01  0.3157E+02
     13.887  0.1252E+01  0.3166E+02
     13.954  0.1167E+01  0.3173E+02
     14.022  0.1106E+01  0.3181E+02
     14.089  0.8491E+00  0.3187E+02
     14.156  0.8286E+00  0.3192E+02
     14.224  0.6593E+00  0.3197E+02
     14.291  0.3127E+00  0.3199E+02
     14.358  0.1209E+00  0.3200E+02
     14.426  0.6512E-01  0.3200E+02
     14.493  0.0000E+00  0.3200E+02
     14.561  0.0000E+00  0.3200E+02
     14.628  0.0000E+00  0.3200E+02
     14.695  0.0000E+00  0.3200E+02
     14.763  0.0000E+00  0.3200E+02
     14.830  0.0000E+00  0.3200E+02
     14.897  0.0000E+00  0.3200E+02
     14.965  0.0000E+00  0.3200E+02
     15.032  0.0000E+00  0.3200E+02
     15.099  0.0000E+00  0.3200E+02
     15.167  0.0000E+00  0.3200E+02
     15.234  0.0000E+00  0.3200E+02
     15.301  0.0000E+00  0.3200E+02
