    4    4    1    1
  0.2193893E+02  0.4443840E-09  0.4443840E-09  0.4443840E-09  0.5000000E-15
  1.000000000000000E-004
  CAR 
 unknown system                          
   12 1330   16
 
  0.0000000E+00  0.0000000E+00  0.0000000E+00  0.2143347E-04
   1       -3.9837
   2        3.0861
   3        3.0861
   4        3.0861
   5        3.6348
   6        3.6348
   7        3.6348
   8        9.7628
   9        9.7628
  10        9.7628
  11        9.7628
  12        9.7628
  13        9.7628
  14       10.5011
  15       10.5011
  16       10.5011
 
  0.2777778E-01  0.0000000E+00  0.0000000E+00  0.1286008E-03
   1       -3.9779
   2        2.8809
   3        3.0916
   4        3.0916
   5        3.6403
   6        3.6403
   7        3.8501
   8        9.6001
   9        9.6001
  10        9.7089
  11        9.7089
  12        9.7679
  13        9.7679
  14       10.5068
  15       10.6745
  16       10.6745
 
  0.5555556E-01  0.0000000E+00  0.0000000E+00  0.1286008E-03
   1       -3.9606
   2        2.5361
   3        3.1078
   4        3.1078
   5        3.6568
   6        3.6568
   7        4.2252
   8        9.2897
   9        9.2897
  10        9.5611
  11        9.5611
  12        9.7833
  13        9.7833
  14       10.5238
  15       11.0168
  16       11.0168
 
  0.8333333E-01  0.0000000E+00  0.0000000E+00  0.1286008E-03
   1       -3.9318
   2        2.1769
   3        3.1349
   4        3.1349
   5        3.6843
   6        3.6843
   7        4.6348
   8        8.9522
   9        8.9522
  10        9.3491
  11        9.3491
  12        9.8088
  13        9.8088
  14       10.5522
  15       11.4075
  16       11.4075
 
  0.1111111E+00  0.0000000E+00  0.0000000E+00  0.1286008E-03
   1       -3.8914
   2        1.8210
   3        3.1729
   4        3.1729
   5        3.7226
   6        3.7226
   7        5.0611
   8        8.6131
   9        8.6131
  10        9.0992
  11        9.0992
  12        9.8445
  13        9.8445
  14       10.5920
  15       11.8211
  16       11.8211
 
  0.1388889E+00  0.0000000E+00  0.0000000E+00  0.1286008E-03
   1       -3.8394
   2        1.4725
   3        3.2217
   4        3.2217
   5        3.7718
   6        3.7718
   7        5.5000
   8        8.2794
   9        8.2794
  10        8.8293
  11        8.8293
  12        9.8905
  13        9.8905
  14       10.6431
  15       12.2505
  16       12.2505
 
  0.1666667E+00  0.0000000E+00  0.0000000E+00  0.1286008E-03
   1       -3.7760
   2        1.1331
   3        3.2813
   4        3.2813
   5        3.8317
   6        3.8317
   7        5.9497
   8        7.9538
   9        7.9538
  10        8.5504
  11        8.5504
  12        9.9467
  13        9.9467
  14       10.7056
  15       12.4353
  16       12.6930
 
  0.1944444E+00  0.0000000E+00  0.0000000E+00  0.1286008E-03
   1       -3.7011
   2        0.8033
   3        3.3518
   4        3.3518
   5        3.9023
   6        3.9023
   7        6.4093
   8        7.6374
   9        7.6374
  10        8.2691
  11        8.2691
  12       10.0130
  13       10.0130
  14       10.7793
  15       12.5073
  16       13.1474
 
  0.2222222E+00  0.0000000E+00  0.0000000E+00  0.1286008E-03
   1       -3.6147
   2        0.4837
   3        3.4331
   4        3.4331
   5        3.9832
   6        3.9832
   7        6.8783
   8        7.3308
   9        7.3308
  10        7.9897
  11        7.9897
  12       10.0896
  13       10.0896
  14       10.8644
  15       12.5904
  16       13.6132
 
  0.2500000E+00  0.0000000E+00  0.0000000E+00  0.1286008E-03
   1       -3.5167
   2        0.1745
   3        3.5253
   4        3.5253
   5        4.0743
   6        4.0743
   7        7.0343
   8        7.0343
   9        7.3560
  10        7.7151
  11        7.7151
  12       10.1764
  13       10.1764
  14       10.9607
  15       12.6849
  16       13.4649
 
  0.2777778E+00  0.0000000E+00  0.0000000E+00  0.1286008E-03
   1       -3.4074
   2       -0.1242
   3        3.6283
   4        3.6283
   5        4.1752
   6        4.1752
   7        6.7482
   8        6.7482
   9        7.4474
  10        7.4474
  11        7.8420
  12       10.2733
  13       10.2733
  14       11.0683
  15       12.7907
  16       13.1981
 
  0.3055556E+00  0.0000000E+00  0.0000000E+00  0.1286008E-03
   1       -3.2866
   2       -0.4123
   3        3.7422
   4        3.7422
   5        4.2853
   6        4.2853
   7        6.4726
   8        6.4726
   9        7.1883
  10        7.1883
  11        8.3356
  12       10.3805
  13       10.3805
  14       11.1871
  15       12.9082
  16       12.9409
 
  0.3333333E+00  0.0000000E+00  0.0000000E+00  0.1286008E-03
   1       -3.1544
   2       -0.6896
   3        3.8669
   4        3.8669
   5        4.4038
   6        4.4038
   7        6.2076
   8        6.2076
   9        6.9395
  10        6.9395
  11        8.8360
  12       10.4978
  13       10.4978
  14       11.3170
  15       12.6933
  16       12.6933
 
  0.3611111E+00  0.0000000E+00  0.0000000E+00  0.1286008E-03
   1       -3.0108
   2       -0.9560
   3        4.0024
   4        4.0024
   5        4.5293
   6        4.5293
   7        5.9532
   8        5.9532
   9        6.7030
  10        6.7030
  11        9.3423
  12       10.6253
  13       10.6253
  14       11.4580
  15       12.4554
  16       12.4554
 
  0.3888889E+00  0.0000000E+00  0.0000000E+00  0.1286008E-03
   1       -2.8559
   2       -1.2115
   3        4.1488
   4        4.1488
   5        4.6592
   6        4.6592
   7        5.7096
   8        5.7096
   9        6.4818
  10        6.4818
  11        9.8530
  12       10.7630
  13       10.7630
  14       11.6101
  15       12.2274
  16       12.2274
 
  0.4166667E+00  0.0000000E+00  0.0000000E+00  0.1286008E-03
   1       -2.6896
   2       -1.4560
   3        4.3061
   4        4.3061
   5        4.7891
   6        4.7891
   7        5.4767
   8        5.4767
   9        6.2806
  10        6.2806
  11       10.3664
  12       10.9107
  13       10.9107
  14       11.7732
  15       12.0093
  16       12.0093
 
  0.4444444E+00  0.0000000E+00  0.0000000E+00  0.1286008E-03
   1       -2.5120
   2       -1.6895
   3        4.4741
   4        4.4741
   5        4.9097
   6        4.9097
   7        5.2546
   8        5.2546
   9        6.1090
  10        6.1090
  11       10.8797
  12       11.0687
  13       11.0687
  14       11.8011
  15       11.8011
  16       11.9472
 
  0.4722222E+00  0.0000000E+00  0.0000000E+00  0.1286008E-03
   1       -2.3232
   2       -1.9119
   3        4.6530
   4        4.6530
   5        5.0027
   6        5.0027
   7        5.0433
   8        5.0433
   9        5.9853
  10        5.9853
  11       11.2367
  12       11.2367
  13       11.3892
  14       11.6030
  15       11.6030
  16       12.1319
 
  0.5000000E+00  0.0000000E+00  0.0000000E+00  0.6430041E-04
   1       -2.1231
   2       -2.1231
   3        4.8427
   4        4.8427
   5        4.8427
   6        4.8427
   7        5.0396
   8        5.0396
   9        5.9382
  10        5.9382
  11       11.4148
  12       11.4148
  13       11.4148
  14       11.4148
  15       11.8894
  16       11.8894
 
  0.2777778E-01  0.2777778E-01  0.0000000E+00  0.2572016E-03
   1       -3.9722
   2        2.8864
   3        2.8864
   4        3.0970
   5        3.6458
   6        3.8556
   7        3.8556
   8        9.3953
   9        9.6053
  10        9.6053
  11        9.7140
  12        9.7140
  13        9.7730
  14       10.6801
  15       10.6801
  16       10.7671
 
  0.5555556E-01  0.2777778E-01  0.0000000E+00  0.5144033E-03
   1       -3.9548
   2        2.5416
   3        2.9028
   4        3.1133
   5        3.6623
   6        3.8719
   7        4.2307
   8        9.0878
   9        9.2950
  10        9.5663
  11        9.6209
  12        9.7024
  13        9.7294
  14       10.6969
  15       11.0186
  16       11.0223
 
  0.8333333E-01  0.2777778E-01  0.0000000E+00  0.5144033E-03
   1       -3.9260
   2        2.1824
   3        2.9301
   4        3.1404
   5        3.6897
   6        3.8992
   7        4.6401
   8        8.7597
   9        8.9575
  10        9.3543
  11        9.5175
  12        9.6469
  13        9.7550
  14       10.7248
  15       11.3611
  16       11.4130
 
  0.1111111E+00  0.2777778E-01  0.0000000E+00  0.5144033E-03
   1       -3.8856
   2        1.8265
   3        2.9682
   4        3.1783
   5        3.7280
   6        3.9373
   7        5.0665
   8        8.4283
   9        8.6184
  10        9.1045
  11        9.2760
  12        9.6833
  13        9.7909
  14       10.7639
  15       11.7485
  16       11.8265
 
  0.1388889E+00  0.2777778E-01  0.0000000E+00  0.5144033E-03
   1       -3.8337
   2        1.4781
   3        3.0173
   4        3.2271
   5        3.7772
   6        3.9862
   7        5.5053
   8        8.1004
   9        8.2848
  10        8.8347
  11        9.0080
  12        9.7300
  13        9.8371
  14       10.8142
  15       12.1618
  16       12.2559
 
  0.1666667E+00  0.2777778E-01  0.0000000E+00  0.5144033E-03
   1       -3.7703
   2        1.1386
   3        3.0773
   4        3.2867
   5        3.8370
   6        4.0457
   7        5.9549
   8        7.7792
   9        7.9592
  10        8.5559
  11        8.7288
  12        9.7872
  13        9.8935
  14       10.8756
  15       12.4976
  16       12.5933
 
  0.1944444E+00  0.2777778E-01  0.0000000E+00  0.5144033E-03
   1       -3.6953
   2        0.8089
   3        3.1481
   4        3.3572
   5        3.9074
   6        4.1159
   7        6.4144
   8        7.4661
   9        7.6428
  10        8.2747
  11        8.4464
  12        9.8547
  13        9.9602
  14       10.9482
  15       12.5693
  16       13.0394
 
  0.2222222E+00  0.2777778E-01  0.0000000E+00  0.5144033E-03
   1       -3.6089
   2        0.4893
   3        3.2297
   4        3.4386
   5        3.9882
   6        4.1964
   7        6.8833
   8        7.1623
   9        7.3361
  10        7.9954
  11        8.1657
  12        9.9326
  13       10.0372
  14       11.0320
  15       12.6521
  16       13.4981
 
  0.2500000E+00  0.2777778E-01  0.0000000E+00  0.5144033E-03
   1       -3.5110
   2        0.1801
   3        3.3221
   4        3.5307
   5        4.0791
   6        4.2871
   7        6.8684
   8        7.0397
   9        7.3609
  10        7.7210
  11        7.8897
  12       10.0209
  13       10.1245
  14       11.1268
  15       12.7461
  16       13.3489
 
  0.2777778E+00  0.2777778E-01  0.0000000E+00  0.5144033E-03
   1       -3.4016
   2       -0.1186
   3        3.4253
   4        3.6337
   5        4.1796
   6        4.3876
   7        6.5848
   8        6.7536
   9        7.4535
  10        7.6204
  11        7.8466
  12       10.1195
  13       10.2221
  14       11.2327
  15       12.8514
  16       13.0898
 
  0.3055556E+00  0.2777778E-01  0.0000000E+00  0.5144033E-03
   1       -3.2809
   2       -0.4066
   3        3.5392
   4        3.7476
   5        4.2891
   6        4.4974
   7        6.3120
   8        6.4780
   9        7.1947
  10        7.3595
  11        8.3399
  12       10.2284
  13       10.3301
  14       11.3497
  15       12.8199
  16       12.8811
 
  0.3333333E+00  0.2777778E-01  0.0000000E+00  0.5144033E-03
   1       -3.1487
   2       -0.6839
   3        3.6637
   4        3.8723
   5        4.4064
   6        4.6155
   7        6.0509
   8        6.2130
   9        6.9465
  10        7.1084
  11        8.8397
  12       10.3476
  13       10.4486
  14       11.4778
  15       12.5701
  16       12.6340
 
  0.3611111E+00  0.2777778E-01  0.0000000E+00  0.5144033E-03
   1       -3.0051
   2       -0.9503
   3        3.7987
   4        4.0079
   5        4.5295
   6        4.7406
   7        5.8024
   8        5.9586
   9        6.7110
  10        6.8685
  11        9.3449
  12       10.4770
  13       10.5779
  14       11.6168
  15       12.3300
  16       12.3962
 
  0.3888889E+00  0.2777778E-01  0.0000000E+00  0.5144033E-03
   1       -2.8501
   2       -1.2058
   3        3.9439
   4        4.1542
   5        4.6541
   6        4.8700
   7        5.5694
   8        5.7150
   9        6.4915
  10        6.6422
  11        9.8533
  12       10.6167
  13       10.7187
  14       11.7668
  15       12.0997
  16       12.1680
 
  0.4166667E+00  0.2777778E-01  0.0000000E+00  0.5144033E-03
   1       -2.6838
   2       -1.4503
   3        4.0990
   4        4.3115
   5        4.7685
   6        4.9982
   7        5.3604
   8        5.4821
   9        6.2941
  10        6.4327
  11       10.3604
  12       10.7667
  13       10.8739
  14       11.8792
  15       11.9277
  16       11.9492
 
  0.4444444E+00  0.2777778E-01  0.0000000E+00  0.5144033E-03
   1       -2.5063
   2       -1.6838
   3        4.2631
   4        4.4795
   5        4.8324
   6        5.1142
   7        5.2094
   8        5.2600
   9        6.1310
  10        6.2467
  11       10.8425
  12       10.9268
  13       11.0645
  14       11.6687
  15       11.7398
  16       12.0994
 
  0.4722222E+00  0.2777778E-01  0.0000000E+00  0.5144033E-03
   1       -2.3175
   2       -1.9062
   3        4.4345
   4        4.6584
   5        4.7646
   6        5.0487
   7        5.1838
   8        5.1951
   9        6.0269
  10        6.0982
  11       11.0971
  12       11.1491
  13       11.4374
  14       11.4681
  15       11.5392
  16       12.2818
 
  0.5000000E+00  0.2777778E-01  0.0000000E+00  0.2572016E-03
   1       -2.1174
   2       -2.1174
   3        4.6081
   4        4.6081
   5        4.8482
   6        4.8482
   7        5.2133
   8        5.2133
   9        6.0145
  10        6.0145
  11       11.2776
  12       11.2776
  13       11.3457
  14       11.3457
  15       11.9218
  16       11.9218
 
  0.5555556E-01  0.5555556E-01  0.0000000E+00  0.2572016E-03
   1       -3.9375
   2        2.5580
   3        2.5580
   4        3.1295
   5        3.6787
   6        4.2469
   7        4.2469
   8        8.7730
   9        9.3109
  10        9.3109
  11        9.5818
  12        9.5818
  13        9.8035
  14       11.0388
  15       11.0388
  16       11.0831
 
  0.8333333E-01  0.5555556E-01  0.0000000E+00  0.5144033E-03
   1       -3.9087
   2        2.1990
   3        2.5855
   4        3.1566
   5        3.7061
   6        4.2739
   7        4.6562
   8        8.4429
   9        8.9735
  10        9.3373
  11        9.3701
  12        9.6078
  13        9.7416
  14       11.0663
  15       11.2827
  16       11.4294
 
  0.1111111E+00  0.5555556E-01  0.0000000E+00  0.5144033E-03
   1       -3.8683
   2        1.8431
   3        2.6239
   4        3.1946
   5        3.7443
   6        4.3117
   7        5.0824
   8        8.1119
   9        8.6345
  10        9.1205
  11        9.3742
  12        9.5594
  13        9.6441
  14       11.1049
  15       11.5930
  16       11.8428
 
  0.1388889E+00  0.5555556E-01  0.0000000E+00  0.5144033E-03
   1       -3.8164
   2        1.4947
   3        2.6732
   4        3.2434
   5        3.7932
   6        4.3602
   7        5.5211
   8        7.7851
   9        8.3009
  10        8.8510
  11        9.3184
  12        9.4217
  13        9.6908
  14       11.1544
  15       11.9652
  16       12.2721
 
  0.1666667E+00  0.5555556E-01  0.0000000E+00  0.5144033E-03
   1       -3.7530
   2        1.1553
   3        2.7335
   4        3.3030
   5        3.8528
   6        4.4193
   7        5.9705
   8        7.4651
   9        7.9753
  10        8.5724
  11        9.0521
  12        9.4798
  13        9.7479
  14       11.2149
  15       12.3724
  16       12.6708
 
  0.1944444E+00  0.5555556E-01  0.0000000E+00  0.5144033E-03
   1       -3.6780
   2        0.8256
   3        2.8047
   4        3.3735
   5        3.9229
   6        4.4889
   7        6.4298
   8        7.1535
   9        7.6589
  10        8.2915
  11        8.7763
  12        9.5483
  13        9.8155
  14       11.2865
  15       12.7417
  16       12.8025
 
  0.2222222E+00  0.5555556E-01  0.0000000E+00  0.5144033E-03
   1       -3.5916
   2        0.5061
   3        2.8867
   4        3.4548
   5        4.0032
   6        4.5687
   7        6.8512
   8        6.8982
   9        7.3523
  10        8.0126
  11        8.4991
  12        9.6274
  13        9.8935
  14       11.3690
  15       12.8236
  16       13.2535
 
  0.2500000E+00  0.5555556E-01  0.0000000E+00  0.5144033E-03
   1       -3.4937
   2        0.1969
   3        2.9796
   4        3.5470
   5        4.0933
   6        4.6585
   7        6.5591
   8        7.0559
   9        7.3753
  10        7.7387
  11        8.2249
  12        9.7170
  13        9.9821
  14       11.4624
  15       12.9166
  16       13.0887
 
  0.2777778E+00  0.5555556E-01  0.0000000E+00  0.5144033E-03
   1       -3.3844
   2       -0.1017
   3        3.0833
   4        3.6500
   5        4.1925
   6        4.7579
   7        6.2779
   8        6.7698
   9        7.4719
  10        7.8604
  11        7.9563
  12        9.8171
  13       10.0815
  14       11.5668
  15       12.8170
  16       12.9813
 
  0.3055556E+00  0.5555556E-01  0.0000000E+00  0.5144033E-03
   1       -3.2636
   2       -0.3897
   3        3.1976
   4        3.7639
   5        4.2998
   6        4.8661
   7        6.0089
   8        6.4942
   9        7.2142
  10        7.6952
  11        8.3524
  12        9.9277
  13       10.1918
  14       11.6821
  15       12.5548
  16       12.7231
 
  0.3333333E+00  0.5555556E-01  0.0000000E+00  0.5144033E-03
   1       -3.1314
   2       -0.6670
   3        3.3226
   4        3.8886
   5        4.4129
   6        4.9820
   7        5.7539
   8        6.2292
   9        6.9678
  10        7.4429
  11        8.8503
  12       10.0486
  13       10.3137
  14       11.8083
  15       12.3021
  16       12.4767
 
  0.3611111E+00  0.5555556E-01  0.0000000E+00  0.5144033E-03
   1       -2.9879
   2       -0.9334
   3        3.4580
   4        4.0241
   5        4.5271
   6        5.1033
   7        5.5175
   8        5.9749
   9        6.7356
  10        7.2007
  11        9.3516
  12       10.1801
  13       10.4486
  14       11.9453
  15       12.0590
  16       12.2392
 
  0.3888889E+00  0.5555556E-01  0.0000000E+00  0.5144033E-03
   1       -2.8329
   2       -1.1888
   3        3.6036
   4        4.1705
   5        4.6286
   6        5.2258
   7        5.3124
   8        5.7312
   9        6.5226
  10        6.9700
  11        9.8515
  12       10.3219
  13       10.6002
  14       11.8257
  15       12.0107
  16       12.0931
 
  0.4166667E+00  0.5555556E-01  0.0000000E+00  0.5144033E-03
   1       -2.6667
   2       -1.4333
   3        3.7591
   4        4.3277
   5        4.6756
   6        5.1789
   7        5.3393
   8        5.4984
   9        6.3394
  10        6.7528
  11       10.3329
  12       10.4740
  13       10.7836
  14       11.6023
  15       11.7909
  16       12.2517
 
  0.4444444E+00  0.5555556E-01  0.0000000E+00  0.5144033E-03
   1       -2.4891
   2       -1.6667
   3        3.9238
   4        4.4958
   5        4.6052
   6        5.1769
   7        5.2763
   8        5.4216
   9        6.2093
  10        6.5523
  11       10.6365
  12       10.7261
  13       11.0667
  14       11.3889
  15       11.5797
  16       12.4209
 
  0.4722222E+00  0.5555556E-01  0.0000000E+00  0.5144033E-03
   1       -2.3003
   2       -1.8891
   3        4.0966
   4        4.4516
   5        4.6747
   6        5.0649
   7        5.2656
   8        5.4353
   9        6.1709
  10        6.3755
  11       10.8093
  12       10.9752
  13       11.1856
  14       11.3761
  15       11.5019
  16       12.4726
 
  0.5000000E+00  0.5555556E-01  0.0000000E+00  0.2572016E-03
   1       -2.1003
   2       -2.1003
   3        4.2748
   4        4.2748
   5        4.8644
   6        4.8644
   7        5.3696
   8        5.3696
   9        6.2377
  10        6.2377
  11       10.9923
  12       10.9923
  13       11.1776
  14       11.1776
  15       11.9871
  16       11.9871
 
  0.8333333E-01  0.8333333E-01  0.0000000E+00  0.2572016E-03
   1       -3.8798
   2        2.2265
   3        2.2265
   4        3.1837
   5        3.7333
   6        4.6831
   7        4.6831
   8        8.1104
   9        9.0001
  10        9.0001
  11        9.3964
  12        9.3964
  13        9.8544
  14       11.2914
  15       11.4567
  16       11.4567
 
  0.1111111E+00  0.8333333E-01  0.0000000E+00  0.5144033E-03
   1       -3.8394
   2        1.8708
   3        2.2651
   4        3.2217
   5        3.7713
   6        4.7206
   7        5.1090
   8        7.7778
   9        8.6612
  10        9.0373
  11        9.1472
  12        9.4332
  13        9.8026
  14       11.4594
  15       11.4949
  16       11.8700
 
  0.1388889E+00  0.8333333E-01  0.0000000E+00  0.5144033E-03
   1       -3.7876
   2        1.5225
   3        2.3147
   4        3.2705
   5        3.8199
   6        4.7686
   7        5.5474
   8        7.4502
   9        8.3277
  10        8.8781
  11        9.0852
  12        9.4806
  13        9.6289
  14       11.5440
  15       11.7556
  16       12.2992
 
  0.1666667E+00  0.8333333E-01  0.0000000E+00  0.5144033E-03
   1       -3.7241
   2        1.1832
   3        2.3752
   4        3.3301
   5        3.8791
   6        4.8272
   7        5.9964
   8        7.1300
   9        8.0022
  10        8.5999
  11        9.1437
  12        9.3952
  13        9.5386
  14       11.6041
  15       12.1238
  16       12.7415
 
  0.1944444E+00  0.8333333E-01  0.0000000E+00  0.5144033E-03
   1       -3.6492
   2        0.8536
   3        2.4467
   4        3.4006
   5        3.9485
   6        4.8960
   7        6.4552
   8        6.8185
   9        7.6858
  10        8.3196
  11        9.1364
  12        9.2128
  13        9.6073
  14       11.6750
  15       12.5322
  16       12.9960
 
  0.2222222E+00  0.8333333E-01  0.0000000E+00  0.5144033E-03
   1       -3.5628
   2        0.5341
   3        2.5291
   4        3.4819
   5        4.0278
   6        4.9749
   7        6.5170
   8        6.9231
   9        7.3793
  10        8.0414
  11        8.8687
  12        9.2925
  13        9.6868
  14       11.7568
  15       12.9661
  16       13.0712
 
  0.2500000E+00  0.8333333E-01  0.0000000E+00  0.5144033E-03
   1       -3.4650
   2        0.2249
   3        2.6224
   4        3.5741
   5        4.1163
   6        5.0635
   7        6.2263
   8        7.0828
   9        7.3992
  10        7.7684
  11        8.6002
  12        9.3829
  13        9.7773
  14       11.8495
  15       12.7825
  16       13.0204
 
  0.2777778E+00  0.8333333E-01  0.0000000E+00  0.5144033E-03
   1       -3.3556
   2       -0.0736
   3        2.7265
   4        3.6771
   5        4.2129
   6        5.1611
   7        5.9479
   8        6.7968
   9        7.5030
  10        7.8828
  11        8.3350
  12        9.4837
  13        9.8792
  14       11.9530
  15       12.5089
  16       12.7589
 
  0.3055556E+00  0.8333333E-01  0.0000000E+00  0.5144033E-03
   1       -3.2349
   2       -0.3616
   3        2.8414
   4        3.7910
   5        4.3153
   6        5.2666
   7        5.6841
   8        6.5212
   9        7.2475
  10        8.0759
  11        8.3726
  12        9.5952
  13        9.9933
  14       12.0673
  15       12.2446
  16       12.5051
 
  0.3333333E+00  0.8333333E-01  0.0000000E+00  0.5144033E-03
   1       -3.1027
   2       -0.6387
   3        2.9670
   4        3.9157
   5        4.4182
   6        5.3781
   7        5.4401
   8        6.2562
   9        7.0049
  10        7.8246
  11        8.8662
  12        9.7172
  13       10.1210
  14       11.9898
  15       12.1924
  16       12.2594
 
  0.3611111E+00  0.8333333E-01  0.0000000E+00  0.5144033E-03
   1       -2.9592
   2       -0.9051
   3        3.1031
   4        4.0512
   5        4.5072
   6        5.2301
   7        5.4915
   8        6.0019
   9        6.7799
  10        7.5822
  11        9.3587
  12        9.8497
  13       10.2667
  14       11.7446
  15       12.0222
  16       12.3282
 
  0.3888889E+00  0.8333333E-01  0.0000000E+00  0.5144033E-03
   1       -2.8043
   2       -1.1605
   3        3.2496
   4        4.1976
   5        4.5407
   6        5.0953
   7        5.5974
   8        5.7583
   9        6.5825
  10        7.3501
  11        9.8362
  12        9.9926
  13       10.4430
  14       11.5093
  15       11.7935
  16       12.4747
 
  0.4166667E+00  0.8333333E-01  0.0000000E+00  0.5144033E-03
   1       -2.6381
   2       -1.4049
   3        3.4062
   4        4.3548
   5        4.4622
   6        5.0914
   7        5.5254
   8        5.6734
   9        6.4357
  10        7.1295
  11       10.1461
  12       10.2522
  13       10.6952
  14       11.2840
  15       11.5733
  16       12.6318
 
  0.4444444E+00  0.8333333E-01  0.0000000E+00  0.5144033E-03
   1       -2.4606
   2       -1.6383
   3        3.5725
   4        4.3027
   5        4.5229
   6        5.1858
   7        5.3033
   8        5.6787
   9        6.3809
  10        6.9223
  11       10.3099
  12       10.5429
  13       11.0688
  14       11.0848
  15       11.3612
  16       12.7995
 
  0.4722222E+00  0.8333333E-01  0.0000000E+00  0.5144033E-03
   1       -2.2718
   2       -1.8606
   3        3.7478
   4        4.1181
   5        4.7018
   6        5.0920
   7        5.3197
   8        5.5964
   9        6.4359
  10        6.7316
  11       10.4842
  12       10.7587
  13       10.8637
  14       11.1566
  15       11.5588
  16       12.5509
 
  0.5000000E+00  0.8333333E-01  0.0000000E+00  0.2572016E-03
   1       -2.0718
   2       -2.0718
   3        3.9306
   4        3.9306
   5        4.8915
   6        4.8915
   7        5.4642
   8        5.4642
   9        6.5642
  10        6.5642
  11       10.6688
  12       10.6688
  13       10.9575
  14       10.9575
  15       12.0552
  16       12.0552
 
  0.1111111E+00  0.1111111E+00  0.0000000E+00  0.2572016E-03
   1       -3.7991
   2        1.9095
   3        1.9095
   4        3.2596
   5        3.8089
   6        5.1462
   7        5.1462
   8        7.4439
   9        8.6986
  10        8.6986
  11        9.1846
  12        9.1846
  13        9.9255
  14       11.4450
  15       11.9080
  16       11.9080
 
  0.1388889E+00  0.1111111E+00  0.0000000E+00  0.5144033E-03
   1       -3.7472
   2        1.5613
   3        1.9592
   4        3.3084
   5        3.8571
   6        5.1937
   7        5.5841
   8        7.1155
   9        8.3652
  10        8.7467
  11        8.9161
  12        9.2328
  13        9.8842
  14       11.6038
  15       11.9569
  16       12.3370
 
  0.1666667E+00  0.1111111E+00  0.0000000E+00  0.5144033E-03
   1       -3.6838
   2        1.2221
   3        2.0200
   4        3.3681
   5        3.9156
   6        5.2516
   7        6.0326
   8        6.7950
   9        8.0398
  10        8.6386
  11        8.8055
  12        9.2918
  13        9.7207
  14       11.8986
  15       12.0166
  16       12.7792
 
  0.1944444E+00  0.1111111E+00  0.0000000E+00  0.5144033E-03
   1       -3.6089
   2        0.8926
   3        2.0918
   4        3.4385
   5        3.9839
   6        5.3196
   7        6.4839
   8        6.4906
   9        7.7235
  10        8.3591
  11        8.8749
  12        9.3618
  13        9.4966
  14       12.0872
  15       12.2698
  16       13.0413
 
  0.2222222E+00  0.1111111E+00  0.0000000E+00  0.5144033E-03
   1       -3.5225
   2        0.5732
   3        2.1745
   4        3.5199
   5        4.0615
   6        5.3972
   7        6.1834
   8        6.9574
   9        7.4170
  10        8.0820
  11        8.9550
  12        9.2473
  13        9.4431
  14       12.1685
  15       12.6836
  16       12.7487
 
  0.2500000E+00  0.1111111E+00  0.0000000E+00  0.5144033E-03
   1       -3.4247
   2        0.2642
   3        2.2682
   4        3.6120
   5        4.1472
   6        5.4840
   7        5.8951
   8        7.1206
   9        7.4320
  10        7.8105
  11        8.9893
  12        9.0457
  13        9.5360
  14       12.2606
  15       12.4645
  16       12.7688
 
  0.2777778E+00  0.1111111E+00  0.0000000E+00  0.5144033E-03
   1       -3.3154
   2       -0.0343
   3        2.3727
   4        3.7151
   5        4.2385
   6        5.5788
   7        5.6216
   8        6.8346
   9        7.5475
  10        7.9132
  11        8.7306
  12        9.1471
  13        9.6414
  14       12.1892
  15       12.3635
  16       12.5084
 
  0.3055556E+00  0.1111111E+00  0.0000000E+00  0.5144033E-03
   1       -3.1947
   2       -0.3221
   3        2.4881
   4        3.8289
   5        4.3301
   6        5.3686
   7        5.6799
   8        6.5590
   9        7.2961
  10        8.3985
  11        8.4756
  12        9.2591
  13        9.7610
  14       11.9233
  15       12.2553
  16       12.4772
 
  0.3333333E+00  0.1111111E+00  0.0000000E+00  0.5144033E-03
   1       -3.0626
   2       -0.5992
   3        2.6143
   4        3.9536
   5        4.4070
   6        5.1507
   7        5.7832
   8        6.2941
   9        7.0610
  10        8.2268
  11        8.8835
  12        9.3817
  13        9.8989
  14       11.6669
  15       12.0101
  16       12.6015
 
  0.3611111E+00  0.1111111E+00  0.0000000E+00  0.5144033E-03
   1       -2.9191
   2       -0.8655
   3        2.7511
   4        4.0892
   5        4.4281
   6        5.0092
   7        5.8799
   8        6.0398
   9        6.8521
  10        7.9858
  11        9.3556
  12        9.5149
  13       10.0667
  14       11.4203
  15       11.7730
  16       12.7365
 
  0.3888889E+00  0.1111111E+00  0.0000000E+00  0.5144033E-03
   1       -2.7642
   2       -1.1208
   3        2.8984
   4        4.2355
   5        4.3400
   6        4.9970
   7        5.7962
   8        5.9474
   9        6.6922
  10        7.7540
  11        9.6586
  12        9.7781
  13       10.3004
  14       11.1836
  15       11.5442
  16       12.8820
 
  0.4166667E+00  0.1111111E+00  0.0000000E+00  0.5144033E-03
   1       -2.5980