       N       E                     dE             d eps       ncg     rms          rms(c)
DAV:   1     0.109091771231E+02    0.10909E+02   -0.57608E+03 42560   0.957E+02
DAV:   2    -0.131544938388E+02   -0.24064E+02   -0.22474E+02 54504   0.987E+01
DAV:   3    -0.140456354044E+02   -0.89114E+00   -0.88263E+00 57520   0.141E+01
DAV:   4    -0.140534988983E+02   -0.78635E-02   -0.78619E-02 51280   0.160E+00
DAV:   5    -0.140536088681E+02   -0.10997E-03   -0.10997E-03 58704   0.196E-01    0.160E+00
DAV:   6    -0.140087754632E+02    0.44833E-01   -0.10389E-02 51000   0.504E-01    0.992E-01
DAV:   7    -0.139773166865E+02    0.31459E-01   -0.30252E-02 49056   0.825E-01    0.480E-02
DAV:   8    -0.139772710018E+02    0.45685E-04   -0.19756E-04 55152   0.853E-02    0.128E-02
DAV:   9    -0.139772742943E+02   -0.32925E-05   -0.58423E-06 54680   0.118E-02    0.134E-03
DAV:  10    -0.139772729817E+02    0.13126E-05   -0.90990E-08 57288   0.175E-03    0.295E-04
DAV:  11    -0.139772729114E+02    0.70263E-07   -0.24558E-09 39952   0.249E-04    0.368E-05
DAV:  12    -0.139772729440E+02   -0.32575E-07   -0.51240E-10 34464   0.137E-04    0.118E-05
DAV:  13    -0.139772729397E+02    0.43060E-08   -0.93682E-11 30312   0.488E-05
   1 F= -.13977273E+02 E0= -.13977221E+02  d E =-.102944E-03
