<?xml version="1.0" encoding="ISO-8859-1"?>
<modeling>
 <generator>
  <i name="program" type="string">vasp</i>
  <i name="version" type="string">4.6.28 </i>
  <i name="subversion" type="string">25Jul05 complex  parallel</i>
  <i name="platform" type="string">LinuxIFC</i>
  <i name="date" type="string">2017 01 14</i>
  <i name="time" type="string">09:17:49</i>
 </generator>
 <incar>
  <i type="string" name="PREC">accurate</i>
  <i type="int" name="IALGO">    38</i>
  <i type="logical" name="ADDGRID"> T  </i>
  <i name="EDIFF">      0.00000001</i>
  <i type="int" name="IBRION">    -1</i>
  <i name="ENCUT">   1000.00000000</i>
  <i type="logical" name="LREAL"> F  </i>
  <i type="int" name="ISMEAR">     0</i>
  <i name="SIGMA">      0.01000000</i>
  <i type="logical" name="LWAVE"> F  </i>
  <i type="logical" name="LCHARG"> F  </i>
 </incar>
 <kpoints>
  <generation param="Gamma">
   <v type="int" name="divisions">      36      36      36</v>
   <v name="usershift">      0.00000000      0.00000000      0.00000000</v>
   <v name="genvec1">      0.02777778      0.00000000      0.00000000</v>
   <v name="genvec2">      0.00000000      0.02777778      0.00000000</v>
   <v name="genvec3">      0.00000000      0.00000000      0.02777778</v>
   <v name="shift">      0.00000000      0.00000000      0.00000000</v>
  </generation>
  <varray name="kpointlist" >
   <v>       0.00000000      0.00000000      0.00000000</v>
   <v>       0.02777778      0.00000000      0.00000000</v>
   <v>       0.05555556      0.00000000      0.00000000</v>
   <v>       0.08333333      0.00000000      0.00000000</v>
   <v>       0.11111111      0.00000000      0.00000000</v>
   <v>       0.13888889      0.00000000      0.00000000</v>
   <v>       0.16666667      0.00000000      0.00000000</v>
   <v>       0.19444444      0.00000000      0.00000000</v>
   <v>       0.22222222      0.00000000      0.00000000</v>
   <v>       0.25000000      0.00000000      0.00000000</v>
   <v>       0.27777778      0.00000000      0.00000000</v>
   <v>       0.30555556      0.00000000      0.00000000</v>
   <v>       0.33333333      0.00000000      0.00000000</v>
   <v>       0.36111111      0.00000000      0.00000000</v>
   <v>       0.38888889      0.00000000      0.00000000</v>
   <v>       0.41666667      0.00000000      0.00000000</v>
   <v>       0.44444444      0.00000000      0.00000000</v>
   <v>       0.47222222      0.00000000      0.00000000</v>
   <v>       0.50000000      0.00000000      0.00000000</v>
   <v>       0.02777778      0.02777778      0.00000000</v>
   <v>       0.05555556      0.02777778      0.00000000</v>
   <v>       0.08333333      0.02777778      0.00000000</v>
   <v>       0.11111111      0.02777778      0.00000000</v>
   <v>       0.13888889      0.02777778      0.00000000</v>
   <v>       0.16666667      0.02777778      0.00000000</v>
   <v>       0.19444444      0.02777778      0.00000000</v>
   <v>       0.22222222      0.02777778      0.00000000</v>
   <v>       0.25000000      0.02777778      0.00000000</v>
   <v>       0.27777778      0.02777778      0.00000000</v>
   <v>       0.30555556      0.02777778      0.00000000</v>
   <v>       0.33333333      0.02777778      0.00000000</v>
   <v>       0.36111111      0.02777778      0.00000000</v>
   <v>       0.38888889      0.02777778      0.00000000</v>
   <v>       0.41666667      0.02777778      0.00000000</v>
   <v>       0.44444444      0.02777778      0.00000000</v>
   <v>       0.47222222      0.02777778      0.00000000</v>
   <v>       0.50000000      0.02777778      0.00000000</v>
   <v>       0.05555556      0.05555556      0.00000000</v>
   <v>       0.08333333      0.05555556      0.00000000</v>
   <v>       0.11111111      0.05555556      0.00000000</v>
   <v>       0.13888889      0.05555556      0.00000000</v>
   <v>       0.16666667      0.05555556      0.00000000</v>
   <v>       0.19444444      0.05555556      0.00000000</v>
   <v>       0.22222222      0.05555556      0.00000000</v>
   <v>       0.25000000      0.05555556      0.00000000</v>
   <v>       0.27777778      0.05555556      0.00000000</v>
   <v>       0.30555556      0.05555556      0.00000000</v>
   <v>       0.33333333      0.05555556      0.00000000</v>
   <v>       0.36111111      0.05555556      0.00000000</v>
   <v>       0.38888889      0.05555556      0.00000000</v>
   <v>       0.41666667      0.05555556      0.00000000</v>
   <v>       0.44444444      0.05555556      0.00000000</v>
   <v>       0.47222222      0.05555556      0.00000000</v>
   <v>       0.50000000      0.05555556      0.00000000</v>
   <v>       0.08333333      0.08333333      0.00000000</v>
   <v>       0.11111111      0.08333333      0.00000000</v>
   <v>       0.13888889      0.08333333      0.00000000</v>
   <v>       0.16666667      0.08333333      0.00000000</v>
   <v>       0.19444444      0.08333333      0.00000000</v>
   <v>       0.22222222      0.08333333      0.00000000</v>
   <v>       0.25000000      0.08333333      0.00000000</v>
   <v>       0.27777778      0.08333333      0.00000000</v>
   <v>       0.30555556      0.08333333      0.00000000</v>
   <v>       0.33333333      0.08333333      0.00000000</v>
   <v>       0.36111111      0.08333333      0.00000000</v>
   <v>       0.38888889      0.08333333      0.00000000</v>
   <v>       0.41666667      0.08333333      0.00000000</v>
   <v>       0.44444444      0.08333333      0.00000000</v>
   <v>       0.47222222      0.08333333      0.00000000</v>
   <v>       0.50000000      0.08333333      0.00000000</v>
   <v>       0.11111111      0.11111111      0.00000000</v>
   <v>       0.13888889      0.11111111      0.00000000</v>
   <v>       0.16666667      0.11111111      0.00000000</v>
   <v>       0.19444444      0.11111111      0.00000000</v>
   <v>       0.22222222      0.11111111      0.00000000</v>
   <v>       0.25000000      0.11111111      0.00000000</v>
   <v>       0.27777778      0.11111111      0.00000000</v>
   <v>       0.30555556      0.11111111      0.00000000</v>
   <v>       0.33333333      0.11111111      0.00000000</v>
   <v>       0.36111111      0.11111111      0.00000000</v>
   <v>       0.38888889      0.11111111      0.00000000</v>
   <v>       0.41666667      0.11111111      0.00000000</v>
   <v>       0.44444444      0.11111111      0.00000000</v>
   <v>       0.47222222      0.11111111      0.00000000</v>
   <v>       0.50000000      0.11111111      0.00000000</v>
   <v>       0.13888889      0.13888889      0.00000000</v>
   <v>       0.16666667      0.13888889      0.00000000</v>
   <v>       0.19444444      0.13888889      0.00000000</v>
   <v>       0.22222222      0.13888889      0.00000000</v>
   <v>       0.25000000      0.13888889      0.00000000</v>
   <v>       0.27777778      0.13888889      0.00000000</v>
   <v>       0.30555556      0.13888889      0.00000000</v>
   <v>       0.33333333      0.13888889      0.00000000</v>
   <v>       0.36111111      0.13888889      0.00000000</v>
   <v>       0.38888889      0.13888889      0.00000000</v>
   <v>       0.41666667      0.13888889      0.00000000</v>
   <v>       0.44444444      0.13888889      0.00000000</v>
   <v>       0.47222222      0.13888889      0.00000000</v>
   <v>       0.50000000      0.13888889      0.00000000</v>
   <v>       0.16666667      0.16666667      0.00000000</v>
   <v>       0.19444444      0.16666667      0.00000000</v>
   <v>       0.22222222      0.16666667      0.00000000</v>
   <v>       0.25000000      0.16666667      0.00000000</v>
   <v>       0.27777778      0.16666667      0.00000000</v>
   <v>       0.30555556      0.16666667      0.00000000</v>
   <v>       0.33333333      0.16666667      0.00000000</v>
   <v>       0.36111111      0.16666667      0.00000000</v>
   <v>       0.38888889      0.16666667      0.00000000</v>
   <v>       0.41666667      0.16666667      0.00000000</v>
   <v>       0.44444444      0.16666667      0.00000000</v>
   <v>       0.47222222      0.16666667      0.00000000</v>
   <v>       0.50000000      0.16666667      0.00000000</v>
   <v>       0.19444444      0.19444444      0.00000000</v>
   <v>       0.22222222      0.19444444      0.00000000</v>
   <v>       0.25000000      0.19444444      0.00000000</v>
   <v>       0.27777778      0.19444444      0.00000000</v>
   <v>       0.30555556      0.19444444      0.00000000</v>
   <v>       0.33333333      0.19444444      0.00000000</v>
   <v>       0.36111111      0.19444444      0.00000000</v>
   <v>       0.38888889      0.19444444      0.00000000</v>
   <v>       0.41666667      0.19444444      0.00000000</v>
   <v>       0.44444444      0.19444444      0.00000000</v>
   <v>       0.47222222      0.19444444      0.00000000</v>
   <v>       0.50000000      0.19444444      0.00000000</v>
   <v>       0.22222222      0.22222222      0.00000000</v>
   <v>       0.25000000      0.22222222      0.00000000</v>
   <v>       0.27777778      0.22222222      0.00000000</v>
   <v>       0.30555556      0.22222222      0.00000000</v>
   <v>       0.33333333      0.22222222      0.00000000</v>
   <v>       0.36111111      0.22222222      0.00000000</v>
   <v>       0.38888889      0.22222222      0.00000000</v>
   <v>       0.41666667      0.22222222      0.00000000</v>
   <v>       0.44444444      0.22222222      0.00000000</v>
   <v>       0.47222222      0.22222222      0.00000000</v>
   <v>       0.50000000      0.22222222      0.00000000</v>
   <v>       0.25000000      0.25000000      0.00000000</v>
   <v>       0.27777778      0.25000000      0.00000000</v>
   <v>       0.30555556      0.25000000      0.00000000</v>
   <v>       0.33333333      0.25000000      0.00000000</v>
   <v>       0.36111111      0.25000000      0.00000000</v>
   <v>       0.38888889      0.25000000      0.00000000</v>
   <v>       0.41666667      0.25000000      0.00000000</v>
   <v>       0.44444444      0.25000000      0.00000000</v>
   <v>       0.47222222      0.25000000      0.00000000</v>
   <v>       0.50000000      0.25000000      0.00000000</v>
   <v>       0.27777778      0.27777778      0.00000000</v>
   <v>       0.30555556      0.27777778      0.00000000</v>
   <v>       0.33333333      0.27777778      0.00000000</v>
   <v>       0.36111111      0.27777778      0.00000000</v>
   <v>       0.38888889      0.27777778      0.00000000</v>
   <v>       0.41666667      0.27777778      0.00000000</v>
   <v>       0.44444444      0.27777778      0.00000000</v>
   <v>       0.47222222      0.27777778      0.00000000</v>
   <v>       0.50000000      0.27777778      0.00000000</v>
   <v>       0.30555556      0.30555556      0.00000000</v>
   <v>       0.33333333      0.30555556      0.00000000</v>
   <v>       0.36111111      0.30555556      0.00000000</v>
   <v>       0.38888889      0.30555556      0.00000000</v>
   <v>       0.41666667      0.30555556      0.00000000</v>
   <v>       0.44444444      0.30555556      0.00000000</v>
   <v>       0.47222222      0.30555556      0.00000000</v>
   <v>       0.50000000      0.30555556      0.00000000</v>
   <v>       0.33333333      0.33333333      0.00000000</v>
   <v>       0.36111111      0.33333333      0.00000000</v>
   <v>       0.38888889      0.33333333      0.00000000</v>
   <v>       0.41666667      0.33333333      0.00000000</v>
   <v>       0.44444444      0.33333333      0.00000000</v>
   <v>       0.47222222      0.33333333      0.00000000</v>
   <v>       0.50000000      0.33333333      0.00000000</v>
   <v>       0.36111111      0.36111111      0.00000000</v>
   <v>       0.38888889      0.36111111      0.00000000</v>
   <v>       0.41666667      0.36111111      0.00000000</v>
   <v>       0.44444444      0.36111111      0.00000000</v>
   <v>       0.47222222      0.36111111      0.00000000</v>
   <v>       0.50000000      0.36111111      0.00000000</v>
   <v>       0.38888889      0.38888889      0.00000000</v>
   <v>       0.41666667      0.38888889      0.00000000</v>
   <v>       0.44444444      0.38888889      0.00000000</v>
   <v>       0.47222222      0.38888889      0.00000000</v>
   <v>       0.50000000      0.38888889      0.00000000</v>
   <v>       0.41666667      0.41666667      0.00000000</v>
   <v>       0.44444444      0.41666667      0.00000000</v>
   <v>       0.47222222      0.41666667      0.00000000</v>
   <v>       0.50000000      0.41666667      0.00000000</v>
   <v>       0.44444444      0.44444444      0.00000000</v>
   <v>       0.47222222      0.44444444      0.00000000</v>
   <v>       0.50000000      0.44444444      0.00000000</v>
   <v>       0.47222222      0.47222222      0.00000000</v>
   <v>       0.50000000      0.47222222      0.00000000</v>
   <v>       0.50000000      0.50000000      0.00000000</v>
   <v>       0.02777778      0.02777778      0.02777778</v>
   <v>       0.05555556      0.02777778      0.02777778</v>
   <v>       0.08333333      0.02777778      0.02777778</v>
   <v>       0.11111111      0.02777778      0.02777778</v>
   <v>       0.13888889      0.02777778      0.02777778</v>
   <v>       0.16666667      0.02777778      0.02777778</v>
   <v>       0.19444444      0.02777778      0.02777778</v>
   <v>       0.22222222      0.02777778      0.02777778</v>
   <v>       0.25000000      0.02777778      0.02777778</v>
   <v>       0.27777778      0.02777778      0.02777778</v>
   <v>       0.30555556      0.02777778      0.02777778</v>
   <v>       0.33333333      0.02777778      0.02777778</v>
   <v>       0.36111111      0.02777778      0.02777778</v>
   <v>       0.38888889      0.02777778      0.02777778</v>
   <v>       0.41666667      0.02777778      0.02777778</v>
   <v>       0.44444444      0.02777778      0.02777778</v>
   <v>       0.47222222      0.02777778      0.02777778</v>
   <v>       0.50000000      0.02777778      0.02777778</v>
   <v>       0.05555556      0.05555556      0.02777778</v>
   <v>       0.08333333      0.05555556      0.02777778</v>
   <v>       0.11111111      0.05555556      0.02777778</v>
   <v>       0.13888889      0.05555556      0.02777778</v>
   <v>       0.16666667      0.05555556      0.02777778</v>
   <v>       0.19444444      0.05555556      0.02777778</v>
   <v>       0.22222222      0.05555556      0.02777778</v>
   <v>       0.25000000      0.05555556      0.02777778</v>
   <v>       0.27777778      0.05555556      0.02777778</v>
   <v>       0.30555556      0.05555556      0.02777778</v>
   <v>       0.33333333      0.05555556      0.02777778</v>
   <v>       0.36111111      0.05555556      0.02777778</v>
   <v>       0.38888889      0.05555556      0.02777778</v>
   <v>       0.41666667      0.05555556      0.02777778</v>
   <v>       0.44444444      0.05555556      0.02777778</v>
   <v>       0.47222222      0.05555556      0.02777778</v>
   <v>       0.50000000      0.05555556      0.02777778</v>
   <v>       0.08333333      0.08333333      0.02777778</v>
   <v>       0.11111111      0.08333333      0.02777778</v>
   <v>       0.13888889      0.08333333      0.02777778</v>
   <v>       0.16666667      0.08333333      0.02777778</v>
   <v>       0.19444444      0.08333333      0.02777778</v>
   <v>       0.22222222      0.08333333      0.02777778</v>
   <v>       0.25000000      0.08333333      0.02777778</v>
   <v>       0.27777778      0.08333333      0.02777778</v>
   <v>       0.30555556      0.08333333      0.02777778</v>
   <v>       0.33333333      0.08333333      0.02777778</v>
   <v>       0.36111111      0.08333333      0.02777778</v>
   <v>       0.38888889      0.08333333      0.02777778</v>
   <v>       0.41666667      0.08333333      0.02777778</v>
   <v>       0.44444444      0.08333333      0.02777778</v>
   <v>       0.47222222      0.08333333      0.02777778</v>
   <v>       0.50000000      0.08333333      0.02777778</v>
   <v>       0.11111111      0.11111111      0.02777778</v>
   <v>       0.13888889      0.11111111      0.02777778</v>
   <v>       0.16666667      0.11111111      0.02777778</v>
   <v>       0.19444444      0.11111111      0.02777778</v>
   <v>       0.22222222      0.11111111      0.02777778</v>
   <v>       0.25000000      0.11111111      0.02777778</v>
   <v>       0.27777778      0.11111111      0.02777778</v>
   <v>       0.30555556      0.11111111      0.02777778</v>
   <v>       0.33333333      0.11111111      0.02777778</v>
   <v>       0.36111111      0.11111111      0.02777778</v>
   <v>       0.38888889      0.11111111      0.02777778</v>
   <v>       0.41666667      0.11111111      0.02777778</v>
   <v>       0.44444444      0.11111111      0.02777778</v>
   <v>       0.47222222      0.11111111      0.02777778</v>
   <v>       0.50000000      0.11111111      0.02777778</v>
   <v>       0.13888889      0.13888889      0.02777778</v>
   <v>       0.16666667      0.13888889      0.02777778</v>
   <v>       0.19444444      0.13888889      0.02777778</v>
   <v>       0.22222222      0.13888889      0.02777778</v>
   <v>       0.25000000      0.13888889      0.02777778</v>
   <v>       0.27777778      0.13888889      0.02777778</v>
   <v>       0.30555556      0.13888889      0.02777778</v>
   <v>       0.33333333      0.13888889      0.02777778</v>
   <v>       0.36111111      0.13888889      0.02777778</v>
   <v>       0.38888889      0.13888889      0.02777778</v>
   <v>       0.41666667      0.13888889      0.02777778</v>
   <v>       0.44444444      0.13888889      0.02777778</v>
   <v>       0.47222222      0.13888889      0.02777778</v>
   <v>       0.50000000      0.13888889      0.02777778</v>
   <v>       0.16666667      0.16666667      0.02777778</v>
   <v>       0.19444444      0.16666667      0.02777778</v>
   <v>       0.22222222      0.16666667      0.02777778</v>
   <v>       0.25000000      0.16666667      0.02777778</v>
   <v>       0.27777778      0.16666667      0.02777778</v>
   <v>       0.30555556      0.16666667      0.02777778</v>
   <v>       0.33333333      0.16666667      0.02777778</v>
   <v>       0.36111111      0.16666667      0.02777778</v>
   <v>       0.38888889      0.16666667      0.02777778</v>
   <v>       0.41666667      0.16666667      0.02777778</v>
   <v>       0.44444444      0.16666667      0.02777778</v>
   <v>       0.47222222      0.16666667      0.02777778</v>
   <v>       0.50000000      0.16666667      0.02777778</v>
   <v>       0.19444444      0.19444444      0.02777778</v>
   <v>       0.22222222      0.19444444      0.02777778</v>
   <v>       0.25000000      0.19444444      0.02777778</v>
   <v>       0.27777778      0.19444444      0.02777778</v>
   <v>       0.30555556      0.19444444      0.02777778</v>
   <v>       0.33333333      0.19444444      0.02777778</v>
   <v>       0.36111111      0.19444444      0.02777778</v>
   <v>       0.38888889      0.19444444      0.02777778</v>
   <v>       0.41666667      0.19444444      0.02777778</v>
   <v>       0.44444444      0.19444444      0.02777778</v>
   <v>       0.47222222      0.19444444      0.02777778</v>
   <v>       0.50000000      0.19444444      0.02777778</v>
   <v>       0.22222222      0.22222222      0.02777778</v>
   <v>       0.25000000      0.22222222      0.02777778</v>
   <v>       0.27777778      0.22222222      0.02777778</v>
   <v>       0.30555556      0.22222222      0.02777778</v>
   <v>       0.33333333      0.22222222      0.02777778</v>
   <v>       0.36111111      0.22222222      0.02777778</v>
   <v>       0.38888889      0.22222222      0.02777778</v>
   <v>       0.41666667      0.22222222      0.02777778</v>
   <v>       0.44444444      0.22222222      0.02777778</v>
   <v>       0.47222222      0.22222222      0.02777778</v>
   <v>       0.50000000      0.22222222      0.02777778</v>
   <v>       0.25000000      0.25000000      0.02777778</v>
   <v>       0.27777778      0.25000000      0.02777778</v>
   <v>       0.30555556      0.25000000      0.02777778</v>
   <v>       0.33333333      0.25000000      0.02777778</v>
   <v>       0.36111111      0.25000000      0.02777778</v>
   <v>       0.38888889      0.25000000      0.02777778</v>
   <v>       0.41666667      0.25000000      0.02777778</v>
   <v>       0.44444444      0.25000000      0.02777778</v>
   <v>       0.47222222      0.25000000      0.02777778</v>
   <v>       0.50000000      0.25000000      0.02777778</v>
   <v>       0.27777778      0.27777778      0.02777778</v>
   <v>       0.30555556      0.27777778      0.02777778</v>
   <v>       0.33333333      0.27777778      0.02777778</v>
   <v>       0.36111111      0.27777778      0.02777778</v>
   <v>       0.38888889      0.27777778      0.02777778</v>
   <v>       0.41666667      0.27777778      0.02777778</v>
   <v>       0.44444444      0.27777778      0.02777778</v>
   <v>       0.47222222      0.27777778      0.02777778</v>
   <v>       0.50000000      0.27777778      0.02777778</v>
   <v>       0.30555556      0.30555556      0.02777778</v>
   <v>       0.33333333      0.30555556      0.02777778</v>
   <v>       0.36111111      0.30555556      0.02777778</v>
   <v>       0.38888889      0.30555556      0.02777778</v>
   <v>       0.41666667      0.30555556      0.02777778</v>
   <v>       0.44444444      0.30555556      0.02777778</v>
   <v>       0.47222222      0.30555556      0.02777778</v>
   <v>       0.50000000      0.30555556      0.02777778</v>
   <v>       0.33333333      0.33333333      0.02777778</v>
   <v>       0.36111111      0.33333333      0.02777778</v>
   <v>       0.38888889      0.33333333      0.02777778</v>
   <v>       0.41666667      0.33333333      0.02777778</v>
   <v>       0.44444444      0.33333333      0.02777778</v>
   <v>       0.47222222      0.33333333      0.02777778</v>
   <v>       0.50000000      0.33333333      0.02777778</v>
   <v>       0.36111111      0.36111111      0.02777778</v>
   <v>       0.38888889      0.36111111      0.02777778</v>
   <v>       0.41666667      0.36111111      0.02777778</v>
   <v>       0.44444444      0.36111111      0.02777778</v>
   <v>       0.47222222      0.36111111      0.02777778</v>
   <v>       0.50000000      0.36111111      0.02777778</v>
   <v>       0.38888889      0.38888889      0.02777778</v>
   <v>       0.41666667      0.38888889      0.02777778</v>
   <v>       0.44444444      0.38888889      0.02777778</v>
   <v>       0.47222222      0.38888889      0.02777778</v>
   <v>       0.50000000      0.38888889      0.02777778</v>
   <v>       0.41666667      0.41666667      0.02777778</v>
   <v>       0.44444444      0.41666667      0.02777778</v>
   <v>       0.47222222      0.41666667      0.02777778</v>
   <v>       0.50000000      0.41666667      0.02777778</v>
   <v>       0.44444444      0.44444444      0.02777778</v>
   <v>       0.47222222      0.44444444      0.02777778</v>
   <v>       0.50000000      0.44444444      0.02777778</v>
   <v>       0.47222222      0.47222222      0.02777778</v>
   <v>       0.50000000      0.47222222      0.02777778</v>
   <v>       0.50000000      0.50000000      0.02777778</v>
   <v>       0.05555556      0.05555556      0.05555556</v>
   <v>       0.08333333      0.05555556      0.05555556</v>
   <v>       0.11111111      0.05555556      0.05555556</v>
   <v>       0.13888889      0.05555556      0.05555556</v>
   <v>       0.16666667      0.05555556      0.05555556</v>
   <v>       0.19444444      0.05555556      0.05555556</v>
   <v>       0.22222222      0.05555556      0.05555556</v>
   <v>       0.25000000      0.05555556      0.05555556</v>
   <v>       0.27777778      0.05555556      0.05555556</v>
   <v>       0.30555556      0.05555556      0.05555556</v>
   <v>       0.33333333      0.05555556      0.05555556</v>
   <v>       0.36111111      0.05555556      0.05555556</v>
   <v>       0.38888889      0.05555556      0.05555556</v>
   <v>       0.41666667      0.05555556      0.05555556</v>
   <v>       0.44444444      0.05555556      0.05555556</v>
   <v>       0.47222222      0.05555556      0.05555556</v>
   <v>       0.50000000      0.05555556      0.05555556</v>
   <v>       0.08333333      0.08333333      0.05555556</v>
   <v>       0.11111111      0.08333333      0.05555556</v>
   <v>       0.13888889      0.08333333      0.05555556</v>
   <v>       0.16666667      0.08333333      0.05555556</v>
   <v>       0.19444444      0.08333333      0.05555556</v>
   <v>       0.22222222      0.08333333      0.05555556</v>
   <v>       0.25000000      0.08333333      0.05555556</v>
   <v>       0.27777778      0.08333333      0.05555556</v>
   <v>       0.30555556      0.08333333      0.05555556</v>
   <v>       0.33333333      0.08333333      0.05555556</v>
   <v>       0.36111111      0.08333333      0.05555556</v>
   <v>       0.38888889      0.08333333      0.05555556</v>
   <v>       0.41666667      0.08333333      0.05555556</v>
   <v>       0.44444444      0.08333333      0.05555556</v>
   <v>       0.47222222      0.08333333      0.05555556</v>
   <v>       0.50000000      0.08333333      0.05555556</v>
   <v>       0.11111111      0.11111111      0.05555556</v>
   <v>       0.13888889      0.11111111      0.05555556</v>
   <v>       0.16666667      0.11111111      0.05555556</v>
   <v>       0.19444444      0.11111111      0.05555556</v>
   <v>       0.22222222      0.11111111      0.05555556</v>
   <v>       0.25000000      0.11111111      0.05555556</v>
   <v>       0.27777778      0.11111111      0.05555556</v>
   <v>       0.30555556      0.11111111      0.05555556</v>
   <v>       0.33333333      0.11111111      0.05555556</v>
   <v>       0.36111111      0.11111111      0.05555556</v>
   <v>       0.38888889      0.11111111      0.05555556</v>
   <v>       0.41666667      0.11111111      0.05555556</v>
   <v>       0.44444444      0.11111111      0.05555556</v>
   <v>       0.47222222      0.11111111      0.05555556</v>
   <v>       0.50000000      0.11111111      0.05555556</v>
   <v>       0.13888889      0.13888889      0.05555556</v>
   <v>       0.16666667      0.13888889      0.05555556</v>
   <v>       0.19444444      0.13888889      0.05555556</v>
   <v>       0.22222222      0.13888889      0.05555556</v>
   <v>       0.25000000      0.13888889      0.05555556</v>
   <v>       0.27777778      0.13888889      0.05555556</v>
   <v>       0.30555556      0.13888889      0.05555556</v>
   <v>       0.33333333      0.13888889      0.05555556</v>
   <v>       0.36111111      0.13888889      0.05555556</v>
   <v>       0.38888889      0.13888889      0.05555556</v>
   <v>       0.41666667      0.13888889      0.05555556</v>
   <v>       0.44444444      0.13888889      0.05555556</v>
   <v>       0.47222222      0.13888889      0.05555556</v>
   <v>       0.50000000      0.13888889      0.05555556</v>
   <v>       0.16666667      0.16666667      0.05555556</v>
   <v>       0.19444444      0.16666667      0.05555556</v>
   <v>       0.22222222      0.16666667      0.05555556</v>
   <v>       0.25000000      0.16666667      0.05555556</v>
   <v>       0.27777778      0.16666667      0.05555556</v>
   <v>       0.30555556      0.16666667      0.05555556</v>
   <v>       0.33333333      0.16666667      0.05555556</v>
   <v>       0.36111111      0.16666667      0.05555556</v>
   <v>       0.38888889      0.16666667      0.05555556</v>
   <v>       0.41666667      0.16666667      0.05555556</v>
   <v>       0.44444444      0.16666667      0.05555556</v>
   <v>       0.47222222      0.16666667      0.05555556</v>
   <v>       0.50000000      0.16666667      0.05555556</v>
   <v>       0.19444444      0.19444444      0.05555556</v>
   <v>       0.22222222      0.19444444      0.05555556</v>
   <v>       0.25000000      0.19444444      0.05555556</v>
   <v>       0.27777778      0.19444444      0.05555556</v>
   <v>       0.30555556      0.19444444      0.05555556</v>
   <v>       0.33333333      0.19444444      0.05555556</v>
   <v>       0.36111111      0.19444444      0.05555556</v>
   <v>       0.38888889      0.19444444      0.05555556</v>
   <v>       0.41666667      0.19444444      0.05555556</v>
   <v>       0.44444444      0.19444444      0.05555556</v>
   <v>       0.47222222      0.19444444      0.05555556</v>
   <v>       0.50000000      0.19444444      0.05555556</v>
   <v>       0.22222222      0.22222222      0.05555556</v>
   <v>       0.25000000      0.22222222      0.05555556</v>
   <v>       0.27777778      0.22222222      0.05555556</v>
   <v>       0.30555556      0.22222222      0.05555556</v>
   <v>       0.33333333      0.22222222      0.05555556</v>
   <v>       0.36111111      0.22222222      0.05555556</v>
   <v>       0.38888889      0.22222222      0.05555556</v>
   <v>       0.41666667      0.22222222      0.05555556</v>
   <v>       0.44444444      0.22222222      0.05555556</v>
   <v>       0.47222222      0.22222222      0.05555556</v>
   <v>       0.50000000      0.22222222      0.05555556</v>
   <v>       0.25000000      0.25000000      0.05555556</v>
   <v>       0.27777778      0.25000000      0.05555556</v>
   <v>       0.30555556      0.25000000      0.05555556</v>
   <v>       0.33333333      0.25000000      0.05555556</v>
   <v>       0.36111111      0.25000000      0.05555556</v>
   <v>       0.38888889      0.25000000      0.05555556</v>
   <v>       0.41666667      0.25000000      0.05555556</v>
   <v>       0.44444444      0.25000000      0.05555556</v>
   <v>       0.47222222      0.25000000      0.05555556</v>
   <v>       0.50000000      0.25000000      0.05555556</v>
   <v>       0.27777778      0.27777778      0.05555556</v>
   <v>       0.30555556      0.27777778      0.05555556</v>
   <v>       0.33333333      0.27777778      0.05555556</v>
   <v>       0.36111111      0.27777778      0.05555556</v>
   <v>       0.38888889      0.27777778      0.05555556</v>
   <v>       0.41666667      0.27777778      0.05555556</v>
   <v>       0.44444444      0.27777778      0.05555556</v>
   <v>       0.47222222      0.27777778      0.05555556</v>
   <v>       0.50000000      0.27777778      0.05555556</v>
   <v>       0.30555556      0.30555556      0.05555556</v>
   <v>       0.33333333      0.30555556      0.05555556</v>
   <v>       0.36111111      0.30555556      0.05555556</v>
   <v>       0.38888889      0.30555556      0.05555556</v>
   <v>       0.41666667      0.30555556      0.05555556</v>
   <v>       0.44444444      0.30555556      0.05555556</v>
   <v>       0.47222222      0.30555556      0.05555556</v>
   <v>       0.50000000      0.30555556      0.05555556</v>
   <v>       0.33333333      0.33333333      0.05555556</v>
   <v>       0.36111111      0.33333333      0.05555556</v>
   <v>       0.38888889      0.33333333      0.05555556</v>
   <v>       0.41666667      0.33333333      0.05555556</v>
   <v>       0.44444444      0.33333333      0.05555556</v>
   <v>       0.47222222      0.33333333      0.05555556</v>
   <v>       0.50000000      0.33333333      0.05555556</v>
   <v>       0.36111111      0.36111111      0.05555556</v>
   <v>       0.38888889      0.36111111      0.05555556</v>
   <v>       0.41666667      0.36111111      0.05555556</v>
   <v>       0.44444444      0.36111111      0.05555556</v>
   <v>       0.47222222      0.36111111      0.05555556</v>
   <v>       0.50000000      0.36111111      0.05555556</v>
   <v>       0.38888889      0.38888889      0.05555556</v>
   <v>       0.41666667      0.38888889      0.05555556</v>
   <v>       0.44444444      0.38888889      0.05555556</v>
   <v>       0.47222222      0.38888889      0.05555556</v>
   <v>       0.50000000      0.38888889      0.05555556</v>
   <v>       0.41666667      0.41666667      0.05555556</v>
   <v>       0.44444444      0.41666667      0.05555556</v>
   <v>       0.47222222      0.41666667      0.05555556</v>
   <v>       0.50000000      0.41666667      0.05555556</v>
   <v>       0.44444444      0.44444444      0.05555556</v>
   <v>       0.47222222      0.44444444      0.05555556</v>
   <v>       0.50000000      0.44444444      0.05555556</v>
   <v>       0.47222222      0.47222222      0.05555556</v>
   <v>       0.50000000      0.47222222      0.05555556</v>
   <v>       0.50000000      0.50000000      0.05555556</v>
   <v>       0.08333333      0.08333333      0.08333333</v>
   <v>       0.11111111      0.08333333      0.08333333</v>
   <v>       0.13888889      0.08333333      0.08333333</v>
   <v>       0.16666667      0.08333333      0.08333333</v>
   <v>       0.19444444      0.08333333      0.08333333</v>
   <v>       0.22222222      0.08333333      0.08333333</v>
   <v>       0.25000000      0.08333333      0.08333333</v>
   <v>       0.27777778      0.08333333      0.08333333</v>
   <v>       0.30555556      0.08333333      0.08333333</v>
   <v>       0.33333333      0.08333333      0.08333333</v>
   <v>       0.36111111      0.08333333      0.08333333</v>
   <v>       0.38888889      0.08333333      0.08333333</v>
   <v>       0.41666667      0.08333333      0.08333333</v>
   <v>       0.44444444      0.08333333      0.08333333</v>
   <v>       0.47222222      0.08333333      0.08333333</v>
   <v>       0.50000000      0.08333333      0.08333333</v>
   <v>       0.11111111      0.11111111      0.08333333</v>
   <v>       0.13888889      0.11111111      0.08333333</v>
   <v>       0.16666667      0.11111111      0.08333333</v>
   <v>       0.19444444      0.11111111      0.08333333</v>
   <v>       0.22222222      0.11111111      0.08333333</v>
   <v>       0.25000000      0.11111111      0.08333333</v>
   <v>       0.27777778      0.11111111      0.08333333</v>
   <v>       0.30555556      0.11111111      0.08333333</v>
   <v>       0.33333333      0.11111111      0.08333333</v>
   <v>       0.36111111      0.11111111      0.08333333</v>
   <v>       0.38888889      0.11111111      0.08333333</v>
   <v>       0.41666667      0.11111111      0.08333333</v>
   <v>       0.44444444      0.11111111      0.08333333</v>
   <v>       0.47222222      0.11111111      0.08333333</v>
   <v>       0.50000000      0.11111111      0.08333333</v>
   <v>       0.13888889      0.13888889      0.08333333</v>
   <v>       0.16666667      0.13888889      0.08333333</v>
   <v>       0.19444444      0.13888889      0.08333333</v>
   <v>       0.22222222      0.13888889      0.08333333</v>
   <v>       0.25000000      0.13888889      0.08333333</v>
   <v>       0.27777778      0.13888889      0.08333333</v>
   <v>       0.30555556      0.13888889      0.08333333</v>
   <v>       0.33333333      0.13888889      0.08333333</v>
   <v>       0.36111111      0.13888889      0.08333333</v>
   <v>       0.38888889      0.13888889      0.08333333</v>
   <v>       0.41666667      0.13888889      0.08333333</v>
   <v>       0.44444444      0.13888889      0.08333333</v>
   <v>       0.47222222      0.13888889      0.08333333</v>
   <v>       0.50000000      0.13888889      0.08333333</v>
   <v>       0.16666667      0.16666667      0.08333333</v>
   <v>       0.19444444      0.16666667      0.08333333</v>
   <v>       0.22222222      0.16666667      0.08333333</v>
   <v>       0.25000000      0.16666667      0.08333333</v>
   <v>       0.27777778      0.16666667      0.08333333</v>
   <v>       0.30555556      0.16666667      0.08333333</v>
   <v>       0.33333333      0.16666667      0.08333333</v>
   <v>       0.36111111      0.16666667      0.08333333</v>
   <v>       0.38888889      0.16666667      0.08333333</v>
   <v>       0.41666667      0.16666667      0.08333333</v>
   <v>       0.44444444      0.16666667      0.08333333</v>
   <v>       0.47222222      0.16666667      0.08333333</v>
   <v>       0.50000000      0.16666667      0.08333333</v>
   <v>       0.19444444      0.19444444      0.08333333</v>
   <v>       0.22222222      0.19444444      0.08333333</v>
   <v>       0.25000000      0.19444444      0.08333333</v>
   <v>       0.27777778      0.19444444      0.08333333</v>
   <v>       0.30555556      0.19444444      0.08333333</v>
   <v>       0.33333333      0.19444444      0.08333333</v>
   <v>       0.36111111      0.19444444      0.08333333</v>
   <v>       0.38888889      0.19444444      0.08333333</v>
   <v>       0.41666667      0.19444444      0.08333333</v>
   <v>       0.44444444      0.19444444      0.08333333</v>
   <v>       0.47222222      0.19444444      0.08333333</v>
   <v>       0.50000000      0.19444444      0.08333333</v>
   <v>       0.22222222      0.22222222      0.08333333</v>
   <v>       0.25000000      0.22222222      0.08333333</v>
   <v>       0.27777778      0.22222222      0.08333333</v>
   <v>       0.30555556      0.22222222      0.08333333</v>
   <v>       0.33333333      0.22222222      0.08333333</v>
   <v>       0.36111111      0.22222222      0.08333333</v>
   <v>       0.38888889      0.22222222      0.08333333</v>
   <v>       0.41666667      0.22222222      0.08333333</v>
   <v>       0.44444444      0.22222222      0.08333333</v>
   <v>       0.47222222      0.22222222      0.08333333</v>
   <v>       0.50000000      0.22222222      0.08333333</v>
   <v>       0.25000000      0.25000000      0.08333333</v>
   <v>       0.27777778      0.25000000      0.08333333</v>
   <v>       0.30555556      0.25000000      0.08333333</v>
   <v>       0.33333333      0.25000000      0.08333333</v>
   <v>       0.36111111      0.25000000      0.08333333</v>
   <v>       0.38888889      0.25000000      0.08333333</v>
   <v>       0.41666667      0.25000000      0.08333333</v>
   <v>       0.44444444      0.25000000      0.08333333</v>
   <v>       0.47222222      0.25000000      0.08333333</v>
   <v>       0.50000000      0.25000000      0.08333333</v>
   <v>       0.27777778      0.27777778      0.08333333</v>
   <v>       0.30555556      0.27777778      0.08333333</v>
   <v>       0.33333333      0.27777778      0.08333333</v>
   <v>       0.36111111      0.27777778      0.08333333</v>
   <v>       0.38888889      0.27777778      0.08333333</v>
   <v>       0.41666667      0.27777778      0.08333333</v>
   <v>       0.44444444      0.27777778      0.08333333</v>
   <v>       0.47222222      0.27777778      0.08333333</v>
   <v>       0.50000000      0.27777778      0.08333333</v>
   <v>       0.30555556      0.30555556      0.08333333</v>
   <v>       0.33333333      0.30555556      0.08333333</v>
   <v>       0.36111111      0.30555556      0.08333333</v>
   <v>       0.38888889      0.30555556      0.08333333</v>
   <v>       0.41666667      0.30555556      0.08333333</v>
   <v>       0.44444444      0.30555556      0.08333333</v>
   <v>       0.47222222      0.30555556      0.08333333</v>
   <v>       0.50000000      0.30555556      0.08333333</v>
   <v>       0.33333333      0.33333333      0.08333333</v>
   <v>       0.36111111      0.33333333      0.08333333</v>
   <v>       0.38888889      0.33333333      0.08333333</v>
   <v>       0.41666667      0.33333333      0.08333333</v>
   <v>       0.44444444      0.33333333      0.08333333</v>
   <v>       0.47222222      0.33333333      0.08333333</v>
   <v>       0.50000000      0.33333333      0.08333333</v>
   <v>       0.36111111      0.36111111      0.08333333</v>
   <v>       0.38888889      0.36111111      0.08333333</v>
   <v>       0.41666667      0.36111111      0.08333333</v>
   <v>       0.44444444      0.36111111      0.08333333</v>
   <v>       0.47222222      0.36111111      0.08333333</v>
   <v>       0.50000000      0.36111111      0.08333333</v>
   <v>       0.38888889      0.38888889      0.08333333</v>
   <v>       0.41666667      0.38888889      0.08333333</v>
   <v>       0.44444444      0.38888889      0.08333333</v>
   <v>       0.47222222      0.38888889      0.08333333</v>
   <v>       0.50000000      0.38888889      0.08333333</v>
   <v>       0.41666667      0.41666667      0.08333333</v>
   <v>       0.44444444      0.41666667      0.08333333</v>
   <v>       0.47222222      0.41666667      0.08333333</v>
   <v>       0.50000000      0.41666667      0.08333333</v>
   <v>       0.44444444      0.44444444      0.08333333</v>
   <v>       0.47222222      0.44444444      0.08333333</v>
   <v>       0.50000000      0.44444444      0.08333333</v>
   <v>       0.47222222      0.47222222      0.08333333</v>
   <v>       0.50000000      0.47222222      0.08333333</v>
   <v>       0.50000000      0.50000000      0.08333333</v>
   <v>       0.11111111      0.11111111      0.11111111</v>
   <v>       0.13888889      0.11111111      0.11111111</v>
   <v>       0.16666667      0.11111111      0.11111111</v>
   <v>       0.19444444      0.11111111      0.11111111</v>
   <v>       0.22222222      0.11111111      0.11111111</v>
   <v>       0.25000000      0.11111111      0.11111111</v>
   <v>       0.27777778      0.11111111      0.11111111</v>
   <v>       0.30555556      0.11111111      0.11111111</v>
   <v>       0.33333333      0.11111111      0.11111111</v>
   <v>       0.36111111      0.11111111      0.11111111</v>
   <v>       0.38888889      0.11111111      0.11111111</v>
   <v>       0.41666667      0.11111111      0.11111111</v>
   <v>       0.44444444      0.11111111      0.11111111</v>
   <v>       0.47222222      0.11111111      0.11111111</v>
   <v>       0.50000000      0.11111111      0.11111111</v>
   <v>       0.13888889      0.13888889      0.11111111</v>
   <v>       0.16666667      0.13888889      0.11111111</v>
   <v>       0.19444444      0.13888889      0.11111111</v>
   <v>       0.22222222      0.13888889      0.11111111</v>
   <v>       0.25000000      0.13888889      0.11111111</v>
   <v>       0.27777778      0.13888889      0.11111111</v>
   <v>       0.30555556      0.13888889      0.11111111</v>
   <v>       0.33333333      0.13888889      0.11111111</v>
   <v>       0.36111111      0.13888889      0.11111111</v>
   <v>       0.38888889      0.13888889      0.11111111</v>
   <v>       0.41666667      0.13888889      0.11111111</v>
   <v>       0.44444444      0.13888889      0.11111111</v>
   <v>       0.47222222      0.13888889      0.11111111</v>
   <v>       0.50000000      0.13888889      0.11111111</v>
   <v>       0.16666667      0.16666667      0.11111111</v>
   <v>       0.19444444      0.16666667      0.11111111</v>
   <v>       0.22222222      0.16666667      0.11111111</v>
   <v>       0.25000000      0.16666667      0.11111111</v>
   <v>       0.27777778      0.16666667      0.11111111</v>
   <v>       0.30555556      0.16666667      0.11111111</v>
   <v>       0.33333333      0.16666667      0.11111111</v>
   <v>       0.36111111      0.16666667      0.11111111</v>
   <v>       0.38888889      0.16666667      0.11111111</v>
   <v>       0.41666667      0.16666667      0.11111111</v>
   <v>       0.44444444      0.16666667      0.11111111</v>
   <v>       0.47222222      0.16666667      0.11111111</v>
   <v>       0.50000000      0.16666667      0.11111111</v>
   <v>       0.19444444      0.19444444      0.11111111</v>
   <v>       0.22222222      0.19444444      0.11111111</v>
   <v>       0.25000000      0.19444444      0.11111111</v>
   <v>       0.27777778      0.19444444      0.11111111</v>
   <v>       0.30555556      0.19444444      0.11111111</v>
   <v>       0.33333333      0.19444444      0.11111111</v>
   <v>       0.36111111      0.19444444      0.11111111</v>
   <v>       0.38888889      0.19444444      0.11111111</v>
   <v>       0.41666667      0.19444444      0.11111111</v>
   <v>       0.44444444      0.19444444      0.11111111</v>
   <v>       0.47222222      0.19444444      0.11111111</v>
   <v>       0.50000000      0.19444444      0.11111111</v>
   <v>       0.22222222      0.22222222      0.11111111</v>
   <v>       0.25000000      0.22222222      0.11111111</v>
   <v>       0.27777778      0.22222222      0.11111111</v>
   <v>       0.30555556      0.22222222      0.11111111</v>
   <v>       0.33333333      0.22222222      0.11111111</v>
   <v>       0.36111111      0.22222222      0.11111111</v>
   <v>       0.38888889      0.22222222      0.11111111</v>
   <v>       0.41666667      0.22222222      0.11111111</v>
   <v>       0.44444444      0.22222222      0.11111111</v>
   <v>       0.47222222      0.22222222      0.11111111</v>
   <v>       0.50000000      0.22222222      0.11111111</v>
   <v>       0.25000000      0.25000000      0.11111111</v>
   <v>       0.27777778      0.25000000      0.11111111</v>
   <v>       0.30555556      0.25000000      0.11111111</v>
   <v>       0.33333333      0.25000000      0.11111111</v>
   <v>       0.36111111      0.25000000      0.11111111</v>
   <v>       0.38888889      0.25000000      0.11111111</v>
   <v>       0.41666667      0.25000000      0.11111111</v>
   <v>       0.44444444      0.25000000      0.11111111</v>
   <v>       0.47222222      0.25000000      0.11111111</v>
   <v>       0.50000000      0.25000000      0.11111111</v>
   <v>       0.27777778      0.27777778      0.11111111</v>
   <v>       0.30555556      0.27777778      0.11111111</v>
   <v>       0.33333333      0.27777778      0.11111111</v>
   <v>       0.36111111      0.27777778      0.11111111</v>
   <v>       0.38888889      0.27777778      0.11111111</v>
   <v>       0.41666667      0.27777778      0.11111111</v>
   <v>       0.44444444      0.27777778      0.11111111</v>
   <v>       0.47222222      0.27777778      0.11111111</v>
   <v>       0.50000000      0.27777778      0.11111111</v>
   <v>       0.30555556      0.30555556      0.11111111</v>
   <v>       0.33333333      0.30555556      0.11111111</v>
   <v>       0.36111111      0.30555556      0.11111111</v>
   <v>       0.38888889      0.30555556      0.11111111</v>
   <v>       0.41666667      0.30555556      0.11111111</v>
   <v>       0.44444444      0.30555556      0.11111111</v>
   <v>       0.47222222      0.30555556      0.11111111</v>
   <v>       0.50000000      0.30555556      0.11111111</v>
   <v>       0.33333333      0.33333333      0.11111111</v>
   <v>       0.36111111      0.33333333      0.11111111</v>
   <v>       0.38888889      0.33333333      0.11111111</v>
   <v>       0.41666667      0.33333333      0.11111111</v>
   <v>       0.44444444      0.33333333      0.11111111</v>
   <v>       0.47222222      0.33333333      0.11111111</v>
   <v>       0.50000000      0.33333333      0.11111111</v>
   <v>       0.36111111      0.36111111      0.11111111</v>
   <v>       0.38888889      0.36111111      0.11111111</v>
   <v>       0.41666667      0.36111111      0.11111111</v>
   <v>       0.44444444      0.36111111      0.11111111</v>
   <v>       0.47222222      0.36111111      0.11111111</v>
   <v>       0.50000000      0.36111111      0.11111111</v>
   <v>       0.38888889      0.38888889      0.11111111</v>
   <v>       0.41666667      0.38888889      0.11111111</v>
   <v>       0.44444444      0.38888889      0.11111111</v>
   <v>       0.47222222      0.38888889      0.11111111</v>
   <v>       0.50000000      0.38888889      0.11111111</v>
   <v>       0.41666667      0.41666667      0.11111111</v>
   <v>       0.44444444      0.41666667      0.11111111</v>
   <v>       0.47222222      0.41666667      0.11111111</v>
   <v>       0.50000000      0.41666667      0.11111111</v>
   <v>       0.44444444      0.44444444      0.11111111</v>
   <v>       0.47222222      0.44444444      0.11111111</v>
   <v>       0.50000000      0.44444444      0.11111111</v>
   <v>       0.47222222      0.47222222      0.11111111</v>
   <v>       0.50000000      0.47222222      0.11111111</v>
   <v>       0.50000000      0.50000000      0.11111111</v>
   <v>       0.13888889      0.13888889      0.13888889</v>
   <v>       0.16666667      0.13888889      0.13888889</v>
   <v>       0.19444444      0.13888889      0.13888889</v>
   <v>       0.22222222      0.13888889      0.13888889</v>
   <v>       0.25000000      0.13888889      0.13888889</v>
   <v>       0.27777778      0.13888889      0.13888889</v>
   <v>       0.30555556      0.13888889      0.13888889</v>
   <v>       0.33333333      0.13888889      0.13888889</v>
   <v>       0.36111111      0.13888889      0.13888889</v>
   <v>       0.38888889      0.13888889      0.13888889</v>
   <v>       0.41666667      0.13888889      0.13888889</v>
   <v>       0.44444444      0.13888889      0.13888889</v>
   <v>       0.47222222      0.13888889      0.13888889</v>
   <v>       0.50000000      0.13888889      0.13888889</v>
   <v>       0.16666667      0.16666667      0.13888889</v>
   <v>       0.19444444      0.16666667      0.13888889</v>
   <v>       0.22222222      0.16666667      0.13888889</v>
   <v>       0.25000000      0.16666667      0.13888889</v>
   <v>       0.27777778      0.16666667      0.13888889</v>
   <v>       0.30555556      0.16666667      0.13888889</v>
   <v>       0.33333333      0.16666667      0.13888889</v>
   <v>       0.36111111      0.16666667      0.13888889</v>
   <v>       0.38888889      0.16666667      0.13888889</v>
   <v>       0.41666667      0.16666667      0.13888889</v>
   <v>       0.44444444      0.16666667      0.13888889</v>
   <v>       0.47222222      0.16666667      0.13888889</v>
   <v>       0.50000000      0.16666667      0.13888889</v>
   <v>       0.19444444      0.19444444      0.13888889</v>
   <v>       0.22222222      0.19444444      0.13888889</v>
   <v>       0.25000000      0.19444444      0.13888889</v>
   <v>       0.27777778      0.19444444      0.13888889</v>
   <v>       0.30555556      0.19444444      0.13888889</v>
   <v>       0.33333333      0.19444444      0.13888889</v>
   <v>       0.36111111      0.19444444      0.13888889</v>
   <v>       0.38888889      0.19444444      0.13888889</v>
   <v>       0.41666667      0.19444444      0.13888889</v>
   <v>       0.44444444      0.19444444      0.13888889</v>
   <v>       0.47222222      0.19444444      0.13888889</v>
   <v>       0.50000000      0.19444444      0.13888889</v>
   <v>       0.22222222      0.22222222      0.13888889</v>
   <v>       0.25000000      0.22222222      0.13888889</v>
   <v>       0.27777778      0.22222222      0.13888889</v>
   <v>       0.30555556      0.22222222      0.13888889</v>
   <v>       0.33333333      0.22222222      0.13888889</v>
   <v>       0.36111111      0.22222222      0.13888889</v>
   <v>       0.38888889      0.22222222      0.13888889</v>
   <v>       0.41666667      0.22222222      0.13888889</v>
   <v>       0.44444444      0.22222222      0.13888889</v>
   <v>       0.47222222      0.22222222      0.13888889</v>
   <v>       0.50000000      0.22222222      0.13888889</v>
   <v>       0.25000000      0.25000000      0.13888889</v>
   <v>       0.27777778      0.25000000      0.13888889</v>
   <v>       0.30555556      0.25000000      0.13888889</v>
   <v>       0.33333333      0.25000000      0.13888889</v>
   <v>       0.36111111      0.25000000      0.13888889</v>
   <v>       0.38888889      0.25000000      0.13888889</v>
   <v>       0.41666667      0.25000000      0.13888889</v>
   <v>       0.44444444      0.25000000      0.13888889</v>
   <v>       0.47222222      0.25000000      0.13888889</v>
   <v>       0.50000000      0.25000000      0.13888889</v>
   <v>       0.27777778      0.27777778      0.13888889</v>
   <v>       0.30555556      0.27777778      0.13888889</v>
   <v>       0.33333333      0.27777778      0.13888889</v>
   <v>       0.36111111      0.27777778      0.13888889</v>
   <v>       0.38888889      0.27777778      0.13888889</v>
   <v>       0.41666667      0.27777778      0.13888889</v>
   <v>       0.44444444      0.27777778      0.13888889</v>
   <v>       0.47222222      0.27777778      0.13888889</v>
   <v>       0.50000000      0.27777778      0.13888889</v>
   <v>       0.30555556      0.30555556      0.13888889</v>
   <v>       0.33333333      0.30555556      0.13888889</v>
   <v>       0.36111111      0.30555556      0.13888889</v>
   <v>       0.38888889      0.30555556      0.13888889</v>
   <v>       0.41666667      0.30555556      0.13888889</v>
   <v>       0.44444444      0.30555556      0.13888889</v>
   <v>       0.47222222      0.30555556      0.13888889</v>
   <v>       0.50000000      0.30555556      0.13888889</v>
   <v>       0.33333333      0.33333333      0.13888889</v>
   <v>       0.36111111      0.33333333      0.13888889</v>
   <v>       0.38888889      0.33333333      0.13888889</v>
   <v>       0.41666667      0.33333333      0.13888889</v>
   <v>       0.44444444      0.33333333      0.13888889</v>
   <v>       0.47222222      0.33333333      0.13888889</v>
   <v>       0.50000000      0.33333333      0.13888889</v>
   <v>       0.36111111      0.36111111      0.13888889</v>
   <v>       0.38888889      0.36111111      0.13888889</v>
   <v>       0.41666667      0.36111111      0.13888889</v>
   <v>       0.44444444      0.36111111      0.13888889</v>
   <v>       0.47222222      0.36111111      0.13888889</v>
   <v>       0.50000000      0.36111111      0.13888889</v>
   <v>       0.38888889      0.38888889      0.13888889</v>
   <v>       0.41666667      0.38888889      0.13888889</v>
   <v>       0.44444444      0.38888889      0.13888889</v>
   <v>       0.47222222      0.38888889      0.13888889</v>
   <v>       0.50000000      0.38888889      0.13888889</v>
   <v>       0.41666667      0.41666667      0.13888889</v>
   <v>       0.44444444      0.41666667      0.13888889</v>
   <v>       0.47222222      0.41666667      0.13888889</v>
   <v>       0.50000000      0.41666667      0.13888889</v>
   <v>       0.44444444      0.44444444      0.13888889</v>
   <v>       0.47222222      0.44444444      0.13888889</v>
   <v>       0.50000000      0.44444444      0.13888889</v>
   <v>       0.47222222      0.47222222      0.13888889</v>
   <v>       0.50000000      0.47222222      0.13888889</v>
   <v>       0.50000000      0.50000000      0.13888889</v>
   <v>       0.16666667      0.16666667      0.16666667</v>
   <v>       0.19444444      0.16666667      0.16666667</v>
   <v>       0.22222222      0.16666667      0.16666667</v>
   <v>       0.25000000      0.16666667      0.16666667</v>
   <v>       0.27777778      0.16666667      0.16666667</v>
   <v>       0.30555556      0.16666667      0.16666667</v>
   <v>       0.33333333      0.16666667      0.16666667</v>
   <v>       0.36111111      0.16666667      0.16666667</v>
   <v>       0.38888889      0.16666667      0.16666667</v>
   <v>       0.41666667      0.16666667      0.16666667</v>
   <v>       0.44444444      0.16666667      0.16666667</v>
   <v>       0.47222222      0.16666667      0.16666667</v>
   <v>       0.50000000      0.16666667      0.16666667</v>
   <v>       0.19444444      0.19444444      0.16666667</v>
   <v>       0.22222222      0.19444444      0.16666667</v>
   <v>       0.25000000      0.19444444      0.16666667</v>
   <v>       0.27777778      0.19444444      0.16666667</v>
   <v>       0.30555556      0.19444444      0.16666667</v>
   <v>       0.33333333      0.19444444      0.16666667</v>
   <v>       0.36111111      0.19444444      0.16666667</v>
   <v>       0.38888889      0.19444444      0.16666667</v>
   <v>       0.41666667      0.19444444      0.16666667</v>
   <v>       0.44444444      0.19444444      0.16666667</v>
   <v>       0.47222222      0.19444444      0.16666667</v>
   <v>       0.50000000      0.19444444      0.16666667</v>
   <v>       0.22222222      0.22222222      0.16666667</v>
   <v>       0.25000000      0.22222222      0.16666667</v>
   <v>       0.27777778      0.22222222      0.16666667</v>
   <v>       0.30555556      0.22222222      0.16666667</v>
   <v>       0.33333333      0.22222222      0.16666667</v>
   <v>       0.36111111      0.22222222      0.16666667</v>
   <v>       0.38888889      0.22222222      0.16666667</v>
   <v>       0.41666667      0.22222222      0.16666667</v>
   <v>       0.44444444      0.22222222      0.16666667</v>
   <v>       0.47222222      0.22222222      0.16666667</v>
   <v>       0.50000000      0.22222222      0.16666667</v>
   <v>       0.25000000      0.25000000      0.16666667</v>
   <v>       0.27777778      0.25000000      0.16666667</v>
   <v>       0.30555556      0.25000000      0.16666667</v>
   <v>       0.33333333      0.25000000      0.16666667</v>
   <v>       0.36111111      0.25000000      0.16666667</v>
   <v>       0.38888889      0.25000000      0.16666667</v>
   <v>       0.41666667      0.25000000      0.16666667</v>
   <v>       0.44444444      0.25000000      0.16666667</v>
   <v>       0.47222222      0.25000000      0.16666667</v>
   <v>       0.50000000      0.25000000      0.16666667</v>
   <v>       0.27777778      0.27777778      0.16666667</v>
   <v>       0.30555556      0.27777778      0.16666667</v>
   <v>       0.33333333      0.27777778      0.16666667</v>
   <v>       0.36111111      0.27777778      0.16666667</v>
   <v>       0.38888889      0.27777778      0.16666667</v>
   <v>       0.41666667      0.27777778      0.16666667</v>
   <v>       0.44444444      0.27777778      0.16666667</v>
   <v>       0.47222222      0.27777778      0.16666667</v>
   <v>       0.50000000      0.27777778      0.16666667</v>
   <v>       0.30555556      0.30555556      0.16666667</v>
   <v>       0.33333333      0.30555556      0.16666667</v>
   <v>       0.36111111      0.30555556      0.16666667</v>
   <v>       0.38888889      0.30555556      0.16666667</v>
   <v>       0.41666667      0.30555556      0.16666667</v>
   <v>       0.44444444      0.30555556      0.16666667</v>
   <v>       0.47222222      0.30555556      0.16666667</v>
   <v>       0.50000000      0.30555556      0.16666667</v>
   <v>       0.33333333      0.33333333      0.16666667</v>
   <v>       0.36111111      0.33333333      0.16666667</v>
   <v>       0.38888889      0.33333333      0.16666667</v>
   <v>       0.41666667      0.33333333      0.16666667</v>
   <v>       0.44444444      0.33333333      0.16666667</v>
   <v>       0.47222222      0.33333333      0.16666667</v>
   <v>       0.50000000      0.33333333      0.16666667</v>
   <v>       0.36111111      0.36111111      0.16666667</v>
   <v>       0.38888889      0.36111111      0.16666667</v>
   <v>       0.41666667      0.36111111      0.16666667</v>
   <v>       0.44444444      0.36111111      0.16666667</v>
   <v>       0.47222222      0.36111111      0.16666667</v>
   <v>       0.50000000      0.36111111      0.16666667</v>
   <v>       0.38888889      0.38888889      0.16666667</v>
   <v>       0.41666667      0.38888889      0.16666667</v>
   <v>       0.44444444      0.38888889      0.16666667</v>
   <v>       0.47222222      0.38888889      0.16666667</v>
   <v>       0.50000000      0.38888889      0.16666667</v>
   <v>       0.41666667      0.41666667      0.16666667</v>
   <v>       0.44444444      0.41666667      0.16666667</v>
   <v>       0.47222222      0.41666667      0.16666667</v>
   <v>       0.50000000      0.41666667      0.16666667</v>
   <v>       0.44444444      0.44444444      0.16666667</v>
   <v>       0.47222222      0.44444444      0.16666667</v>
   <v>       0.50000000      0.44444444      0.16666667</v>
   <v>       0.47222222      0.47222222      0.16666667</v>
   <v>       0.50000000      0.47222222      0.16666667</v>
   <v>       0.50000000      0.50000000      0.16666667</v>
   <v>       0.19444444      0.19444444      0.19444444</v>
   <v>       0.22222222      0.19444444      0.19444444</v>
   <v>       0.25000000      0.19444444      0.19444444</v>
   <v>       0.27777778      0.19444444      0.19444444</v>
   <v>       0.30555556      0.19444444      0.19444444</v>
   <v>       0.33333333      0.19444444      0.19444444</v>
   <v>       0.36111111      0.19444444      0.19444444</v>
   <v>       0.38888889      0.19444444      0.19444444</v>
   <v>       0.41666667      0.19444444      0.19444444</v>
   <v>       0.44444444      0.19444444      0.19444444</v>
   <v>       0.47222222      0.19444444      0.19444444</v>
   <v>       0.50000000      0.19444444      0.19444444</v>
   <v>       0.22222222      0.22222222      0.19444444</v>
   <v>       0.25000000      0.22222222      0.19444444</v>
   <v>       0.27777778      0.22222222      0.19444444</v>
   <v>       0.30555556      0.22222222      0.19444444</v>
   <v>       0.33333333      0.22222222      0.19444444</v>
   <v>       0.36111111      0.22222222      0.19444444</v>
   <v>       0.38888889      0.22222222      0.19444444</v>
   <v>       0.41666667      0.22222222      0.19444444</v>
   <v>       0.44444444      0.22222222      0.19444444</v>
   <v>       0.47222222      0.22222222      0.19444444</v>
   <v>       0.50000000      0.22222222      0.19444444</v>
   <v>       0.25000000      0.25000000      0.19444444</v>
   <v>       0.27777778      0.25000000      0.19444444</v>
   <v>       0.30555556      0.25000000      0.19444444</v>
   <v>       0.33333333      0.25000000      0.19444444</v>
   <v>       0.36111111      0.25000000      0.19444444</v>
   <v>       0.38888889      0.25000000      0.19444444</v>
   <v>       0.41666667      0.25000000      0.19444444</v>
   <v>       0.44444444      0.25000000      0.19444444</v>
   <v>       0.47222222      0.25000000      0.19444444</v>
   <v>       0.50000000      0.25000000      0.19444444</v>
   <v>       0.27777778      0.27777778      0.19444444</v>
   <v>       0.30555556      0.27777778      0.19444444</v>
   <v>       0.33333333      0.27777778      0.19444444</v>
   <v>       0.36111111      0.27777778      0.19444444</v>
   <v>       0.38888889      0.27777778      0.19444444</v>
   <v>       0.41666667      0.27777778      0.19444444</v>
   <v>       0.44444444      0.27777778      0.19444444</v>
   <v>       0.47222222      0.27777778      0.19444444</v>
   <v>       0.50000000      0.27777778      0.19444444</v>
   <v>       0.30555556      0.30555556      0.19444444</v>
   <v>       0.33333333      0.30555556      0.19444444</v>
   <v>       0.36111111      0.30555556      0.19444444</v>
   <v>       0.38888889      0.30555556      0.19444444</v>
   <v>       0.41666667      0.30555556      0.19444444</v>
   <v>       0.44444444      0.30555556      0.19444444</v>
   <v>       0.47222222      0.30555556      0.19444444</v>
   <v>       0.50000000      0.30555556      0.19444444</v>
   <v>       0.33333333      0.33333333      0.19444444</v>
   <v>       0.36111111      0.33333333      0.19444444</v>
   <v>       0.38888889      0.33333333      0.19444444</v>
   <v>       0.41666667      0.33333333      0.19444444</v>
   <v>       0.44444444      0.33333333      0.19444444</v>
   <v>       0.47222222      0.33333333      0.19444444</v>
   <v>       0.50000000      0.33333333      0.19444444</v>
   <v>       0.36111111      0.36111111      0.19444444</v>
   <v>       0.38888889      0.36111111      0.19444444</v>
   <v>       0.41666667      0.36111111      0.19444444</v>
   <v>       0.44444444      0.36111111      0.19444444</v>
   <v>       0.47222222      0.36111111      0.19444444</v>
   <v>       0.50000000      0.36111111      0.19444444</v>
   <v>       0.38888889      0.38888889      0.19444444</v>
   <v>       0.41666667      0.38888889      0.19444444</v>
   <v>       0.44444444      0.38888889      0.19444444</v>
   <v>       0.47222222      0.38888889      0.19444444</v>
   <v>       0.50000000      0.38888889      0.19444444</v>
   <v>       0.41666667      0.41666667      0.19444444</v>
   <v>       0.44444444      0.41666667      0.19444444</v>
   <v>       0.47222222      0.41666667      0.19444444</v>
   <v>       0.50000000      0.41666667      0.19444444</v>
   <v>       0.44444444      0.44444444      0.19444444</v>
   <v>       0.47222222      0.44444444      0.19444444</v>
   <v>       0.50000000      0.44444444      0.19444444</v>
   <v>       0.47222222      0.47222222      0.19444444</v>
   <v>       0.50000000      0.47222222      0.19444444</v>
   <v>       0.50000000      0.50000000      0.19444444</v>
   <v>       0.22222222      0.22222222      0.22222222</v>
   <v>       0.25000000      0.22222222      0.22222222</v>
   <v>       0.27777778      0.22222222      0.22222222</v>
   <v>       0.30555556      0.22222222      0.22222222</v>
   <v>       0.33333333      0.22222222      0.22222222</v>
   <v>       0.36111111      0.22222222      0.22222222</v>
   <v>       0.38888889      0.22222222      0.22222222</v>
   <v>       0.41666667      0.22222222      0.22222222</v>
   <v>       0.44444444      0.22222222      0.22222222</v>
   <v>       0.47222222      0.22222222      0.22222222</v>
   <v>       0.50000000      0.22222222      0.22222222</v>
   <v>       0.25000000      0.25000000      0.22222222</v>
   <v>       0.27777778      0.25000000      0.22222222</v>
   <v>       0.30555556      0.25000000      0.22222222</v>
   <v>       0.33333333      0.25000000      0.22222222</v>
   <v>       0.36111111      0.25000000      0.22222222</v>
   <v>       0.38888889      0.25000000      0.22222222</v>
   <v>       0.41666667      0.25000000      0.22222222</v>
   <v>       0.44444444      0.25000000      0.22222222</v>
   <v>       0.47222222      0.25000000      0.22222222</v>
   <v>       0.50000000      0.25000000      0.22222222</v>
   <v>       0.27777778      0.27777778      0.22222222</v>
   <v>       0.30555556      0.27777778      0.22222222</v>
   <v>       0.33333333      0.27777778      0.22222222</v>
   <v>       0.36111111      0.27777778      0.22222222</v>
   <v>       0.38888889      0.27777778      0.22222222</v>
   <v>       0.41666667      0.27777778      0.22222222</v>
   <v>       0.44444444      0.27777778      0.22222222</v>
   <v>       0.47222222      0.27777778      0.22222222</v>
   <v>       0.50000000      0.27777778      0.22222222</v>
   <v>       0.30555556      0.30555556      0.22222222</v>
   <v>       0.33333333      0.30555556      0.22222222</v>
   <v>       0.36111111      0.30555556      0.22222222</v>
   <v>       0.38888889      0.30555556      0.22222222</v>
   <v>       0.41666667      0.30555556      0.22222222</v>
   <v>       0.44444444      0.30555556      0.22222222</v>
   <v>       0.47222222      0.30555556      0.22222222</v>
   <v>       0.50000000      0.30555556      0.22222222</v>
   <v>       0.33333333      0.33333333      0.22222222</v>
   <v>       0.36111111      0.33333333      0.22222222</v>
   <v>       0.38888889      0.33333333      0.22222222</v>
   <v>       0.41666667      0.33333333      0.22222222</v>
   <v>       0.44444444      0.33333333      0.22222222</v>
   <v>       0.47222222      0.33333333      0.22222222</v>
   <v>       0.50000000      0.33333333      0.22222222</v>
   <v>       0.36111111      0.36111111      0.22222222</v>
   <v>       0.38888889      0.36111111      0.22222222</v>
   <v>       0.41666667      0.36111111      0.22222222</v>
   <v>       0.44444444      0.36111111      0.22222222</v>
   <v>       0.47222222      0.36111111      0.22222222</v>
   <v>       0.50000000      0.36111111      0.22222222</v>
   <v>       0.38888889      0.38888889      0.22222222</v>
   <v>       0.41666667      0.38888889      0.22222222</v>
   <v>       0.44444444      0.38888889      0.22222222</v>
   <v>       0.47222222      0.38888889      0.22222222</v>
   <v>       0.50000000      0.38888889      0.22222222</v>
   <v>       0.41666667      0.41666667      0.22222222</v>
   <v>       0.44444444      0.41666667      0.22222222</v>
   <v>       0.47222222      0.41666667      0.22222222</v>
   <v>       0.50000000      0.41666667      0.22222222</v>
   <v>       0.44444444      0.44444444      0.22222222</v>
   <v>       0.47222222      0.44444444      0.22222222</v>
   <v>       0.50000000      0.44444444      0.22222222</v>
   <v>       0.47222222      0.47222222      0.22222222</v>
   <v>       0.50000000      0.47222222      0.22222222</v>
   <v>       0.50000000      0.50000000      0.22222222</v>
   <v>       0.25000000      0.25000000      0.25000000</v>
   <v>       0.27777778      0.25000000      0.25000000</v>
   <v>       0.30555556      0.25000000      0.25000000</v>
   <v>       0.33333333      0.25000000      0.25000000</v>
   <v>       0.36111111      0.25000000      0.25000000</v>
   <v>       0.38888889      0.25000000      0.25000000</v>
   <v>       0.41666667      0.25000000      0.25000000</v>
   <v>       0.44444444      0.25000000      0.25000000</v>
   <v>       0.47222222      0.25000000      0.25000000</v>
   <v>       0.50000000      0.25000000      0.25000000</v>
   <v>       0.27777778      0.27777778      0.25000000</v>
   <v>       0.30555556      0.27777778      0.25000000</v>
   <v>       0.33333333      0.27777778      0.25000000</v>
   <v>       0.36111111      0.27777778      0.25000000</v>
   <v>       0.38888889      0.27777778      0.25000000</v>
   <v>       0.41666667      0.27777778      0.25000000</v>
   <v>       0.44444444      0.27777778      0.25000000</v>
   <v>       0.47222222      0.27777778      0.25000000</v>
   <v>       0.50000000      0.27777778      0.25000000</v>
   <v>       0.30555556      0.30555556      0.25000000</v>
   <v>       0.33333333      0.30555556      0.25000000</v>
   <v>       0.36111111      0.30555556      0.25000000</v>
   <v>       0.38888889      0.30555556      0.25000000</v>
   <v>       0.41666667      0.30555556      0.25000000</v>
   <v>       0.44444444      0.30555556      0.25000000</v>
   <v>       0.47222222      0.30555556      0.25000000</v>
   <v>       0.50000000      0.30555556      0.25000000</v>
   <v>       0.33333333      0.33333333      0.25000000</v>
   <v>       0.36111111      0.33333333      0.25000000</v>
   <v>       0.38888889      0.33333333      0.25000000</v>
   <v>       0.41666667      0.33333333      0.25000000</v>
   <v>       0.44444444      0.33333333      0.25000000</v>
   <v>       0.47222222      0.33333333      0.25000000</v>
   <v>       0.50000000      0.33333333      0.25000000</v>
   <v>       0.36111111      0.36111111      0.25000000</v>
   <v>       0.38888889      0.36111111      0.25000000</v>
   <v>       0.41666667      0.36111111      0.25000000</v>
   <v>       0.44444444      0.36111111      0.25000000</v>
   <v>       0.47222222      0.36111111      0.25000000</v>
   <v>       0.50000000      0.36111111      0.25000000</v>
   <v>       0.38888889      0.38888889      0.25000000</v>
   <v>       0.41666667      0.38888889      0.25000000</v>
   <v>       0.44444444      0.38888889      0.25000000</v>
   <v>       0.47222222      0.38888889      0.25000000</v>
   <v>       0.50000000      0.38888889      0.25000000</v>
   <v>       0.41666667      0.41666667      0.25000000</v>
   <v>       0.44444444      0.41666667      0.25000000</v>
   <v>       0.47222222      0.41666667      0.25000000</v>
   <v>       0.50000000      0.41666667      0.25000000</v>
   <v>       0.44444444      0.44444444      0.25000000</v>
   <v>       0.47222222      0.44444444      0.25000000</v>
   <v>       0.50000000      0.44444444      0.25000000</v>
   <v>       0.47222222      0.47222222      0.25000000</v>
   <v>       0.50000000      0.47222222      0.25000000</v>
   <v>       0.50000000      0.50000000      0.25000000</v>
   <v>       0.27777778      0.27777778      0.27777778</v>
   <v>       0.30555556      0.27777778      0.27777778</v>
   <v>       0.33333333      0.27777778      0.27777778</v>
   <v>       0.36111111      0.27777778      0.27777778</v>
   <v>       0.38888889      0.27777778      0.27777778</v>
   <v>       0.41666667      0.27777778      0.27777778</v>
   <v>       0.44444444      0.27777778      0.27777778</v>
   <v>       0.47222222      0.27777778      0.27777778</v>
   <v>       0.50000000      0.27777778      0.27777778</v>
   <v>       0.30555556      0.30555556      0.27777778</v>
   <v>       0.33333333      0.30555556      0.27777778</v>
   <v>       0.36111111      0.30555556      0.27777778</v>
   <v>       0.38888889      0.30555556      0.27777778</v>
   <v>       0.41666667      0.30555556      0.27777778</v>
   <v>       0.44444444      0.30555556      0.27777778</v>
   <v>       0.47222222      0.30555556      0.27777778</v>
   <v>       0.50000000      0.30555556      0.27777778</v>
   <v>       0.33333333      0.33333333      0.27777778</v>
   <v>       0.36111111      0.33333333      0.27777778</v>
   <v>       0.38888889      0.33333333      0.27777778</v>
   <v>       0.41666667      0.33333333      0.27777778</v>
   <v>       0.44444444      0.33333333      0.27777778</v>
   <v>       0.47222222      0.33333333      0.27777778</v>
   <v>       0.50000000      0.33333333      0.27777778</v>
   <v>       0.36111111      0.36111111      0.27777778</v>
   <v>       0.38888889      0.36111111      0.27777778</v>
   <v>       0.41666667      0.36111111      0.27777778</v>
   <v>       0.44444444      0.36111111      0.27777778</v>
   <v>       0.47222222      0.36111111      0.27777778</v>
   <v>       0.50000000      0.36111111      0.27777778</v>
   <v>       0.38888889      0.38888889      0.27777778</v>
   <v>       0.41666667      0.38888889      0.27777778</v>
   <v>       0.44444444      0.38888889      0.27777778</v>
   <v>       0.47222222      0.38888889      0.27777778</v>
   <v>       0.50000000      0.38888889      0.27777778</v>
   <v>       0.41666667      0.41666667      0.27777778</v>
   <v>       0.44444444      0.41666667      0.27777778</v>
   <v>       0.47222222      0.41666667      0.27777778</v>
   <v>       0.50000000      0.41666667      0.27777778</v>
   <v>       0.44444444      0.44444444      0.27777778</v>
   <v>       0.47222222      0.44444444      0.27777778</v>
   <v>       0.50000000      0.44444444      0.27777778</v>
   <v>       0.47222222      0.47222222      0.27777778</v>
   <v>       0.50000000      0.47222222      0.27777778</v>
   <v>       0.50000000      0.50000000      0.27777778</v>
   <v>       0.30555556      0.30555556      0.30555556</v>
   <v>       0.33333333      0.30555556      0.30555556</v>
   <v>       0.36111111      0.30555556      0.30555556</v>
   <v>       0.38888889      0.30555556      0.30555556</v>
   <v>       0.41666667      0.30555556      0.30555556</v>
   <v>       0.44444444      0.30555556      0.30555556</v>
   <v>       0.47222222      0.30555556      0.30555556</v>
   <v>       0.50000000      0.30555556      0.30555556</v>
   <v>       0.33333333      0.33333333      0.30555556</v>
   <v>       0.36111111      0.33333333      0.30555556</v>
   <v>       0.38888889      0.33333333      0.30555556</v>
   <v>       0.41666667      0.33333333      0.30555556</v>
   <v>       0.44444444      0.33333333      0.30555556</v>
   <v>       0.47222222      0.33333333      0.30555556</v>
   <v>       0.50000000      0.33333333      0.30555556</v>
   <v>       0.36111111      0.36111111      0.30555556</v>
   <v>       0.38888889      0.36111111      0.30555556</v>
   <v>       0.41666667      0.36111111      0.30555556</v>
   <v>       0.44444444      0.36111111      0.30555556</v>
   <v>       0.47222222      0.36111111      0.30555556</v>
   <v>       0.50000000      0.36111111      0.30555556</v>
   <v>       0.38888889      0.38888889      0.30555556</v>
   <v>       0.41666667      0.38888889      0.30555556</v>
   <v>       0.44444444      0.38888889      0.30555556</v>
   <v>       0.47222222      0.38888889      0.30555556</v>
   <v>       0.50000000      0.38888889      0.30555556</v>
   <v>       0.41666667      0.41666667      0.30555556</v>
   <v>       0.44444444      0.41666667      0.30555556</v>
   <v>       0.47222222      0.41666667      0.30555556</v>
   <v>       0.50000000      0.41666667      0.30555556</v>
   <v>       0.44444444      0.44444444      0.30555556</v>
   <v>       0.47222222      0.44444444      0.30555556</v>
   <v>       0.50000000      0.44444444      0.30555556</v>
   <v>       0.47222222      0.47222222      0.30555556</v>
   <v>       0.50000000      0.47222222      0.30555556</v>
   <v>       0.50000000      0.50000000      0.30555556</v>
   <v>       0.33333333      0.33333333      0.33333333</v>
   <v>       0.36111111      0.33333333      0.33333333</v>
   <v>       0.38888889      0.33333333      0.33333333</v>
   <v>       0.41666667      0.33333333      0.33333333</v>
   <v>       0.44444444      0.33333333      0.33333333</v>
   <v>       0.47222222      0.33333333      0.33333333</v>
   <v>       0.50000000      0.33333333      0.33333333</v>
   <v>       0.36111111      0.36111111      0.33333333</v>
   <v>       0.38888889      0.36111111      0.33333333</v>
   <v>       0.41666667      0.36111111      0.33333333</v>
   <v>       0.44444444      0.36111111      0.33333333</v>
   <v>       0.47222222      0.36111111      0.33333333</v>
   <v>       0.50000000      0.36111111      0.33333333</v>
   <v>       0.38888889      0.38888889      0.33333333</v>
   <v>       0.41666667      0.38888889      0.33333333</v>
   <v>       0.44444444      0.38888889      0.33333333</v>
   <v>       0.47222222      0.38888889      0.33333333</v>
   <v>       0.50000000      0.38888889      0.33333333</v>
   <v>       0.41666667      0.41666667      0.33333333</v>
   <v>       0.44444444      0.41666667      0.33333333</v>
   <v>       0.47222222      0.41666667      0.33333333</v>
   <v>       0.50000000      0.41666667      0.33333333</v>
   <v>       0.44444444      0.44444444      0.33333333</v>
   <v>       0.47222222      0.44444444      0.33333333</v>
   <v>       0.50000000      0.44444444      0.33333333</v>
   <v>       0.47222222      0.47222222      0.33333333</v>
   <v>       0.50000000      0.47222222      0.33333333</v>
   <v>       0.50000000      0.50000000      0.33333333</v>
   <v>       0.36111111      0.36111111      0.36111111</v>
   <v>       0.38888889      0.36111111      0.36111111</v>
   <v>       0.41666667      0.36111111      0.36111111</v>
   <v>       0.44444444      0.36111111      0.36111111</v>
   <v>       0.47222222      0.36111111      0.36111111</v>
   <v>       0.50000000      0.36111111      0.36111111</v>
   <v>       0.38888889      0.38888889      0.36111111</v>
   <v>       0.41666667      0.38888889      0.36111111</v>
   <v>       0.44444444      0.38888889      0.36111111</v>
   <v>       0.47222222      0.38888889      0.36111111</v>
   <v>       0.50000000      0.38888889      0.36111111</v>
   <v>       0.41666667      0.41666667      0.36111111</v>
   <v>       0.44444444      0.41666667      0.36111111</v>
   <v>       0.47222222      0.41666667      0.36111111</v>
   <v>       0.50000000      0.41666667      0.36111111</v>
   <v>       0.44444444      0.44444444      0.36111111</v>
   <v>       0.47222222      0.44444444      0.36111111</v>
   <v>       0.50000000      0.44444444      0.36111111</v>
   <v>       0.47222222      0.47222222      0.36111111</v>
   <v>       0.50000000      0.47222222      0.36111111</v>
   <v>       0.50000000      0.50000000      0.36111111</v>
   <v>       0.38888889      0.38888889      0.38888889</v>
   <v>       0.41666667      0.38888889      0.38888889</v>
   <v>       0.44444444      0.38888889      0.38888889</v>
   <v>       0.47222222      0.38888889      0.38888889</v>
   <v>       0.50000000      0.38888889      0.38888889</v>
   <v>       0.41666667      0.41666667      0.38888889</v>
   <v>       0.44444444      0.41666667      0.38888889</v>
   <v>       0.47222222      0.41666667      0.38888889</v>
   <v>       0.50000000      0.41666667      0.38888889</v>
   <v>       0.44444444      0.44444444      0.38888889</v>
   <v>       0.47222222      0.44444444      0.38888889</v>
   <v>       0.50000000      0.44444444      0.38888889</v>
   <v>       0.47222222      0.47222222      0.38888889</v>
   <v>       0.50000000      0.47222222      0.38888889</v>
   <v>       0.50000000      0.50000000      0.38888889</v>
[...]
       <r>  13.9965  0.0000</r>
      </set>
      <set comment="kpoint 1297">
       <r>  -0.4654  1.0000</r>
       <r>   0.7360  1.0000</r>
       <r>   1.1202  1.0000</r>
       <r>   1.1202  1.0000</r>
       <r>   2.4333  1.0000</r>
       <r>   2.4333  1.0000</r>
       <r>   2.8137  1.0000</r>
       <r>   3.9930  1.0000</r>
       <r>  11.9841  0.0000</r>
       <r>  11.9841  0.0000</r>
       <r>  12.3254  0.0000</r>
       <r>  12.7835  0.0000</r>
       <r>  12.7835  0.0000</r>
       <r>  12.8504  0.0000</r>
       <r>  13.8275  0.0000</r>
       <r>  14.1062  0.0000</r>
      </set>
      <set comment="kpoint 1298">
       <r>  -0.2915  1.0000</r>
       <r>   0.5105  1.0000</r>
       <r>   1.2709  1.0000</r>
       <r>   1.2709  1.0000</r>
       <r>   2.2280  1.0000</r>
       <r>   2.2280  1.0000</r>
       <r>   2.9810  1.0000</r>
       <r>   3.7682  1.0000</r>
       <r>  12.1097  0.0000</r>
       <r>  12.1097  0.0000</r>
       <r>  12.7627  0.0000</r>
       <r>  12.7627  0.0000</r>
       <r>  12.7843  0.0000</r>
       <r>  12.9985  0.0000</r>
       <r>  13.6554  0.0000</r>
       <r>  14.0750  0.0000</r>
      </set>
      <set comment="kpoint 1299">
       <r>  -0.1067  1.0000</r>
       <r>   0.2945  1.0000</r>
       <r>   1.4049  1.0000</r>
       <r>   1.4049  1.0000</r>
       <r>   2.0612  1.0000</r>
       <r>   2.0612  1.0000</r>
       <r>   3.1605  1.0000</r>
       <r>   3.5544  1.0000</r>
       <r>  12.2141  0.0000</r>
       <r>  12.2141  0.0000</r>
       <r>  12.7038  0.0000</r>
       <r>  12.7038  0.0000</r>
       <r>  13.1541  0.0000</r>
       <r>  13.2157  0.0000</r>
       <r>  13.4841  0.0000</r>
       <r>  13.8974  0.0000</r>
      </set>
      <set comment="kpoint 1300">
       <r>   0.0887  1.0000</r>
       <r>   0.0887  1.0000</r>
       <r>   1.4683  1.0000</r>
       <r>   1.4683  1.0000</r>
       <r>   1.9869  1.0000</r>
       <r>   1.9869  1.0000</r>
       <r>   3.3518  1.0000</r>
       <r>   3.3518  1.0000</r>
       <r>  12.2600  0.0000</r>
       <r>  12.2600  0.0000</r>
       <r>  12.6705  0.0000</r>
       <r>  12.6705  0.0000</r>
       <r>  13.3164  0.0000</r>
       <r>  13.3164  0.0000</r>
       <r>  13.5979  0.0000</r>
       <r>  13.5979  0.0000</r>
      </set>
      <set comment="kpoint 1301">
       <r>  -0.3028  1.0000</r>
       <r>   0.8910  1.0000</r>
       <r>   0.8910  1.0000</r>
       <r>   1.2596  1.0000</r>
       <r>   2.2170  1.0000</r>
       <r>   2.5828  1.0000</r>
       <r>   2.5828  1.0000</r>
       <r>   3.7573  1.0000</r>
       <r>  12.1254  0.0000</r>
       <r>  12.4453  0.0000</r>
       <r>  12.4453  0.0000</r>
       <r>  12.9295  0.0000</r>
       <r>  12.9295  0.0000</r>
       <r>  12.9853  0.0000</r>
       <r>  13.8033  0.0000</r>
       <r>  14.1388  0.0000</r>
      </set>
      <set comment="kpoint 1302">
       <r>  -0.1294  1.0000</r>
       <r>   0.6682  1.0000</r>
       <r>   1.0523  1.0000</r>
       <r>   1.3821  1.0000</r>
       <r>   2.0394  1.0000</r>
       <r>   2.3674  1.0000</r>
       <r>   2.7478  1.0000</r>
       <r>   3.5325  1.0000</r>
       <r>  12.2633  0.0000</r>
       <r>  12.5373  0.0000</r>
       <r>  12.8696  0.0000</r>
       <r>  12.9350  0.0000</r>
       <r>  13.0651  0.0000</r>
       <r>  13.1034  0.0000</r>
       <r>  13.6662  0.0000</r>
       <r>  14.1365  0.0000</r>
      </set>
      <set comment="kpoint 1303">
       <r>   0.0547  1.0000</r>
       <r>   0.4539  1.0000</r>
       <r>   1.2142  1.0000</r>
       <r>   1.4339  1.0000</r>
       <r>   1.9544  1.0000</r>
       <r>   2.1732  1.0000</r>
       <r>   2.9261  1.0000</r>
       <r>   3.3189  1.0000</r>
       <r>  12.3939  0.0000</r>
       <r>  12.5641  0.0000</r>
       <r>  12.9415  0.0000</r>
       <r>  13.0504  0.0000</r>
       <r>  13.1594  0.0000</r>
       <r>  13.3875  0.0000</r>
       <r>  13.5077  0.0000</r>
       <r>  13.9968  0.0000</r>
      </set>
      <set comment="kpoint 1304">
       <r>   0.2493  1.0000</r>
       <r>   0.2493  1.0000</r>
       <r>   1.3593  1.0000</r>
       <r>   1.3593  1.0000</r>
       <r>   2.0177  1.0000</r>
       <r>   2.0177  1.0000</r>
       <r>   3.1166  1.0000</r>
       <r>   3.1166  1.0000</r>
       <r>  12.5044  0.0000</r>
       <r>  12.5044  0.0000</r>
       <r>  12.9917  0.0000</r>
       <r>  12.9917  0.0000</r>
       <r>  13.3417  0.0000</r>
       <r>  13.3417  0.0000</r>
       <r>  13.7290  0.0000</r>
       <r>  13.7290  0.0000</r>
      </set>
      <set comment="kpoint 1305">
       <r>   0.0434  1.0000</r>
       <r>   0.8345  1.0000</r>
       <r>   0.8345  1.0000</r>
       <r>   1.4224  1.0000</r>
       <r>   1.9436  1.0000</r>
       <r>   2.5279  1.0000</r>
       <r>   2.5279  1.0000</r>
       <r>   3.3079  1.0000</r>
       <r>  12.4100  0.0000</r>
       <r>  12.8716  0.0000</r>
       <r>  12.8716  0.0000</r>
       <r>  13.1877  0.0000</r>
       <r>  13.1877  0.0000</r>
       <r>  13.2701  0.0000</r>
       <r>  13.5606  0.0000</r>
       <r>  14.1709  0.0000</r>
      </set>
      <set comment="kpoint 1306">
       <r>   0.2266  1.0000</r>
       <r>   0.6230  1.0000</r>
       <r>   1.0070  1.0000</r>
       <r>   1.3364  1.0000</r>
       <r>   1.9959  1.0000</r>
       <r>   2.3235  1.0000</r>
       <r>   2.7038  1.0000</r>
       <r>   3.0947  1.0000</r>
       <r>  12.5520  0.0000</r>
       <r>  12.7991  0.0000</r>
       <r>  13.0874  0.0000</r>
       <r>  13.2734  0.0000</r>
       <r>  13.3535  0.0000</r>
       <r>  13.4178  0.0000</r>
       <r>  13.5279  0.0000</r>
       <r>  14.0785  0.0000</r>
      </set>
      <set comment="kpoint 1307">
       <r>   0.4200  1.0000</r>
       <r>   0.4200  1.0000</r>
       <r>   1.1801  1.0000</r>
       <r>   1.1801  1.0000</r>
       <r>   2.1404  1.0000</r>
       <r>   2.1404  1.0000</r>
       <r>   2.8931  1.0000</r>
       <r>   2.8931  1.0000</r>
       <r>  12.6852  0.0000</r>
       <r>  12.6852  0.0000</r>
       <r>  13.2597  0.0000</r>
       <r>  13.2597  0.0000</r>
       <r>  13.3402  0.0000</r>
       <r>  13.3402  0.0000</r>
       <r>  13.8497  0.0000</r>
       <r>  13.8497  0.0000</r>
      </set>
      <set comment="kpoint 1308">
       <r>   0.4087  1.0000</r>
       <r>   0.8005  1.0000</r>
       <r>   0.8005  1.0000</r>
       <r>   1.1688  1.0000</r>
       <r>   2.1294  1.0000</r>
       <r>   2.4949  1.0000</r>
       <r>   2.4949  1.0000</r>
       <r>   2.8821  1.0000</r>
       <r>  12.7022  0.0000</r>
       <r>  12.9775  0.0000</r>
       <r>  12.9775  0.0000</r>
       <r>  13.2867  0.0000</r>
       <r>  13.5571  0.0000</r>
       <r>  13.6168  0.0000</r>
       <r>  13.6168  0.0000</r>
       <r>  14.0546  0.0000</r>
      </set>
      <set comment="kpoint 1309">
       <r>   0.6003  1.0000</r>
       <r>   0.6003  1.0000</r>
       <r>   0.9843  1.0000</r>
       <r>   0.9843  1.0000</r>
       <r>   2.3015  1.0000</r>
       <r>   2.3015  1.0000</r>
       <r>   2.6818  1.0000</r>
       <r>   2.6818  1.0000</r>
       <r>  12.8457  0.0000</r>
       <r>  12.8457  0.0000</r>
       <r>  13.1378  0.0000</r>
       <r>  13.1378  0.0000</r>
       <r>  13.6377  0.0000</r>
       <r>  13.6377  0.0000</r>
       <r>  13.8946  0.0000</r>
       <r>  13.8946  0.0000</r>
      </set>
      <set comment="kpoint 1310">
       <r>   0.7892  1.0000</r>
       <r>   0.7892  1.0000</r>
       <r>   0.7892  1.0000</r>
       <r>   0.7892  1.0000</r>
       <r>   2.4839  1.0000</r>
       <r>   2.4839  1.0000</r>
       <r>   2.4839  1.0000</r>
       <r>   2.4839  1.0000</r>
       <r>  12.9970  0.0000</r>
       <r>  12.9970  0.0000</r>
       <r>  12.9970  0.0000</r>
       <r>  12.9970  0.0000</r>
       <r>  13.8301  0.0000</r>
       <r>  13.8301  0.0000</r>
       <r>  13.8301  0.0000</r>
       <r>  13.8301  0.0000</r>
      </set>
      <set comment="kpoint 1311">
       <r>  -0.1407  1.0000</r>
       <r>   1.0410  1.0000</r>
       <r>   1.0410  1.0000</r>
       <r>   1.0410  1.0000</r>
       <r>   2.3565  1.0000</r>
       <r>   2.3565  1.0000</r>
       <r>   2.3565  1.0000</r>
       <r>   3.5215  1.0000</r>
       <r>  12.5868  0.0000</r>
       <r>  12.5868  0.0000</r>
       <r>  12.5868  0.0000</r>
       <r>  13.1212  0.0000</r>
       <r>  13.1212  0.0000</r>
       <r>  13.1212  0.0000</r>
       <r>  14.0118  0.0000</r>
       <r>  14.0118  0.0000</r>
      </set>
      <set comment="kpoint 1312">
       <r>   0.0321  1.0000</r>
       <r>   0.8232  1.0000</r>
       <r>   1.1915  1.0000</r>
       <r>   1.1915  1.0000</r>
       <r>   2.1513  1.0000</r>
       <r>   2.1513  1.0000</r>
       <r>   2.5169  1.0000</r>
       <r>   3.2969  1.0000</r>
       <r>  12.7113  0.0000</r>
       <r>  12.7113  0.0000</r>
       <r>  13.0285  0.0000</r>
       <r>  13.2047  0.0000</r>
       <r>  13.2047  0.0000</r>
       <r>  13.2638  0.0000</r>
       <r>  13.8689  0.0000</r>
       <r>  14.0891  0.0000</r>
      </set>
      <set comment="kpoint 1313">
       <r>   0.2153  1.0000</r>
       <r>   0.6117  1.0000</r>
       <r>   1.3250  1.0000</r>
       <r>   1.3250  1.0000</r>
       <r>   1.9850  1.0000</r>
       <r>   1.9850  1.0000</r>
       <r>   2.6928  1.0000</r>
       <r>   3.0837  1.0000</r>
       <r>  12.8097  0.0000</r>
       <r>  12.8097  0.0000</r>
       <r>  13.2091  0.0000</r>
       <r>  13.2091  0.0000</r>
       <r>  13.4121  0.0000</r>
       <r>  13.4337  0.0000</r>
       <r>  13.7179  0.0000</r>
       <r>  14.0066  0.0000</r>
      </set>
      <set comment="kpoint 1314">
       <r>   0.4087  1.0000</r>
       <r>   0.4087  1.0000</r>
       <r>   1.3880  1.0000</r>
       <r>   1.3880  1.0000</r>
       <r>   1.9111  1.0000</r>
       <r>   1.9111  1.0000</r>
       <r>   2.8821  1.0000</r>
       <r>   2.8821  1.0000</r>
       <r>  12.8512  0.0000</r>
       <r>  12.8512  0.0000</r>
       <r>  13.1975  0.0000</r>
       <r>  13.1975  0.0000</r>
       <r>  13.5643  0.0000</r>
       <r>  13.5643  0.0000</r>
       <r>  13.7739  0.0000</r>
       <r>  13.7739  0.0000</r>
      </set>
      <set comment="kpoint 1315">
       <r>   0.2040  1.0000</r>
       <r>   0.9843  1.0000</r>
       <r>   0.9843  1.0000</r>
       <r>   1.3136  1.0000</r>
       <r>   1.9741  1.0000</r>
       <r>   2.3015  1.0000</r>
       <r>   2.3015  1.0000</r>
       <r>   3.0727  1.0000</r>
       <r>  12.8554  0.0000</r>
       <r>  13.1209  0.0000</r>
       <r>  13.1209  0.0000</r>
       <r>  13.3650  0.0000</r>
       <r>  13.3650  0.0000</r>
       <r>  13.3988  0.0000</r>
       <r>  13.8503  0.0000</r>
       <r>  14.1185  0.0000</r>
      </set>
      <set comment="kpoint 1316">
       <r>   0.3861  1.0000</r>
       <r>   0.7779  1.0000</r>
       <r>   1.1460  1.0000</r>
       <r>   1.3651  1.0000</r>
       <r>   1.8894  1.0000</r>
       <r>   2.1075  1.0000</r>
       <r>   2.4729  1.0000</r>
       <r>   2.8601  1.0000</r>
       <r>  12.9820  0.0000</r>
       <r>  13.1401  0.0000</r>
       <r>  13.4119  0.0000</r>
       <r>  13.4279  0.0000</r>
       <r>  13.4819  0.0000</r>
       <r>  13.6053  0.0000</r>
       <r>  13.7304  0.0000</r>
       <r>  14.0760  0.0000</r>
      </set>
      <set comment="kpoint 1317">
       <r>   0.5777  1.0000</r>
       <r>   0.5777  1.0000</r>
       <r>   1.2908  1.0000</r>
       <r>   1.2908  1.0000</r>
       <r>   1.9524  1.0000</r>
       <r>   1.9524  1.0000</r>
       <r>   2.6599  1.0000</r>
       <r>   2.6599  1.0000</r>
       <r>  13.0842  0.0000</r>
       <r>  13.0842  0.0000</r>
       <r>  13.4764  0.0000</r>
       <r>  13.4764  0.0000</r>
       <r>  13.5853  0.0000</r>
       <r>  13.5853  0.0000</r>
       <r>  13.8891  0.0000</r>
       <r>  13.8891  0.0000</r>
      </set>
      <set comment="kpoint 1318">
       <r>   0.5664  1.0000</r>
       <r>   0.9504  1.0000</r>
       <r>   0.9504  1.0000</r>
       <r>   1.2793  1.0000</r>
       <r>   1.9415  1.0000</r>
       <r>   2.2686  1.0000</r>
       <r>   2.2686  1.0000</r>
       <r>   2.6489  1.0000</r>
       <r>  13.1258  0.0000</r>
       <r>  13.3505  0.0000</r>
       <r>  13.3505  0.0000</r>
       <r>  13.6369  0.0000</r>
       <r>  13.6722  0.0000</r>
       <r>  13.7145  0.0000</r>
       <r>  13.7145  0.0000</r>
       <r>  14.0869  0.0000</r>
      </set>
      <set comment="kpoint 1319">
       <r>   0.7553  1.0000</r>
       <r>   0.7553  1.0000</r>
       <r>   1.1233  1.0000</r>
       <r>   1.1233  1.0000</r>
       <r>   2.0856  1.0000</r>
       <r>   2.0856  1.0000</r>
       <r>   2.4509  1.0000</r>
       <r>   2.4509  1.0000</r>
       <r>  13.2507  0.0000</r>
       <r>  13.2507  0.0000</r>
       <r>  13.5065  0.0000</r>
       <r>  13.5065  0.0000</r>
       <r>  13.7450  0.0000</r>
       <r>  13.7450  0.0000</r>
       <r>  13.9607  0.0000</r>
       <r>  13.9607  0.0000</r>
      </set>
      <set comment="kpoint 1320">
       <r>   0.9390  1.0000</r>
       <r>   0.9390  1.0000</r>
       <r>   0.9390  1.0000</r>
       <r>   0.9390  1.0000</r>
       <r>   2.2576  1.0000</r>
       <r>   2.2576  1.0000</r>
       <r>   2.2576  1.0000</r>
       <r>   2.2576  1.0000</r>
       <r>  13.3902  0.0000</r>
       <r>  13.3902  0.0000</r>
       <r>  13.3902  0.0000</r>
       <r>  13.3902  0.0000</r>
       <r>  13.9177  0.0000</r>
       <r>  13.9177  0.0000</r>
       <r>  13.9177  0.0000</r>
       <r>  13.9177  0.0000</r>
      </set>
      <set comment="kpoint 1321">
       <r>   0.3748  1.0000</r>
       <r>   1.1347  1.0000</r>
       <r>   1.1347  1.0000</r>
       <r>   1.1347  1.0000</r>
       <r>   2.0966  1.0000</r>
       <r>   2.0966  1.0000</r>
       <r>   2.0966  1.0000</r>
       <r>   2.8491  1.0000</r>
       <r>  13.2734  0.0000</r>
       <r>  13.2734  0.0000</r>
       <r>  13.2734  0.0000</r>
       <r>  13.5316  0.0000</r>
       <r>  13.5316  0.0000</r>
       <r>  13.5316  0.0000</r>
       <r>  14.0334  0.0000</r>
       <r>  14.0334  0.0000</r>
      </set>
      <set comment="kpoint 1322">
       <r>   0.5551  1.0000</r>
       <r>   0.9390  1.0000</r>
       <r>   1.2679  1.0000</r>
       <r>   1.2679  1.0000</r>
       <r>   1.9306  1.0000</r>
       <r>   1.9306  1.0000</r>
       <r>   2.2576  1.0000</r>
       <r>   2.6379  1.0000</r>
       <r>  13.3696  0.0000</r>
       <r>  13.3696  0.0000</r>
       <r>  13.6211  0.0000</r>
       <r>  13.6211  0.0000</r>
       <r>  13.6415  0.0000</r>
       <r>  13.6661  0.0000</r>
       <r>  13.9236  0.0000</r>
       <r>  14.0635  0.0000</r>
      </set>
      <set comment="kpoint 1323">
       <r>   0.7439  1.0000</r>
       <r>   0.7439  1.0000</r>
       <r>   1.3306  1.0000</r>
       <r>   1.3306  1.0000</r>
       <r>   1.8570  1.0000</r>
       <r>   1.8570  1.0000</r>
       <r>   2.4399  1.0000</r>
       <r>   2.4399  1.0000</r>
       <r>  13.4060  0.0000</r>
       <r>  13.4060  0.0000</r>
       <r>  13.6434  0.0000</r>
       <r>  13.6434  0.0000</r>
       <r>  13.7986  0.0000</r>
       <r>  13.7986  0.0000</r>
       <r>  13.9220  0.0000</r>
       <r>  13.9220  0.0000</r>
      </set>
      <set comment="kpoint 1324">
       <r>   0.7326  1.0000</r>
       <r>   1.1006  1.0000</r>
       <r>   1.1006  1.0000</r>
       <r>   1.3191  1.0000</r>
       <r>   1.8461  1.0000</r>
       <r>   2.0637  1.0000</r>
       <r>   2.0637  1.0000</r>
       <r>   2.4289  1.0000</r>
       <r>  13.5106  0.0000</r>
       <r>  13.6531  0.0000</r>
       <r>  13.6531  0.0000</r>
       <r>  13.7858  0.0000</r>
       <r>  13.8025  0.0000</r>
       <r>  13.8025  0.0000</r>
       <r>  13.9083  0.0000</r>
       <r>  14.0875  0.0000</r>
      </set>
      <set comment="kpoint 1325">
       <r>   0.9164  1.0000</r>
       <r>   0.9164  1.0000</r>
       <r>   1.2451  1.0000</r>
       <r>   1.2451  1.0000</r>
       <r>   1.9088  1.0000</r>
       <r>   1.9088  1.0000</r>
       <r>   2.2356  1.0000</r>
       <r>   2.2356  1.0000</r>
       <r>  13.6044  0.0000</r>
       <r>  13.6044  0.0000</r>
       <r>  13.8063  0.0000</r>
       <r>  13.8063  0.0000</r>
       <r>  13.8483  0.0000</r>
       <r>  13.8483  0.0000</r>
       <r>  14.0035  0.0000</r>
       <r>  14.0035  0.0000</r>
      </set>
      <set comment="kpoint 1326">
       <r>   1.0892  1.0000</r>
       <r>   1.0892  1.0000</r>
       <r>   1.0892  1.0000</r>
       <r>   1.0892  1.0000</r>
       <r>   2.0528  1.0000</r>
       <r>   2.0528  1.0000</r>
       <r>   2.0528  1.0000</r>
       <r>   2.0528  1.0000</r>
       <r>  13.7278  0.0000</r>
       <r>  13.7278  0.0000</r>
       <r>  13.7278  0.0000</r>
       <r>  13.7278  0.0000</r>
       <r>  13.9914  0.0000</r>
       <r>  13.9914  0.0000</r>
       <r>  13.9914  0.0000</r>
       <r>  13.9914  0.0000</r>
      </set>
      <set comment="kpoint 1327">
       <r>   0.9050  1.0000</r>
       <r>   1.2336  1.0000</r>
       <r>   1.2336  1.0000</r>
       <r>   1.2336  1.0000</r>
       <r>   1.8979  1.0000</r>
       <r>   1.8979  1.0000</r>
       <r>   1.8979  1.0000</r>
       <r>   2.2246  1.0000</r>
       <r>  13.8259  0.0000</r>
       <r>  13.8259  0.0000</r>
       <r>  13.8259  0.0000</r>
       <r>  13.8923  0.0000</r>
       <r>  13.8923  0.0000</r>
       <r>  13.8923  0.0000</r>
       <r>  14.0522  0.0000</r>
       <r>  14.0522  0.0000</r>
      </set>
      <set comment="kpoint 1328">
       <r>   1.0779  1.0000</r>
       <r>   1.0779  1.0000</r>
       <r>   1.2961  1.0000</r>
       <r>   1.2961  1.0000</r>
       <r>   1.8244  1.0000</r>
       <r>   1.8244  1.0000</r>
       <r>   2.0418  1.0000</r>
       <r>   2.0418  1.0000</r>
       <r>  13.8610  0.0000</r>
       <r>  13.8610  0.0000</r>
       <r>  13.9498  0.0000</r>
       <r>  13.9498  0.0000</r>
       <r>  13.9842  0.0000</r>
       <r>  13.9842  0.0000</r>
       <r>  14.0233  0.0000</r>
       <r>  14.0233  0.0000</r>
      </set>
      <set comment="kpoint 1329">
       <r>   1.2222  1.0000</r>
       <r>   1.2222  1.0000</r>
       <r>   1.2222  1.0000</r>
       <r>   1.2222  1.0000</r>
       <r>   1.8870  1.0000</r>
       <r>   1.8870  1.0000</r>
       <r>   1.8870  1.0000</r>
       <r>   1.8870  1.0000</r>
       <r>  13.9691  0.0000</r>
       <r>  13.9691  0.0000</r>
       <r>  13.9691  0.0000</r>
       <r>  13.9691  0.0000</r>
       <r>  14.0416  0.0000</r>
       <r>  14.0416  0.0000</r>
       <r>  14.0416  0.0000</r>
       <r>  14.0416  0.0000</r>
      </set>
      <set comment="kpoint 1330">
       <r>   1.2847  1.0000</r>
       <r>   1.2847  1.0000</r>
       <r>   1.2847  1.0000</r>
       <r>   1.2847  1.0000</r>
       <r>   1.8136  1.0000</r>
       <r>   1.8136  1.0000</r>
       <r>   1.8136  1.0000</r>
       <r>   1.8136  1.0000</r>
       <r>  14.0597  0.0000</r>
       <r>  14.0597  0.0000</r>
       <r>  14.0597  0.0000</r>
       <r>  14.0597  0.0000</r>
       <r>  14.0597  0.0000</r>
       <r>  14.0597  0.0000</r>
       <r>  14.0597  0.0000</r>
       <r>  14.0597  0.0000</r>
      </set>
     </set>
    </set>
   </array>
  </eigenvalues>
 </calculation>
 <structure name="finalpos" >
  <crystal>
   <varray name="basis" >
    <v>       4.44384037      0.00000000      0.00000000</v>
    <v>       0.00000000      4.44384037      0.00000000</v>
    <v>       0.00000000      0.00000000      4.44384037</v>
   </varray>
   <i name="volume">     87.75570290</i>
   <varray name="rec_basis" >
    <v>       0.22503059      0.00000000      0.00000000</v>
    <v>       0.00000000      0.22503059      0.00000000</v>
    <v>       0.00000000      0.00000000      0.22503059</v>
   </varray>
  </crystal>
  <varray name="positions" >
   <v>       0.50000000      0.50000000      0.00000000</v>
   <v>       0.50000000      0.00000000      0.50000000</v>
   <v>       0.00000000      0.50000000      0.50000000</v>
   <v>       0.00000000      0.00000000      0.00000000</v>
  </varray>
 </structure>
</modeling>
