   4   4   0   0
  0.2103764E+02  0.4382135E-09  0.4382135E-09  0.4382135E-09  0.5000000E-15
  1.000000000000000E-004
  CAR 
 unknown system                          
     19.21499288     -5.62836506  301      3.33166658      1.00000000
     -5.628  0.0000E+00  0.0000E+00
     -5.546  0.0000E+00  0.0000E+00
     -5.463  0.0000E+00  0.0000E+00
     -5.380  0.0000E+00  0.0000E+00
     -5.297  0.0000E+00  0.0000E+00
     -5.214  0.0000E+00  0.0000E+00
     -5.131  0.0000E+00  0.0000E+00
     -5.049  0.0000E+00  0.0000E+00
     -4.966  0.0000E+00  0.0000E+00
     -4.883  0.0000E+00  0.0000E+00
     -4.800  0.0000E+00  0.0000E+00
     -4.717  0.0000E+00  0.0000E+00
     -4.635  0.0000E+00  0.0000E+00
     -4.552  0.2368E-16  0.1961E-17
     -4.469  0.1696E-01  0.1405E-02
     -4.386  0.1089E+00  0.1060E-01
     -4.303  0.1619E+00  0.2426E-01
     -4.221  0.1924E+00  0.4143E-01
     -4.138  0.2096E+00  0.6042E-01
     -4.055  0.2757E+00  0.8439E-01
     -3.972  0.2781E+00  0.1094E+00
     -3.889  0.3334E+00  0.1377E+00
     -3.807  0.3466E+00  0.1681E+00
     -3.724  0.4111E+00  0.2030E+00
     -3.641  0.3757E+00  0.2373E+00
     -3.558  0.4653E+00  0.2771E+00
     -3.475  0.4144E+00  0.3130E+00
     -3.392  0.5245E+00  0.3585E+00
     -3.310  0.5052E+00  0.4037E+00
     -3.227  0.5242E+00  0.4540E+00
     -3.144  0.5132E+00  0.5023E+00
     -3.061  0.6941E+00  0.5625E+00
     -2.978  0.6298E+00  0.6172E+00
     -2.896  0.7568E+00  0.6817E+00
     -2.813  0.8143E+00  0.7515E+00
     -2.730  0.8036E+00  0.8228E+00
     -2.647  0.9085E+00  0.9020E+00
     -2.564  0.1108E+01  0.9953E+00
     -2.482  0.1094E+01  0.1090E+01
     -2.399  0.1388E+01  0.1209E+01
     -2.316  0.1803E+01  0.1364E+01
     -2.233  0.3047E+01  0.1627E+01
     -2.150  0.3027E+01  0.1889E+01
     -2.067  0.3287E+01  0.2175E+01
     -1.985  0.4193E+01  0.2535E+01
     -1.902  0.5388E+01  0.3007E+01
     -1.819  0.6512E+01  0.3572E+01
     -1.736  0.8325E+01  0.4295E+01
     -1.653  0.9679E+01  0.5139E+01
     -1.571  0.9588E+01  0.5985E+01
     -1.488  0.8840E+01  0.6765E+01
     -1.405  0.8522E+01  0.7509E+01
     -1.322  0.8422E+01  0.8239E+01
     -1.239  0.7740E+01  0.8937E+01
     -1.157  0.7297E+01  0.9575E+01
     -1.074  0.6085E+01  0.1011E+02
     -0.991  0.6361E+01  0.1067E+02
     -0.908  0.8789E+01  0.1143E+02
     -0.825  0.9724E+01  0.1228E+02
     -0.743  0.1113E+02  0.1325E+02
     -0.660  0.1136E+02  0.1424E+02
     -0.577  0.1052E+02  0.1517E+02
     -0.494  0.1063E+02  0.1610E+02
     -0.411  0.1142E+02  0.1710E+02
     -0.328  0.1287E+02  0.1822E+02
     -0.246  0.1430E+02  0.1948E+02
     -0.163  0.2023E+02  0.2123E+02
     -0.080  0.1437E+02  0.2251E+02
      0.003  0.1059E+02  0.2346E+02
      0.086  0.8989E+01  0.2425E+02
      0.168  0.9137E+01  0.2505E+02
      0.251  0.8932E+01  0.2582E+02
      0.334  0.9248E+01  0.2664E+02
      0.417  0.1109E+02  0.2760E+02
      0.500  0.1115E+02  0.2859E+02
      0.582  0.1207E+02  0.2964E+02
      0.665  0.1196E+02  0.3070E+02
      0.748  0.1052E+02  0.3161E+02
      0.831  0.9809E+01  0.3248E+02
      0.914  0.9322E+01  0.3330E+02
      0.997  0.9117E+01  0.3410E+02
      1.079  0.9143E+01  0.3489E+02
      1.162  0.9881E+01  0.3575E+02
      1.245  0.1038E+02  0.3666E+02
      1.328  0.1247E+02  0.3775E+02
      1.411  0.1699E+02  0.3924E+02
      1.493  0.1485E+02  0.4055E+02
      1.576  0.9311E+01  0.4136E+02
      1.659  0.5512E+01  0.4185E+02
      1.742  0.1612E+01  0.4200E+02
      1.825  0.1386E+01  0.4212E+02
      1.907  0.8915E+00  0.4221E+02
      1.990  0.1409E+01  0.4233E+02
      2.073  0.1018E+01  0.4242E+02
      2.156  0.1308E+01  0.4253E+02
      2.239  0.1297E+01  0.4264E+02
      2.322  0.9964E+00  0.4273E+02
      2.404  0.1384E+01  0.4285E+02
      2.487  0.1009E+01  0.4294E+02
      2.570  0.1323E+01  0.4306E+02
      2.653  0.1053E+01  0.4315E+02
      2.736  0.1202E+01  0.4325E+02
      2.818  0.1177E+01  0.4336E+02
      2.901  0.1154E+01  0.4346E+02
      2.984  0.1165E+01  0.4356E+02
      3.067  0.1107E+01  0.4366E+02
      3.150  0.1321E+01  0.4377E+02
      3.232  0.1135E+01  0.4386E+02
      3.315  0.1364E+01  0.4398E+02
      3.398  0.1176E+01  0.4408E+02
      3.481  0.1186E+01  0.4419E+02
      3.564  0.1223E+01  0.4430E+02
      3.646  0.1214E+01  0.4440E+02
      3.729  0.1245E+01  0.4451E+02
      3.812  0.1110E+01  0.4461E+02
      3.895  0.1327E+01  0.4473E+02
      3.978  0.1148E+01  0.4483E+02
      4.061  0.1254E+01  0.4494E+02
      4.143  0.1113E+01  0.4504E+02
      4.226  0.1226E+01  0.4514E+02
      4.309  0.1134E+01  0.4525E+02
      4.392  0.1146E+01  0.4535E+02
      4.475  0.1195E+01  0.4545E+02
      4.557  0.1152E+01  0.4555E+02
      4.640  0.1245E+01  0.4566E+02
      4.723  0.1066E+01  0.4576E+02
      4.806  0.1321E+01  0.4587E+02
      4.889  0.1006E+01  0.4596E+02
      4.971  0.1319E+01  0.4608E+02
      5.054  0.1153E+01  0.4618E+02
      5.137  0.1266E+01  0.4629E+02
      5.220  0.1110E+01  0.4639E+02
      5.303  0.1261E+01  0.4649E+02
      5.386  0.1163E+01  0.4659E+02
      5.468  0.1491E+01  0.4672E+02
      5.551  0.1915E+01  0.4689E+02
      5.634  0.1910E+01  0.4705E+02
      5.717  0.1552E+01  0.4719E+02
      5.800  0.1701E+01  0.4733E+02
      5.882  0.1619E+01  0.4748E+02
      5.965  0.1396E+01  0.4760E+02
      6.048  0.1572E+01  0.4773E+02
      6.131  0.1134E+01  0.4783E+02
      6.214  0.1512E+01  0.4796E+02
      6.296  0.1311E+01  0.4807E+02
      6.379  0.1223E+01  0.4818E+02
      6.462  0.1151E+01  0.4828E+02
      6.545  0.1225E+01  0.4839E+02
      6.628  0.1139E+01  0.4849E+02
      6.711  0.1084E+01  0.4858E+02
      6.793  0.1046E+01  0.4867E+02
      6.876  0.1037E+01  0.4876E+02
      6.959  0.1002E+01  0.4885E+02
      7.042  0.1045E+01  0.4894E+02
      7.125  0.8646E+00  0.4901E+02
      7.207  0.1025E+01  0.4910E+02
      7.290  0.9850E+00  0.4919E+02
      7.373  0.1210E+01  0.4930E+02
      7.456  0.1358E+01  0.4941E+02
      7.539  0.1528E+01  0.4955E+02
      7.621  0.1860E+01  0.4971E+02
      7.704  0.1525E+01  0.4984E+02
      7.787  0.1510E+01  0.4997E+02
      7.870  0.1619E+01  0.5011E+02
      7.953  0.1636E+01  0.5026E+02
      8.035  0.1582E+01  0.5040E+02
      8.118  0.1308E+01  0.5051E+02
      8.201  0.1337E+01  0.5063E+02
      8.284  0.1785E+01  0.5078E+02
      8.367  0.1589E+01  0.5092E+02
      8.450  0.1262E+01  0.5104E+02
      8.532  0.1429E+01  0.5116E+02
      8.615  0.1298E+01  0.5128E+02
      8.698  0.1548E+01  0.5141E+02
      8.781  0.1328E+01  0.5153E+02
      8.864  0.1420E+01  0.5165E+02
      8.946  0.1312E+01  0.5176E+02
      9.029  0.1073E+01  0.5185E+02
      9.112  0.1134E+01  0.5195E+02
      9.195  0.1262E+01  0.5206E+02
      9.278  0.1006E+01  0.5215E+02
      9.360  0.1350E+01  0.5226E+02
      9.443  0.1459E+01  0.5239E+02
      9.526  0.1086E+01  0.5249E+02
      9.609  0.1281E+01  0.5261E+02
      9.692  0.1437E+01  0.5273E+02
      9.775  0.1530E+01  0.5287E+02
      9.857  0.1291E+01  0.5298E+02
      9.940  0.1380E+01  0.5310E+02
     10.023  0.1485E+01  0.5323E+02
     10.106  0.1572E+01  0.5337E+02
     10.189  0.1254E+01  0.5348E+02
     10.271  0.1553E+01  0.5361E+02
     10.354  0.1103E+01  0.5371E+02
     10.437  0.1737E+01  0.5386E+02
     10.520  0.1538E+01  0.5400E+02
     10.603  0.1515E+01  0.5413E+02
     10.685  0.1212E+01  0.5424E+02
     10.768  0.1361E+01  0.5436E+02
     10.851  0.1429E+01  0.5449E+02
     10.934  0.1797E+01  0.5465E+02
     11.017  0.1260E+01  0.5476E+02
     11.099  0.1324E+01  0.5487E+02
     11.182  0.1455E+01  0.5500E+02
     11.265  0.1492E+01  0.5513E+02
     11.348  0.1560E+01  0.5526E+02
     11.431  0.1584E+01  0.5540E+02
     11.514  0.1464E+01  0.5553E+02
     11.596  0.1416E+01  0.5565E+02
     11.679  0.1444E+01  0.5578E+02
     11.762  0.1667E+01  0.5592E+02
     11.845  0.1900E+01  0.5609E+02
     11.928  0.1417E+01  0.5621E+02
     12.010  0.1650E+01  0.5636E+02
     12.093  0.1774E+01  0.5651E+02
     12.176  0.1611E+01  0.5665E+02
     12.259  0.2300E+01  0.5685E+02
     12.342  0.1499E+01  0.5699E+02
     12.424  0.1733E+01  0.5714E+02
     12.507  0.2080E+01  0.5732E+02
     12.590  0.1800E+01  0.5748E+02
     12.673  0.1923E+01  0.5764E+02
     12.756  0.2201E+01  0.5783E+02
     12.839  0.2141E+01  0.5802E+02
     12.921  0.2042E+01  0.5820E+02
     13.004  0.2006E+01  0.5838E+02
     13.087  0.2019E+01  0.5855E+02
     13.170  0.2292E+01  0.5875E+02
     13.253  0.1848E+01  0.5892E+02
     13.335  0.1997E+01  0.5909E+02
     13.418  0.2133E+01  0.5928E+02
     13.501  0.1955E+01  0.5944E+02
     13.584  0.1944E+01  0.5961E+02
     13.667  0.2081E+01  0.5979E+02
     13.749  0.1919E+01  0.5995E+02
     13.832  0.1962E+01  0.6013E+02
     13.915  0.1837E+01  0.6029E+02
     13.998  0.1747E+01  0.6044E+02
     14.081  0.1907E+01  0.6061E+02
     14.164  0.2016E+01  0.6078E+02
     14.246  0.1731E+01  0.6093E+02
     14.329  0.1523E+01  0.6106E+02
     14.412  0.2402E+01  0.6128E+02
     14.495  0.1349E+01  0.6139E+02
     14.578  0.1725E+01  0.6154E+02
     14.660  0.1785E+01  0.6170E+02
     14.743  0.1381E+01  0.6182E+02
     14.826  0.1465E+01  0.6195E+02
     14.909  0.1226E+01  0.6206E+02
     14.992  0.1104E+01  0.6216E+02
     15.074  0.1361E+01  0.6227E+02
     15.157  0.9607E+00  0.6236E+02
     15.240  0.1050E+01  0.6245E+02
     15.323  0.1116E+01  0.6255E+02
     15.406  0.9078E+00  0.6263E+02
     15.488  0.8542E+00  0.6270E+02
     15.571  0.1045E+01  0.6279E+02
     15.654  0.8071E+00  0.6286E+02
     15.737  0.7578E+00  0.6292E+02
     15.820  0.8688E+00  0.6300E+02
     15.903  0.7762E+00  0.6306E+02
     15.985  0.5355E+00  0.6311E+02
     16.068  0.6762E+00  0.6317E+02
     16.151  0.5030E+00  0.6322E+02
     16.234  0.6993E+00  0.6328E+02
     16.317  0.5356E+00  0.6333E+02
     16.399  0.4565E+00  0.6336E+02
     16.482  0.6625E+00  0.6342E+02
     16.565  0.4188E+00  0.6346E+02
     16.648  0.3493E+00  0.6349E+02
     16.731  0.6283E+00  0.6354E+02
     16.813  0.2357E+00  0.6356E+02
     16.896  0.5332E+00  0.6361E+02
     16.979  0.4648E+00  0.6365E+02
     17.062  0.2689E+00  0.6367E+02
     17.145  0.3817E+00  0.6371E+02
     17.228  0.2557E+00  0.6373E+02
     17.310  0.4184E+00  0.6376E+02
     17.393  0.3214E+00  0.6379E+02
     17.476  0.3282E+00  0.6382E+02
     17.559  0.2858E+00  0.6385E+02
     17.642  0.3464E+00  0.6388E+02
     17.724  0.4525E+00  0.6392E+02
     17.807  0.5883E+00  0.6397E+02
     17.890  0.2710E+00  0.6399E+02
     17.973  0.8400E-01  0.6400E+02
     18.056  0.2454E-01  0.6400E+02
     18.138  0.4141E-02  0.6400E+02
     18.221  0.0000E+00  0.6400E+02
     18.304  0.0000E+00  0.6400E+02
     18.387  0.0000E+00  0.6400E+02
     18.470  0.0000E+00  0.6400E+02
     18.553  0.0000E+00  0.6400E+02
     18.635  0.0000E+00  0.6400E+02
     18.718  0.0000E+00  0.6400E+02
     18.801  0.0000E+00  0.6400E+02
     18.884  0.0000E+00  0.6400E+02
     18.967  0.0000E+00  0.6400E+02
     19.049  0.0000E+00  0.6400E+02
     19.132  0.0000E+00  0.6400E+02
     19.215  0.0000E+00  0.6400E+02
