    4    4    1    1
  0.2103764E+02  0.4382135E-09  0.4382135E-09  0.4382135E-09  0.5000000E-15
  1.000000000000000E-004
  CAR 
 unknown system                          
   44 1330   32
 
  0.0000000E+00  0.0000000E+00  0.0000000E+00  0.2143347E-04
   1       -4.4991
   2       -2.0693
   3       -2.0693
   4       -2.0693
   5       -1.8622
   6       -1.8622
   7       -1.8622
   8       -0.4257
   9       -0.4257
  10       -0.4257
  11        0.6153
  12        0.6153
  13        1.4072
  14        1.4072
  15        1.4072
  16        1.6602
  17        1.6602
  18        1.6602
  19        1.6602
  20        1.6602
  21        1.6602
  22        4.9101
  23        4.9101
  24        4.9101
  25        7.6388
  26        7.6388
  27        7.6388
  28       12.8272
  29       12.8272
  30       12.8272
  31       12.8272
  32       12.8272
 
  0.2777778E-01  0.0000000E+00  0.0000000E+00  0.1286008E-03
   1       -4.4916
   2       -2.0671
   3       -2.0648
   4       -2.0648
   5       -1.8598
   6       -1.8586
   7       -1.8586
   8       -0.4288
   9       -0.4228
  10       -0.4228
  11        0.6121
  12        0.6168
  13        1.4026
  14        1.4026
  15        1.4056
  16        1.6414
  17        1.6414
  18        1.6545
  19        1.6545
  20        1.6602
  21        1.6602
  22        4.8197
  23        4.9348
  24        4.9348
  25        7.6343
  26        7.6343
  27        7.7426
  28       12.8095
  29       12.8095
  30       12.8107
  31       12.8107
  32       12.8413
 
  0.5555556E-01  0.0000000E+00  0.0000000E+00  0.1286008E-03
   1       -4.4692
   2       -2.0604
   3       -2.0511
   4       -2.0511
   5       -1.8526
   6       -1.8476
   7       -1.8476
   8       -0.4382
   9       -0.4140
  10       -0.4140
  11        0.6023
  12        0.6210
  13        1.3890
  14        1.3890
  15        1.4007
  16        1.5869
  17        1.5869
  18        1.6375
  19        1.6375
  20        1.6602
  21        1.6602
  22        4.5814
  23        5.0070
  24        5.0070
  25        7.6210
  26        7.6210
  27        8.0212
  28       12.7568
  29       12.7568
  30       12.7628
  31       12.7628
  32       12.8836
 
  0.8333333E-01  0.0000000E+00  0.0000000E+00  0.1286008E-03
   1       -4.4317
   2       -2.0496
   3       -2.0284
   4       -2.0284
   5       -1.8407
   6       -1.8294
   7       -1.8294
   8       -0.4538
   9       -0.3994
  10       -0.3994
  11        0.5861
  12        0.6280
  13        1.3663
  14        1.3663
  15        1.3928
  16        1.5011
  17        1.5011
  18        1.6096
  19        1.6096
  20        1.6603
  21        1.6603
  22        4.2552
  23        5.1222
  24        5.1222
  25        7.5992
  26        7.5992
  27        8.4146
  28       12.6704
  29       12.6704
  30       12.6884
  31       12.6884
  32       12.9536
 
  0.1111111E+00  0.0000000E+00  0.0000000E+00  0.1286008E-03
   1       -4.3795
   2       -2.0351
   3       -1.9971
   4       -1.9971
   5       -1.8240
   6       -1.8038
   7       -1.8038
   8       -0.4753
   9       -0.3791
  10       -0.3791
  11        0.5637
  12        0.6378
  13        1.3349
  14        1.3349
  15        1.3817
  16        1.3900
  17        1.3900
  18        1.5713
  19        1.5713
  20        1.6603
  21        1.6603
  22        3.8858
  23        5.2743
  24        5.2743
  25        7.5698
  26        7.5698
  27        8.8786
  28       12.5524
  29       12.5524
  30       12.5942
  31       12.5942
  32       13.0508
 
  0.1388889E+00  0.0000000E+00  0.0000000E+00  0.1286008E-03
   1       -4.3128
   2       -2.0174
   3       -1.9574
   4       -1.9574
   5       -1.8027
   6       -1.7710
   7       -1.7710
   8       -0.5025
   9       -0.3530
  10       -0.3530
  11        0.5356
  12        0.6503
  13        1.2598
  14        1.2598
  15        1.2950
  16        1.2950
  17        1.3677
  18        1.5232
  19        1.5232
  20        1.6604
  21        1.6604
  22        3.4988
  23        5.4572
  24        5.4572
  25        7.5335
  26        7.5335
  27        9.3880
  28       12.4054
  29       12.4054
  30       12.4871
  31       12.4871
  32       13.1743
 
  0.1666667E+00  0.0000000E+00  0.0000000E+00  0.1286008E-03
   1       -4.2316
   2       -1.9976
   3       -1.9100
   4       -1.9100
   5       -1.7770
   6       -1.7308
   7       -1.7308
   8       -0.5352
   9       -0.3212
  10       -0.3212
  11        0.5021
  12        0.6653
  13        1.1160
  14        1.1160
  15        1.2471
  16        1.2471
  17        1.3508
  18        1.4663
  19        1.4663
  20        1.6605
  21        1.6605
  22        3.1084
  23        5.6650
  24        5.6650
  25        7.4917
  26        7.4917
  27        9.9292
  28       12.2322
  29       12.2322
  30       12.3736
  31       12.3736
  32       13.3231
 
  0.1944444E+00  0.0000000E+00  0.0000000E+00  0.1286008E-03
   1       -4.1364
   2       -1.9767
   3       -1.8555
   4       -1.8555
   5       -1.7468
   6       -1.6835
   7       -1.6835
   8       -0.5729
   9       -0.2839
  10       -0.2839
  11        0.4639
  12        0.6829
  13        0.9630
  14        0.9630
  15        1.1917
  16        1.1917
  17        1.3312
  18        1.4014
  19        1.4014
  20        1.6606
  21        1.6606
  22        2.7231
  23        5.8931
  24        5.8931
  25        7.4456
  26        7.4456
  27       10.4945
  28       12.0358
  29       12.0358
  30       12.2593
  31       12.2593
  32       13.4961
 
  0.2222222E+00  0.0000000E+00  0.0000000E+00  0.1286008E-03
   1       -4.0276
   2       -1.9564
   3       -1.7948
   4       -1.7948
   5       -1.7125
   6       -1.6289
   7       -1.6289
   8       -0.6154
   9       -0.2411
  10       -0.2411
  11        0.4217
  12        0.7029
  13        0.8046
  14        0.8046
  15        1.1297
  16        1.1297
  17        1.3091
  18        1.3296
  19        1.3296
  20        1.6607
  21        1.6607
  22        2.3488
  23        6.1378
  24        6.1378
  25        7.3967
  26        7.3967
  27       11.0792
  28       11.8190
  29       11.8190
  30       12.1483
  31       12.1483
  32       13.6921
 
  0.2500000E+00  0.0000000E+00  0.0000000E+00  0.1286008E-03
   1       -3.9058
   2       -1.9386
   3       -1.7290
   4       -1.7290
   5       -1.6742
   6       -1.5671
   7       -1.5671
   8       -0.6621
   9       -0.1929
  10       -0.1929
  11        0.3764
  12        0.6434
  13        0.6434
  14        0.7251
  15        1.0621
  16        1.0621
  17        1.2519
  18        1.2519
  19        1.2846
  20        1.6608
  21        1.6608
  22        1.9899
  23        6.3959
  24        6.3959
  25        7.3467
  26        7.3467
  27       11.5845
  28       11.5845
  29       11.6805
  30       12.0436
  31       12.0436
  32       13.9096
 
  0.2777778E+00  0.0000000E+00  0.0000000E+00  0.1286008E-03
   1       -3.7716
   2       -1.9259
   3       -1.6593
   4       -1.6593
   5       -1.6320
   6       -1.4982
   7       -1.4982
   8       -0.7125
   9       -0.1396
  10       -0.1395
  11        0.3290
  12        0.4816
  13        0.4816
  14        0.7495
  15        0.9904
  16        0.9904
  17        1.1694
  18        1.1694
  19        1.2580
  20        1.6507
  21        1.6609
  22        1.6609
  23        6.6651
  24        6.6651
  25        7.2971
  26        7.2971
  27       11.3349
  28       11.3349
  29       11.9476
  30       11.9476
  31       12.2962
  32       14.1474
 
  0.3055556E+00  0.0000000E+00  0.0000000E+00  0.1286008E-03
   1       -3.6259
   2       -1.9218
   3       -1.5876
   4       -1.5876
   5       -1.5863
   6       -1.4221
   7       -1.4221
   8       -0.7663
   9       -0.0811
  10       -0.0811
  11        0.2810
  12        0.3209
  13        0.3209
  14        0.7759
  15        0.9161
  16        0.9161
  17        1.0830
  18        1.0830
  19        1.2295
  20        1.3352
  21        1.6610
  22        1.6610
  23        6.9434
  24        6.9434
  25        7.2493
  26        7.2493
  27       11.0725
  28       11.0725
  29       11.8615
  30       11.8615
  31       12.9249
  32       14.4040
 
  0.3333333E+00  0.0000000E+00  0.0000000E+00  0.1286008E-03
   1       -3.4700
   2       -1.9301
   3       -1.5372
   4       -1.5157
   5       -1.5157
   6       -1.3389
   7       -1.3389
   8       -0.8229
   9       -0.0179
  10       -0.0179
  11        0.1624
  12        0.1624
  13        0.2338
  14        0.8040
  15        0.8416
  16        0.8416
  17        0.9939
  18        0.9939
  19        1.0481
  20        1.1994
  21        1.6610
  22        1.6610
  23        7.2049
  24        7.2049
  25        7.2290
  26        7.2290
  27       10.7993
  28       10.7993
  29       11.7863
  30       11.7863
  31       13.5652
  32       14.6780
 
  0.3611111E+00  0.0000000E+00  0.0000000E+00  0.1286008E-03
   1       -3.3053
   2       -1.9556
   3       -1.4852
   4       -1.4461
   5       -1.4461
   6       -1.2488
   7       -1.2488
   8       -0.8817
   9        0.0073
  10        0.0073
  11        0.0500
  12        0.0500
  13        0.1896
  14        0.7694
  15        0.7694
  16        0.7942
  17        0.8337
  18        0.9029
  19        0.9029
  20        1.1678
  21        1.6611
  22        1.6611
  23        7.1651
  24        7.1651
  25        7.5207
  26        7.5207
  27       10.5173
  28       10.5173
  29       11.7225
  30       11.7225
  31       14.2160
  32       14.9678
 
  0.3888889E+00  0.0000000E+00  0.0000000E+00  0.1286008E-03
   1       -3.1340
   2       -2.0029
   3       -1.4305
   4       -1.3819
   5       -1.3819
   6       -1.1517
   7       -1.1517
   8       -0.9423
   9       -0.1438
  10       -0.1438
  11        0.1222
  12        0.1222
  13        0.1509
  14        0.5782
  15        0.7027
  16        0.7027
  17        0.8109
  18        0.8109
  19        0.8648
  20        1.1352
  21        1.6612
  22        1.6612
  23        7.1311
  24        7.1311
  25        7.8172
  26        7.8172
  27       10.2282
  28       10.2282
  29       11.6702
  30       11.6702
  31       14.8760
  32       15.2721
 
  0.4166667E+00  0.0000000E+00  0.0000000E+00  0.1286008E-03
   1       -2.9585
   2       -2.0757
   3       -1.3734
   4       -1.3264
   5       -1.3264
   6       -1.0478
   7       -1.0478
   8       -1.0041
   9       -0.2901
  10       -0.2901
  11        0.1208
  12        0.1985
  13        0.1985
  14        0.4038
  15        0.6450
  16        0.6450
  17        0.7186
  18        0.7186
  19        0.8971
  20        1.1017
  21        1.6612
  22        1.6612
  23        7.1037
  24        7.1037
  25        8.1172
  26        8.1172
  27        9.9333
  28        9.9333
  29       11.6296
  30       11.6296
  31       15.5460
  32       15.5893
 
  0.4444444E+00  0.0000000E+00  0.0000000E+00  0.1286008E-03
   1       -2.7827
   2       -2.1757
   3       -1.3144
   4       -1.2832
   5       -1.2832
   6       -1.0666
   7       -0.9373
   8       -0.9373
   9       -0.4313
  10       -0.4313
  11        0.1034
  12        0.2722
  13        0.2785
  14        0.2785
  15        0.6001
  16        0.6001
  17        0.6270
  18        0.6270
  19        0.9302
  20        1.0675
  21        1.6613
  22        1.6613
  23        7.0836
  24        7.0836
  25        8.4198
  26        8.4198
  27        9.6342
  28        9.6342
  29       11.6007
  30       11.6007
  31       15.9177
  32       15.9177
 
  0.4722222E+00  0.0000000E+00  0.0000000E+00  0.1286008E-03
   1       -2.6107
   2       -2.3013
   3       -1.2557
   4       -1.2557
   5       -1.2537
   6       -1.1294
   7       -0.8201
   8       -0.8201
   9       -0.5669
  10       -0.5669
  11        0.1037
  12        0.1817
  13        0.3618
  14        0.3618
  15        0.5366
  16        0.5366
  17        0.5715
  18        0.5715
  19        0.9642
  20        1.0331
  21        1.6613
  22        1.6613
  23        7.0713
  24        7.0713
  25        8.7239
  26        8.7239
  27        9.3322
  28        9.3322
  29       11.5833
  30       11.5833
  31       16.2559
  32       16.2559
 
  0.5000000E+00  0.0000000E+00  0.0000000E+00  0.6430041E-04
   1       -2.4482
   2       -2.4482
   3       -1.2462
   4       -1.2462
   5       -1.1919
   6       -1.1919
   7       -0.6966
   8       -0.6966
   9       -0.6966
  10       -0.6966
  11        0.1276
  12        0.1276
  13        0.4480
  14        0.4480
  15        0.4480
  16        0.4480
  17        0.5616
  18        0.5616
  19        0.9985
  20        0.9985
  21        1.6613
  22        1.6613
  23        7.0672
  24        7.0672
  25        9.0284
  26        9.0284
  27        9.0284
  28        9.0284
  29       11.5776
  30       11.5776
  31       16.6020
  32       16.6020
 
  0.2777778E-01  0.2777778E-01  0.0000000E+00  0.2572016E-03
   1       -4.4841
   2       -2.0625
   3       -2.0625
   4       -2.0603
   5       -1.8562
   6       -1.8562
   7       -1.8549
   8       -0.4301
   9       -0.4217
  10       -0.4199
  11        0.6111
  12        0.6158
  13        1.3981
  14        1.4008
  15        1.4008
  16        1.6268
  17        1.6358
  18        1.6358
  19        1.6545
  20        1.6545
  21        1.6564
  22        4.8440
  23        4.8440
  24        4.9592
  25        7.6297
  26        7.7385
  27        7.7385
  28       12.7335
  29       12.8236
  30       12.8236
  31       12.8248
  32       12.8248
 
  0.5555556E-01  0.2777778E-01  0.0000000E+00  0.5144033E-03
   1       -4.4617
   2       -2.0558
   3       -2.0488
   4       -2.0468
   5       -1.8490
   6       -1.8452
   7       -1.8437
   8       -0.4386
   9       -0.4138
  10       -0.4112
  11        0.6023
  12        0.6192
  13        1.3845
  14        1.3865
  15        1.3955
  16        1.5749
  17        1.5816
  18        1.6190
  19        1.6375
  20        1.6544
  21        1.6545
  22        4.6050
  23        4.9149
  24        5.0307
  25        7.6162
  26        7.7264
  27        8.0178
  28       12.6280
  29       12.7708
  30       12.7770
  31       12.8634
  32       12.8663
 
  0.8333333E-01  0.2777778E-01  0.0000000E+00  0.5144033E-03
   1       -4.4243
   2       -2.0450
   3       -2.0261
   4       -2.0245
   5       -1.8371
   6       -1.8270
   7       -1.8252
   8       -0.4539
   9       -0.3994
  10       -0.3967
  11        0.5863
  12        0.6262
  13        1.3620
  14        1.3621
  15        1.3865
  16        1.4906
  17        1.4973
  18        1.5915
  19        1.6096
  20        1.6539
  21        1.6546
  22        4.2787
  23        5.0278
  24        5.1450
  25        7.5941
  26        7.7069
  27        8.4114
  28       12.4986
  29       12.6843
  30       12.7028
  31       12.8385
  32       12.9366
 
  0.1111111E+00  0.2777778E-01  0.0000000E+00  0.5144033E-03
   1       -4.3722
   2       -2.0304
   3       -1.9947
   4       -1.9937
   5       -1.8204
   6       -1.8015
   7       -1.7993
   8       -0.4752
   9       -0.3792
  10       -0.3766
  11        0.5641
  12        0.6361
  13        1.3232
  14        1.3308
  15        1.3738
  16        1.3808
  17        1.3934
  18        1.5539
  19        1.5712
  20        1.6538
  21        1.6546
  22        3.9098
  23        5.1761
  24        5.2960
  25        7.5642
  26        7.6808
  27        8.8750
  28       12.3500
  29       12.5661
  30       12.6087
  31       12.7822
  32       13.0331
 
  0.1388889E+00  0.2777778E-01  0.0000000E+00  0.5144033E-03
   1       -4.3055
   2       -2.0127
   3       -1.9550
   4       -1.9548
   5       -1.7992
   6       -1.7687
   7       -1.7659
   8       -0.5024
   9       -0.3531
  10       -0.3508
  11        0.5362
  12        0.6487
  13        1.2365
  14        1.2519
  15        1.2911
  16        1.3097
  17        1.3568
  18        1.5073
  19        1.5232
  20        1.6538
  21        1.6547
  22        3.5241
  23        5.3532
  24        5.4777
  25        7.5273
  26        7.6495
  27        9.3833
  28       12.1862
  29       12.4189
  30       12.5021
  31       12.6991
  32       13.1566
 
  0.1666667E+00  0.2777778E-01  0.0000000E+00  0.5144033E-03
   1       -4.2244
   2       -1.9928
   3       -1.9082
   4       -1.9076
   5       -1.7735
   6       -1.7286
   7       -1.7252
   8       -0.5349
   9       -0.3214
  10       -0.3193
  11        0.5029
  12        0.6640
  13        1.1000
  14        1.1092
  15        1.2434
  16        1.2544
  17        1.3345
  18        1.4538
  19        1.4662
  20        1.6538
  21        1.6547
  22        3.1358
  23        5.5528
  24        5.6845
  25        7.4846
  26        7.6147
  27        9.9229
  28       12.0101
  29       12.2455
  30       12.3893
  31       12.5955
  32       13.3045
 
  0.1944444E+00  0.2777778E-01  0.0000000E+00  0.5144033E-03
   1       -4.1293
   2       -1.9719
   3       -1.8547
   4       -1.8530
   5       -1.7434
   6       -1.6813
   7       -1.6771
   8       -0.5725
   9       -0.2841
  10       -0.2825
  11        0.4650
  12        0.6818
  13        0.9489
  14        0.9573
  15        1.1883
  16        1.1972
  17        1.3034
  18        1.3973
  19        1.4013
  20        1.6539
  21        1.6548
  22        2.7536
  23        5.7690
  24        5.9116
  25        7.4376
  26        7.5790
  27       10.4858
  28       11.8225
  29       12.0489
  30       12.2759
  31       12.4782
  32       13.4775
 
  0.2222222E+00  0.2777778E-01  0.0000000E+00  0.5144033E-03
   1       -4.0206
   2       -1.9515
   3       -1.7951
   4       -1.7922
   5       -1.7092
   6       -1.6269
   7       -1.6218
   8       -0.6149
   9       -0.2413
  10       -0.2402
  11        0.4232
  12        0.7021
  13        0.7914
  14        0.7998
  15        1.1267
  16        1.1345
  17        1.2560
  18        1.3295
  19        1.3462
  20        1.6540
  21        1.6548
  22        2.3841
  23        5.9961
  24        6.1554
  25        7.3875
  26        7.5456
  27       11.0673
  28       11.6235
  29       11.8319
  30       12.1661
  31       12.3547
  32       13.6734
 
  0.2500000E+00  0.2777778E-01  0.0000000E+00  0.5144033E-03
   1       -3.8990
   2       -1.9336
   3       -1.7303
   4       -1.7263
   5       -1.6709
   6       -1.5652
   7       -1.5594
   8       -0.6614
   9       -0.1931
  10       -0.1929
  11        0.3784
  12        0.6309
  13        0.6394
  14        0.7246
  15        1.0594
  16        1.0666
  17        1.1872
  18        1.2518
  19        1.3055
  20        1.6541
  21        1.6549
  22        2.0329
  23        6.2278
  24        6.4127
  25        7.3361
  26        7.5196
  27       11.4122
  28       11.5973
  29       11.6642
  30       12.0630
  31       12.2315
  32       13.8892
 
  0.2777778E+00  0.2777778E-01  0.0000000E+00  0.5144033E-03
   1       -3.7649
   2       -1.9208
   3       -1.6614
   4       -1.6565
   5       -1.6289
   6       -1.4963
   7       -1.4900
   8       -0.7117
   9       -0.1407
  10       -0.1397
  11        0.3320
  12        0.4698
  13        0.4784
  14        0.7494
  15        0.9880
  16        0.9947
  17        1.1004
  18        1.1693
  19        1.2703
  20        1.6543
  21        1.6550
  22        1.7068
  23        6.4547
  24        6.6812
  25        7.2847
  26        7.5094
  27       11.1878
  28       11.3476
  29       11.9688
  30       12.1143
  31       12.2737
  32       14.1262
 
  0.3055556E+00  0.2777778E-01  0.0000000E+00  0.5144033E-03
   1       -3.6194
   2       -1.9166
   3       -1.5901
   4       -1.5846
   5       -1.5832
   6       -1.4203
   7       -1.4140
   8       -0.7654
   9       -0.0842
  10       -0.0813
  11        0.2855
  12        0.3097
  13        0.3183
  14        0.7761
  15        0.9142
  16        0.9204
  17        0.9956
  18        1.0829
  19        1.2337
  20        1.4183
  21        1.6544
  22        1.6550
  23        6.6615
  24        6.9588
  25        7.2351
  26        7.5299
  27       10.9504
  28       11.0850
  29       11.8850
  30       12.0071
  31       12.8929
  32       14.3826
 
  0.3333333E+00  0.2777778E-01  0.0000000E+00  0.5144033E-03
   1       -3.4636
   2       -1.9248
   3       -1.5343
   4       -1.5182
   5       -1.5126
   6       -1.3373
   7       -1.3314
   8       -0.8218
   9       -0.0245
  10       -0.0181
  11        0.1519
  12        0.1605
  13        0.2415
  14        0.8047
  15        0.8400
  16        0.8457
  17        0.8631
  18        0.9937
  19        1.1498
  20        1.2285
  21        1.6545
  22        1.6551
  23        6.8247
  24        7.1884
  25        7.2439
  26        7.6044
  27       10.7006
  28       10.8118
  29       11.8124
  30       11.9123
  31       13.5180
  32       14.6550
 
  0.3611111E+00  0.2777778E-01  0.0000000E+00  0.5144033E-03
   1       -3.2992
   2       -1.9502
   3       -1.4824
   4       -1.4481
   5       -1.4429
   6       -1.2474
   7       -1.2425
   8       -0.8804
   9       -0.0024
  10        0.0058
  11        0.0350
  12        0.0498
  13        0.2053
  14        0.6963
  15        0.7682
  16        0.7733
  17        0.8348
  18        0.9027
  19        0.9883
  20        1.1807
  21        1.6546
  22        1.6551
  23        6.9264
  24        7.1459
  25        7.5352
  26        7.7507
  27       10.4398
  28       10.5298
  29       11.7516
  30       11.8312
  31       14.1408
  32       14.9435
 
  0.3888889E+00  0.2777778E-01  0.0000000E+00  0.5144033E-03
   1       -3.1280
   2       -1.9975
   3       -1.4278
   4       -1.3829
   5       -1.3785
   6       -1.1505
   7       -1.1472
   8       -0.9408
   9       -0.1526
  10       -0.1448
  11        0.0803
  12        0.1220
  13        0.1930
  14        0.5198
  15        0.7020
  16        0.7063
  17        0.8107
  18        0.8605
  19        0.8665
  20        1.1445
  21        1.6547
  22        1.6551
  23        6.9757
  24        7.1085
  25        7.8312
  26        7.9593
  27       10.1698
  28       10.2407
  29       11.7029
  30       11.7640
  31       14.7405
  32       15.2463
 
  0.4166667E+00  0.2777778E-01  0.0000000E+00  0.5144033E-03
   1       -2.9528
   2       -2.0704
   3       -1.3709
   4       -1.3262
   5       -1.3229
   6       -1.0468
   7       -1.0454
   8       -1.0025
   9       -0.2980
  10       -0.2907
  11        0.0875
  12        0.1983
  13        0.2315
  14        0.3640
  15        0.6447
  16        0.6482
  17        0.7185
  18        0.7519
  19        0.8993
  20        1.1091
  21        1.6548
  22        1.6551
  23        6.9961
  24        7.0771
  25        8.1309
  26        8.2065
  27        9.8926
  28        9.9459
  29       11.6664
  30       11.7107
  31       15.2698
  32       15.5617
 
  0.4444444E+00  0.2777778E-01  0.0000000E+00  0.5144033E-03
   1       -2.7770
   2       -2.1703
   3       -1.3120
   4       -1.2818
   5       -1.2797
   6       -1.0649
   7       -0.9370
   8       -0.9364
   9       -0.4379
  10       -0.4315
  11        0.0801
  12        0.2422
  13        0.2783
  14        0.3009
  15        0.6004
  16        0.6028
  17        0.6268
  18        0.6521
  19        0.9331
  20        1.0737
  21        1.6549
  22        1.6551
  23        7.0049
  24        7.0518
  25        8.4332
  26        8.4745
  27        9.6101
  28        9.6469
  29       11.6423
  30       11.6711
  31       15.7002
  32       15.8880
 
  0.4722222E+00  0.2777778E-01  0.0000000E+00  0.5144033E-03
   1       -2.6053
   2       -2.2959
   3       -1.2532
   4       -1.2522
   5       -1.2515
   6       -1.1275
   7       -0.8219
   8       -0.8195
   9       -0.5722
  10       -0.5668
  11        0.0828
  12        0.1572
  13        0.3616
  14        0.3811
  15        0.5364
  16        0.5574
  17        0.5723
  18        0.5736
  19        0.9676
  20        1.0382
  21        1.6550
  22        1.6551
  23        7.0112
  24        7.0329
  25        8.7370
  26        8.7537
  27        9.3246
  28        9.3449
  29       11.6305
  30       11.6447
  31       16.0757
  32       16.2236
 
  0.5000000E+00  0.2777778E-01  0.0000000E+00  0.2572016E-03
   1       -2.4429
   2       -2.4429
   3       -1.2431
   4       -1.2431
   5       -1.1898
   6       -1.1898
   7       -0.7002
   8       -0.7002
   9       -0.6962
  10       -0.6962
  11        0.1060
  12        0.1060
  13        0.4478
  14        0.4478
  15        0.4670
  16        0.4670
  17        0.5631
  18        0.5631
  19        1.0028
  20        1.0028
  21        1.6551
  22        1.6551
  23        7.0197
  24        7.0197
  25        9.0382
  26        9.0382
  27        9.0413
  28        9.0413
  29       11.6312
  30       11.6312
  31       16.4320
  32       16.4359
 
  0.5555556E-01  0.5555556E-01  0.0000000E+00  0.2572016E-03
   1       -4.4393
   2       -2.0421
   3       -2.0421
   4       -2.0340
   5       -1.8381
   6       -1.8381
   7       -1.8321
   8       -0.4433
   9       -0.4096
  10       -0.4027
  11        0.5987
  12        0.6177
  13        1.3712
  14        1.3791
  15        1.3791
  16        1.5323
  17        1.5660
  18        1.5660
  19        1.6375
  20        1.6375
  21        1.6450
  22        4.6739
  23        4.6739
  24        5.1004
  25        7.6021
  26        8.0077
  27        8.0077
  28       12.4738
  29       12.8127
  30       12.8127
  31       12.8195
  32       12.8195
 
  0.8333333E-01  0.5555556E-01  0.0000000E+00  0.5144033E-03
   1       -4.4020
   2       -2.0312
   3       -2.0193
   4       -2.0129
   5       -1.8262
   6       -1.8199
   7       -1.8127
   8       -0.4561
   9       -0.3976
  10       -0.3887
  11        0.5855
  12        0.6223
  13        1.3490
  14        1.3491
  15        1.3663
  16        1.4557
  17        1.4862
  18        1.5407
  19        1.6096
  20        1.6375
  21        1.6396
  22        4.3469
  23        4.7828
  24        5.2120
  25        7.5790
  26        7.9916
  27        8.4019
  28       12.3027
  29       12.7258
  30       12.7456
  31       12.8822
  32       12.8899
 
  0.1111111E+00  0.5555556E-01  0.0000000E+00  0.5144033E-03
   1       -4.3501
   2       -2.0165
   3       -1.9878
   4       -1.9837
   5       -1.8097
   6       -1.7945
   7       -1.7856
   8       -0.4762
   9       -0.3783
  10       -0.3691
  11        0.5645
  12        0.6318
  13        1.2937
  14        1.3184
  15        1.3470
  16        1.3515
  17        1.3976
  18        1.5072
  19        1.5712
  20        1.6371
  21        1.6375
  22        3.9792
  23        4.9247
  24        5.3600
  25        7.5475
  26        7.9706
  27        8.8642
  28       12.1200
  29       12.6071
  30       12.6524
  31       12.9680
  32       12.9785
 
  0.1388889E+00  0.5555556E-01  0.0000000E+00  0.5144033E-03
   1       -4.2836
   2       -1.9986
   3       -1.9480
   4       -1.9468
   5       -1.7886
   6       -1.7619
   7       -1.7508
   8       -0.5026
   9       -0.3528
  10       -0.3441
  11        0.5373
  12        0.6446
  13        1.1934
  14        1.2270
  15        1.2794
  16        1.3192
  17        1.3270
  18        1.4680
  19        1.5231
  20        1.6359
  21        1.6375
  22        3.5965
  23        5.0922
  24        5.5384
  25        7.5087
  26        7.9464
  27        9.3694
  28       11.9298
  29       12.4594
  30       12.5472
  31       12.9331
  32       13.1010
 
  0.1666667E+00  0.5555556E-01  0.0000000E+00  0.5144033E-03
   1       -4.2028
   2       -1.9785
   3       -1.9026
   4       -1.9004
   5       -1.7631
   6       -1.7220
   7       -1.7084
   8       -0.5346
   9       -0.3214
  10       -0.3137
  11        0.5048
  12        0.6604
  13        1.0594
  14        1.0882
  15        1.2325
  16        1.2690
  17        1.2800
  18        1.4263
  19        1.4661
  20        1.6353
  21        1.6375
  22        3.2133
  23        5.2785
  24        5.7421
  25        7.4636
  26        7.9212
  27        9.9040
  28       11.7348
  29       12.2854
  30       12.4365
  31       12.8685
  32       13.2483
 
  0.1944444E+00  0.5555556E-01  0.0000000E+00  0.5144033E-03
   1       -4.1080
   2       -1.9574
   3       -1.8518
   4       -1.8456
   5       -1.7332
   6       -1.6749
   7       -1.6585
   8       -0.5717
   9       -0.2842
  10       -0.2782
  11        0.4677
  12        0.6789
  13        0.9106
  14        0.9397
  15        1.1783
  16        1.2099
  17        1.2262
  18        1.3857
  19        1.4011
  20        1.6350
  21        1.6375
  22        2.8386
  23        5.4773
  24        5.9663
  25        7.4134
  26        7.8980
  27       10.4598
  28       11.5368
  29       12.0882
  30       12.3260
  31       12.7801
  32       13.4196
 
  0.2222222E+00  0.5555556E-01  0.0000000E+00  0.5144033E-03
   1       -3.9997
   2       -1.9367
   3       -1.7949
   4       -1.7845
   5       -1.6992
   6       -1.6207
   7       -1.6014
   8       -0.6136
   9       -0.2415
  10       -0.2377
  11        0.4271
  12        0.7000
  13        0.7546
  14        0.7851
  15        1.1176
  16        1.1464
  17        1.1562
  18        1.3292
  19        1.3474
  20        1.6349
  21        1.6375
  22        2.4795
  23        5.6825
  24        6.2075
  25        7.3598
  26        7.8805
  27       11.0318
  28       11.3361
  29       11.8706
  30       12.2199
  31       12.6742
  32       13.6163
 
  0.2500000E+00  0.5555556E-01  0.0000000E+00  0.5144033E-03
   1       -3.8784
   2       -1.9186
   3       -1.7327
   4       -1.7183
   5       -1.6612
   6       -1.5593
   7       -1.5375
   8       -0.6596
   9       -0.1935
  10       -0.1928
  11        0.3840