   4   4   0   0
  0.2288285E+02  0.4506680E-09  0.4506680E-09  0.4506680E-09  0.5000000E-15
  1.000000000000000E-004
  CAR 
 unknown system                          
     12.68682696     -5.43445149  301      2.58019735      1.00000000
     -5.434  0.0000E+00  0.0000E+00
     -5.374  0.0000E+00  0.0000E+00
     -5.314  0.0000E+00  0.0000E+00
     -5.253  0.0000E+00  0.0000E+00
     -5.193  0.0000E+00  0.0000E+00
     -5.132  0.0000E+00  0.0000E+00
     -5.072  0.0000E+00  0.0000E+00
     -5.012  0.0000E+00  0.0000E+00
     -4.951  0.0000E+00  0.0000E+00
     -4.891  0.0000E+00  0.0000E+00
     -4.830  0.0000E+00  0.0000E+00
     -4.770  0.0000E+00  0.0000E+00
     -4.710  0.0000E+00  0.0000E+00
     -4.649  0.5217E-09  0.3151E-10
     -4.589  0.1914E-01  0.1156E-02
     -4.528  0.1147E+00  0.8084E-02
     -4.468  0.2287E+00  0.2192E-01
     -4.408  0.1533E+00  0.3118E-01
     -4.347  0.1141E+00  0.3807E-01
     -4.287  0.4538E+00  0.6548E-01
     -4.226  0.4624E+00  0.9341E-01
     -4.166  0.5664E-02  0.9375E-01
     -4.106  0.2281E+00  0.1075E+00
     -4.045  0.5725E+00  0.1421E+00
     -3.985  0.4586E+00  0.1699E+00
     -3.924  0.4639E+00  0.1979E+00
     -3.864  0.1533E+00  0.2072E+00
     -3.804  0.4603E+00  0.2350E+00
     -3.743  0.9193E+00  0.2905E+00
     -3.683  0.5948E-06  0.2905E+00
     -3.622  0.5003E+00  0.3207E+00
     -3.562  0.5948E+00  0.3567E+00
     -3.502  0.1069E+01  0.4212E+00
     -3.441  0.2733E+00  0.4377E+00
     -3.381  0.1520E+01  0.5295E+00
     -3.320  0.6740E-01  0.5336E+00
     -3.260  0.4445E+00  0.5604E+00
     -3.199  0.9131E-01  0.5659E+00
     -3.139  0.1580E+01  0.6613E+00
     -3.079  0.1052E+01  0.7249E+00
     -3.018  0.7788E+00  0.7720E+00
     -2.958  0.6603E+00  0.8119E+00
     -2.897  0.1179E+01  0.8831E+00
     -2.837  0.1203E+01  0.9558E+00
     -2.777  0.7537E+00  0.1001E+01
     -2.716  0.2302E+01  0.1140E+01
     -2.656  0.9033E+00  0.1195E+01
     -2.595  0.1760E+01  0.1301E+01
     -2.535  0.2815E+01  0.1471E+01
     -2.475  0.4607E+01  0.1750E+01
     -2.414  0.2196E+01  0.1882E+01
     -2.354  0.5045E+01  0.2187E+01
     -2.293  0.4230E+01  0.2443E+01
     -2.233  0.3054E+01  0.2627E+01
     -2.173  0.8569E+01  0.3145E+01
     -2.112  0.8178E+01  0.3639E+01
     -2.052  0.7525E+01  0.4093E+01
     -1.991  0.1377E+02  0.4925E+01
     -1.931  0.1036E+02  0.5551E+01
     -1.871  0.9420E+01  0.6120E+01
     -1.810  0.1495E+02  0.7023E+01
     -1.750  0.8303E+01  0.7525E+01
     -1.689  0.7722E+01  0.7991E+01
     -1.629  0.1257E+02  0.8751E+01
     -1.569  0.7939E+01  0.9230E+01
     -1.508  0.8595E+01  0.9749E+01
     -1.448  0.6738E+01  0.1016E+02
     -1.387  0.7538E+01  0.1061E+02
     -1.327  0.1450E+02  0.1149E+02
     -1.267  0.5128E+01  0.1180E+02
     -1.206  0.1741E+02  0.1285E+02
     -1.146  0.1247E+02  0.1360E+02
     -1.085  0.1601E+02  0.1457E+02
     -1.025  0.1258E+02  0.1533E+02
     -0.965  0.1111E+02  0.1600E+02
     -0.904  0.1264E+02  0.1676E+02
     -0.844  0.1600E+02  0.1773E+02
     -0.783  0.1782E+02  0.1881E+02
     -0.723  0.2263E+02  0.2017E+02
     -0.663  0.2049E+02  0.2141E+02
     -0.602  0.1662E+02  0.2241E+02
     -0.542  0.1458E+02  0.2330E+02
     -0.481  0.1197E+02  0.2402E+02
     -0.421  0.1257E+02  0.2478E+02
     -0.360  0.8852E+01  0.2531E+02
     -0.300  0.1202E+02  0.2604E+02
     -0.240  0.1095E+02  0.2670E+02
     -0.179  0.1392E+02  0.2754E+02
     -0.119  0.1512E+02  0.2845E+02
     -0.058  0.1534E+02  0.2938E+02
      0.002  0.1569E+02  0.3033E+02
      0.062  0.1135E+02  0.3101E+02
      0.123  0.1406E+02  0.3186E+02
      0.183  0.1211E+02  0.3260E+02
      0.244  0.1159E+02  0.3329E+02
      0.304  0.1045E+02  0.3393E+02
      0.364  0.1325E+02  0.3473E+02
      0.425  0.1195E+02  0.3545E+02
      0.485  0.9976E+01  0.3605E+02
      0.546  0.1682E+02  0.3707E+02
      0.606  0.1808E+02  0.3816E+02
      0.666  0.1624E+02  0.3914E+02
      0.727  0.2231E+02  0.4049E+02
      0.787  0.8413E+01  0.4100E+02
      0.848  0.1345E+02  0.4181E+02
      0.908  0.1942E+01  0.4193E+02
      0.968  0.3845E+00  0.4195E+02
      1.029  0.7827E+00  0.4200E+02
      1.089  0.6724E+00  0.4204E+02
      1.150  0.1318E+01  0.4212E+02
      1.210  0.3503E+01  0.4233E+02
      1.270  0.9268E+00  0.4239E+02
      1.331  0.1962E+01  0.4250E+02
      1.391  0.1008E+01  0.4256E+02
      1.452  0.5712E-01  0.4257E+02
      1.512  0.3881E+00  0.4259E+02
      1.572  0.1750E+01  0.4270E+02
      1.633  0.2781E+01  0.4287E+02
      1.693  0.1078E+01  0.4293E+02
      1.754  0.1828E+01  0.4304E+02
      1.814  0.9651E+00  0.4310E+02
      1.874  0.1772E+01  0.4321E+02
      1.935  0.1324E-01  0.4321E+02
      1.995  0.8832E-01  0.4321E+02
      2.056  0.2100E+01  0.4334E+02
      2.116  0.2168E+01  0.4347E+02
      2.176  0.1702E+01  0.4357E+02
      2.237  0.1149E+01  0.4364E+02
      2.297  0.1059E+01  0.4371E+02
      2.358  0.1895E+01  0.4382E+02
      2.418  0.1858E+00  0.4383E+02
      2.479  0.1473E+01  0.4392E+02
      2.539  0.1019E+00  0.4393E+02
      2.599  0.1823E+01  0.4404E+02
      2.660  0.2695E+01  0.4420E+02
      2.720  0.1043E+01  0.4426E+02
      2.781  0.1855E+01  0.4438E+02
      2.841  0.8576E+00  0.4443E+02
      2.901  0.9228E+00  0.4448E+02
      2.962  0.2295E+01  0.4462E+02
      3.022  0.4923E-01  0.4462E+02
      3.083  0.1009E+01  0.4469E+02
      3.143  0.1584E+01  0.4478E+02
      3.203  0.2923E+01  0.4496E+02
      3.264  0.1563E+01  0.4505E+02
      3.324  0.1131E+01  0.4512E+02
      3.385  0.1165E+01  0.4519E+02
      3.445  0.3258E-01  0.4519E+02
      3.505  0.1468E+01  0.4528E+02
      3.566  0.1372E+01  0.4536E+02
      3.626  0.2310E+01  0.4550E+02
      3.687  0.1371E+01  0.4559E+02
      3.747  0.2595E+00  0.4560E+02
      3.807  0.2244E+01  0.4574E+02
      3.868  0.2308E+01  0.4588E+02
      3.928  0.7062E+00  0.4592E+02
      3.989  0.1994E+00  0.4593E+02
      4.049  0.1182E+01  0.4600E+02
      4.109  0.3217E+01  0.4620E+02
      4.170  0.1379E+01  0.4628E+02
      4.230  0.4598E+00  0.4631E+02
      4.291  0.1832E+01  0.4642E+02
      4.351  0.1773E+01  0.4653E+02
      4.411  0.1010E+01  0.4659E+02
      4.472  0.1798E+01  0.4670E+02
      4.532  0.1998E+01  0.4682E+02
      4.593  0.2555E+01  0.4697E+02
      4.653  0.1528E+01  0.4706E+02
      4.713  0.3528E+01  0.4728E+02
      4.774  0.4338E+00  0.4730E+02
      4.834  0.1583E+01  0.4740E+02
      4.895  0.1188E+01  0.4747E+02
      4.955  0.2491E+01  0.4762E+02
      5.015  0.9451E+00  0.4768E+02
      5.076  0.9990E+00  0.4774E+02
      5.136  0.2727E+01  0.4790E+02
      5.197  0.1737E+01  0.4801E+02
      5.257  0.9726E+00  0.4807E+02
      5.318  0.8552E-01  0.4807E+02
      5.378  0.2045E+01  0.4820E+02
      5.438  0.8271E+00  0.4825E+02
      5.499  0.6619E+00  0.4829E+02
      5.559  0.2668E+01  0.4845E+02
      5.620  0.8398E+00  0.4850E+02
      5.680  0.1710E-05  0.4850E+02
      5.740  0.9549E+00  0.4856E+02
      5.801  0.2462E+01  0.4870E+02
      5.861  0.7458E+00  0.4875E+02
      5.922  0.1254E+01  0.4882E+02
      5.982  0.9682E+00  0.4888E+02
      6.042  0.1810E+01  0.4899E+02
      6.103  0.1489E+01  0.4908E+02
      6.163  0.3742E+00  0.4911E+02
      6.224  0.9096E+00  0.4916E+02
      6.284  0.2184E+01  0.4929E+02
      6.344  0.8049E+00  0.4934E+02
      6.405  0.1125E+01  0.4941E+02
      6.465  0.1630E+01  0.4951E+02
      6.526  0.8707E+00  0.4956E+02
      6.586  0.2102E+01  0.4969E+02
      6.646  0.1085E+01  0.4975E+02
      6.707  0.6098E+00  0.4979E+02
      6.767  0.2163E+01  0.4992E+02
      6.828  0.1408E+01  0.5000E+02
      6.888  0.2735E+01  0.5017E+02
      6.948  0.1202E+01  0.5024E+02
      7.009  0.1815E+00  0.5025E+02
      7.069  0.2817E+01  0.5042E+02
      7.130  0.4127E+01  0.5067E+02
      7.190  0.2137E+01  0.5080E+02
      7.250  0.1148E+01  0.5087E+02
      7.311  0.3646E+01  0.5109E+02
      7.371  0.6889E+00  0.5113E+02
      7.432  0.2745E+01  0.5130E+02
      7.492  0.5071E-01  0.5130E+02
      7.552  0.1838E-01  0.5130E+02
      7.613  0.1817E+01  0.5141E+02
      7.673  0.2208E+01  0.5155E+02
      7.734  0.9813E+00  0.5161E+02
      7.794  0.9589E+00  0.5166E+02
      7.854  0.9130E+00  0.5172E+02
      7.915  0.5657E-08  0.5172E+02
      7.975  0.1008E+01  0.5178E+02
      8.036  0.1374E+01  0.5186E+02
      8.096  0.2392E+01  0.5201E+02
      8.157  0.2868E+01  0.5218E+02
      8.217  0.7758E+00  0.5223E+02
      8.277  0.1470E+01  0.5232E+02
      8.338  0.3044E+01  0.5250E+02
      8.398  0.2473E+01  0.5265E+02
      8.459  0.5031E+00  0.5268E+02
      8.519  0.1443E+01  0.5277E+02
      8.579  0.1058E+01  0.5283E+02
      8.640  0.2032E+01  0.5295E+02
      8.700  0.1500E+01  0.5304E+02
      8.761  0.4354E-01  0.5305E+02
      8.821  0.1614E+01  0.5314E+02
      8.881  0.5084E+00  0.5317E+02
      8.942  0.3217E+01  0.5337E+02
      9.002  0.1456E+01  0.5346E+02
      9.063  0.1313E+01  0.5354E+02
      9.123  0.1289E+01  0.5361E+02
      9.183  0.1071E+01  0.5368E+02
      9.244  0.1941E+01  0.5380E+02
      9.304  0.2637E+01  0.5396E+02
      9.365  0.2517E-01  0.5396E+02
      9.425  0.1620E+01  0.5406E+02
      9.485  0.2064E+01  0.5418E+02
      9.546  0.3107E+01  0.5437E+02
      9.606  0.2800E+01  0.5454E+02
      9.667  0.1213E+01  0.5461E+02
      9.727  0.1451E+01  0.5470E+02
      9.787  0.6183E+00  0.5473E+02
      9.848  0.8488E+00  0.5479E+02
      9.908  0.1909E+01  0.5490E+02
      9.969  0.7909E+00  0.5495E+02
     10.029  0.2363E+01  0.5509E+02
     10.089  0.1008E+01  0.5515E+02
     10.150  0.4377E+00  0.5518E+02
     10.210  0.1838E+01  0.5529E+02
     10.271  0.8791E+00  0.5534E+02
     10.331  0.1792E+01  0.5545E+02
     10.391  0.1174E+01  0.5552E+02
     10.452  0.4356E+00  0.5555E+02
     10.512  0.1986E+01  0.5567E+02
     10.573  0.1207E+01  0.5574E+02
     10.633  0.7237E+00  0.5579E+02
     10.693  0.3881E-02  0.5579E+02
     10.754  0.9178E+00  0.5584E+02
     10.814  0.0000E+00  0.5584E+02
     10.875  0.9680E-01  0.5585E+02
     10.935  0.3631E+00  0.5587E+02
     10.996  0.5196E+00  0.5590E+02
     11.056  0.1090E+01  0.5597E+02
     11.116  0.3026E-01  0.5597E+02
     11.177  0.2380E+00  0.5598E+02
     11.237  0.0000E+00  0.5598E+02
     11.298  0.0000E+00  0.5598E+02
     11.358  0.0000E+00  0.5598E+02
     11.418  0.0000E+00  0.5598E+02
     11.479  0.0000E+00  0.5598E+02
     11.539  0.2996E-06  0.5598E+02
     11.600  0.1150E+00  0.5599E+02
     11.660  0.0000E+00  0.5599E+02
     11.720  0.7013E-03  0.5599E+02
     11.781  0.1846E-01  0.5599E+02
     11.841  0.1452E-03  0.5599E+02
     11.902  0.1531E+00  0.5600E+02
     11.962  0.0000E+00  0.5600E+02
     12.022  0.0000E+00  0.5600E+02
     12.083  0.0000E+00  0.5600E+02
     12.143  0.0000E+00  0.5600E+02
     12.204  0.0000E+00  0.5600E+02
     12.264  0.0000E+00  0.5600E+02
     12.324  0.0000E+00  0.5600E+02
     12.385  0.0000E+00  0.5600E+02
     12.445  0.0000E+00  0.5600E+02
     12.506  0.0000E+00  0.5600E+02
     12.566  0.0000E+00  0.5600E+02
     12.626  0.0000E+00  0.5600E+02
     12.687  0.0000E+00  0.5600E+02
