    4    4    1    1
  0.2288285E+02  0.4506680E-09  0.4506680E-09  0.4506680E-09  0.5000000E-15
  1.000000000000000E-004
  CAR 
 unknown system                          
   44   84   28
 
  0.0000000E+00  0.0000000E+00  0.0000000E+00  0.5787037E-03
   1       -4.6108
   2       -2.3289
   3       -2.3289
   4       -2.3289
   5       -2.1555
   6       -2.1555
   7       -2.1555
   8       -0.9185
   9       -0.9185
  10       -0.9185
  11       -0.0263
  12       -0.0263
  13        0.6529
  14        0.6529
  15        0.6529
  16        0.8713
  17        0.8713
  18        0.8713
  19        0.8713
  20        0.8713
  21        0.8713
  22        4.2987
  23        4.2987
  24        4.2987
  25        6.3279
  26        6.3279
  27        6.3279
  28       11.7330
 
  0.8333333E-01  0.0000000E+00  0.0000000E+00  0.3472222E-02
   1       -4.5481
   2       -2.3116
   3       -2.2925
   4       -2.2925
   5       -2.1367
   6       -2.1266
   7       -2.1266
   8       -0.9423
   9       -0.8956
  10       -0.8956
  11       -0.0509
  12       -0.0154
  13        0.6189
  14        0.6189
  15        0.6406
  16        0.7459
  17        0.7459
  18        0.8289
  19        0.8289
  20        0.8713
  21        0.8713
  22        3.5891
  23        4.4753
  24        4.4753
  25        6.2974
  26        6.2974
  27        7.1503
  28       11.5714
 
  0.1666667E+00  0.0000000E+00  0.0000000E+00  0.3472222E-02
   1       -4.3620
   2       -2.2661
   3       -2.1874
   4       -2.1874
   5       -2.0812
   6       -2.0398
   7       -2.0398
   8       -1.0114
   9       -0.8274
  10       -0.8274
  11       -0.1215
  12        0.0168
  13        0.4320
  14        0.4320
  15        0.5194
  16        0.5194
  17        0.6048
  18        0.7085
  19        0.7085
  20        0.8715
  21        0.8715
  22        2.4552
  23        4.9420
  24        4.9420
  25        6.2139
  26        6.2139
  27        8.6266
  28       11.1254
 
  0.2500000E+00  0.0000000E+00  0.0000000E+00  0.3472222E-02
   1       -4.0585
   2       -2.2146
   3       -2.0269
   4       -2.0269
   5       -1.9916
   6       -1.8955
   7       -1.8955
   8       -1.1193
   9       -0.7157
  10       -0.7157
  11       -0.2269
  12        0.0339
  13        0.0339
  14        0.0684
  15        0.3646
  16        0.3646
  17        0.5274
  18        0.5274
  19        0.5484
  20        0.8717
  21        0.8717
  22        1.3816
  23        5.5911
  24        5.5911
  25        6.0998
  26        6.0998
  27       10.2870
  28       10.4792
 
  0.3333333E+00  0.0000000E+00  0.0000000E+00  0.3472222E-02
   1       -3.6515
   2       -2.2085
   3       -1.8726
   4       -1.8380
   5       -1.8380
   6       -1.6945
   7       -1.6945
   8       -1.2567
   9       -0.5635
  10       -0.5635
  11       -0.3799
  12       -0.3799
  13       -0.3456
  14        0.1363
  15        0.1791
  16        0.1791
  17        0.3080
  18        0.3080
  19        0.4756
  20        0.4813
  21        0.8719
  22        0.8719
  23        5.9863
  24        5.9863
  25        6.3478
  26        6.3478
  27        9.7112
  28        9.7112
 
  0.4166667E+00  0.0000000E+00  0.0000000E+00  0.3472222E-02
   1       -3.1725
   2       -2.3437
   3       -1.7305
   4       -1.6705
   5       -1.6705
   6       -1.4383
   7       -1.4383
   8       -1.4120
   9       -0.7737
  10       -0.7737
  11       -0.4361
  12       -0.3759
  13       -0.3759
  14       -0.1404
  15        0.0125
  16        0.0125
  17        0.0725
  18        0.0725
  19        0.2163
  20        0.3919
  21        0.8721
  22        0.8721
  23        5.9041
  24        5.9041
  25        7.1677
  26        7.1677
  27        8.8782
  28        8.8782
 
  0.5000000E+00  0.0000000E+00  0.0000000E+00  0.1736111E-02
   1       -2.6928
   2       -2.6928
   3       -1.5994
   4       -1.5994
   5       -1.5737
   6       -1.5737
   7       -1.1297
   8       -1.1297
   9       -1.1297
  10       -1.1297
  11       -0.4152
  12       -0.4152
  13       -0.1604
  14       -0.1604
  15       -0.1604
  16       -0.1604
  17       -0.0586
  18       -0.0586
  19        0.3035
  20        0.3035
  21        0.8721
  22        0.8721
  23        5.8742
  24        5.8742
  25        8.0202
  26        8.0202
  27        8.0202
  28        8.0202
 
  0.8333333E-01  0.8333333E-01  0.0000000E+00  0.6944444E-02
   1       -4.4860
   2       -2.2749
   3       -2.2749
   4       -2.2621
   5       -2.1081
   6       -2.1081
   7       -2.0932
   8       -0.9509
   9       -0.8873
  10       -0.8746
  11       -0.0572
  12       -0.0205
  13        0.5866
  14        0.5872
  15        0.5872
  16        0.6593
  17        0.7178
  18        0.7178
  19        0.8288
  20        0.8288
  21        0.8424
  22        3.7464
  23        3.7464
  24        4.6425
  25        6.2625
  26        7.1363
  27        7.1363
  28       11.0001
 
  0.1666667E+00  0.8333333E-01  0.0000000E+00  0.1388889E-01
   1       -4.3016
   2       -2.2282
   3       -2.1739
   4       -2.1686
   5       -2.0537
   6       -2.0225
   7       -1.9942
   8       -1.0110
   9       -0.8263
  10       -0.8126
  11       -0.1178
  12        0.0093
  13        0.3333
  14        0.3799
  15        0.4766
  16        0.4919
  17        0.5537
  18        0.6526
  19        0.7081
  20        0.8277
  21        0.8286
  22        2.6294
  23        4.1355
  24        5.0902
  25        6.1649
  26        7.1098
  27        8.5863
  28       10.3661
 
  0.2500000E+00  0.8333333E-01  0.0000000E+00  0.1388889E-01
   1       -4.0012
   2       -2.1746
   3       -2.0348
   4       -2.0060
   5       -1.9659
   6       -1.8802
   7       -1.8365
   8       -1.1146
   9       -0.7163
  10       -0.7148
  11       -0.2137
  12       -0.0547
  13        0.0034
  14        0.0670
  15        0.2714
  16        0.3440
  17        0.3927
  18        0.5265
  19        0.5697
  20        0.8247
  21        0.8282
  22        1.6120
  23        4.6099
  24        5.7219
  25        6.0240
  26        7.1206
  27        9.7520
  28       10.1702
 
  0.3333333E+00  0.8333333E-01  0.0000000E+00  0.1388889E-01
   1       -3.5985
   2       -2.1660
   3       -1.8565
   4       -1.8494
   5       -1.8139
   6       -1.6821
   7       -1.6368
   8       -1.2479
   9       -0.6033
  10       -0.5647
  11       -0.4570
  12       -0.3954
  13       -0.2991
  14       -0.0313
  15        0.1446
  16        0.1664
  17        0.2062
  18        0.3068
  19        0.4533
  20        0.8245
  21        0.8276
  22        0.8454
  23        5.0437
  24        5.8663
  25        6.4656
  26        7.2498
  27        9.1674
  28        9.8110
 
  0.4166667E+00  0.8333333E-01  0.0000000E+00  0.1388889E-01
   1       -3.1243
   2       -2.3002
   3       -1.7104
   4       -1.6722
   5       -1.6432
   6       -1.4300
   7       -1.4150
   8       -1.3993
   9       -0.8323
  10       -0.7786
  11       -0.5623
  12       -0.3774
  13       -0.3673
  14       -0.2548
  15        0.0095
  16        0.0343
  17        0.0710
  18        0.2167
  19        0.2379
  20        0.4840
  21        0.8251
  22        0.8269
  23        5.3551
  24        5.7116
  25        7.2765
  26        7.5648
  27        8.5954
  28        8.9783
 
  0.5000000E+00  0.8333333E-01  0.0000000E+00  0.6944444E-02
   1       -2.6485
   2       -2.6485
   3       -1.5767
   4       -1.5767
   5       -1.5572
   6       -1.5572
   7       -1.1560
   8       -1.1560
   9       -1.1269
  10       -1.1269
  11       -0.5446
  12       -0.5446
  13       -0.1619
  14       -0.1619
  15       -0.0573
  16       -0.0573
  17       -0.0488
  18       -0.0488
  19        0.3451
  20        0.3451
  21        0.8260
  22        0.8260
  23        5.5555
  24        5.5555
  25        8.0419
  26        8.0419
  27        8.1233
  28        8.1233
 
  0.1666667E+00  0.1666667E+00  0.0000000E+00  0.6944444E-02
   1       -4.1226
   2       -2.1216
   3       -2.1182
   4       -2.1182
   5       -1.9714
   6       -1.9714
   7       -1.8734
   8       -1.0357
   9       -0.7957
  10       -0.7698
  11       -0.1386
  12        0.0219
  13        0.1399
  14        0.1399
  15        0.1989
  16        0.4106
  17        0.5558
  18        0.5558
  19        0.7069
  20        0.7069
  21        0.7571
  22        3.0311
  23        3.0311
  24        5.4973
  25        6.0213
  26        8.4727
  27        8.4727
  28        9.6378
 
  0.2500000E+00  0.1666667E+00  0.0000000E+00  0.1388889E-01
   1       -3.8314
   2       -2.0582
   3       -2.0197
   4       -1.9489
   5       -1.8893
   6       -1.8350
   7       -1.7023
   8       -1.1123
   9       -0.7077
  10       -0.7048
  11       -0.2554
  12       -0.2049
  13       -0.1167
  14       -0.0989
  15        0.0913
  16        0.2816
  17        0.4149
  18        0.5010
  19        0.5242
  20        0.7050
  21        0.7188
  22        2.0559
  23        3.5098
  24        5.7959
  25        6.0889
  26        8.3155
  27        9.0475
  28        9.8406
 
  0.3333333E+00  0.1666667E+00  0.0000000E+00  0.1388889E-01
   1       -3.4420
   2       -2.0424
   3       -1.8680
   4       -1.7804
   5       -1.7464
   6       -1.6457
   7       -1.5107
   8       -1.2275
   9       -0.6606
  10       -0.6399
  11       -0.5617
  12       -0.4466
  13       -0.4108
  14       -0.2513
  15        0.1256
  16        0.2007
  17        0.2403
  18        0.3036
  19        0.3854
  20        0.7027
  21        0.7037
  22        1.3005
  23        3.9898
  24        5.5112
  25        6.8010
  26        8.1704
  27        8.6070
  28       10.1011
 
  0.4166667E+00  0.1666667E+00  0.0000000E+00  0.1388889E-01
   1       -2.9838
   2       -2.1745
   3       -1.6778
   4       -1.6510
   5       -1.5638
   6       -1.4060
   7       -1.3642
   8       -1.3441
   9       -0.9783
  10       -0.7957
  11       -0.6836
  12       -0.6485
  13       -0.3783
  14       -0.1857
  15       -0.0067
  16        0.0676
  17        0.0676
  18        0.2036
  19        0.3420
  20        0.6989
  21        0.7003
  22        0.8094
  23        4.4348
  24        5.1882
  25        7.5894
  26        8.0982
  27        8.3072
  28        9.2689
 
  0.5000000E+00  0.1666667E+00  0.0000000E+00  0.6944444E-02
   1       -2.5207
   2       -2.5207
   3       -1.5184
   4       -1.5184
   5       -1.5091
   6       -1.5091
   7       -1.2149
   8       -1.2149
   9       -1.1201
  10       -1.1201
  11       -0.7223
  12       -0.7223
  13       -0.1647
  14       -0.1647
  15       -0.0359
  16       -0.0359
  17       -0.0117
  18       -0.0117
  19        0.5265
  20        0.5265
  21        0.6986
  22        0.6986
  23        4.8323
  24        4.8323
  25        8.1390
  26        8.1390
  27        8.4214
  28        8.4214
 
  0.2500000E+00  0.2500000E+00  0.0000000E+00  0.6944444E-02
   1       -3.5564
   2       -1.9578
   3       -1.8773
   4       -1.8773
   5       -1.7626
   6       -1.7626
   7       -1.5302
   8       -1.1406
   9       -0.6928
  10       -0.6502
  11       -0.5062
  12       -0.5062
  13       -0.2874
  14       -0.2416
  15        0.1790
  16        0.1870
  17        0.3805
  18        0.3805
  19        0.5209
  20        0.5209
  21        0.6201
  22        2.5455
  23        2.5455
  24        5.4306
  25        6.6370
  26        8.5714
  27        9.3877
  28        9.3877
 
  0.3333333E+00  0.2500000E+00  0.0000000E+00  0.1388889E-01
   1       -3.1908
   2       -1.8495
   3       -1.8453
   4       -1.6674
   5       -1.6554
   6       -1.5881
   7       -1.3537
   8       -1.2126
   9       -0.8628
  10       -0.7525
  11       -0.6952
  12       -0.5453
  13       -0.5351
  14       -0.2766
  15        0.0516
  16        0.2243
  17        0.2762
  18        0.2999
  19        0.3456
  20        0.5175
  21        0.5596
  22        1.7684
  23        3.0401
  24        4.9777
  25        7.3122
  26        8.3157
  27        8.9349
  28       10.3138
 
  0.4166667E+00  0.2500000E+00  0.0000000E+00  0.1388889E-01
   1       -2.7628
   2       -1.9839
   3       -1.6824
   4       -1.5554
   5       -1.4420
   6       -1.3695
   7       -1.3163
   8       -1.2316
   9       -1.1652
  10       -0.8867
  11       -0.8319
  12       -0.7603
  13       -0.3678
  14       -0.2241
  15       -0.0522
  16        0.0608
  17        0.0653
  18        0.1100
  19        0.5158
  20        0.5301
  21        0.5528
  22        1.2042
  23        3.5279
  24        4.4945
  25        8.0726
  26        8.2448
  27        8.5692
  28        9.7241
 
  0.5000000E+00  0.2500000E+00  0.0000000E+00  0.6944444E-02
   1       -2.3263
   2       -2.3263
   3       -1.4781
   4       -1.4781
   5       -1.4350
   6       -1.4350
   7       -1.2357
   8       -1.2357
   9       -1.1135
  10       -1.1135
  11       -0.8573
  12       -0.8573
  13       -0.1628
  14       -0.1628
  15       -0.0775
  16       -0.0775
  17       -0.0538
  18       -0.0538
  19        0.5184
  20        0.5184
  21        0.8224
  22        0.8224
  23        4.0105
  24        4.0105
  25        8.3334
  26        8.3334
  27        8.8860
  28        8.8860
 
  0.3333333E+00  0.3333333E+00  0.0000000E+00  0.6944444E-02
   1       -2.8620
   2       -1.7821
   3       -1.6119
   4       -1.6119
   5       -1.5138
   6       -1.5138
   7       -1.2246
   8       -1.1971
   9       -1.0471
  10       -1.0471
  11       -0.7202
  12       -0.6991
  13       -0.4608
  14       -0.3301
  15       -0.0499
  16        0.1353
  17        0.1353
  18        0.2980
  19        0.2980
  20        0.4390
  21        0.5615
  22        2.2436
  23        2.2436
  24        4.3746
  25        7.9538
  26        8.2515
  27        9.6227
  28        9.6227
 
  0.4166667E+00  0.3333333E+00  0.0000000E+00  0.1388889E-01
   1       -2.4837
   2       -1.7701
   3       -1.6757
   4       -1.4296
   5       -1.4067
   6       -1.3260
   7       -1.2717
   8       -1.2532
   9       -1.1002
  10       -1.0521
  11       -0.8974
  12       -0.7925
  13       -0.3283
  14       -0.3137
  15       -0.1365
  16       -0.0186
  17       -0.0154
  18        0.0695
  19        0.3024
  20        0.3611
  21        0.8317
  22        1.6259
  23        2.7295
  24        3.7848
  25        8.3640
  26        8.6875
  27        9.0552
  28       10.3169
 
  0.5000000E+00  0.3333333E+00  0.0000000E+00  0.6944444E-02
   1       -2.0988
   2       -2.0988
   3       -1.5268
   4       -1.5268
   5       -1.3448
   6       -1.3448
   7       -1.1435
   8       -1.1435
   9       -1.1147
  10       -1.1147
  11       -0.9256
  12       -0.9256
  13       -0.1915
  14       -0.1915
  15       -0.1458
  16       -0.1458
  17       -0.1281
  18       -0.1281
  19        0.3199
  20        0.3199
  21        1.1718
  22        1.1718
  23        3.2380
  24        3.2380
  25        8.6334
  26        8.6334
  27        9.4824
  28        9.4824
 
  0.4166667E+00  0.4166667E+00  0.0000000E+00  0.6944444E-02
   1       -2.1799
   2       -1.6511
   3       -1.6271
   4       -1.6271
   5       -1.2838
   6       -1.2838
   7       -1.2482
   8       -1.0885
   9       -1.0885
  10       -0.9999
  11       -0.9994
  12       -0.8215
  13       -0.3710
  14       -0.2411
  15       -0.2319
  16       -0.1556
  17       -0.1556
  18        0.0890
  19        0.0890
  20        0.2253
  21        1.1637
  22        2.0765
  23        2.0765
  24        3.1377
  25        8.6340
  26        9.3990
  27        9.6100
  28        9.6100
 
  0.5000000E+00  0.4166667E+00  0.0000000E+00  0.6944444E-02
   1       -1.8875
   2       -1.8875
   3       -1.6166
   4       -1.6166
   5       -1.2540
   6       -1.2540
   7       -1.1338
   8       -1.1338
   9       -1.0095
  10       -1.0095
  11       -0.9245
  12       -0.9245
  13       -0.3060
  14       -0.3060
  15       -0.2497
  16       -0.2497
  17       -0.0989
  18       -0.0989
  19        0.1364
  20        0.1364
  21        1.5660
  22        1.5660
  23        2.5727
  24        2.5727
  25        9.0488
  26        9.0488
  27       10.1778
  28       10.1781
 
  0.5000000E+00  0.5000000E+00  0.0000000E+00  0.1736111E-02
   1       -1.7295
   2       -1.7295
   3       -1.7295
   4       -1.7295
   5       -1.1799
   6       -1.1799
   7       -1.1799
   8       -1.1799
   9       -0.9216
  10       -0.9216
  11       -0.9216
  12       -0.9216
  13       -0.3413
  14       -0.3413
  15       -0.3413
  16       -0.3413
  17       -0.0068
  18       -0.0068
  19       -0.0068
  20       -0.0068
  21        2.0229
  22        2.0229
  23        2.0229
  24        2.0229
  25        9.5884
  26        9.5884
  27        9.5884
  28        9.5884
 
  0.8333333E-01  0.8333333E-01  0.8333333E-01  0.4629630E-02
   1       -4.4246
   2       -2.2446
   3       -2.2446
   4       -2.2446
   5       -2.0747
   6       -2.0747
   7       -2.0747
   8       -0.9574
   9       -0.8679
  10       -0.8679
  11       -0.0433
  12       -0.0433
  13        0.5574
  14        0.5574
  15        0.5574
  16        0.6051
  17        0.6051
  18        0.6051
  19        0.8205
  20        0.8205
  21        0.8205
  22        3.8908
  23        3.8908
  24        3.8908
  25        7.1156
  26        7.1156
  27        7.1156
  28       11.1245
 
  0.1666667E+00  0.8333333E-01  0.8333333E-01  0.1388889E-01
   1       -4.2423
   2       -2.1980
   3       -2.1566
   4       -2.1566
   5       -2.0203
   6       -1.9757
   7       -1.9757
   8       -1.0091
   9       -0.8154
  10       -0.8102
  11       -0.1073
  12       -0.0027
  13        0.2987
  14        0.2987
  15        0.4458
  16        0.4700
  17        0.4867
  18        0.4867
  19        0.7613
  20        0.8071
  21        0.8071
  22        2.7815
  23        4.2532
  24        4.2532
  25        7.0668
  26        7.0668
  27        8.5241
  28       10.5204
 
  0.2500000E+00  0.8333333E-01  0.8333333E-01  0.1388889E-01
   1       -3.9453
   2       -2.1441
   3       -2.0180
   4       -2.0180
   5       -1.9329
   6       -1.8181
   7       -1.8181
   8       -1.1070
   9       -0.7186
  10       -0.7153
  11       -0.1947
  12       -0.0777
  13       -0.0777
  14        0.0623
  15        0.1880
  16        0.3297
  17        0.3517
  18        0.3517
  19        0.6775
  20        0.7969
  21        0.7969
  22        1.7823
  23        4.6976
  24        4.6976
  25        7.0333
  26        7.0333
  27        9.9642
  28        9.9767
 
  0.3333333E+00  0.8333333E-01  0.8333333E-01  0.1388889E-01
   1       -3.5478
   2       -2.1340
   3       -1.8391
   4       -1.8391
   5       -1.8182
   6       -1.6204
   7       -1.6204
   8       -1.2354
   9       -0.6216
  10       -0.5859
  11       -0.4658
  12       -0.4658
  13       -0.2500
  14       -0.1496
  15        0.1476
  16        0.1513
  17        0.1812
  18        0.1812
  19        0.5783
  20        0.7910
  21        0.7910
  22        0.9983
  23        5.0904
  24        5.0904
  25        7.0846
  26        7.0846
  27        9.4763
  28        9.4763
 
  0.4166667E+00  0.8333333E-01  0.8333333E-01  0.1388889E-01
   1       -3.0801
   2       -2.2659
   3       -1.6829
   4       -1.6500
   5       -1.6500
   6       -1.4106
   7       -1.4106
   8       -1.3817
   9       -0.8243
  10       -0.8243
  11       -0.6090
  12       -0.4668
  13       -0.4261
  14       -0.1552
  15       -0.0454
  16        0.0220
  17        0.0220
  18        0.2481
  19        0.4573
  20        0.4698
  21        0.7881
  22        0.7881
  23        5.3300
  24        5.3300
  25        7.2472
  26        7.2472
  27        9.0767
  28        9.0767
 
  0.5000000E+00  0.8333333E-01  0.8333333E-01  0.6944444E-02
   1       -2.6107
   2       -2.6107
   3       -1.5538
   4       -1.5538
   5       -1.5345
   6       -1.5345
   7       -1.2404
   8       -1.2404
   9       -1.0620
  10       -1.0620
  11       -0.6105
  12       -0.6105
  13       -0.2426
  14       -0.2426
  15       -0.0478
  16       -0.0478
  17        0.0913
  18        0.0913
  19        0.3576
  20        0.3576
  21        0.7873
  22        0.7873
  23        5.4030
  24        5.4030
  25        7.3613
  26        7.3613
  27        8.8955
  28        8.8955
 
  0.1666667E+00  0.1666667E+00  0.8333333E-01  0.1388889E-01
   1       -4.0662
   2       -2.1108
   3       -2.1108
   4       -2.1072
   5       -1.9210
   6       -1.9210
   7       -1.8532
   8       -1.0276
   9       -0.7889
  10       -0.7729
  11       -0.1141
  12        0.0035
  13        0.1111
  14        0.1111
  15        0.1378
  16        0.3604
  17        0.4157
  18        0.4157
  19        0.7558
  20        0.7558
  21        0.7656
  22        3.1495
  23        3.1495
  24        4.5534
  25        6.9453
  26        8.3391
  27        8.3391
  28        9.8767
 
  0.2500000E+00  0.1666667E+00  0.8333333E-01  0.2777778E-01
   1       -3.7801
   2       -2.0573
   3       -2.0086
   4       -1.9740
   5       -1.8338
   6       -1.7627
   7       -1.6815
   8       -1.0960
   9       -0.7148
  10       -0.7109
  11       -0.2694
  12       -0.1704
  13       -0.1612
  14       -0.1495
  15        0.0782
  16        0.2439
  17        0.2702
  18        0.3210
  19        0.6815
  20        0.7269
  21        0.7275
  22        2.1689
  23        3.6045
  24        4.9101
  25        6.7881
  26        8.0537
  27        9.4409
  28        9.5233
 
  0.3333333E+00  0.1666667E+00  0.8333333E-01  0.2777778E-01
   1       -3.3987
   2       -2.0445
   3       -1.8601
   4       -1.7958
   5       -1.7229
   6       -1.5684
   7       -1.4935
   8       -1.2032
   9       -0.6697
  10       -0.6346
  11       -0.5982
  12       -0.4975
  13       -0.4476
  14       -0.1866
  15        0.0845
  16        0.1072
  17        0.1812
  18        0.1908
  19        0.5758
  20        0.7003
  21        0.7032
  22        1.3797
  23        4.0694
  24        5.1479
  25        6.7144
  26        7.7240
  27        9.2417
  28       10.2605
 
  0.4166667E+00  0.1666667E+00  0.8333333E-01  0.2777778E-01
   1       -2.9519
   2       -2.1705
   3       -1.6706
   4       -1.5988
   5       -1.5941
   6       -1.3964
   7       -1.3507
   8       -1.3312
   9       -0.9305
  10       -0.8058
  11       -0.6993
  12       -0.6801
  13       -0.4590
  14       -0.1103
  15       -0.0648
  16       -0.0200
  17        0.0305
  18        0.3298
  19        0.4173
  20        0.6867
  21        0.6888
  22        0.8224
  23        4.5001
  24        5.1161
  25        6.8424
  26        7.4016
  27        9.2764
  28        9.8834
 
  0.5000000E+00  0.1666667E+00  0.8333333E-01  0.1388889E-01
   1       -2.5032
   2       -2.5032
   3       -1.4965
   4       -1.4965
   5       -1.4664
   6       -1.4664
   7       -1.3443
   8       -1.3443
   9       -1.0004
  10       -1.0004
  11       -0.7447
  12       -0.7447
  13       -0.2950
  14       -0.2950
  15       -0.0581
  16       -0.0581
  17        0.1743
  18        0.1743
  19        0.5092
  20        0.5092
  21        0.6835
  22        0.6835
  23        4.8651
  24        4.8651
  25        7.1026
  26        7.1026
  27        9.5172
  28        9.5172
 
  0.2500000E+00  0.2500000E+00  0.8333333E-01  0.1388889E-01
   1       -3.5135
   2       -1.9532
   3       -1.9242
   4       -1.9242
   5       -1.6732
   6       -1.6732
   7       -1.5104
   8       -1.1110
   9       -0.7000
  10       -0.6744
  11       -0.5135
  12       -0.5135
  13       -0.3315
  14       -0.1897
  15        0.1170
  16        0.1709
  17        0.2088
  18        0.2088
  19        0.6368
  20        0.6368
  21        0.6528
  22        2.6314
  23        2.6314
  24        5.0821
  25        6.5262
  26        8.9120
  27        8.9120
  28        9.2299
 
  0.3333333E+00  0.2500000E+00  0.8333333E-01  0.2777778E-01
   1       -3.1613
   2       -1.9141
   3       -1.8486
   4       -1.7541
   5       -1.5627
   6       -1.4760
   7       -1.3434
   8       -1.1686
   9       -0.8389
  10       -0.7546
  11       -0.7014
  12       -0.5934
  13       -0.5649
  14       -0.1909
  15       -0.0027
  16        0.0363
  17        0.1111
  18        0.3289
  19        0.5162
  20        0.5867
  21        0.5921
  22        1.8251
  23        3.1149
  24        4.9547
  25        6.5432
  26        8.2988
  27        9.2906
  28        9.6892
 
  0.4166667E+00  0.2500000E+00  0.8333333E-01  0.2777778E-01
   1       -2.7534
   2       -2.0365
   3       -1.6972
   4       -1.5609
   5       -1.4548
   6       -1.3496
   7       -1.2599
   8       -1.2562
   9       -1.0338
  10       -0.8898
  11       -0.7867
  12       -0.7661
  13       -0.4794
  14       -0.1544
  15       -0.0985
  16       -0.0798
  17       -0.0126
  18        0.3446
  19        0.5348
  20        0.5532
  21        0.5545
  22        1.2193
  23        3.6010
  24        4.5585
  25        6.8459
  26        7.7453
  27        9.5694
  28       10.4660
 
  0.5000000E+00  0.2500000E+00  0.8333333E-01  0.1388889E-01
   1       -2.3456
   2       -2.3456
   3       -1.5155
   4       -1.5155
   5       -1.3549
   6       -1.3549
   7       -1.3453
   8       -1.3453
   9       -0.9458
  10       -0.9458
  11       -0.8629
  12       -0.8629
  13       -0.3319
  14       -0.3319
  15       -0.1068
  16       -0.1068
  17        0.1261
  18        0.1261
  19        0.5421
  20        0.5421
  21        0.8100
  22        0.8100
  23        4.0855
  24        4.0855
  25        7.2623
  26        7.2623
  27       10.0187
  28       10.0187
 
  0.3333333E+00  0.3333333E+00  0.8333333E-01  0.1388889E-01
   1       -2.8543
   2       -1.8003
   3       -1.7642
   4       -1.7642
   5       -1.3529
   6       -1.3529
   7       -1.2107
   8       -1.1566
   9       -1.0139
  10       -1.0139
  11       -0.7212
  12       -0.6683
  13       -0.5644
  14       -0.2039
  15       -0.1191
  16       -0.0316
  17       -0.0316
  18        0.4467
  19        0.4467
  20        0.4920
  21        0.5431
  22        2.2936
  23        2.2936
  24        4.4474
  25        6.7498
  26        8.9083
  27        8.9083
  28        9.5501
 
  0.4166667E+00  0.3333333E+00  0.8333333E-01  0.2777778E-01
   1       -2.5083
   2       -1.8984
   3       -1.7180
   4       -1.6337
   5       -1.2577
   6       -1.2404
   7       -1.1775
   8       -1.1717
   9       -1.0741
  10       -1.0456
  11       -0.7891
  12       -0.7703
  13       -0.4970
  14       -0.2074
  15       -0.2060
  16       -0.1240
  17       -0.1216
  18        0.2677
  19        0.3967
  20        0.4181
  21        0.8145
  22        1.6429
  23        2.7821
  24        3.8605
  25        7.1452
  26        8.2242
  27        9.5851
  28        9.9783
 
  0.5000000E+00  0.3333333E+00  0.8333333E-01  0.1388889E-01
   1       -2.1688
   2       -2.1688
   3       -1.6269
   4       -1.6269
   5       -1.2404
   6       -1.2404
   7       -1.2162
   8       -1.2162
   9       -0.9219
  10       -0.9219
  11       -0.8894
  12       -0.8894
  13       -0.3731
  14       -0.3731
  15       -0.2063
  16       -0.2063
  17        0.0594
  18        0.0594
  19        0.3850
  20        0.3850
  21        1.1642
  22        1.1642
  23        3.3007
  24        3.3007
  25        7.6394
  26        7.6394
  27       10.3349
  28       10.3349
 
  0.4166667E+00  0.4166667E+00  0.8333333E-01  0.1388889E-01
   1       -2.2486
   2       -1.7937
   3       -1.7937
   4       -1.7291
   5       -1.1485
   6       -1.1485
   7       -1.1350
   8       -1.1275
   9       -1.0100
  10       -1.0100
  11       -0.7969
  12       -0.7594
  13       -0.5010
  14       -0.3090
  15       -0.2770
  16       -0.2770
  17       -0.0954
  18        0.2175
  19        0.2175
  20        0.2985
  21        1.1510
  22        2.1003
  23        2.1003
  24        3.1951
  25        7.5937
  26        8.8126
  27        8.8126
  28       10.2816
 
  0.5000000E+00  0.4166667E+00  0.8333333E-01  0.1388889E-01
   1       -2.0041
   2       -2.0041
   3       -1.7436
   4       -1.7436
   5       -1.1496
   6       -1.1496
   7       -1.1203
   8       -1.1203
   9       -0.8780
  10       -0.8780
  11       -0.8267
  12       -0.8267
  13       -0.4233
  14       -0.4233
  15       -0.3361
  16       -0.3361
  17        0.0340
  18        0.0340
  19        0.2248
  20        0.2248
  21        1.5660
  22        1.5660
  23        2.6103
  24        2.6103
  25        8.1503
  26        8.1503
  27        9.4997
  28        9.4997
 
  0.5000000E+00  0.5000000E+00  0.8333333E-01  0.3472222E-02
   1       -1.8651
   2       -1.8651
   3       -1.8651
   4       -1.8651
   5       -1.1081
   6       -1.1081
   7       -1.1081
   8       -1.1081
   9       -0.7998
  10       -0.7998
  11       -0.7998
  12       -0.7998
  13       -0.4336
  14       -0.4336
  15       -0.4336
  16       -0.4336
  17        0.0923
  18        0.0923
  19        0.0923
  20        0.0923
  21        2.0376
  22        2.0376
  23        2.0376
  24        2.0376
  25        8.7717
  26        8.7717
  27        8.7717
  28        8.7717
 
  0.1666667E+00  0.1666667E+00  0.1666667E+00  0.4629630E-02
   1       -3.8991
   2       -2.0704
   3       -2.0704
   4       -2.0704
   5       -1.7929
   6       -1.7929
   7       -1.7929
   8       -1.0217
   9       -0.7660
  10       -0.7660
  11       -0.0448
  12       -0.0448
  13       -0.0359
  14       -0.0359
  15       -0.0359
  16        0.2365
  17        0.2365
  18        0.2365
  19        0.7687
  20        0.7687
  21        0.7687
  22        3.4557
  23        3.4557
  24        3.4557
  25        7.9561
  26        7.9561
  27        7.9561
  28       10.6124
 
  0.2500000E+00  0.1666667E+00  0.1666667E+00  0.1388889E-01