   4   4   0   0
  0.1030698E+02  0.3454595E-09  0.3454595E-09  0.3454595E-09  0.5000000E-15
  1.000000000000000E-004
  CAR 
 unknown system                          
     29.50548689     -7.04625579  301      5.10740492      1.00000000
     -7.046  0.0000E+00  0.0000E+00
     -6.924  0.0000E+00  0.0000E+00
     -6.803  0.0000E+00  0.0000E+00
     -6.681  0.0000E+00  0.0000E+00
     -6.559  0.0000E+00  0.0000E+00
     -6.437  0.0000E+00  0.0000E+00
     -6.315  0.0000E+00  0.0000E+00
     -6.193  0.0000E+00  0.0000E+00
     -6.072  0.0000E+00  0.0000E+00
     -5.950  0.0000E+00  0.0000E+00
     -5.828  0.0000E+00  0.0000E+00
     -5.706  0.0000E+00  0.0000E+00
     -5.584  0.0000E+00  0.0000E+00
     -5.462  0.0000E+00  0.0000E+00
     -5.341  0.5993E-02  0.7302E-03
     -5.219  0.7178E-01  0.1385E-01
     -5.097  0.3527E-01  0.2398E-01
     -4.975  0.2305E+00  0.5214E-01
     -4.853  0.5053E-02  0.5965E-01
     -4.731  0.1796E+00  0.8967E-01
     -4.609  0.1436E+00  0.1246E+00
     -4.488  0.1435E+00  0.1480E+00
     -4.366  0.1274E-13  0.1829E+00
     -4.244  0.2870E+00  0.2179E+00
     -4.122  0.3063E+00  0.2596E+00
     -4.000  0.2272E+00  0.2937E+00
     -3.878  0.1436E+00  0.3360E+00
     -3.757  0.1512E+00  0.3544E+00
     -3.635  0.4536E+00  0.4306E+00
     -3.513  0.7003E-01  0.4597E+00
     -3.391  0.2871E+00  0.5386E+00
     -3.269  0.1222E+00  0.5535E+00
     -3.147  0.3557E+00  0.6257E+00
     -3.026  0.2677E+00  0.6849E+00
     -2.904  0.4307E+00  0.7442E+00
     -2.782  0.7029E+00  0.8298E+00
     -2.660  0.1437E+00  0.8841E+00
     -2.538  0.4339E+00  0.9545E+00
     -2.416  0.4786E-01  0.9949E+00
     -2.295  0.4772E+00  0.1092E+01
     -2.173  0.1831E+00  0.1153E+01
     -2.051  0.4324E+00  0.1288E+01
     -1.929  0.2874E+00  0.1358E+01
     -1.807  0.5743E+00  0.1445E+01
     -1.685  0.8979E+00  0.1555E+01
     -1.563  0.7026E+00  0.1658E+01
     -1.442  0.1033E+01  0.1838E+01
     -1.320  0.6740E+00  0.1923E+01
     -1.198  0.7858E+00  0.2041E+01
     -1.076  0.1188E+01  0.2278E+01
     -0.954  0.1412E+01  0.2480E+01
     -0.832  0.1656E+01  0.2726E+01
     -0.711  0.2000E+01  0.3072E+01
     -0.589  0.1846E+01  0.3550E+01
     -0.467  0.2628E+01  0.4065E+01
     -0.345  0.3170E+01  0.4638E+01
     -0.223  0.2682E+01  0.5147E+01
     -0.101  0.3209E+01  0.5833E+01
      0.020  0.5249E+01  0.6634E+01
      0.142  0.3946E+01  0.7416E+01
      0.264  0.6076E+01  0.8550E+01
      0.386  0.4942E+01  0.9448E+01
      0.508  0.3845E+01  0.1029E+02
      0.630  0.5208E+01  0.1119E+02
      0.751  0.4875E+01  0.1199E+02
      0.873  0.3813E+01  0.1269E+02
      0.995  0.4909E+01  0.1376E+02
      1.117  0.6468E+01  0.1487E+02
      1.239  0.8332E+01  0.1619E+02
      1.361  0.5208E+01  0.1733E+02
      1.482  0.9007E+01  0.1887E+02
      1.604  0.9481E+01  0.2046E+02
      1.726  0.7611E+01  0.2194E+02
      1.848  0.8513E+01  0.2377E+02
      1.970  0.6182E+01  0.2504E+02
      2.092  0.4936E+01  0.2608E+02
      2.214  0.5696E+01  0.2704E+02
      2.335  0.7163E+01  0.2824E+02
      2.457  0.7988E+01  0.2974E+02
      2.579  0.7942E+01  0.3122E+02
      2.701  0.7981E+01  0.3259E+02
      2.823  0.7001E+01  0.3380E+02
      2.945  0.7623E+01  0.3510E+02
      3.066  0.9461E+01  0.3650E+02
      3.188  0.1021E+02  0.3818E+02
      3.310  0.1266E+02  0.4073E+02
      3.432  0.4720E+01  0.4177E+02
      3.554  0.1864E+01  0.4208E+02
      3.676  0.5857E+00  0.4228E+02
      3.797  0.5754E+00  0.4238E+02
      3.919  0.9748E+00  0.4259E+02
      4.041  0.7179E+00  0.4278E+02
      4.163  0.7525E+00  0.4289E+02
      4.285  0.4879E+00  0.4298E+02
      4.407  0.1214E+01  0.4324E+02
      4.528  0.8635E+00  0.4336E+02
      4.650  0.6196E+00  0.4347E+02
      4.772  0.6507E+00  0.4363E+02
      4.894  0.1073E+01  0.4379E+02
      5.016  0.4304E+00  0.4391E+02
      5.138  0.2881E+00  0.4401E+02
      5.259  0.7848E+00  0.4417E+02
      5.381  0.4686E+00  0.4423E+02
      5.503  0.5783E+00  0.4444E+02
      5.625  0.1790E+01  0.4467E+02
      5.747  0.1436E+00  0.4472E+02
      5.869  0.4455E+00  0.4477E+02
      5.991  0.7225E+00  0.4491E+02
      6.112  0.5827E+00  0.4500E+02
      6.234  0.1029E+01  0.4515E+02
      6.356  0.2871E+00  0.4534E+02
      6.478  0.5550E+00  0.4541E+02
      6.600  0.1007E+01  0.4556E+02
      6.722  0.5026E+00  0.4565E+02
      6.843  0.1443E+00  0.4574E+02
      6.965  0.5837E+00  0.4584E+02
      7.087  0.7345E+00  0.4599E+02
      7.209  0.3414E-01  0.4605E+02
      7.331  0.1149E+01  0.4621E+02
      7.453  0.8612E+00  0.4637E+02
      7.574  0.1436E+00  0.4639E+02
      7.696  0.5743E+00  0.4651E+02
      7.818  0.4635E+00  0.4660E+02
      7.940  0.6064E-01  0.4661E+02
      8.062  0.5045E+00  0.4678E+02
      8.184  0.1436E+00  0.4688E+02
      8.305  0.3997E+00  0.4693E+02
      8.427  0.9492E+00  0.4705E+02
      8.549  0.5743E+00  0.4718E+02
      8.671  0.5936E-09  0.4718E+02
      8.793  0.3270E+00  0.4726E+02
      8.915  0.5117E+00  0.4732E+02
      9.037  0.5743E+00  0.4740E+02
      9.158  0.1227E+00  0.4744E+02
      9.280  0.7168E+00  0.4757E+02
      9.402  0.1110E+00  0.4760E+02
      9.524  0.2898E+00  0.4764E+02
      9.646  0.2235E+00  0.4768E+02
      9.768  0.1062E+01  0.4784E+02
      9.889  0.5462E+00  0.4800E+02
     10.011  0.4289E+00  0.4807E+02
     10.133  0.5714E+00  0.4817E+02
     10.255  0.5744E+00  0.4836E+02
     10.377  0.4324E+00  0.4848E+02
     10.499  0.6107E+00  0.4862E+02
     10.620  0.6426E+00  0.4874E+02
     10.742  0.7800E+00  0.4888E+02
     10.864  0.8990E+00  0.4904E+02
     10.986  0.5743E+00  0.4917E+02
     11.108  0.1412E+01  0.4936E+02
     11.230  0.4263E+00  0.4943E+02
     11.351  0.1003E+01  0.4959E+02
     11.473  0.3006E+00  0.4964E+02
     11.595  0.7739E+00  0.4980E+02
     11.717  0.4197E+00  0.4988E+02
     11.839  0.1171E+01  0.5006E+02
     11.961  0.7183E+00  0.5016E+02
     12.082  0.3357E+00  0.5023E+02
     12.204  0.9229E+00  0.5038E+02
     12.326  0.2569E+00  0.5048E+02
     12.448  0.5479E+00  0.5056E+02
     12.570  0.6462E+00  0.5068E+02
     12.692  0.4626E+00  0.5075E+02
     12.814  0.2871E+00  0.5084E+02
     12.935  0.5746E+00  0.5094E+02
     13.057  0.6942E+00  0.5107E+02
     13.179  0.2924E+00  0.5120E+02
     13.301  0.5730E+00  0.5135E+02
     13.423  0.6448E+00  0.5147E+02
     13.545  0.7893E+00  0.5160E+02
     13.666  0.4354E+00  0.5166E+02
     13.788  0.7897E+00  0.5181E+02
     13.910  0.1220E+01  0.5198E+02
     14.032  0.1100E+01  0.5221E+02
     14.154  0.4185E+00  0.5231E+02
     14.276  0.9734E+00  0.5246E+02
     14.397  0.5786E+00  0.5254E+02
     14.519  0.9350E+00  0.5274E+02
     14.641  0.7251E+00  0.5289E+02
     14.763  0.3021E+00  0.5303E+02
     14.885  0.9661E+00  0.5326E+02
     15.007  0.8060E+00  0.5338E+02
     15.128  0.7793E+00  0.5356E+02
     15.250  0.1020E+01  0.5371E+02
     15.372  0.9084E+00  0.5390E+02
     15.494  0.9135E+00  0.5403E+02
     15.616  0.1005E+01  0.5416E+02
     15.738  0.1170E+01  0.5437E+02
     15.860  0.1129E+01  0.5457E+02
     15.981  0.4618E+00  0.5469E+02
     16.103  0.9332E+00  0.5489E+02
     16.225  0.1307E+01  0.5512E+02
     16.347  0.8594E+00  0.5524E+02
     16.469  0.1060E+01  0.5537E+02
     16.591  0.5149E+00  0.5544E+02
     16.712  0.7583E+00  0.5556E+02
     16.834  0.1510E+01  0.5582E+02
     16.956  0.8641E+00  0.5601E+02
     17.078  0.8127E+00  0.5624E+02
     17.200  0.1014E+01  0.5642E+02
     17.322  0.9260E+00  0.5654E+02
     17.443  0.1857E+01  0.5681E+02
     17.565  0.9443E-05  0.5690E+02
     17.687  0.7891E+00  0.5708E+02
     17.809  0.3590E+00  0.5722E+02
     17.931  0.3594E+00  0.5733E+02
     18.053  0.1519E+01  0.5761E+02
     18.174  0.7170E+00  0.5779E+02
     18.296  0.1120E+01  0.5798E+02
     18.418  0.1063E+01  0.5818E+02
     18.540  0.2839E+00  0.5826E+02
     18.662  0.1394E+01  0.5844E+02
     18.784  0.6909E+00  0.5866E+02
     18.905  0.1364E+01  0.5892E+02
     19.027  0.8547E+00  0.5908E+02
     19.149  0.1507E+01  0.5928E+02
     19.271  0.1006E+01  0.5941E+02
     19.393  0.1467E+01  0.5964E+02
     19.515  0.1971E+01  0.5991E+02
     19.637  0.1034E+01  0.6008E+02
     19.758  0.8492E-01  0.6021E+02
     19.880  0.1091E+01  0.6039E+02
     20.002  0.1199E+01  0.6058E+02
     20.124  0.5743E+00  0.6073E+02
     20.246  0.1194E+01  0.6097E+02
     20.368  0.7602E+00  0.6111E+02
     20.489  0.3122E+00  0.6125E+02
     20.611  0.1247E+01  0.6145E+02
     20.733  0.7735E+00  0.6158E+02
     20.855  0.7894E+00  0.6170E+02
     20.977  0.1032E+01  0.6187E+02
     21.099  0.6409E+00  0.6201E+02
     21.220  0.6850E+00  0.6210E+02
     21.342  0.9176E+00  0.6227E+02
     21.464  0.2871E+00  0.6235E+02
     21.586  0.2871E+00  0.6238E+02
     21.708  0.2845E+00  0.6242E+02
     21.830  0.1803E+00  0.6244E+02
     21.951  0.4785E+00  0.6262E+02
     22.073  0.1288E+01  0.6279E+02
     22.195  0.1436E+00  0.6283E+02
     22.317  0.0000E+00  0.6283E+02
     22.439  0.1383E+00  0.6285E+02
     22.561  0.1003E+01  0.6297E+02
     22.682  0.1436E+00  0.6299E+02
     22.804  0.2154E+00  0.6301E+02
     22.926  0.2861E+00  0.6315E+02
     23.048  0.6463E+00  0.6325E+02
     23.170  0.4803E-02  0.6326E+02
     23.292  0.9564E-16  0.6329E+02
     23.414  0.4307E+00  0.6335E+02
     23.535  0.0000E+00  0.6335E+02
     23.657  0.1809E-02  0.6335E+02
     23.779  0.4304E+00  0.6342E+02
     23.901  0.3231E+00  0.6346E+02
     24.023  0.6094E-01  0.6352E+02
     24.145  0.3006E-12  0.6355E+02
     24.266  0.1436E+00  0.6357E+02
     24.388  0.1435E+00  0.6358E+02
     24.510  0.1434E+00  0.6364E+02
     24.632  0.0000E+00  0.6367E+02
     24.754  0.2814E+00  0.6370E+02
     24.876  0.0000E+00  0.6371E+02
     24.997  0.0000E+00  0.6371E+02
     25.119  0.2685E+00  0.6374E+02
     25.241  0.0000E+00  0.6374E+02
     25.363  0.2870E+00  0.6378E+02
     25.485  0.2359E-14  0.6378E+02
     25.607  0.4148E+00  0.6383E+02
     25.728  0.1436E+00  0.6385E+02
     25.850  0.1435E+00  0.6387E+02
     25.972  0.0000E+00  0.6387E+02
     26.094  0.0000E+00  0.6387E+02
     26.216  0.0000E+00  0.6387E+02
     26.338  0.1435E+00  0.6389E+02
     26.460  0.0000E+00  0.6389E+02
     26.581  0.2890E+00  0.6392E+02
     26.703  0.1214E+00  0.6395E+02
     26.825  0.0000E+00  0.6396E+02
     26.947  0.0000E+00  0.6396E+02
     27.069  0.0000E+00  0.6396E+02
     27.191  0.0000E+00  0.6396E+02
     27.312  0.1436E+00  0.6397E+02
     27.434  0.5462E-02  0.6397E+02
     27.556  0.0000E+00  0.6399E+02
     27.678  0.9152E-02  0.6399E+02
     27.800  0.8882E-11  0.6399E+02
     27.922  0.4786E-01  0.6400E+02
     28.043  0.0000E+00  0.6400E+02
     28.165  0.0000E+00  0.6400E+02
     28.287  0.0000E+00  0.6400E+02
     28.409  0.0000E+00  0.6400E+02
     28.531  0.0000E+00  0.6400E+02
     28.653  0.0000E+00  0.6400E+02
     28.774  0.0000E+00  0.6400E+02
     28.896  0.0000E+00  0.6400E+02
     29.018  0.0000E+00  0.6400E+02
     29.140  0.0000E+00  0.6400E+02
     29.262  0.0000E+00  0.6400E+02
     29.384  0.0000E+00  0.6400E+02
     29.505  0.0000E+00  0.6400E+02
