    4    4    1    1
  0.1030698E+02  0.3454595E-09  0.3454595E-09  0.3454595E-09  0.5000000E-15
  1.000000000000000E-004
  CAR 
 unknown system                          
   44  120   32
 
  0.0000000E+00  0.0000000E+00  0.0000000E+00  0.3644315E-03
   1       -5.3848
   2       -0.7187
   3       -0.7187
   4       -0.7187
   5       -0.1702
   6       -0.1702
   7       -0.1702
   8        1.5491
   9        1.5491
  10        1.5491
  11        2.5720
  12        2.5720
  13        3.2497
  14        3.2497
  15        3.2497
  16        3.4408
  17        3.4408
  18        3.4408
  19        3.4408
  20        3.4408
  21        3.4408
  22        6.4710
  23        6.4710
  24        6.4710
  25       13.1842
  26       13.1842
  27       13.1843
  28       19.3681
  29       19.3681
  30       19.3681
  31       19.3681
  32       19.3681
 
  0.7142857E-01  0.0000000E+00  0.0000000E+00  0.2186589E-02
   1       -5.3163
   2       -0.7160
   3       -0.6844
   4       -0.6844
   5       -0.1500
   6       -0.1487
   7       -0.1487
   8        1.5260
   9        1.5671
  10        1.5671
  11        2.5510
  12        2.5803
  13        3.2226
  14        3.2226
  15        3.2411
  16        3.2935
  17        3.2935
  18        3.4089
  19        3.4089
  20        3.4408
  21        3.4408
  22        6.0794
  23        6.6772
  24        6.6772
  25       13.2041
  26       13.2041
  27       13.7033
  28       18.9034
  29       18.9034
  30       19.1000
  31       19.1000
  32       19.4715
 
  0.1428571E+00  0.0000000E+00  0.0000000E+00  0.2186589E-02
   1       -5.1118
   2       -0.7168
   3       -0.5849
   4       -0.5849
   5       -0.0904
   6       -0.0841
   7       -0.0841
   8        1.4583
   9        1.6210
  10        1.6210
  11        2.4898
  12        2.6048
  13        2.9380
  14        2.9380
  15        3.1430
  16        3.1430
  17        3.2154
  18        3.3166
  19        3.3166
  20        3.4410
  21        3.4410
  22        5.1690
  23        7.2094
  24        7.2094
  25       13.2650
  26       13.2650
  27       15.0025
  28       17.8650
  29       17.8650
  30       18.4333
  31       18.4333
  32       19.7781
 
  0.2142857E+00  0.0000000E+00  0.0000000E+00  0.2186589E-02
   1       -4.7755
   2       -0.7522
   3       -0.4310
   4       -0.4310
   5        0.0063
   6        0.0244
   7        0.0244
   8        1.3498
   9        1.7096
  10        1.7096
  11        2.3940
  12        2.5024
  13        2.5024
  14        2.6443
  15        3.0176
  16        3.0176
  17        3.1731
  18        3.1731
  19        3.1741
  20        3.4412
  21        3.4412
  22        4.1222
  23        7.9383
  24        7.9383
  25       13.3708
  26       13.3708
  27       16.6457
  28       16.6457
  29       16.7216
  30       17.6054
  31       17.6054
  32       20.2772
 
  0.2857143E+00  0.0000000E+00  0.0000000E+00  0.2186589E-02
   1       -4.3150
   2       -0.8831
   3       -0.2427
   4       -0.2427
   5        0.1360
   6        0.1776
   7        0.1776
   8        1.2071
   9        1.8314
  10        1.8314
  11        2.0583
  12        2.0583
  13        2.2740
  14        2.6970
  15        2.8603
  16        2.8603
  17        2.9917
  18        2.9917
  19        3.1195
  20        3.1764
  21        3.4414
  22        3.4414
  23        8.7914
  24        8.7914
  25       13.5261
  26       13.5261
  27       15.3947
  28       15.3947
  29       16.7804
  30       16.7804
  31       18.6677
  32       20.9536
 
  0.3571429E+00  0.0000000E+00  0.0000000E+00  0.2186589E-02
   1       -3.7441
   2       -1.1929
   3       -0.0516
   4       -0.0516
   5        0.2931
   6        0.3766
   7        0.3766
   8        1.0382
   9        1.6375
  10        1.6375
  11        1.9835
  12        1.9835
  13        2.1470
  14        2.4865
  15        2.6966
  16        2.6966
  17        2.7604
  18        2.7868
  19        2.7868
  20        3.0544
  21        3.4416
  22        3.4416
  23        9.7349
  24        9.7349
  25       13.7309
  26       13.7309
  27       14.1637
  28       14.1637
  29       16.0510
  30       16.0510
  31       20.7401
  32       21.7896
 
  0.4285714E+00  0.0000000E+00  0.0000000E+00  0.2186589E-02
   1       -3.0863
   2       -1.7175
   3        0.0974
   4        0.0974
   5        0.4706
   6        0.6223
   7        0.6223
   8        0.8526
   9        1.2543
  10        1.2543
  11        2.0412
  12        2.1166
  13        2.1618
  14        2.1618
  15        2.5662
  16        2.5662
  17        2.5724
  18        2.5724
  19        2.8314
  20        2.9822
  21        3.4417
  22        3.4417
  23       10.7522
  24       10.7522
  25       12.9733
  26       12.9733
  27       13.9594
  28       13.9594
  29       15.4918
  30       15.4918
  31       22.7675
  32       22.7788
 
  0.5000000E+00  0.0000000E+00  0.0000000E+00  0.1093294E-02
   1       -2.3851
   2       -2.3851
   3        0.1550
   4        0.1550
   5        0.6601
   6        0.6601
   7        0.9150
   8        0.9150
   9        0.9150
  10        0.9150
  11        2.0043
  12        2.0043
  13        2.3607
  14        2.3607
  15        2.3607
  16        2.3607
  17        2.5152
  18        2.5152
  19        2.9066
  20        2.9066
  21        3.4418
  22        3.4418
  23       11.8339
  24       11.8339
  25       11.8339
  26       11.8339
  27       14.0866
  28       14.0866
  29       15.2520
  30       15.2520
  31       23.8701
  32       23.8701
 
  0.7142857E-01  0.7142857E-01  0.0000000E+00  0.4373178E-02
   1       -5.2479
   2       -0.6811
   3       -0.6811
   4       -0.6506
   5       -0.1289
   6       -0.1289
   7       -0.1278
   8        1.5127
   9        1.5758
  10        1.5838
  11        2.5450
  12        2.5749
  13        3.1818
  14        3.1938
  15        3.1938
  16        3.1963
  17        3.2757
  18        3.2757
  19        3.4089
  20        3.4089
  21        3.4206
  22        6.2852
  23        6.2852
  24        6.8683
  25       13.2233
  26       13.7297
  27       13.7297
  28       17.9584
  29       19.0011
  30       19.0011
  31       19.1999
  32       19.1999
 
  0.1428571E+00  0.7142857E-01  0.0000000E+00  0.8746356E-02
   1       -5.0442
   2       -0.6803
   3       -0.5800
   4       -0.5527
   5       -0.0701
   6       -0.0651
   7       -0.0648
   8        1.4511
   9        1.6245
  10        1.6334
  11        2.4912
  12        2.5962
  13        2.8658
  14        2.8765
  15        3.0935
  16        3.1192
  17        3.1514
  18        3.2361
  19        3.3164
  20        3.4088
  21        3.4095
  22        5.3873
  23        6.8041
  24        7.3723
  25       13.2808
  26       13.8106
  27       15.0383
  28       16.7620
  29       17.9555
  30       18.5258
  31       19.2896
  32       19.4087
 
  0.2142857E+00  0.7142857E-01  0.0000000E+00  0.8746356E-02
   1       -4.7092
   2       -0.7130
   3       -0.4234
   4       -0.4011
   5        0.0252
   6        0.0404
   7        0.0419
   8        1.3459
   9        1.7117
  10        1.7140
  11        2.4005
  12        2.4430
  13        2.4574
  14        2.6389
  15        2.9080
  16        2.9975
  17        3.0242
  18        3.1728
  19        3.1814
  20        3.4068
  21        3.4087
  22        4.3902
  23        7.4984
  24        8.0774
  25       13.3730
  26       13.9505
  27       15.5605
  28       16.7326
  29       16.7614
  30       17.6909
  31       18.7413
  32       19.7567
 
  0.2857143E+00  0.7142857E-01  0.0000000E+00  0.8746356E-02
   1       -4.2506
   2       -0.8403
   3       -0.2313
   4       -0.2148
   5        0.1529
   6        0.1879
   7        0.1928
   8        1.2062
   9        1.8192
  10        1.8326
  11        2.0037
  12        2.0319
  13        2.2919
  14        2.6160
  15        2.6968
  16        2.8446
  17        2.8670
  18        2.9912
  19        3.1003
  20        3.4063
  21        3.4086
  22        3.5787
  23        8.2951
  24        8.9133
  25       13.4501
  26       14.1536
  27       14.4692
  28       15.4808
  29       16.8626
  30       17.8993
  31       18.6995
  32       20.3839
 
  0.3571429E+00  0.7142857E-01  0.0000000E+00  0.8746356E-02
   1       -3.6821
   2       -1.1462
   3       -0.0352
   4       -0.0237
   5        0.3076
   6        0.3768
   7        0.3888
   8        1.0405
   9        1.5901
  10        1.6242
  11        1.9217
  12        1.9842
  13        2.2079
  14        2.2467
  15        2.6857
  16        2.7029
  17        2.7668
  18        2.7863
  19        2.9255
  20        3.1619
  21        3.4065
  22        3.4083
  23        9.1612
  24        9.8445
  25       13.0112
  26       14.0144
  27       14.2509
  28       14.4109
  29       16.1446
  30       17.0651
  31       20.6923
  32       21.1485
 
  0.4285714E+00  0.7142857E-01  0.0000000E+00  0.8746356E-02
   1       -3.0276
   2       -1.6667
   3        0.1198
   4        0.1265
   5        0.4823
   6        0.6084
   7        0.6305
   8        0.8581
   9        1.2157
  10        1.2504
  11        1.9349
  12        1.9886
  13        2.1621
  14        2.2592
  15        2.5604
  16        2.5702
  17        2.5720
  18        2.6627
  19        2.8461
  20        3.0259
  21        3.4069
  22        3.4079
  23       10.0800
  24       10.8530
  25       12.0376
  26       13.0634
  27       14.2166
  28       14.6289
  29       15.6812
  30       16.3314
  31       22.0249
  32       22.1658
 
  0.5000000E+00  0.7142857E-01  0.0000000E+00  0.4373178E-02
   1       -2.3302
   2       -2.3302
   3        0.1825
   4        0.1825
   5        0.6688
   6        0.6688
   7        0.8875
   8        0.8875
   9        0.9180
  10        0.9180
  11        1.9110
  12        1.9110
  13        2.3606
  14        2.3606
  15        2.4346
  16        2.4346
  17        2.5148
  18        2.5148
  19        2.9320
  20        2.9320
  21        3.4074
  22        3.4074
  23       11.0420
  24       11.0420
  25       11.9284
  26       11.9284
  27       14.5180
  28       14.5180
  29       15.7864
  30       15.7864
  31       22.9849
  32       22.9850
 
  0.1428571E+00  0.1428571E+00  0.0000000E+00  0.4373178E-02
   1       -4.8427
   2       -0.5744
   3       -0.5744
   4       -0.4594
   5       -0.0089
   6       -0.0089
   7       -0.0071
   8        1.4118
   9        1.6541
  10        1.6702
  11        2.4708
  12        2.5972
  13        2.6461
  14        2.7191
  15        2.7191
  16        3.0492
  17        3.1485
  18        3.1485
  19        3.3159
  20        3.3159
  21        3.3604
  22        5.8983
  23        5.8983
  24        7.8189
  25       13.3187
  26       15.1467
  27       15.1467
  28       15.4516
  29       18.2223
  30       18.2223
  31       18.8017
  32       18.8017
 
  0.2142857E+00  0.1428571E+00  0.0000000E+00  0.8746356E-02
   1       -4.5116
   2       -0.5988
   3       -0.4096
   4       -0.3147
   5        0.0820
   6        0.0887
   7        0.0935
   8        1.3248
   9        1.7275
  10        1.7281
  11        2.2839
  12        2.3195
  13        2.4028
  14        2.4864
  15        2.6405
  16        2.9379
  17        3.0261
  18        3.1120
  19        3.1718
  20        3.3151
  21        3.3316
  22        4.9136
  23        6.5432
  24        8.4696
  25       13.2844
  26       14.3216
  27       15.3275
  28       16.8773
  29       16.9891
  30       17.9505
  31       18.6534
  32       19.2614
 
  0.2857143E+00  0.1428571E+00  0.0000000E+00  0.8746356E-02
   1       -4.0588
   2       -0.7154
   3       -0.2058
   4       -0.1346
   5        0.2038
   6        0.2197
   7        0.2379
   8        1.1985
   9        1.7933
  10        1.8421
  11        1.8573
  12        1.9509
  13        2.1966
  14        2.3190
  15        2.7131
  16        2.7974
  17        2.8727
  18        2.9900
  19        3.0329
  20        3.3141
  21        3.3184
  22        4.0899
  23        7.2606
  24        9.2630
  25       12.6557
  26       13.9342
  27       15.5643
  28       15.7349
  29       17.1310
  30       18.7568
  31       19.2307
  32       19.5611
 
  0.3571429E+00  0.1428571E+00  0.0000000E+00  0.8746356E-02
   1       -3.4982
   2       -1.0096
   3        0.0059
   4        0.0560
   5        0.3512
   6        0.3794
   7        0.4248
   8        1.0444
   9        1.4629
  10        1.5828
  11        1.8309
  12        1.9222
  13        1.9895
  14        2.2779
  15        2.6516
  16        2.7098
  17        2.7851
  18        2.8056
  19        2.8976
  20        3.3128
  21        3.3129
  22        3.5359
  23        8.0304
  24       10.1625
  25       11.6422
  26       14.0986
  27       14.5083
  28       15.7013
  29       16.5891
  30       18.7830
  31       19.9338
  32       20.2444
 
  0.4285714E+00  0.1428571E+00  0.0000000E+00  0.8746356E-02
   1       -2.8537
   2       -1.5179
   3        0.1801
   4        0.2111
   5        0.5172
   6        0.5689
   7        0.6545
   8        0.8730
   9        1.1112
  10        1.2375
  11        1.7685
  12        1.8004
  13        2.1647
  14        2.3433
  15        2.5400
  16        2.5715
  17        2.5732
  18        2.7037
  19        2.9150
  20        3.2260
  21        3.3109
  22        3.3117
  23        8.8481
  24       10.6485
  25       11.1476
  26       13.3285
  27       14.4174
  28       15.3430
  29       16.7625
  30       18.0047
  31       20.7420
  32       21.2185
 
  0.5000000E+00  0.1428571E+00  0.0000000E+00  0.4373178E-02
   1       -2.1684
   2       -2.1684
   3        0.2611
   4        0.2611
   5        0.6941
   6        0.6941
   7        0.8102
   8        0.8102
   9        0.9262
  10        0.9262
  11        1.7503
  12        1.7503
  13        2.3614
  14        2.3614
  15        2.5007
  16        2.5007
  17        2.5077
  18        2.5077
  19        3.0463
  20        3.0463
  21        3.3109
  22        3.3109
  23        9.7181
  24        9.7181
  25       12.2057
  26       12.2057
  27       14.8428
  28       14.8428
  29       17.3102
  30       17.3102
  31       21.6363
  32       21.6363
 
  0.2142857E+00  0.2142857E+00  0.0000000E+00  0.4373178E-02
   1       -4.1873
   2       -0.4204
   3       -0.4204
   4       -0.1809
   5        0.1688
   6        0.1770
   7        0.1770
   8        1.2685
   9        1.7492
  10        1.7792
  11        2.0583
  12        2.0583
  13        2.0949
  14        2.3675
  15        2.6869
  16        2.8420
  17        2.9980
  18        2.9980
  19        3.1704
  20        3.1704
  21        3.2616
  22        5.5167
  23        5.5167
  24        9.0616
  25       12.5215
  26       13.8936
  27       17.0404
  28       17.0404
  29       17.4035
  30       17.4035
  31       18.4195
  32       18.4195
 
  0.2857143E+00  0.2142857E+00  0.0000000E+00  0.8746356E-02
   1       -3.7445
   2       -0.5193
   3       -0.1971
   4       -0.0134
   5        0.2751
   6        0.2886
   7        0.3105
   8        1.1716
   9        1.6582
  10        1.7684
  11        1.8113
  12        1.8132
  13        1.8742
  14        2.3080
  15        2.7195
  16        2.7824
  17        2.8518
  18        2.9251
  19        2.9883
  20        3.1687
  21        3.2152
  22        4.6320
  23        6.1671
  24        9.8041
  25       11.3856
  26       14.0147
  27       16.1457
  28       17.0008
  29       17.8775
  30       17.9596
  31       18.5099
  32       19.4885
 
  0.3571429E+00  0.2142857E+00  0.0000000E+00  0.8746356E-02
   1       -3.1977
   2       -0.7945
   3        0.0407
   4        0.1733
   5        0.3915
   6        0.4231
   7        0.4824
   8        1.0426
   9        1.2963
  10        1.5103
  11        1.6220
  12        1.7555
  13        2.0087
  14        2.2816
  15        2.5919
  16        2.6934
  17        2.7844
  18        2.8014
  19        2.9116
  20        3.1673
  21        3.1888
  22        3.9779
  23        6.8615
  24       10.3004
  25       10.6629
  26       14.2797
  27       14.9238
  28       16.3958
  29       18.0829
  30       18.6393
  31       19.3434
  32       20.6489
 
  0.4285714E+00  0.2142857E+00  0.0000000E+00  0.8746356E-02
   1       -2.5715
   2       -1.2817
   3        0.2490
   4        0.3434
   5        0.5080
   6        0.5740
   7        0.6920
   8        0.8930
   9        0.9765
  10        1.2129
  11        1.5572
  12        1.6880
  13        2.1754
  14        2.3372
  15        2.4976
  16        2.5555
  17        2.5728
  18        2.6370
  19        3.0701
  20        3.1670
  21        3.1751
  22        3.5479
  23        7.6075
  24        9.3121
  25       11.6162
  26       13.7554
  27       14.6509
  28       15.7180
  29       18.5788
  30       19.4257
  31       19.9209
  32       20.1526
 
  0.5000000E+00  0.2142857E+00  0.0000000E+00  0.4373178E-02
   1       -1.9084
   2       -1.9084
   3        0.3716
   4        0.3716
   5        0.7040
   6        0.7040
   7        0.7335
   8        0.7335
   9        0.9371
  10        0.9371
  11        1.6003
  12        1.6003
  13        2.3663
  14        2.3663
  15        2.4677
  16        2.4677
  17        2.4806
  18        2.4806
  19        3.1689
  20        3.1689
  21        3.2695
  22        3.2695
  23        8.4189
  24        8.4189
  25       12.6503
  26       12.6503
  27       15.1298
  28       15.1298
  29       19.2067
  30       19.2067
  31       20.3044
  32       20.3044
 
  0.2857143E+00  0.2857143E+00  0.0000000E+00  0.4373178E-02
   1       -3.3169
   2       -0.2718
   3       -0.2718
   4        0.1324
   5        0.3532
   6        0.4070
   7        0.4070
   8        1.1143
   9        1.4651
  10        1.4651
  11        1.6255
  12        1.7434
  13        1.9432
  14        2.2604
  15        2.6167
  16        2.7866
  17        2.7866
  18        2.9114
  19        2.9872
  20        2.9872
  21        3.1269
  22        5.2068
  23        5.2068
  24       10.1717
  25       10.4984
  26       14.2323
  27       16.6973
  28       16.6973
  29       17.7264
  30       17.7264
  31       19.6654
  32       19.6654
 
  0.3571429E+00  0.2857143E+00  0.0000000E+00  0.8746356E-02
   1       -2.7915
   2       -0.5221
   3       -0.0040
   4        0.2873
   5        0.4389
   6        0.5223
   7        0.5579
   8        1.0249
   9        1.1599
  10        1.3589
  11        1.4050
  12        1.6953
  13        2.0541
  14        2.2293
  15        2.5074
  16        2.6349
  17        2.6720
  18        2.7856
  19        2.9878
  20        3.0645
  21        3.0834
  22        4.4581
  23        5.8236
  24        9.0752
  25       11.3156
  26       14.5480
  27       15.4814
  28       16.8880
  29       17.3731
  30       18.3706
  31       20.0808
  32       21.0599
 
  0.4285714E+00  0.2857143E+00  0.0000000E+00  0.8746356E-02
   1       -2.1939
   2       -0.9780
   3        0.2394
   4        0.4261
   5        0.5120
   6        0.6501
   7        0.7393
   8        0.8960
   9        0.9109
  10        1.1728
  11        1.3768
  12        1.6005
  13        2.2028
  14        2.2657
  15        2.4279
  16        2.4997
  17        2.5225
  18        2.5792
  19        2.9922
  20        3.0254
  21        3.2943
  22        3.9268
  23        6.4981
  24        8.1043
  25       12.2349
  26       14.3267
  27       14.9651
  28       16.1339
  29       18.1577
  30       19.1018
  31       20.0081
  32       20.6263
 
  0.5000000E+00  0.2857143E+00  0.0000000E+00  0.4373178E-02
   1       -1.5667
   2       -1.5667
   3        0.4034
   4        0.4034
   5        0.6733
   6        0.6733
   7        0.7826
   8        0.7826
   9        0.9468
  10        0.9468
  11        1.4777
  12        1.4777
  13        2.3735
  14        2.3735
  15        2.3811
  16        2.3811
  17        2.4211
  18        2.4211
  19        3.0033
  20        3.0033
  21        3.5609
  22        3.5609
  23        7.2510
  24        7.2510
  25       13.2419
  26       13.2419
  27       15.4918
  28       15.4918
  29       19.0390
  30       19.0390
  31       19.9346
  32       19.9346
 
  0.3571429E+00  0.3571429E+00  0.0000000E+00  0.4373178E-02
   1       -2.2970
   2       -0.2263
   3       -0.2263
   4        0.3343
   5        0.5570
   6        0.6464
   7        0.6464
   8        0.9839
   9        1.1378
  10        1.1378
  11        1.2699
  12        1.6291
  13        2.1358
  14        2.1761
  15        2.4113
  16        2.5291
  17        2.5291
  18        2.7918
  19        2.7918
  20        2.9606
  21        3.3022
  22        4.9838
  23        4.9838
  24        7.9908
  25       12.0950
  26       14.9101
  27       16.1643
  28       16.1643
  29       17.4572
  30       17.4572
  31       19.9050
  32       20.8036
 
  0.4285714E+00  0.3571429E+00  0.0000000E+00  0.8746356E-02
   1       -1.7421
   2       -0.6385
   3        0.0444
   4        0.3232
   5        0.6927
   6        0.7414
   7        0.7914
   8        0.9187
   9        0.9602
  10        1.1141
  11        1.2324
  12        1.5247
  13        2.1804
  14        2.2570
  15        2.3370
  16        2.3921
  17        2.4017
  18        2.5955
  19        2.8067
  20        2.8849
  21        3.5678
  22        4.3556
  23        5.5738
  24        7.0533
  25       12.9814
  26       15.0246
  27       15.3752
  28       16.6462
  29       16.9580
  30       18.1303
  31       18.8347
  32       19.8032
 
  0.5000000E+00  0.3571429E+00  0.0000000E+00  0.4373178E-02
   1       -1.1692
   2       -1.1692
   3        0.2356
   4        0.2356
   5        0.8195
   6        0.8195
   7        0.8350
   8        0.8350
   9        0.9505
  10        0.9505
  11        1.3801
  12        1.3801
  13        2.2614
  14        2.2614
  15        2.3286
  16        2.3286
  17        2.4133
  18        2.4133
  19        2.8356
  20        2.8356
  21        3.9031
  22        3.9031
  23        6.2545
  24        6.2545
  25       13.9612
  26       13.9612
  27       15.9519
  28       15.9519
  29       17.8508
  30       17.8508
  31       18.9120
  32       18.9120
 
  0.4285714E+00  0.4285714E+00  0.0000000E+00  0.4373178E-02
   1       -1.2475
   2       -0.3062
   3       -0.3062
   4        0.1803
   5        0.8417
   6        0.8417
   7        0.8634
   8        0.9101
   9        1.0362
  10        1.1160
  11        1.1160
  12        1.4287
  13        2.1378
  14        2.2541
  15        2.2796
  16        2.2796
  17        2.3457
  18        2.6281
  19        2.6281
  20        2.7690
  21        3.8961
  22        4.8511
  23        4.8511
  24        6.1694
  25       13.8382
  26       15.8342
  27       15.8342
  28       15.8908
  29       17.2662
  30       17.2662
  31       17.7457
  32       18.8440
 
  0.5000000E+00  0.4285714E+00  0.0000000E+00  0.4373178E-02
   1       -0.7527
   2       -0.7527
   3       -0.0259
   4       -0.0259
   5        0.8833
   6        0.8833
   7        0.9429
   8        0.9429
   9        1.0029
  10        1.0029
  11        1.2873
  12        1.2873
  13        2.1758
  14        2.1758
  15        2.2263
  16        2.2263
  17        2.4709
  18        2.4709
  19        2.6839
  20        2.6839
  21        4.3080
  22        4.3080
  23        5.4441
  24        5.4441
  25       14.7921
  26       14.7921
  27       16.5196
  28       16.5196
  29       16.7440
  30       16.7440
  31       17.9981
  32       17.9981
 
  0.5000000E+00  0.5000000E+00  0.0000000E+00  0.1093294E-02
   1       -0.3601
   2       -0.3601
   3       -0.3601
   4       -0.3601
   5        0.9206
   6        0.9206
   7        0.9206
   8        0.9206
   9        1.1662
  10        1.1662
  11        1.1662
  12        1.1662
  13        2.1615
  14        2.1615
  15        2.1615
  16        2.1615
  17        2.5606
  18        2.5606
  19        2.5606
  20        2.5606
  21        4.8074
  22        4.8074
  23        4.8074
  24        4.8074
  25       15.7225
  26       15.7225
  27       15.7225
  28       15.7225
  29       17.2005
  30       17.2005
  31       17.2005
  32       17.2005
 
  0.7142857E-01  0.7142857E-01  0.7142857E-01  0.2915452E-02
   1       -5.1799
   2       -0.6469
   3       -0.6469
   4       -0.6469
   5       -0.1082
   6       -0.1082
   7       -0.1082
   8        1.5001
   9        1.5917
  10        1.5917
  11        2.5550
  12        2.5550
  13        3.1389
  14        3.1389
  15        3.1389
  16        3.1759
  17        3.1759
  18        3.1759
  19        3.4021
  20        3.4021
  21        3.4021
  22        6.4729
  23        6.4729
  24        6.4729
  25       13.7555
  26       13.7555
  27       13.7555
  28       18.0512
  29       18.0512
  30       18.0512
  31       19.6727
  32       19.6727
 
  0.1428571E+00  0.7142857E-01  0.7142857E-01  0.8746356E-02
   1       -4.9769
   2       -0.6447
   3       -0.5475
   4       -0.5475
   5       -0.0502
   6       -0.0461
   7       -0.0461
   8        1.4435
   9        1.6343
  10        1.6391
  11        2.4975
  12        2.5843
  13        2.8117
  14        2.8117
  15        3.0091
  16        3.1048
  17        3.1048
  18        3.1121
  19        3.3526
  20        3.3928
  21        3.3928
  22        5.5760
  23        6.9599
  24        6.9599
  25       13.8328
  26       13.8328
  27       15.0730
  28       16.8514
  29       16.8514
  30       18.3265
  31       19.5045
  32       19.5045
 
  0.2142857E+00  0.7142857E-01  0.7142857E-01  0.8746356E-02
   1       -4.6432
   2       -0.6750
   3       -0.3936
   4       -0.3936
   5        0.0438
   6        0.0577
   7        0.0577
   8        1.3422
   9        1.7133
  10        1.7175
  11        2.4017
  12        2.4017
  13        2.4103
  14        2.6316
  15        2.7870
  16        2.9908
  17        2.9908
  18        3.0023
  19        3.2848
  20        3.3859
  21        3.3859
  22        4.5892
  23        7.6276
  24        7.6276
  25       13.9548
  26       13.9548
  27       15.6535
  28       15.6535
  29       16.7965
  30       18.7779
  31       18.8281
  32       18.8281
 
  0.2857143E+00  0.7142857E-01  0.7142857E-01  0.8746356E-02
   1       -4.1867
   2       -0.7991
   3       -0.2039
   4       -0.2039
   5        0.1699
   6        0.2028
   7        0.2028
   8        1.2058
   9        1.8140
  10        1.8255
  11        1.9805
  12        1.9805
  13        2.3131
  14        2.4699
  15        2.6945
  16        2.8430
  17        2.8430
  18        2.8521
  19        3.2074
  20        3.3818
  21        3.3818
  22        3.7650
  23        8.4043
  24        8.4043
  25       13.9872
  26       13.9872
  27       14.6589
  28       14.6589
  29       17.9792
  30       17.9792
  31       18.6843
  32       19.4399
 
  0.3571429E+00  0.7142857E-01  0.7142857E-01  0.8746356E-02
   1       -3.6209
   2       -1.1013
   3       -0.0080
   4       -0.0080
   5        0.3225
   6        0.3876
   7        0.3876
   8        1.0434
   9        1.5808
  10        1.5808
  11        1.8944
  12        1.9608
  13        2.1275
  14        2.2615
  15        2.6750
  16        2.6862
  17        2.6862
  18        2.7700
  19        3.1235
  20        3.2015
  21        3.3795
  22        3.3795
  23        9.2531
  24        9.2531
  25       13.1990
  26       13.1990
  27       14.6254
  28       14.6254
  29       17.1425
  30       17.1425
  31       19.9641
  32       20.9696
 
  0.4285714E+00  0.7142857E-01  0.7142857E-01  0.8746356E-02
   1       -2.9698
   2       -1.6177
   3        0.1487
   4        0.1487
   5        0.4947
   6        0.6104
   7        0.6104
   8        0.8644
   9        1.2200
  10        1.2200
  11        1.8854
  12        1.9089
  13        2.1199
  14        2.3484
  15        2.4858
  16        2.5598
  17        2.5598
  18        2.8264
  19        2.8544
  20        3.0348
  21        3.3784
  22        3.3784
  23       10.1472
  24       10.1472
  25       12.1861
  26       12.1861
  27       14.9547
  28       14.9547
  29       16.4247
  30       16.4247
  31       20.8357
  32       22.7649
 
  0.5000000E+00  0.7142857E-01  0.7142857E-01  0.4373178E-02
   1       -2.2766
   2       -2.2766
   3        0.2104
   4        0.2104
   5        0.6783
   6        0.6783
   7        0.8209
   8        0.8209
   9        0.9615
  10        0.9615
  11        1.8526
  12        1.8526
  13        2.2974
  14        2.2974
  15        2.5101
  16        2.5101
  17        2.5503
  18        2.5503
  19        2.9440
  20        2.9440
  21        3.3781
  22        3.3781
  23       10.8726
  24       10.8726
  25       11.4173
  26       11.4173
  27       15.2008
  28       15.2008
  29       16.0497
  30       16.0497
  31       21.7653
  32       21.7653
 
  0.1428571E+00  0.1428571E+00  0.7142857E-01  0.8746356E-02
   1       -4.7764
   2       -0.5411
   3       -0.5411
   4       -0.4535
   5        0.0095
   6        0.0095
   7        0.0110
   8        1.4056
   9        1.6627
  10        1.6725
  11        2.4866
  12        2.5802
  13        2.5973
  14        2.6605
  15        2.6605
  16        3.0127
  17        3.0483
  18        3.0483
  19        3.3489
  20        3.3489
  21        3.3625
  22        6.0431
  23        6.0431
  24        7.3825
  25       13.8850
  26       15.1734
  27       15.1734
  28       15.5474
  29       17.1197
  30       17.1197
  31       19.7888
  32       19.7888
 
  0.2142857E+00  0.1428571E+00  0.7142857E-01  0.1749271E-01
   1       -4.4468
   2       -0.5644
   3       -0.3803
   4       -0.3076
   5        0.0997
   6        0.1055
   7        0.1091
   8        1.3223
   9        1.7260
  10        1.7303
  11        2.2491