       N       E                     dE             d eps       ncg     rms          rms(c)
DAV:   1     0.272681524746E+03    0.27268E+03   -0.20248E+04  8224   0.216E+03
DAV:   2     0.484496238836E+00   -0.27220E+03   -0.25728E+03  7736   0.356E+02
DAV:   3    -0.176802594270E+02   -0.18165E+02   -0.17860E+02  8592   0.115E+02
DAV:   4    -0.178751913481E+02   -0.19493E+00   -0.19484E+00  8472   0.137E+01
DAV:   5    -0.178755572513E+02   -0.36590E-03   -0.36590E-03  8576   0.567E-01    0.141E+01
DAV:   6    -0.151912240107E+02    0.26843E+01   -0.19355E+01  8448   0.738E+01    0.452E+00
DAV:   7    -0.143729055262E+02    0.81832E+00   -0.30276E+00  8752   0.283E+01    0.145E+00
DAV:   8    -0.143110038753E+02    0.61902E-01   -0.21993E-02  9408   0.122E+00    0.531E-01
DAV:   9    -0.143047086146E+02    0.62953E-02   -0.46587E-03 10016   0.110E+00    0.322E-02
DAV:  10    -0.143047905944E+02   -0.81980E-04   -0.59542E-04  8536   0.187E-01    0.668E-03
DAV:  11    -0.143047877517E+02    0.28427E-05   -0.53912E-05  8560   0.911E-02    0.552E-03
DAV:  12    -0.143047917696E+02   -0.40179E-05   -0.89320E-07  8664   0.169E-02    0.873E-04
DAV:  13    -0.143047922895E+02   -0.51985E-06   -0.47932E-08  8232   0.288E-03    0.173E-04
DAV:  14    -0.143047922862E+02    0.32160E-08   -0.25932E-09  4784   0.424E-04
   1 F= -.14304792E+02 E0= -.14304745E+02  d E =-.953084E-04
